                         Program Version 6.0.0  -   RELEASE  -
|  1> ! B3LYP 6-31G* SP
|  2>
|  3> * xyz 0 1
|  4> O 4.9622 0.1389 0.7205
|  5> C 4.1077 0.2132 -0.2024
|  6> O 4.5256 0.3947 -1.5171
|  7> C 2.6733 0.1096 0.1000
|  8> S 1.4376 0.1927 -1.0373
|  9> C 0.2102 -0.0050 0.1054
| 10> C -1.2425 -0.0367 -0.1814
| 11> C -1.7248 0.1032 -1.4969
| 12> C -3.0990 0.0714 -1.7541
| 13> C -4.0052 -0.0998 -0.7056
| 14> C -3.5391 -0.2397 0.6033
| 15> C -2.1662 -0.2087 0.8666
| 16> N 0.7278 -0.1345 1.3497
| 17> C 2.0867 -0.0718 1.3505
| 18> O 2.8228 -0.1827 2.5258
| 19> H 5.5102 0.4682 -1.7441
| 20> H -1.0453 0.2372 -2.3282
| 21> H -3.4615 0.1798 -2.7683
| 22> H -5.0683 -0.1241 -0.9072
| 23> H -4.2423 -0.3724 1.4154
| 24> H -1.8288 -0.3193 1.8895
| 25> H 2.3588 -0.3141 3.4164
| 26> *
| 27>
| 28>                          ****END OF INPUT****

CARTESIAN COORDINATES (ANGSTROEM)
---------------------------------
  O      4.962200    0.138900    0.720500
  C      4.107700    0.213200   -0.202400
  O      4.525600    0.394700   -1.517100
  C      2.673300    0.109600    0.100000
  S      1.437600    0.192700   -1.037300
  C      0.210200   -0.005000    0.105400
  C     -1.242500   -0.036700   -0.181400
  C     -1.724800    0.103200   -1.496900
  C     -3.099000    0.071400   -1.754100
  C     -4.005200   -0.099800   -0.705600
  C     -3.539100   -0.239700    0.603300
  C     -2.166200   -0.208700    0.866600
  N      0.727800   -0.134500    1.349700
  C      2.086700   -0.071800    1.350500
  O      2.822800   -0.182700    2.525800
  H      5.510200    0.468200   -1.744100
  H     -1.045300    0.237200   -2.328200
  H     -3.461500    0.179800   -2.768300
  H     -5.068300   -0.124100   -0.907200
  H     -4.242300   -0.372400    1.415400
  H     -1.828800   -0.319300    1.889500
  H      2.358800   -0.314100    3.416400

 Total Charge           Charge          ....    0
 Multiplicity           Mult            ....    1
 Number of Electrons    NEL             ....  114
 Basis Dimension        Dim             ....  228

ORBITAL ENERGIES
----------------

  NO   OCC          E(Eh)            E(eV)
   0   2.0000     -88.907178     -2419.2873
   1   2.0000     -19.179045      -521.8883
   2   2.0000     -19.177589      -521.8487
   3   2.0000     -19.114748      -520.1387
   4   2.0000     -14.340351      -390.2208
   5   2.0000     -10.321860      -280.8721
   6   2.0000     -10.294905      -280.1386
   7   2.0000     -10.266765      -279.3729
   8   2.0000     -10.224991      -278.2362
   9   2.0000     -10.216533      -278.0060
  10   2.0000     -10.200532      -277.5706
  11   2.0000     -10.195872      -277.4438
  12   2.0000     -10.195816      -277.4423
  13   2.0000     -10.195328      -277.4290
  14   2.0000     -10.193954      -277.3916
  15   2.0000      -7.984258      -217.2627
  16   2.0000      -5.947215      -161.8319
  17   2.0000      -5.943157      -161.7215
  18   2.0000      -5.941322      -161.6716
  19   2.0000      -1.064149       -28.9570
  20   2.0000      -1.046721       -28.4827
  21   2.0000      -0.974889       -26.5281
  22   2.0000      -0.967414       -26.3247
  23   2.0000      -0.865977       -23.5644
  24   2.0000      -0.823252       -22.4018
  25   2.0000      -0.787833       -21.4380
  26   2.0000      -0.755370       -20.5547
  27   2.0000      -0.734959       -19.9992
  28   2.0000      -0.664933       -18.0937
  29   2.0000      -0.637163       -17.3381
  30   2.0000      -0.617715       -16.8089
  31   2.0000      -0.582946       -15.8628
  32   2.0000      -0.580582       -15.7984
  33   2.0000      -0.528186       -14.3727
  34   2.0000      -0.525075       -14.2880
  35   2.0000      -0.500183       -13.6107
  36   2.0000      -0.477217       -12.9857
  37   2.0000      -0.451937       -12.2978
  38   2.0000      -0.451176       -12.2771
  39   2.0000      -0.442891       -12.0517
  40   2.0000      -0.434836       -11.8325
  41   2.0000      -0.429931       -11.6990
  42   2.0000      -0.411049       -11.1852
  43   2.0000      -0.391005       -10.6398
  44   2.0000      -0.383105       -10.4248
  45   2.0000      -0.366796        -9.9810
  46   2.0000      -0.365217        -9.9381
  47   2.0000      -0.358631        -9.7589
  48   2.0000      -0.352901        -9.6029
  49   2.0000      -0.352843        -9.6013
  50   2.0000      -0.303942        -8.2707
  51   2.0000      -0.288734        -7.8568
  52   2.0000      -0.284306        -7.7364
  53   2.0000      -0.268508        -7.3065
  54   2.0000      -0.260027        -7.0757
  55   2.0000      -0.252304        -6.8655
  56   2.0000      -0.220999        -6.0137
  57   0.0000      -0.071041        -1.9331
  58   0.0000      -0.012696        -0.3455
  59   0.0000      -0.005695        -0.1550
  60   0.0000       0.021633         0.5887
  61   0.0000       0.040520         1.1026

MULLIKEN ATOMIC CHARGES
-----------------------
   0 O :   -0.439148
   1 C :    0.560408
   2 O :   -0.627223
   3 C :   -0.251816
   4 S :    0.302413
   5 C :   -0.017601
   6 C :    0.140192
   7 C :   -0.187363
   8 C :   -0.132720
   9 C :   -0.116317
  10 C :   -0.127881
  11 C :   -0.151359
  12 N :   -0.425965
  13 C :    0.510553
  14 O :   -0.615413
  15 H :    0.429637
  16 H :    0.150944
  17 H :    0.138493
  18 H :    0.136515
  19 H :    0.138545
  20 H :    0.159981
  21 H :    0.425126
Sum of atomic charges:   -0.0000000

LOEWDIN ATOMIC CHARGES
----------------------
   0 O :   -0.259760
   1 C :    0.170568
   2 O :   -0.341965
   3 C :   -0.276375
   4 S :    0.423533
   5 C :   -0.104042
   6 C :   -0.031541
   7 C :   -0.119708
   8 C :   -0.125108
   9 C :   -0.117905
  10 C :   -0.124775
  11 C :   -0.102688
  12 N :   -0.186057
  13 C :    0.116911
  14 O :   -0.310375
  15 H :    0.346043
  16 H :    0.141178
  17 H :    0.136508
  18 H :    0.135398
  19 H :    0.136574
  20 H :    0.148808
  21 H :    0.344779

  Mayer bond orders larger than 0.100000
B(  0-O ,  1-C ) :   1.8720 B(  1-C ,  2-O ) :   1.0052 B(  1-C ,  3-C ) :   1.0248
B(  2-O , 15-H ) :   0.7433 B(  3-C ,  4-S ) :   1.0652 B(  3-C ,  5-C ) :   0.1135
B(  3-C , 13-C ) :   1.4056 B(  4-S ,  5-C ) :   1.1737 B(  5-C ,  6-C ) :   1.0218
B(  5-C , 12-N ) :   1.4285 B(  6-C ,  7-C ) :   1.3896 B(  6-C , 11-C ) :   1.4049
B(  7-C ,  8-C ) :   1.4515 B(  7-C , 16-H ) :   0.9160 B(  8-C ,  9-C ) :   1.4449
B(  8-C , 17-H ) :   0.9284 B(  9-C , 10-C ) :   1.4423 B(  9-C , 18-H ) :   0.9290
B( 10-C , 11-C ) :   1.4381 B( 10-C , 19-H ) :   0.9288 B( 11-C , 20-H ) :   0.9126
B( 12-N , 13-C ) :   1.2991 B( 13-C , 14-O ) :   1.0248 B( 14-O , 21-H ) :   0.7541

FINAL SINGLE POINT ENERGY     -1063.428689687593

DIPOLE MOMENT
-------------

Method             : SCF
Type of density    : Electron Density
Multiplicity       :   1
Irrep              :   0
Energy             : -1063.4286896875933053 Eh
Relativity type    :
Basis              : AO
                                X                 Y                 Z
Electronic contribution:     10.734467243       0.459219486       0.299525876
Nuclear contribution   :    -12.063825605      -0.459647748      -0.795491465
                        -----------------------------------------
Total Dipole Moment    :     -1.329358361      -0.000428261      -0.495965589
                        -----------------------------------------
Magnitude (a.u.)       :      1.418864229
Magnitude (Debye)      :      3.606466261

Rotational constants in cm-1:             0.049802             0.009242             0.007796
Rotational constants in MHz :          1493.018250           277.082524           233.709443

                             ****ORCA TERMINATED NORMALLY****
TOTAL RUN TIME: 0 days 0 hours 1 minutes 28 seconds 479 msec
