                         Program Version 6.0.0  -   RELEASE  -
|  1> ! B3LYP 6-31G* SP
|  2>
|  3> * xyz 0 1
|  4> C -3.0745 0.7976 -2.5045
|  5> N -3.7627 0.3816 -1.2696
|  6> C -3.2351 -0.6357 -0.5072
|  7> O -2.1624 -1.2014 -0.8526
|  8> C -3.9078 -1.0455 0.6492
|  9> C -3.5610 -2.0616 1.5887
| 10> C -2.3097 -2.8932 1.5361
| 11> C -1.1166 -2.0831 1.9519
| 12> O -1.1162 -1.5242 3.0822
| 13> N 0.0269 -1.9887 1.0880
| 14> C 1.0810 -1.0270 1.2367
| 15> N 2.1910 -1.0456 0.4691
| 16> C 3.0322 -0.0121 0.7537
| 17> C 4.3279 0.1439 0.0505
| 18> C 5.0028 -1.0013 -0.3988
| 19> C 6.2161 -0.8889 -1.0749
| 20> C 6.7818 0.3650 -1.3071
| 21> F 7.9471 0.4320 -1.9999
| 22> C 6.1391 1.5330 -0.8481
| 23> C 6.7242 2.8983 -1.1454
| 24> F 6.3808 3.8097 -0.1622
| 25> F 6.2416 3.3445 -2.3616
| 26> F 8.1061 2.8471 -1.2011
| 27> C 4.8880 1.4146 -0.2024
| 28> F 4.1907 2.5345 0.1207
| 29> C 2.5855 0.8385 1.7685
| 30> S 1.0922 0.2781 2.3003
| 31> N -4.4415 -2.2215 2.6175
| 32> S -5.6586 -1.1143 2.3644
| 33> C -5.0877 -0.4121 0.9655
| 34> N -5.6285 0.5865 0.2179
| 35> C -6.9211 1.1811 0.5875
| 36> C -4.9696 0.9608 -0.9287
| 37> O -5.4777 1.8401 -1.6809
| 38> H -3.2630 1.8688 -2.7310
| 39> H -3.4277 0.1767 -3.3546
| 40> H -1.9728 0.6912 -2.4076
| 41> H -2.4072 -3.7572 2.2279
| 42> H -2.1777 -3.3124 0.5169
| 43> H 0.0907 -2.6458 0.2783
| 44> H 4.5910 -1.9880 -0.2248
| 45> H 6.7191 -1.7810 -1.4257
| 46> H 3.1109 1.6916 2.1749
| 47> H -7.0289 1.2409 1.6912
| 48> H -7.7462 0.5653 0.1719
| 49> H -7.0128 2.2194 0.2037
| 50> *
| 51>
| 52>                          ****END OF INPUT****

CARTESIAN COORDINATES (ANGSTROEM)
---------------------------------
  C     -3.074500    0.797600   -2.504500
  N     -3.762700    0.381600   -1.269600
  C     -3.235100   -0.635700   -0.507200
  O     -2.162400   -1.201400   -0.852600
  C     -3.907800   -1.045500    0.649200
  C     -3.561000   -2.061600    1.588700
  C     -2.309700   -2.893200    1.536100
  C     -1.116600   -2.083100    1.951900
  O     -1.116200   -1.524200    3.082200
  N      0.026900   -1.988700    1.088000
  C      1.081000   -1.027000    1.236700
  N      2.191000   -1.045600    0.469100
  C      3.032200   -0.012100    0.753700
  C      4.327900    0.143900    0.050500
  C      5.002800   -1.001300   -0.398800
  C      6.216100   -0.888900   -1.074900
  C      6.781800    0.365000   -1.307100
  F      7.947100    0.432000   -1.999900
  C      6.139100    1.533000   -0.848100
  C      6.724200    2.898300   -1.145400
  F      6.380800    3.809700   -0.162200
  F      6.241600    3.344500   -2.361600
  F      8.106100    2.847100   -1.201100
  C      4.888000    1.414600   -0.202400
  F      4.190700    2.534500    0.120700
  C      2.585500    0.838500    1.768500
  S      1.092200    0.278100    2.300300
  N     -4.441500   -2.221500    2.617500
  S     -5.658600   -1.114300    2.364400
  C     -5.087700   -0.412100    0.965500
  N     -5.628500    0.586500    0.217900
  C     -6.921100    1.181100    0.587500
  C     -4.969600    0.960800   -0.928700
  O     -5.477700    1.840100   -1.680900
  H     -3.263000    1.868800   -2.731000
  H     -3.427700    0.176700   -3.354600
  H     -1.972800    0.691200   -2.407600
  H     -2.407200   -3.757200    2.227900
  H     -2.177700   -3.312400    0.516900
  H      0.090700   -2.645800    0.278300
  H      4.591000   -1.988000   -0.224800
  H      6.719100   -1.781000   -1.425700
  H      3.110900    1.691600    2.174900
  H     -7.028900    1.240900    1.691200
  H     -7.746200    0.565300    0.171900
  H     -7.012800    2.219400    0.203700

 Total Charge           Charge          ....    0
 Multiplicity           Mult            ....    1
 Number of Electrons    NEL             ....  262
 Basis Dimension        Dim             ....  508

ORBITAL ENERGIES
----------------

  NO   OCC          E(Eh)            E(eV)
   0   2.0000     -88.938781     -2420.1473
   1   2.0000     -88.902295     -2419.1544
   2   2.0000     -24.721374      -672.7028
   3   2.0000     -24.715071      -672.5313
   4   2.0000     -24.714753      -672.5226
   5   2.0000     -24.714538      -672.5168
   6   2.0000     -24.713819      -672.4972
   7   2.0000     -19.133848      -520.6585
   8   2.0000     -19.132088      -520.6106
   9   2.0000     -19.128595      -520.5155
  10   2.0000     -14.432441      -392.7267
  11   2.0000     -14.412464      -392.1831
  12   2.0000     -14.392920      -391.6513
  13   2.0000     -14.373761      -391.1299
  14   2.0000     -14.332351      -390.0031
  15   2.0000     -10.439345      -284.0690
  16   2.0000     -10.347707      -281.5754
  17   2.0000     -10.315371      -280.6955
  18   2.0000     -10.310035      -280.5503
  19   2.0000     -10.299777      -280.2712
  20   2.0000     -10.295710      -280.1605
  21   2.0000     -10.290520      -280.0193
  22   2.0000     -10.289640      -279.9954
  23   2.0000     -10.265430      -279.3366
  24   2.0000     -10.255406      -279.0638
  25   2.0000     -10.230627      -278.3895
  26   2.0000     -10.228939      -278.3436
  27   2.0000     -10.228654      -278.3358
  28   2.0000     -10.218749      -278.0663
  29   2.0000     -10.218073      -278.0479
  30   2.0000     -10.217452      -278.0310
  31   2.0000     -10.209650      -277.8187
  32   2.0000     -10.205897      -277.7166
  33   2.0000     -10.203139      -277.6415
  34   2.0000      -8.012950      -218.0435
  35   2.0000      -7.978641      -217.1099
  36   2.0000      -5.977261      -162.6495
  37   2.0000      -5.971920      -162.5042
  38   2.0000      -5.969005      -162.4249
  39   2.0000      -5.941756      -161.6834
  40   2.0000      -5.937502      -161.5676
  41   2.0000      -5.935623      -161.5165
  42   2.0000      -1.276829       -34.7443
  43   2.0000      -1.233685       -33.5703
  44   2.0000      -1.227678       -33.4068
  45   2.0000      -1.200830       -32.6762
  46   2.0000      -1.199146       -32.6304
  47   2.0000      -1.088471       -29.6188
  48   2.0000      -1.039096       -28.2752
  49   2.0000      -1.034409       -28.1477
  50   2.0000      -1.008185       -27.4341
  51   2.0000      -0.978074       -26.6148
  52   2.0000      -0.974651       -26.5216
  53   2.0000      -0.955773       -26.0079
  54   2.0000      -0.915624       -24.9154
  55   2.0000      -0.883801       -24.0495
  56   2.0000      -0.831269       -22.6200
  57   2.0000      -0.820803       -22.3352
  58   2.0000      -0.811753       -22.0889
  59   2.0000      -0.799905       -21.7665
  60   2.0000      -0.780214       -21.2307
  61   2.0000      -0.770502       -20.9664
  62   2.0000      -0.750975       -20.4351
  63   2.0000      -0.729487       -19.8504
  64   2.0000      -0.717804       -19.5324
  65   2.0000      -0.699222       -19.0268
  66   2.0000      -0.673442       -18.3253
  67   2.0000      -0.659019       -17.9328
  68   2.0000      -0.643551       -17.5119
  69   2.0000      -0.640342       -17.4246
  70   2.0000      -0.626110       -17.0373
  71   2.0000      -0.607756       -16.5379
  72   2.0000      -0.593929       -16.1616
  73   2.0000      -0.583972       -15.8907
  74   2.0000      -0.571797       -15.5594
  75   2.0000      -0.569987       -15.5101
  76   2.0000      -0.567757       -15.4494
  77   2.0000      -0.558429       -15.1956
  78   2.0000      -0.546669       -14.8756
  79   2.0000      -0.531990       -14.4762
  80   2.0000      -0.526270       -14.3205
  81   2.0000      -0.525678       -14.3044
  82   2.0000      -0.513854       -13.9827
  83   2.0000      -0.512309       -13.9406
  84   2.0000      -0.506047       -13.7702
  85   2.0000      -0.495827       -13.4921
  86   2.0000      -0.485497       -13.2110
  87   2.0000      -0.482380       -13.1262
  88   2.0000      -0.478467       -13.0197
  89   2.0000      -0.475052       -12.9268
  90   2.0000      -0.466018       -12.6810
  91   2.0000      -0.461272       -12.5519
  92   2.0000      -0.454736       -12.3740
  93   2.0000      -0.449327       -12.2268
  94   2.0000      -0.444517       -12.0959
  95   2.0000      -0.442110       -12.0304
  96   2.0000      -0.440862       -11.9965
  97   2.0000      -0.436142       -11.8680
  98   2.0000      -0.435408       -11.8481
  99   2.0000      -0.428514       -11.6605
 100   2.0000      -0.422284       -11.4909
 101   2.0000      -0.418771       -11.3953
 102   2.0000      -0.417598       -11.3634
 103   2.0000      -0.413736       -11.2583
 104   2.0000      -0.412458       -11.2236
 105   2.0000      -0.405772       -11.0416
 106   2.0000      -0.405440       -11.0326
 107   2.0000      -0.403612       -10.9828
 108   2.0000      -0.399067       -10.8592
 109   2.0000      -0.395839       -10.7713
 110   2.0000      -0.394884       -10.7453
 111   2.0000      -0.381159       -10.3719
 112   2.0000      -0.378294       -10.2939
 113   2.0000      -0.371790       -10.1169
 114   2.0000      -0.362130        -9.8541
 115   2.0000      -0.359994        -9.7959
 116   2.0000      -0.353285        -9.6134
 117   2.0000      -0.344859        -9.3841
 118   2.0000      -0.326427        -8.8825
 119   2.0000      -0.313460        -8.5297
 120   2.0000      -0.293027        -7.9737
 121   2.0000      -0.291503        -7.9322
 122   2.0000      -0.283925        -7.7260
 123   2.0000      -0.280856        -7.6425
 124   2.0000      -0.278360        -7.5746
 125   2.0000      -0.270529        -7.3615
 126   2.0000      -0.267913        -7.2903
 127   2.0000      -0.264742        -7.2040
 128   2.0000      -0.255347        -6.9484
 129   2.0000      -0.254895        -6.9361
 130   2.0000      -0.214316        -5.8318
 131   0.0000      -0.053544        -1.4570
 132   0.0000      -0.045293        -1.2325
 133   0.0000      -0.039211        -1.0670
 134   0.0000      -0.034034        -0.9261
 135   0.0000      -0.024899        -0.6775

MULLIKEN ATOMIC CHARGES
-----------------------
   0 C :   -0.318043
   1 N :   -0.479847
   2 C :    0.522096
   3 O :   -0.508058
   4 C :    0.054064
   5 C :    0.195063
   6 C :   -0.407448
   7 C :    0.571952
   8 O :   -0.450496
   9 N :   -0.626501
  10 C :    0.260085
  11 N :   -0.430770
  12 C :    0.205634
  13 C :    0.022909
  14 C :   -0.130125
  15 C :   -0.213485
  16 C :    0.406151
  17 F :   -0.299114
  18 C :   -0.216460
  19 C :    0.928025
  20 F :   -0.300295
  21 F :   -0.293692
  22 F :   -0.298511
  23 C :    0.348252
  24 F :   -0.294500
  25 C :   -0.387440
  26 S :    0.315899
  27 N :   -0.473829
  28 S :    0.405925
  29 C :    0.044189
  30 N :   -0.447599
  31 C :   -0.341448
  32 C :    0.687664
  33 O :   -0.494070
  34 H :    0.199182
  35 H :    0.180750
  36 H :    0.201111
  37 H :    0.203372
  38 H :    0.181646
  39 H :    0.361583
  40 H :    0.171147
  41 H :    0.156428
  42 H :    0.190350
  43 H :    0.185606
  44 H :    0.191801
  45 H :    0.220846
Sum of atomic charges:    0.0000000

LOEWDIN ATOMIC CHARGES
----------------------
   0 C :   -0.259561
   1 N :   -0.026245
   2 C :    0.116890
   3 O :   -0.299791
   4 C :   -0.128429
   5 C :    0.050531
   6 C :   -0.243153
   7 C :    0.157424
   8 O :   -0.256813
   9 N :   -0.187418
  10 C :   -0.076497
  11 N :   -0.187692
  12 C :   -0.013047
  13 C :   -0.046874
  14 C :   -0.086740
  15 C :   -0.159617
  16 C :    0.136956
  17 F :   -0.089089
  18 C :   -0.125821
  19 C :    0.317342
  20 F :   -0.109976
  21 F :   -0.111195
  22 F :   -0.108090
  23 C :    0.141689
  24 F :   -0.083886
  25 C :   -0.340997
  26 S :    0.426464
  27 N :   -0.311056
  28 S :    0.479747
  29 C :   -0.118155
  30 N :   -0.021079
  31 C :   -0.262367
  32 C :    0.146506
  33 O :   -0.302626
  34 H :    0.154845
  35 H :    0.142003
  36 H :    0.155767
  37 H :    0.167951
  38 H :    0.151679
  39 H :    0.279846
  40 H :    0.156009
  41 H :    0.150328
  42 H :    0.165988
  43 H :    0.145936
  44 H :    0.145130
  45 H :    0.167180

  Mayer bond orders larger than 0.100000
B(  0-C ,  1-N ) :   0.9133 B(  0-C , 34-H ) :   0.9250 B(  0-C , 35-H ) :   0.9396
B(  0-C , 36-H ) :   0.9228 B(  1-N ,  2-C ) :   0.9861 B(  1-N , 32-C ) :   1.0413
B(  2-C ,  3-O ) :   1.7549 B(  2-C ,  4-C ) :   1.0928 B(  4-C ,  5-C ) :   1.2395
B(  4-C , 29-C ) :   1.3480 B(  5-C ,  6-C ) :   1.0067 B(  5-C , 27-N ) :   1.5394
B(  6-C ,  7-C ) :   0.9444 B(  6-C , 37-H ) :   0.9021 B(  6-C , 38-H ) :   0.9054
B(  7-C ,  8-O ) :   1.8334 B(  7-C ,  9-N ) :   1.0314 B(  9-N , 10-C ) :   0.9538
B(  9-N , 39-H ) :   0.8053 B( 10-C , 11-N ) :   1.4843 B( 10-C , 25-C ) :   0.1078
B( 10-C , 26-S ) :   1.1794 B( 11-N , 12-C ) :   1.2912 B( 12-C , 13-C ) :   1.0141
B( 12-C , 25-C ) :   1.5274 B( 13-C , 14-C ) :   1.4008 B( 13-C , 23-C ) :   1.3323
B( 14-C , 15-C ) :   1.4143 B( 14-C , 40-H ) :   0.9126 B( 15-C , 16-C ) :   1.3865
B( 15-C , 41-H ) :   0.9178 B( 16-C , 17-F ) :   0.9497 B( 16-C , 18-C ) :   1.3234
B( 18-C , 19-C ) :   0.9450 B( 18-C , 23-C ) :   1.3107 B( 19-C , 20-F ) :   0.9563
B( 19-C , 21-F ) :   0.9978 B( 19-C , 22-F ) :   0.9584 B( 23-C , 24-F ) :   0.9529
B( 25-C , 26-S ) :   1.1148 B( 25-C , 42-H ) :   0.9007 B( 27-N , 28-S ) :   1.0951
B( 27-N , 29-C ) :   0.1321 B( 28-S , 29-C ) :   1.1613 B( 29-C , 30-N ) :   0.9981
B( 30-N , 31-C ) :   0.9221 B( 30-N , 32-C ) :   1.0271 B( 31-C , 43-H ) :   0.9236
B( 31-C , 44-H ) :   0.9316 B( 31-C , 45-H ) :   0.9185 B( 32-C , 33-O ) :   1.8010

FINAL SINGLE POINT ENERGY     -2525.242650540004

DIPOLE MOMENT
-------------

Method             : SCF
Type of density    : Electron Density
Multiplicity       :   1
Irrep              :   0
Energy             : -2525.2426505400039787 Eh
Relativity type    :
Basis              : AO
                                X                 Y                 Z
Electronic contribution:     51.586451107      17.208287449      -1.058850952
Nuclear contribution   :    -53.692602345     -18.249687343       0.857643875
                        -----------------------------------------
Total Dipole Moment    :     -2.106151238      -1.041399894      -0.201207077
                        -----------------------------------------
Magnitude (a.u.)       :      2.358149924
Magnitude (Debye)      :      5.993940761

Rotational constants in cm-1:             0.007810             0.001284             0.001196
Rotational constants in MHz :           234.143184            38.487462            35.857963

                             ****ORCA TERMINATED NORMALLY****
TOTAL RUN TIME: 0 days 0 hours 5 minutes 8 seconds 375 msec
