                         Program Version 6.0.0  -   RELEASE  -
|  1> ! B3LYP 6-31G* SP
|  2>
|  3> * xyz 0 1
|  4> C 5.3620 1.0103 0.0763
|  5> C 4.4786 0.0089 0.8027
|  6> O 3.5859 -0.5985 -0.1247
|  7> C 2.6414 -1.5561 0.2544
|  8> O 2.5417 -1.9210 1.4579
|  9> C 1.7081 -2.1140 -0.7702
| 10> C 0.4841 -1.2572 -0.8688
| 11> S -0.9518 -1.5391 -0.0407
| 12> C -1.7001 -0.1417 -0.6203
| 13> C -3.0767 0.2999 -0.2983
| 14> C -3.9006 -0.4594 0.5544
| 15> C -5.1986 -0.0312 0.8505
| 16> C -5.6881 1.1557 0.3012
| 17> C -4.8805 1.9174 -0.5459
| 18> C -3.5819 1.4942 -0.8455
| 19> N -0.8650 0.5509 -1.4299
| 20> C 0.3442 -0.0555 -1.5660
| 21> O 1.3477 0.5126 -2.3476
| 22> H 5.9531 0.4944 -0.7099
| 23> H 4.7351 1.7964 -0.3956
| 24> H 6.0588 1.4880 0.7969
| 25> H 3.8991 0.5357 1.5916
| 26> H 5.1162 -0.7694 1.2754
| 27> H 2.2172 -2.1702 -1.7550
| 28> H 1.4166 -3.1483 -0.4873
| 29> H -3.5473 -1.3829 0.9937
| 30> H -5.8255 -0.6208 1.5069
| 31> H -6.6930 1.4850 0.5318
| 32> H -5.2608 2.8372 -0.9712
| 33> H -2.9747 2.1016 -1.5048
| 34> H 2.2546 0.0771 -2.4577
| 35> *
| 36>
| 37>                          ****END OF INPUT****

CARTESIAN COORDINATES (ANGSTROEM)
---------------------------------
  C      5.362000    1.010300    0.076300
  C      4.478600    0.008900    0.802700
  O      3.585900   -0.598500   -0.124700
  C      2.641400   -1.556100    0.254400
  O      2.541700   -1.921000    1.457900
  C      1.708100   -2.114000   -0.770200
  C      0.484100   -1.257200   -0.868800
  S     -0.951800   -1.539100   -0.040700
  C     -1.700100   -0.141700   -0.620300
  C     -3.076700    0.299900   -0.298300
  C     -3.900600   -0.459400    0.554400
  C     -5.198600   -0.031200    0.850500
  C     -5.688100    1.155700    0.301200
  C     -4.880500    1.917400   -0.545900
  C     -3.581900    1.494200   -0.845500
  N     -0.865000    0.550900   -1.429900
  C      0.344200   -0.055500   -1.566000
  O      1.347700    0.512600   -2.347600
  H      5.953100    0.494400   -0.709900
  H      4.735100    1.796400   -0.395600
  H      6.058800    1.488000    0.796900
  H      3.899100    0.535700    1.591600
  H      5.116200   -0.769400    1.275400
  H      2.217200   -2.170200   -1.755000
  H      1.416600   -3.148300   -0.487300
  H     -3.547300   -1.382900    0.993700
  H     -5.825500   -0.620800    1.506900
  H     -6.693000    1.485000    0.531800
  H     -5.260800    2.837200   -0.971200
  H     -2.974700    2.101600   -1.504800
  H      2.254600    0.077100   -2.457700

 Total Charge           Charge          ....    0
 Multiplicity           Mult            ....    1
 Number of Electrons    NEL             ....  138
 Basis Dimension        Dim             ....  282

ORBITAL ENERGIES
----------------

  NO   OCC          E(Eh)            E(eV)
   0   2.0000     -88.896705     -2419.0023
   1   2.0000     -19.191688      -522.2324
   2   2.0000     -19.171970      -521.6958
   3   2.0000     -19.133024      -520.6360
   4   2.0000     -14.327696      -389.8764
   5   2.0000     -10.324842      -280.9532
   6   2.0000     -10.277003      -279.6515
   7   2.0000     -10.250622      -278.9336
   8   2.0000     -10.244213      -278.7592
   9   2.0000     -10.224948      -278.2350
  10   2.0000     -10.214222      -277.9431
  11   2.0000     -10.205324      -277.7010
  12   2.0000     -10.189369      -277.2668
  13   2.0000     -10.185662      -277.1659
  14   2.0000     -10.185622      -277.1649
  15   2.0000     -10.184331      -277.1297
  16   2.0000     -10.183703      -277.1127
  17   2.0000     -10.183285      -277.1013
  18   2.0000      -7.973953      -216.9823
  19   2.0000      -5.936784      -161.5481
  20   2.0000      -5.932927      -161.4432
  21   2.0000      -5.931101      -161.3935
  22   2.0000      -1.084513       -29.5111
  23   2.0000      -1.040526       -28.3141
  24   2.0000      -0.996099       -27.1052
  25   2.0000      -0.955471       -25.9997
  26   2.0000      -0.854980       -23.2652
  27   2.0000      -0.829246       -22.5649
  28   2.0000      -0.787453       -21.4277
  29   2.0000      -0.774104       -21.0644
  30   2.0000      -0.753259       -20.4972
  31   2.0000      -0.743978       -20.2447
  32   2.0000      -0.703000       -19.1296
  33   2.0000      -0.646542       -17.5933
  34   2.0000      -0.619626       -16.8609
  35   2.0000      -0.612528       -16.6677
  36   2.0000      -0.592215       -16.1150
  37   2.0000      -0.568984       -15.4828
  38   2.0000      -0.560920       -15.2634
  39   2.0000      -0.526909       -14.3379
  40   2.0000      -0.508767       -13.8443
  41   2.0000      -0.506575       -13.7846
  42   2.0000      -0.490022       -13.3342
  43   2.0000      -0.468590       -12.7510
  44   2.0000      -0.463210       -12.6046
  45   2.0000      -0.455891       -12.4054
  46   2.0000      -0.437776       -11.9125
  47   2.0000      -0.429199       -11.6791
  48   2.0000      -0.427665       -11.6374
  49   2.0000      -0.420067       -11.4306
  50   2.0000      -0.417609       -11.3637
  51   2.0000      -0.402052       -10.9404
  52   2.0000      -0.400211       -10.8903
  53   2.0000      -0.395533       -10.7630
  54   2.0000      -0.391716       -10.6591
  55   2.0000      -0.373818       -10.1721
  56   2.0000      -0.354824        -9.6553
  57   2.0000      -0.350815        -9.5462
  58   2.0000      -0.347162        -9.4467
  59   2.0000      -0.346116        -9.4183
  60   2.0000      -0.341574        -9.2947
  61   2.0000      -0.334297        -9.0967
  62   2.0000      -0.295869        -8.0510
  63   2.0000      -0.284360        -7.7378
  64   2.0000      -0.267987        -7.2923
  65   2.0000      -0.266181        -7.2432
  66   2.0000      -0.258063        -7.0223
  67   2.0000      -0.249310        -6.7841
  68   2.0000      -0.205265        -5.5856
  69   0.0000      -0.050957        -1.3866
  70   0.0000      -0.010195        -0.2774
  71   0.0000      -0.001291        -0.0351
  72   0.0000       0.026895         0.7318
  73   0.0000       0.034607         0.9417

MULLIKEN ATOMIC CHARGES
-----------------------
   0 C :   -0.459794
   1 C :   -0.008792
   2 O :   -0.481304
   3 C :    0.614522
   4 O :   -0.454887
   5 C :   -0.408183
   6 C :   -0.192176
   7 S :    0.271354
   8 C :   -0.024214
   9 C :    0.144124
  10 C :   -0.191300
  11 C :   -0.132949
  12 C :   -0.119138
  13 C :   -0.128123
  14 C :   -0.155702
  15 N :   -0.399988
  16 C :    0.488278
  17 O :   -0.648332
  18 H :    0.154286
  19 H :    0.163186
  20 H :    0.156746
  21 H :    0.158444
  22 H :    0.152849
  23 H :    0.163776
  24 H :    0.202721
  25 H :    0.145443
  26 H :    0.133311
  27 H :    0.130852
  28 H :    0.134618
  29 H :    0.163882
  30 H :    0.426489
Sum of atomic charges:    0.0000000

LOEWDIN ATOMIC CHARGES
----------------------
   0 C :   -0.366961
   1 C :   -0.088312
   2 O :   -0.185820
   3 C :    0.187785
   4 O :   -0.262607
   5 C :   -0.237636
   6 C :   -0.263413
   7 S :    0.403276
   8 C :   -0.119163
   9 C :   -0.027762
  10 C :   -0.125181
  11 C :   -0.127191
  12 C :   -0.124213
  13 C :   -0.126010
  14 C :   -0.105522
  15 N :   -0.162414
  16 C :    0.079723
  17 O :   -0.338797
  18 H :    0.129503
  19 H :    0.133804
  20 H :    0.136854
  21 H :    0.126808
  22 H :    0.123939
  23 H :    0.140900
  24 H :    0.167434
  25 H :    0.138719
  26 H :    0.134031
  27 H :    0.132692
  28 H :    0.134699
  29 H :    0.150499
  30 H :    0.340338

  Mayer bond orders larger than 0.100000
B(  0-C ,  1-C ) :   1.0189 B(  0-C , 18-H ) :   0.9478 B(  0-C , 19-H ) :   0.9459
B(  0-C , 20-H ) :   0.9419 B(  1-C ,  2-O ) :   0.8483 B(  1-C , 21-H ) :   0.9297
B(  1-C , 22-H ) :   0.9309 B(  2-O ,  3-C ) :   1.0220 B(  3-C ,  4-O ) :   1.8548
B(  3-C ,  5-C ) :   0.9509 B(  5-C ,  6-C ) :   0.9853 B(  5-C , 23-H ) :   0.9138
B(  5-C , 24-H ) :   0.9172 B(  6-C ,  7-S ) :   1.1012 B(  6-C ,  8-C ) :   0.1261
B(  6-C , 16-C ) :   1.4520 B(  7-S ,  8-C ) :   1.1465 B(  8-C ,  9-C ) :   1.0241
B(  8-C , 15-N ) :   1.4499 B(  9-C , 10-C ) :   1.3923 B(  9-C , 14-C ) :   1.4078
B( 10-C , 11-C ) :   1.4499 B( 10-C , 25-H ) :   0.9165 B( 11-C , 12-C ) :   1.4470
B( 11-C , 26-H ) :   0.9292 B( 12-C , 13-C ) :   1.4422 B( 12-C , 27-H ) :   0.9300
B( 13-C , 14-C ) :   1.4372 B( 13-C , 28-H ) :   0.9296 B( 14-C , 29-H ) :   0.9113
B( 15-N , 16-C ) :   1.3153 B( 16-C , 17-O ) :   0.9873 B( 17-O , 30-H ) :   0.7468

FINAL SINGLE POINT ENERGY     -1181.272193794770

DIPOLE MOMENT
-------------

Method             : SCF
Type of density    : Electron Density
Multiplicity       :   1
Irrep              :   0
Energy             : -1181.2721937947699189 Eh
Relativity type    :
Basis              : AO
                                X                 Y                 Z
Electronic contribution:     -9.838439097      -5.967039736      -2.025596655
Nuclear contribution   :     10.362827174       5.715940502       1.799134590
                        -----------------------------------------
Total Dipole Moment    :      0.524388077      -0.251099235      -0.226462066
                        -----------------------------------------
Magnitude (a.u.)       :      0.623954123
Magnitude (Debye)      :      1.585965343

Rotational constants in cm-1:             0.030104             0.005493             0.005172
Rotational constants in MHz :           902.504527           164.686814           155.039625

                             ****ORCA TERMINATED NORMALLY****
TOTAL RUN TIME: 0 days 0 hours 1 minutes 57 seconds 529 msec
