                         Program Version 6.0.0  -   RELEASE  -
|  1> ! B3LYP 6-31G* SP
|  2>
|  3> * xyz 0 1
|  4> C 0.0825 2.8998 -2.7263
|  5> C -1.2041 2.1156 -2.4710
|  6> C -1.3608 1.5583 -1.0333
|  7> C -1.4722 2.6128 0.0471
|  8> C -1.9242 3.9158 -0.0998
|  9> C -1.9054 4.4688 1.1628
| 10> C -1.4539 3.4699 2.0004
| 11> C -1.2903 3.5808 3.4784
| 12> O -1.2153 2.3774 1.3147
| 13> N -0.3269 0.5383 -0.7224
| 14> C -0.6328 -0.8587 -1.0936
| 15> C -1.7488 -1.4465 -0.2567
| 16> C -1.9561 -1.0544 1.0776
| 17> C -2.9726 -1.6375 1.8353
| 18> C -3.7853 -2.6267 1.2791
| 19> C -3.5856 -3.0479 -0.0470
| 20> C -4.4405 -4.1004 -0.6400
| 21> O -5.3618 -4.6315 0.0374
| 22> O -4.2364 -4.5137 -1.9543
| 23> C -2.5592 -2.4557 -0.8048
| 24> C 0.9948 0.9112 -0.2360
| 25> O 1.3092 2.1273 -0.1275
| 26> C 2.0251 -0.0854 0.1224
| 27> C 1.7915 -1.0523 1.1123
| 28> N 2.7616 -1.9452 1.4433
| 29> C 3.9827 -1.9309 0.8461
| 30> C 4.9558 -2.8682 1.2114
| 31> C 6.2132 -2.8458 0.5993
| 32> C 6.5027 -1.8881 -0.3784
| 33> C 5.5369 -0.9469 -0.7498
| 34> C 4.2726 -0.9631 -0.1410
| 35> C 3.2842 -0.0356 -0.4920
| 36> H 0.2100 3.7126 -1.9822
| 37> H 0.0353 3.3600 -3.7357
| 38> H 0.9608 2.2226 -2.7059
| 39> H -1.2447 1.2725 -3.1933
| 40> H -2.0721 2.7671 -2.7084
| 41> H -2.3560 1.0614 -1.0278
| 42> H -2.2417 4.4080 -1.0088
| 43> H -2.1981 5.4732 1.4387
| 44> H -0.6728 2.7386 3.8543
| 45> H -2.2869 3.5468 3.9650
| 46> H -0.7884 4.5375 3.7329
| 47> H 0.2514 -1.5199 -1.0134
| 48> H -0.9206 -0.8833 -2.1668
| 49> H -1.3427 -0.2910 1.5348
| 50> H -3.1303 -1.3220 2.8588
| 51> H -4.5674 -3.0632 1.8877
| 52> H -4.8167 -5.2334 -2.3692
| 53> H -2.3871 -2.7762 -1.8254
| 54> H 0.8439 -1.0950 1.6274
| 55> H 4.7407 -3.6129 1.9679
| 56> H 6.9644 -3.5716 0.8828
| 57> H 7.4769 -1.8760 -0.8496
| 58> H 5.7752 -0.2129 -1.5099
| 59> H 3.4862 0.7156 -1.2477
| 60> *
| 61>
| 62>                          ****END OF INPUT****

CARTESIAN COORDINATES (ANGSTROEM)
---------------------------------
  C      0.082500    2.899800   -2.726300
  C     -1.204100    2.115600   -2.471000
  C     -1.360800    1.558300   -1.033300
  C     -1.472200    2.612800    0.047100
  C     -1.924200    3.915800   -0.099800
  C     -1.905400    4.468800    1.162800
  C     -1.453900    3.469900    2.000400
  C     -1.290300    3.580800    3.478400
  O     -1.215300    2.377400    1.314700
  N     -0.326900    0.538300   -0.722400
  C     -0.632800   -0.858700   -1.093600
  C     -1.748800   -1.446500   -0.256700
  C     -1.956100   -1.054400    1.077600
  C     -2.972600   -1.637500    1.835300
  C     -3.785300   -2.626700    1.279100
  C     -3.585600   -3.047900   -0.047000
  C     -4.440500   -4.100400   -0.640000
  O     -5.361800   -4.631500    0.037400
  O     -4.236400   -4.513700   -1.954300
  C     -2.559200   -2.455700   -0.804800
  C      0.994800    0.911200   -0.236000
  O      1.309200    2.127300   -0.127500
  C      2.025100   -0.085400    0.122400
  C      1.791500   -1.052300    1.112300
  N      2.761600   -1.945200    1.443300
  C      3.982700   -1.930900    0.846100
  C      4.955800   -2.868200    1.211400
  C      6.213200   -2.845800    0.599300
  C      6.502700   -1.888100   -0.378400
  C      5.536900   -0.946900   -0.749800
  C      4.272600   -0.963100   -0.141000
  C      3.284200   -0.035600   -0.492000
  H      0.210000    3.712600   -1.982200
  H      0.035300    3.360000   -3.735700
  H      0.960800    2.222600   -2.705900
  H     -1.244700    1.272500   -3.193300
  H     -2.072100    2.767100   -2.708400
  H     -2.356000    1.061400   -1.027800
  H     -2.241700    4.408000   -1.008800
  H     -2.198100    5.473200    1.438700
  H     -0.672800    2.738600    3.854300
  H     -2.286900    3.546800    3.965000
  H     -0.788400    4.537500    3.732900
  H      0.251400   -1.519900   -1.013400
  H     -0.920600   -0.883300   -2.166800
  H     -1.342700   -0.291000    1.534800
  H     -3.130300   -1.322000    2.858800
  H     -4.567400   -3.063200    1.887700
  H     -4.816700   -5.233400   -2.369200
  H     -2.387100   -2.776200   -1.825400
  H      0.843900   -1.095000    1.627400
  H      4.740700   -3.612900    1.967900
  H      6.964400   -3.571600    0.882800
  H      7.476900   -1.876000   -0.849600
  H      5.775200   -0.212900   -1.509900
  H      3.486200    0.715600   -1.247700

 Total Charge           Charge          ....    0
 Multiplicity           Mult            ....    1
 Number of Electrons    NEL             ....  226
 Basis Dimension        Dim             ....  496

ORBITAL ENERGIES
----------------

  NO   OCC          E(Eh)            E(eV)
   0   2.0000     -19.209766      -522.7243
   1   2.0000     -19.184922      -522.0483
   2   2.0000     -19.123685      -520.3819
   3   2.0000     -19.112344      -520.0733
   4   2.0000     -14.365914      -390.9164
   5   2.0000     -14.327969      -389.8839
   6   2.0000     -10.321472      -280.8615
   7   2.0000     -10.292744      -280.0798
   8   2.0000     -10.235208      -278.5142
   9   2.0000     -10.232311      -278.4353
  10   2.0000     -10.227615      -278.3076
  11   2.0000     -10.222145      -278.1587
  12   2.0000     -10.219703      -278.0923
  13   2.0000     -10.216960      -278.0176
  14   2.0000     -10.211049      -277.8568
  15   2.0000     -10.208787      -277.7952
  16   2.0000     -10.208270      -277.7811
  17   2.0000     -10.204692      -277.6838
  18   2.0000     -10.199547      -277.5438
  19   2.0000     -10.198536      -277.5163
  20   2.0000     -10.195925      -277.4452
  21   2.0000     -10.195394      -277.4308
  22   2.0000     -10.194843      -277.4158
  23   2.0000     -10.194598      -277.4091
  24   2.0000     -10.193788      -277.3871
  25   2.0000     -10.193599      -277.3819
  26   2.0000     -10.188240      -277.2361
  27   2.0000     -10.183192      -277.0987
  28   2.0000     -10.179434      -276.9965
  29   2.0000     -10.156860      -276.3822
  30   2.0000     -10.156079      -276.3610
  31   2.0000     -10.152485      -276.2632
  32   2.0000      -1.134549       -30.8727
  33   2.0000      -1.068695       -29.0807
  34   2.0000      -1.014225       -27.5985
  35   2.0000      -0.982058       -26.7232
  36   2.0000      -0.938723       -25.5440
  37   2.0000      -0.926290       -25.2056
  38   2.0000      -0.865856       -23.5611
  39   2.0000      -0.851744       -23.1771
  40   2.0000      -0.817706       -22.2509
  41   2.0000      -0.801733       -21.8163
  42   2.0000      -0.789752       -21.4902
  43   2.0000      -0.775329       -21.0978
  44   2.0000      -0.767597       -20.8874
  45   2.0000      -0.764947       -20.8153
  46   2.0000      -0.756597       -20.5881
  47   2.0000      -0.742764       -20.2116
  48   2.0000      -0.709127       -19.2963
  49   2.0000      -0.687490       -18.7076
  50   2.0000      -0.666585       -18.1387
  51   2.0000      -0.660979       -17.9862
  52   2.0000      -0.652150       -17.7459
  53   2.0000      -0.639846       -17.4111
  54   2.0000      -0.614896       -16.7322
  55   2.0000      -0.608678       -16.5630
  56   2.0000      -0.599600       -16.3159
  57   2.0000      -0.586547       -15.9607
  58   2.0000      -0.583034       -15.8652
  59   2.0000      -0.560358       -15.2481
  60   2.0000      -0.543834       -14.7985
  61   2.0000      -0.537368       -14.6225
  62   2.0000      -0.529363       -14.4047
  63   2.0000      -0.525787       -14.3074
  64   2.0000      -0.517149       -14.0723
  65   2.0000      -0.500383       -13.6161
  66   2.0000      -0.486340       -13.2340
  67   2.0000      -0.482119       -13.1191
  68   2.0000      -0.468170       -12.7395
  69   2.0000      -0.464662       -12.6441
  70   2.0000      -0.455806       -12.4031
  71   2.0000      -0.454063       -12.3557
  72   2.0000      -0.452548       -12.3145
  73   2.0000      -0.445222       -12.1151
  74   2.0000      -0.438197       -11.9240
  75   2.0000      -0.435843       -11.8599
  76   2.0000      -0.433115       -11.7857
  77   2.0000      -0.430923       -11.7260
  78   2.0000      -0.427607       -11.6358
  79   2.0000      -0.421257       -11.4630
  80   2.0000      -0.419888       -11.4257
  81   2.0000      -0.415956       -11.3188
  82   2.0000      -0.412763       -11.2319
  83   2.0000      -0.411221       -11.1899
  84   2.0000      -0.401146       -10.9157
  85   2.0000      -0.398120       -10.8334
  86   2.0000      -0.394906       -10.7459
  87   2.0000      -0.387472       -10.5437
  88   2.0000      -0.378855       -10.3092
  89   2.0000      -0.372607       -10.1392
  90   2.0000      -0.368710       -10.0331
  91   2.0000      -0.365027        -9.9329
  92   2.0000      -0.362032        -9.8514
  93   2.0000      -0.360652        -9.8139
  94   2.0000      -0.354868        -9.6565
  95   2.0000      -0.350670        -9.5422
  96   2.0000      -0.346068        -9.4170
  97   2.0000      -0.342701        -9.3254
  98   2.0000      -0.340762        -9.2726
  99   2.0000      -0.333466        -9.0741
 100   2.0000      -0.329777        -8.9737
 101   2.0000      -0.307884        -8.3780
 102   2.0000      -0.304872        -8.2960
 103   2.0000      -0.268321        -7.3014
 104   2.0000      -0.265962        -7.2372
 105   2.0000      -0.262402        -7.1403
 106   2.0000      -0.261513        -7.1161
 107   2.0000      -0.255275        -6.9464
 108   2.0000      -0.253009        -6.8847
 109   2.0000      -0.243342        -6.6217
 110   2.0000      -0.237516        -6.4631
 111   2.0000      -0.225975        -6.1491
 112   2.0000      -0.187450        -5.1008
 113   0.0000      -0.065501        -1.7824
 114   0.0000      -0.054207        -1.4750
 115   0.0000      -0.029113        -0.7922
 116   0.0000      -0.013092        -0.3563
 117   0.0000       0.013961         0.3799

MULLIKEN ATOMIC CHARGES
-----------------------
   0 C :   -0.423610
   1 C :   -0.256269
   2 C :   -0.047534
   3 C :    0.327986
   4 C :   -0.199655
   5 C :   -0.200130
   6 C :    0.313151
   7 C :   -0.526180
   8 O :   -0.393715
   9 N :   -0.441381
  10 C :   -0.232859
  11 C :    0.135696
  12 C :   -0.163737
  13 C :   -0.131743
  14 C :   -0.150936
  15 C :    0.085400
  16 C :    0.521673
  17 O :   -0.453532
  18 O :   -0.627301
  19 C :   -0.214685
  20 C :    0.468024
  21 O :   -0.471172
  22 C :    0.040761
  23 C :   -0.018821
  24 N :   -0.431034
  25 C :    0.214681
  26 C :   -0.142537
  27 C :   -0.129916
  28 C :   -0.129799
  29 C :   -0.199502
  30 C :    0.160316
  31 C :   -0.174917
  32 H :    0.176331
  33 H :    0.124750
  34 H :    0.141128
  35 H :    0.131322
  36 H :    0.138148
  37 H :    0.163739
  38 H :    0.126459
  39 H :    0.124580
  40 H :    0.159120
  41 H :    0.163165
  42 H :    0.171374
  43 H :    0.188774
  44 H :    0.157931
  45 H :    0.160543
  46 H :    0.142950
  47 H :    0.165948
  48 H :    0.428884
  49 H :    0.151002
  50 H :    0.158536
  51 H :    0.146355
  52 H :    0.138249
  53 H :    0.135950
  54 H :    0.137696
  55 H :    0.160349
Sum of atomic charges:    0.0000000

LOEWDIN ATOMIC CHARGES
----------------------
   0 C :   -0.360770
   1 C :   -0.225513
   2 C :   -0.049125
   3 C :    0.023980
   4 C :   -0.190671
   5 C :   -0.192601
   6 C :    0.018570
   7 C :   -0.359342
   8 O :    0.003182
   9 N :   -0.099401
  10 C :   -0.153406
  11 C :   -0.035948
  12 C :   -0.118668
  13 C :   -0.124448
  14 C :   -0.091996
  15 C :   -0.054467
  16 C :    0.178825
  17 O :   -0.269769
  18 O :   -0.339561
  19 C :   -0.109284
  20 C :    0.141490
  21 O :   -0.266384
  22 C :   -0.064372
  23 C :   -0.066826
  24 N :   -0.126422
  25 C :    0.017247
  26 C :   -0.114455
  27 C :   -0.119706
  28 C :   -0.126233
  29 C :   -0.117405
  30 C :   -0.028751
  31 C :   -0.068610
  32 H :    0.139503
  33 H :    0.115513
  34 H :    0.122390
  35 H :    0.119285
  36 H :    0.122733
  37 H :    0.141844
  38 H :    0.132554
  39 H :    0.132720
  40 H :    0.137944
  41 H :    0.136554
  42 H :    0.144330
  43 H :    0.151433
  44 H :    0.127558
  45 H :    0.142412
  46 H :    0.139017
  47 H :    0.152740
  48 H :    0.346122
  49 H :    0.143742
  50 H :    0.140437
  51 H :    0.145392
  52 H :    0.136913
  53 H :    0.135446
  54 H :    0.135803
  55 H :    0.148456

  Mayer bond orders larger than 0.100000
B(  0-C ,  1-C ) :   1.0269 B(  0-C , 32-H ) :   0.9370 B(  0-C , 33-H ) :   0.9455
B(  0-C , 34-H ) :   0.9485 B(  1-C ,  2-C ) :   0.9852 B(  1-C , 35-H ) :   0.9341
B(  1-C , 36-H ) :   0.9278 B(  2-C ,  3-C ) :   0.9881 B(  2-C ,  9-N ) :   0.8940
B(  2-C , 37-H ) :   0.9085 B(  3-C ,  4-C ) :   1.5557 B(  3-C ,  6-C ) :   0.1260
B(  3-C ,  8-O ) :   1.0378 B(  4-C ,  5-C ) :   1.3246 B(  4-C , 38-H ) :   0.9313
B(  5-C ,  6-C ) :   1.5662 B(  5-C , 39-H ) :   0.9364 B(  6-C ,  7-C ) :   1.0251
B(  6-C ,  8-O ) :   1.0734 B(  7-C , 40-H ) :   0.9414 B(  7-C , 41-H ) :   0.9338
B(  7-C , 42-H ) :   0.9410 B(  9-N , 10-C ) :   0.9516 B(  9-N , 20-C ) :   1.0492
B(  9-N , 21-O ) :   0.1032 B( 10-C , 11-C ) :   0.9523 B( 10-C , 43-H ) :   0.9041
B( 10-C , 44-H ) :   0.9192 B( 11-C , 12-C ) :   1.4256 B( 11-C , 19-C ) :   1.3937
B( 12-C , 13-C ) :   1.4221 B( 12-C , 45-H ) :   0.9013 B( 13-C , 14-C ) :   1.4340
B( 13-C , 46-H ) :   0.9282 B( 14-C , 15-C ) :   1.4052 B( 14-C , 47-H ) :   0.9125
B( 15-C , 16-C ) :   1.0111 B( 15-C , 19-C ) :   1.3732 B( 16-C , 17-O ) :   1.8584
B( 16-C , 18-O ) :   1.0154 B( 18-O , 48-H ) :   0.7450 B( 19-C , 49-H ) :   0.9132
B( 20-C , 21-O ) :   1.7672 B( 20-C , 22-C ) :   0.9455 B( 22-C , 23-C ) :   1.2726
B( 22-C , 31-C ) :   1.4676 B( 23-C , 24-N ) :   1.5055 B( 23-C , 50-H ) :   0.9182
B( 24-N , 25-C ) :   1.2505 B( 25-C , 26-C ) :   1.3085 B( 25-C , 30-C ) :   1.2502
B( 26-C , 27-C ) :   1.5160 B( 26-C , 29-C ) :   0.1081 B( 26-C , 51-H ) :   0.9173
B( 27-C , 28-C ) :   1.3458 B( 27-C , 52-H ) :   0.9292 B( 28-C , 29-C ) :   1.5162
B( 28-C , 53-H ) :   0.9296 B( 29-C , 30-C ) :   1.2781 B( 29-C , 54-H ) :   0.9241
B( 30-C , 31-C ) :   1.2808 B( 31-C , 55-H ) :   0.9154

FINAL SINGLE POINT ENERGY     -1414.725533148079

DIPOLE MOMENT
-------------

Method             : SCF
Type of density    : Electron Density
Multiplicity       :   1
Irrep              :   0
Energy             : -1414.7255331480787390 Eh
Relativity type    :
Basis              : AO
                                X                 Y                 Z
Electronic contribution:     -0.599236831     -16.886785330       4.364124211
Nuclear contribution   :      1.188543541      16.773063037      -5.385194707
                        -----------------------------------------
Total Dipole Moment    :      0.589306710      -0.113722293      -1.021070496
                        -----------------------------------------
Magnitude (a.u.)       :      1.184398631
Magnitude (Debye)      :      3.010502071

Rotational constants in cm-1:             0.004533             0.003199             0.002272
Rotational constants in MHz :           135.886150            95.915661            68.108807

                             ****ORCA TERMINATED NORMALLY****
TOTAL RUN TIME: 0 days 0 hours 10 minutes 9 seconds 351 msec
