                         Program Version 6.0.0  -   RELEASE  -
|  1> ! B3LYP 6-31G* SP
|  2>
|  3> * xyz 0 1
|  4> C -1.8138 -2.2953 1.1550
|  5> C -2.0583 -1.6917 -0.2262
|  6> N -2.0404 -0.2194 -0.1733
|  7> C -0.8384 0.5153 0.1612
|  8> O -0.9426 1.6855 0.6241
|  9> C 0.5115 -0.0695 -0.0260
| 10> C 1.6241 0.5688 0.3663
| 11> C 2.9913 0.0199 0.1899
| 12> C 3.2400 -1.3614 0.0764
| 13> C 4.5454 -1.8325 -0.0750
| 14> C 5.6177 -0.9396 -0.1056
| 15> C 5.3972 0.4416 0.0233
| 16> N 6.5059 1.3598 -0.0002
| 17> O 6.3182 2.5889 0.1145
| 18> O 7.7935 0.8976 -0.1500
| 19> C 4.0785 0.9104 0.1765
| 20> C -3.2635 0.5080 -0.4155
| 21> C -4.4573 0.1434 0.2333
| 22> C -5.6378 0.8527 -0.0087
| 23> C -5.6387 1.9293 -0.8992
| 24> C -4.4589 2.2987 -1.5497
| 25> C -3.2760 1.5926 -1.3105
| 26> H -1.9004 -3.4007 1.0980
| 27> H -2.5636 -1.9153 1.8798
| 28> H -0.7970 -2.0410 1.5194
| 29> H -1.3025 -2.0638 -0.9471
| 30> H -3.0385 -2.0574 -0.6035
| 31> H 0.5966 -1.0226 -0.5215
| 32> H 1.5390 1.5573 0.8027
| 33> H 2.4379 -2.0845 0.1290
| 34> H 4.7277 -2.8960 -0.1613
| 35> H 6.6198 -1.3311 -0.2231
| 36> H 3.8946 1.9734 0.2767
| 37> H -4.4731 -0.6809 0.9336
| 38> H -6.5521 0.5686 0.4962
| 39> H -6.5536 2.4769 -1.0852
| 40> H -4.4610 3.1312 -2.2414
| 41> H -2.3712 1.8830 -1.8294
| 42> *
| 43>
| 44>                          ****END OF INPUT****

CARTESIAN COORDINATES (ANGSTROEM)
---------------------------------
  C     -1.813800   -2.295300    1.155000
  C     -2.058300   -1.691700   -0.226200
  N     -2.040400   -0.219400   -0.173300
  C     -0.838400    0.515300    0.161200
  O     -0.942600    1.685500    0.624100
  C      0.511500   -0.069500   -0.026000
  C      1.624100    0.568800    0.366300
  C      2.991300    0.019900    0.189900
  C      3.240000   -1.361400    0.076400
  C      4.545400   -1.832500   -0.075000
  C      5.617700   -0.939600   -0.105600
  C      5.397200    0.441600    0.023300
  N      6.505900    1.359800   -0.000200
  O      6.318200    2.588900    0.114500
  O      7.793500    0.897600   -0.150000
  C      4.078500    0.910400    0.176500
  C     -3.263500    0.508000   -0.415500
  C     -4.457300    0.143400    0.233300
  C     -5.637800    0.852700   -0.008700
  C     -5.638700    1.929300   -0.899200
  C     -4.458900    2.298700   -1.549700
  C     -3.276000    1.592600   -1.310500
  H     -1.900400   -3.400700    1.098000
  H     -2.563600   -1.915300    1.879800
  H     -0.797000   -2.041000    1.519400
  H     -1.302500   -2.063800   -0.947100
  H     -3.038500   -2.057400   -0.603500
  H      0.596600   -1.022600   -0.521500
  H      1.539000    1.557300    0.802700
  H      2.437900   -2.084500    0.129000
  H      4.727700   -2.896000   -0.161300
  H      6.619800   -1.331100   -0.223100
  H      3.894600    1.973400    0.276700
  H     -4.473100   -0.680900    0.933600
  H     -6.552100    0.568600    0.496200
  H     -6.553600    2.476900   -1.085200
  H     -4.461000    3.131200   -2.241400
  H     -2.371200    1.883000   -1.829400

 Total Charge           Charge          ....    0
 Multiplicity           Mult            ....    1
 Number of Electrons    NEL             ....  156
 Basis Dimension        Dim             ....  340

ORBITAL ENERGIES
----------------

  NO   OCC          E(Eh)            E(eV)
   0   2.0000     -19.190540      -522.2011
   1   2.0000     -19.164674      -521.4973
   2   2.0000     -19.111902      -520.0613
   3   2.0000     -14.559739      -396.1906
   4   2.0000     -14.367166      -390.9505
   5   2.0000     -10.295649      -280.1589
   6   2.0000     -10.265981      -279.3515
   7   2.0000     -10.232789      -278.4484
   8   2.0000     -10.232400      -278.4377
   9   2.0000     -10.227416      -278.3021
  10   2.0000     -10.227069      -278.2927
  11   2.0000     -10.225235      -278.2428
  12   2.0000     -10.225200      -278.2418
  13   2.0000     -10.220016      -278.1008
  14   2.0000     -10.217717      -278.0382
  15   2.0000     -10.208299      -277.7820
  16   2.0000     -10.187423      -277.2139
  17   2.0000     -10.185472      -277.1608
  18   2.0000     -10.184199      -277.1261
  19   2.0000     -10.182719      -277.0859
  20   2.0000     -10.182181      -277.0712
  21   2.0000     -10.180280      -277.0195
  22   2.0000      -1.177370       -32.0379
  23   2.0000      -1.014468       -27.6051
  24   2.0000      -0.984688       -26.7947
  25   2.0000      -0.930085       -25.3089
  26   2.0000      -0.901625       -24.5345
  27   2.0000      -0.844720       -22.9860
  28   2.0000      -0.836596       -22.7649
  29   2.0000      -0.807280       -21.9672
  30   2.0000      -0.771965       -21.0062
  31   2.0000      -0.767704       -20.8903
  32   2.0000      -0.744258       -20.2523
  33   2.0000      -0.728958       -19.8360
  34   2.0000      -0.718460       -19.5503
  35   2.0000      -0.671482       -18.2720
  36   2.0000      -0.640345       -17.4247
  37   2.0000      -0.630012       -17.1435
  38   2.0000      -0.614854       -16.7310
  39   2.0000      -0.604433       -16.4475
  40   2.0000      -0.579056       -15.7569
  41   2.0000      -0.554024       -15.0758
  42   2.0000      -0.544103       -14.8058
  43   2.0000      -0.523250       -14.2383
  44   2.0000      -0.517189       -14.0734
  45   2.0000      -0.510091       -13.8803
  46   2.0000      -0.504179       -13.7194
  47   2.0000      -0.503508       -13.7012
  48   2.0000      -0.484687       -13.1890
  49   2.0000      -0.472609       -12.8603
  50   2.0000      -0.469109       -12.7651
  51   2.0000      -0.461987       -12.5713
  52   2.0000      -0.451203       -12.2779
  53   2.0000      -0.446766       -12.1571
  54   2.0000      -0.435823       -11.8593
  55   2.0000      -0.425054       -11.5663
  56   2.0000      -0.420553       -11.4438
  57   2.0000      -0.415377       -11.3030
  58   2.0000      -0.402662       -10.9570
  59   2.0000      -0.397145       -10.8069
  60   2.0000      -0.395840       -10.7714
  61   2.0000      -0.385507       -10.4902
  62   2.0000      -0.380726       -10.3601
  63   2.0000      -0.371916       -10.1204
  64   2.0000      -0.366505        -9.9731
  65   2.0000      -0.360814        -9.8182
  66   2.0000      -0.352777        -9.5996
  67   2.0000      -0.345930        -9.4132
  68   2.0000      -0.320047        -8.7089
  69   2.0000      -0.308903        -8.4057
  70   2.0000      -0.292546        -7.9606
  71   2.0000      -0.287165        -7.8142
  72   2.0000      -0.275558        -7.4983
  73   2.0000      -0.272977        -7.4281
  74   2.0000      -0.255688        -6.9576
  75   2.0000      -0.252963        -6.8835
  76   2.0000      -0.245555        -6.6819
  77   2.0000      -0.217888        -5.9290
  78   0.0000      -0.112973        -3.0742
  79   0.0000      -0.078861        -2.1459
  80   0.0000      -0.022313        -0.6072
  81   0.0000      -0.006422        -0.1748
  82   0.0000       0.000091         0.0025

MULLIKEN ATOMIC CHARGES
-----------------------
   0 C :   -0.440350
   1 C :   -0.153519
   2 N :   -0.512808
   3 C :    0.513832
   4 O :   -0.470365
   5 C :   -0.195690
   6 C :   -0.134655
   7 C :    0.140066
   8 C :   -0.150443
   9 C :   -0.132820
  10 C :   -0.139229
  11 C :    0.288465
  12 N :    0.287101
  13 O :   -0.337204
  14 O :   -0.395626
  15 C :   -0.205761
  16 C :    0.289616
  17 C :   -0.159313
  18 C :   -0.135299
  19 C :   -0.121928
  20 C :   -0.139041
  21 C :   -0.125483
  22 H :    0.143170
  23 H :    0.165234
  24 H :    0.151982
  25 H :    0.148043
  26 H :    0.166025
  27 H :    0.136852
  28 H :    0.183398
  29 H :    0.148791
  30 H :    0.155363
  31 H :    0.187146
  32 H :    0.186168
  33 H :    0.129149
  34 H :    0.130507
  35 H :    0.127528
  36 H :    0.133159
  37 H :    0.137939
Sum of atomic charges:   -0.0000000

LOEWDIN ATOMIC CHARGES
----------------------
   0 C :   -0.368468
   1 C :   -0.157826
   2 N :   -0.084787
   3 C :    0.140287
   4 O :   -0.278763
   5 C :   -0.168194
   6 C :   -0.072231
   7 C :   -0.017527
   8 C :   -0.091976
   9 C :   -0.121497
  10 C :   -0.089863
  11 C :   -0.007090
  12 N :    0.292047
  13 O :   -0.192810
  14 O :   -0.300684
  15 C :   -0.090763
  16 C :    0.040235
  17 C :   -0.143022
  18 C :   -0.127079
  19 C :   -0.133268
  20 C :   -0.125028
  21 C :   -0.119088
  22 H :    0.126409
  23 H :    0.132176
  24 H :    0.126951
  25 H :    0.119490
  26 H :    0.137847
  27 H :    0.132222
  28 H :    0.160113
  29 H :    0.141598
  30 H :    0.145189
  31 H :    0.163364
  32 H :    0.161819
  33 H :    0.132246
  34 H :    0.132791
  35 H :    0.131498
  36 H :    0.134302
  37 H :    0.139378

  Mayer bond orders larger than 0.100000
B(  0-C ,  1-C ) :   1.0030 B(  0-C , 22-H ) :   0.9432 B(  0-C , 23-H ) :   0.9447
B(  0-C , 24-H ) :   0.9436 B(  1-C ,  2-N ) :   0.9443 B(  1-C , 25-H ) :   0.9269
B(  1-C , 26-H ) :   0.9325 B(  2-N ,  3-C ) :   1.0151 B(  2-N , 16-C ) :   0.8795
B(  3-C ,  4-O ) :   1.8104 B(  3-C ,  5-C ) :   1.0247 B(  5-C ,  6-C ) :   1.7802
B(  5-C , 27-H ) :   0.9073 B(  6-C ,  7-C ) :   1.0398 B(  6-C , 28-H ) :   0.9026
B(  7-C ,  8-C ) :   1.3827 B(  7-C , 15-C ) :   1.3696 B(  8-C ,  9-C ) :   1.4370
B(  8-C , 29-H ) :   0.9170 B(  9-C , 10-C ) :   1.4230 B(  9-C , 30-H ) :   0.9254
B( 10-C , 11-C ) :   1.3892 B( 10-C , 31-H ) :   0.9015 B( 11-C , 12-N ) :   0.8092
B( 11-C , 15-C ) :   1.3594 B( 12-N , 13-O ) :   1.5235 B( 12-N , 14-O ) :   1.4094
B( 13-O , 14-O ) :   0.2983 B( 15-C , 32-H ) :   0.8999 B( 16-C , 17-C ) :   1.4189
B( 16-C , 21-C ) :   1.4215 B( 17-C , 18-C ) :   1.4397 B( 17-C , 33-H ) :   0.9196
B( 18-C , 19-C ) :   1.4564 B( 18-C , 34-H ) :   0.9290 B( 19-C , 20-C ) :   1.4436
B( 19-C , 35-H ) :   0.9304 B( 20-C , 21-C ) :   1.4487 B( 20-C , 36-H ) :   0.9285
B( 21-C , 37-H ) :   0.9207

FINAL SINGLE POINT ENERGY      -991.891022620013

DIPOLE MOMENT
-------------

Method             : SCF
Type of density    : Electron Density
Multiplicity       :   1
Irrep              :   0
Energy             :  -991.8910226200125635 Eh
Relativity type    :
Basis              : AO
                                X                 Y                 Z
Electronic contribution:     22.488296890      10.546068851      -0.988875027
Nuclear contribution   :    -24.166260708     -12.917203227       0.593927977
                        -----------------------------------------
Total Dipole Moment    :     -1.677963818      -2.371134376      -0.394947050
                        -----------------------------------------
Magnitude (a.u.)       :      2.931522467
Magnitude (Debye)      :      7.451337944

Rotational constants in cm-1:             0.025500             0.003069             0.002812
Rotational constants in MHz :           764.478515            92.018259            84.311187

                             ****ORCA TERMINATED NORMALLY****
TOTAL RUN TIME: 0 days 0 hours 2 minutes 52 seconds 225 msec
