                         Program Version 6.0.0  -   RELEASE  -
|  1> ! B3LYP 6-31G* SP
|  2>
|  3> * xyz 0 1
|  4> C -5.0915 2.6949 -1.0863
|  5> C -4.0722 1.9834 -0.2000
|  6> C -3.6463 0.6444 -0.8135
|  7> C -2.6346 -0.0468 0.0664
|  8> N -1.3262 0.1500 -0.2259
|  9> C -0.3091 -0.3840 0.4933
| 10> N 1.0362 -0.0507 0.1227
| 11> C 1.5313 -0.4009 -1.2094
| 12> C 2.0219 -1.8215 -1.2177
| 13> C 3.3961 -2.0984 -1.2165
| 14> C 3.8514 -3.4199 -1.1889
| 15> C 2.9336 -4.4874 -1.1419
| 16> O 3.3353 -5.8326 -1.0817
| 17> C 4.6841 -6.2933 -1.1551
| 18> F 5.2483 -5.9167 -2.3630
| 19> F 4.6915 -7.6741 -1.0681
| 20> F 5.4254 -5.7797 -0.1034
| 21> C 1.5614 -4.2060 -1.1449
| 22> C 1.1064 -2.8859 -1.1891
| 23> S 1.9130 1.0984 1.0882
| 24> O 3.3427 0.6467 1.2094
| 25> O 1.3179 1.1838 2.4673
| 26> C 1.8163 2.6846 0.3314
| 27> C 2.9770 3.4055 0.0209
| 28> C 2.8832 4.6695 -0.5699
| 29> C 1.6248 5.2315 -0.8594
| 30> C 1.5176 6.5758 -1.4669
| 31> O 2.5507 7.2680 -1.6720
| 32> O 0.2718 7.0929 -1.8116
| 33> C 0.4656 4.4985 -0.5534
| 34> C 0.5627 3.2373 0.0418
| 35> C -0.5874 -1.2221 1.5920
| 36> C 0.5380 -1.9105 2.3352
| 37> C -1.9421 -1.4127 1.9707
| 38> C -2.2886 -2.1758 3.1084
| 39> C -3.6237 -2.3429 3.4773
| 40> C -4.6370 -1.7534 2.7272
| 41> C -4.3252 -0.9963 1.5997
| 42> C -2.9817 -0.8137 1.2032
| 43> H -5.9983 2.0646 -1.2121
| 44> H -5.3886 3.6561 -0.6128
| 45> H -4.6509 2.9094 -2.0849
| 46> H -4.5221 1.8183 0.8038
| 47> H -3.1820 2.6391 -0.0788
| 48> H -3.1875 0.8360 -1.8093
| 49> H -4.5249 -0.0096 -1.0005
| 50> H 2.3505 0.2902 -1.5070
| 51> H 0.7242 -0.2746 -1.9632
| 52> H 4.1176 -1.2920 -1.2355
| 53> H 4.9170 -3.5963 -1.1948
| 54> H 0.8440 -5.0158 -1.1085
| 55> H 0.0407 -2.6928 -1.1856
| 56> H 3.9551 2.9971 0.2381
| 57> H 3.7951 5.2067 -0.7981
| 58> H 0.1839 8.0169 -2.2165
| 59> H -0.5175 4.9017 -0.7644
| 60> H -0.3425 2.6957 0.2837
| 61> H 1.5248 -1.7750 1.8478
| 62> H 0.6045 -1.5121 3.3697
| 63> H 0.3485 -3.0033 2.3713
| 64> H -1.5371 -2.6410 3.7313
| 65> H -3.8734 -2.9288 4.3528
| 66> H -5.6716 -1.8784 3.0228
| 67> H -5.1484 -0.5520 1.0587
| 68> *
| 69>
| 70>                          ****END OF INPUT****

CARTESIAN COORDINATES (ANGSTROEM)
---------------------------------
  C     -5.091500    2.694900   -1.086300
  C     -4.072200    1.983400   -0.200000
  C     -3.646300    0.644400   -0.813500
  C     -2.634600   -0.046800    0.066400
  N     -1.326200    0.150000   -0.225900
  C     -0.309100   -0.384000    0.493300
  N      1.036200   -0.050700    0.122700
  C      1.531300   -0.400900   -1.209400
  C      2.021900   -1.821500   -1.217700
  C      3.396100   -2.098400   -1.216500
  C      3.851400   -3.419900   -1.188900
  C      2.933600   -4.487400   -1.141900
  O      3.335300   -5.832600   -1.081700
  C      4.684100   -6.293300   -1.155100
  F      5.248300   -5.916700   -2.363000
  F      4.691500   -7.674100   -1.068100
  F      5.425400   -5.779700   -0.103400
  C      1.561400   -4.206000   -1.144900
  C      1.106400   -2.885900   -1.189100
  S      1.913000    1.098400    1.088200
  O      3.342700    0.646700    1.209400
  O      1.317900    1.183800    2.467300
  C      1.816300    2.684600    0.331400
  C      2.977000    3.405500    0.020900
  C      2.883200    4.669500   -0.569900
  C      1.624800    5.231500   -0.859400
  C      1.517600    6.575800   -1.466900
  O      2.550700    7.268000   -1.672000
  O      0.271800    7.092900   -1.811600
  C      0.465600    4.498500   -0.553400
  C      0.562700    3.237300    0.041800
  C     -0.587400   -1.222100    1.592000
  C      0.538000   -1.910500    2.335200
  C     -1.942100   -1.412700    1.970700
  C     -2.288600   -2.175800    3.108400
  C     -3.623700   -2.342900    3.477300
  C     -4.637000   -1.753400    2.727200
  C     -4.325200   -0.996300    1.599700
  C     -2.981700   -0.813700    1.203200
  H     -5.998300    2.064600   -1.212100
  H     -5.388600    3.656100   -0.612800
  H     -4.650900    2.909400   -2.084900
  H     -4.522100    1.818300    0.803800
  H     -3.182000    2.639100   -0.078800
  H     -3.187500    0.836000   -1.809300
  H     -4.524900   -0.009600   -1.000500
  H      2.350500    0.290200   -1.507000
  H      0.724200   -0.274600   -1.963200
  H      4.117600   -1.292000   -1.235500
  H      4.917000   -3.596300   -1.194800
  H      0.844000   -5.015800   -1.108500
  H      0.040700   -2.692800   -1.185600
  H      3.955100    2.997100    0.238100
  H      3.795100    5.206700   -0.798100
  H      0.183900    8.016900   -2.216500
  H     -0.517500    4.901700   -0.764400
  H     -0.342500    2.695700    0.283700
  H      1.524800   -1.775000    1.847800
  H      0.604500   -1.512100    3.369700
  H      0.348500   -3.003300    2.371300
  H     -1.537100   -2.641000    3.731300
  H     -3.873400   -2.928800    4.352800
  H     -5.671600   -1.878400    3.022800
  H     -5.148400   -0.552000    1.058700

 Total Charge           Charge          ....    0
 Multiplicity           Mult            ....    1
 Number of Electrons    NEL             ....  290
 Basis Dimension        Dim             ....  600

ORBITAL ENERGIES
----------------

  NO   OCC          E(Eh)            E(eV)
   0   2.0000     -89.097414     -2424.4639
   1   2.0000     -24.738046      -673.1565
   2   2.0000     -24.735576      -673.0892
   3   2.0000     -24.735455      -673.0859
   4   2.0000     -19.209522      -522.7177
   5   2.0000     -19.195613      -522.3392
   6   2.0000     -19.136684      -520.7356
   7   2.0000     -19.127629      -520.4893
   8   2.0000     -19.126923      -520.4700
   9   2.0000     -14.371710      -391.0741
  10   2.0000     -14.330519      -389.9532
  11   2.0000     -10.500882      -285.7435
  12   2.0000     -10.334220      -281.2084
  13   2.0000     -10.265105      -279.3277
  14   2.0000     -10.255867      -279.0763
  15   2.0000     -10.240446      -278.6567
  16   2.0000     -10.233546      -278.4690
  17   2.0000     -10.231528      -278.4140
  18   2.0000     -10.230033      -278.3733
  19   2.0000     -10.217833      -278.0414
  20   2.0000     -10.217479      -278.0317
  21   2.0000     -10.215526      -277.9786
  22   2.0000     -10.215444      -277.9764
  23   2.0000     -10.205559      -277.7074
  24   2.0000     -10.205013      -277.6925
  25   2.0000     -10.202766      -277.6314
  26   2.0000     -10.198074      -277.5037
  27   2.0000     -10.196531      -277.4617
  28   2.0000     -10.195660      -277.4380
  29   2.0000     -10.194683      -277.4114
  30   2.0000     -10.194261      -277.3999
  31   2.0000     -10.193940      -277.3912
  32   2.0000     -10.193063      -277.3673
  33   2.0000     -10.191852      -277.3344
  34   2.0000     -10.190845      -277.3070
  35   2.0000     -10.189093      -277.2593
  36   2.0000     -10.187641      -277.2198
  37   2.0000     -10.177254      -276.9372
  38   2.0000     -10.169273      -276.7200
  39   2.0000      -8.133193      -221.3154
  40   2.0000      -6.098228      -165.9412
  41   2.0000      -6.096257      -165.8876
  42   2.0000      -6.095784      -165.8747
  43   2.0000      -1.299560       -35.3628
  44   2.0000      -1.220850       -33.2210
  45   2.0000      -1.220447       -33.2101
  46   2.0000      -1.083770       -29.4909
  47   2.0000      -1.080284       -29.3960
  48   2.0000      -1.078749       -29.3542
  49   2.0000      -0.994255       -27.0550
  50   2.0000      -0.965144       -26.2629
  51   2.0000      -0.962414       -26.1886
  52   2.0000      -0.916676       -24.9440
  53   2.0000      -0.888075       -24.1657
  54   2.0000      -0.864655       -23.5284
  55   2.0000      -0.859950       -23.4004
  56   2.0000      -0.817330       -22.2407
  57   2.0000      -0.805234       -21.9115
  58   2.0000      -0.792409       -21.5625
  59   2.0000      -0.782343       -21.2886
  60   2.0000      -0.774293       -21.0696
  61   2.0000      -0.768914       -20.9232
  62   2.0000      -0.754959       -20.5435
  63   2.0000      -0.743490       -20.2314
  64   2.0000      -0.725580       -19.7440
  65   2.0000      -0.713877       -19.4256
  66   2.0000      -0.705095       -19.1866
  67   2.0000      -0.679153       -18.4807
  68   2.0000      -0.666994       -18.1498
  69   2.0000      -0.649979       -17.6868
  70   2.0000      -0.641293       -17.4505
  71   2.0000      -0.633684       -17.2434
  72   2.0000      -0.629668       -17.1341
  73   2.0000      -0.621870       -16.9219
  74   2.0000      -0.613895       -16.7049
  75   2.0000      -0.598218       -16.2783
  76   2.0000      -0.592210       -16.1149
  77   2.0000      -0.592008       -16.1093
  78   2.0000      -0.587940       -15.9987
  79   2.0000      -0.575864       -15.6701
  80   2.0000      -0.570066       -15.5123
  81   2.0000      -0.556086       -15.1319
  82   2.0000      -0.539247       -14.6737
  83   2.0000      -0.535826       -14.5806
  84   2.0000      -0.517028       -14.0690
  85   2.0000      -0.496576       -13.5125
  86   2.0000      -0.493921       -13.4403
  87   2.0000      -0.492761       -13.4087
  88   2.0000      -0.486844       -13.2477
  89   2.0000      -0.480028       -13.0622
  90   2.0000      -0.472545       -12.8586
  91   2.0000      -0.469608       -12.7787
  92   2.0000      -0.466835       -12.7032
  93   2.0000      -0.465765       -12.6741
  94   2.0000      -0.464922       -12.6512
  95   2.0000      -0.459978       -12.5166
  96   2.0000      -0.456709       -12.4277
  97   2.0000      -0.449977       -12.2445
  98   2.0000      -0.446131       -12.1399
  99   2.0000      -0.443627       -12.0717
 100   2.0000      -0.443077       -12.0568
 101   2.0000      -0.441739       -12.0203
 102   2.0000      -0.440937       -11.9985
 103   2.0000      -0.433989       -11.8094
 104   2.0000      -0.431791       -11.7496
 105   2.0000      -0.431618       -11.7449
 106   2.0000      -0.427488       -11.6325
 107   2.0000      -0.423600       -11.5267
 108   2.0000      -0.416332       -11.3290
 109   2.0000      -0.414021       -11.2661
 110   2.0000      -0.412977       -11.2377
 111   2.0000      -0.405680       -11.0391
 112   2.0000      -0.402814       -10.9611
 113   2.0000      -0.399956       -10.8834
 114   2.0000      -0.389721       -10.6048
 115   2.0000      -0.388364       -10.5679
 116   2.0000      -0.383895       -10.4463
 117   2.0000      -0.382838       -10.4175
 118   2.0000      -0.380609       -10.3569
 119   2.0000      -0.375747       -10.2246
 120   2.0000      -0.372892       -10.1469
 121   2.0000      -0.368052       -10.0152
 122   2.0000      -0.363753        -9.8982
 123   2.0000      -0.362186        -9.8556
 124   2.0000      -0.357557        -9.7296
 125   2.0000      -0.347357        -9.4521
 126   2.0000      -0.344794        -9.3823
 127   2.0000      -0.343079        -9.3356
 128   2.0000      -0.338686        -9.2161
 129   2.0000      -0.336609        -9.1596
 130   2.0000      -0.324745        -8.8368
 131   2.0000      -0.320371        -8.7177
 132   2.0000      -0.305346        -8.3089
 133   2.0000      -0.300903        -8.1880
 134   2.0000      -0.284817        -7.7503
 135   2.0000      -0.281169        -7.6510
 136   2.0000      -0.277558        -7.5527
 137   2.0000      -0.277190        -7.5427
 138   2.0000      -0.273297        -7.4368
 139   2.0000      -0.265875        -7.2348
 140   2.0000      -0.257945        -7.0190
 141   2.0000      -0.257083        -6.9956
 142   2.0000      -0.251865        -6.8536
 143   2.0000      -0.235598        -6.4110
 144   2.0000      -0.218865        -5.9556
 145   0.0000      -0.081651        -2.2218
 146   0.0000      -0.060095        -1.6353
 147   0.0000      -0.034615        -0.9419
 148   0.0000      -0.027953        -0.7607
 149   0.0000      -0.010137        -0.2759

MULLIKEN ATOMIC CHARGES
-----------------------
   0 C :   -0.432145
   1 C :   -0.250659
   2 C :   -0.316464
   3 C :    0.177494
   4 N :   -0.439848
   5 C :    0.291051
   6 N :   -0.606185
   7 C :   -0.256331
   8 C :    0.180801
   9 C :   -0.162548
  10 C :   -0.189451
  11 C :    0.353017
  12 O :   -0.546698
  13 C :    1.086183
  14 F :   -0.292032
  15 F :   -0.280524
  16 F :   -0.290155
  17 C :   -0.173358
  18 C :   -0.167731
  19 S :    1.215407
  20 O :   -0.549519
  21 O :   -0.540862
  22 C :   -0.126428
  23 C :   -0.151967
  24 C :   -0.139159
  25 C :    0.082647
  26 C :    0.526936
  27 O :   -0.444248
  28 O :   -0.624389
  29 C :   -0.149666
  30 C :   -0.143395
  31 C :    0.128674
  32 C :   -0.539145
  33 C :    0.116195
  34 C :   -0.196386
  35 C :   -0.119374
  36 C :   -0.123767
  37 C :   -0.210275
  38 C :    0.112214
  39 H :    0.139697
  40 H :    0.143899
  41 H :    0.143210
  42 H :    0.140382
  43 H :    0.142690
  44 H :    0.155816
  45 H :    0.141011
  46 H :    0.166787
  47 H :    0.180277
  48 H :    0.150734
  49 H :    0.153994
  50 H :    0.146481
  51 H :    0.145327
  52 H :    0.188866
  53 H :    0.179962
  54 H :    0.433682
  55 H :    0.169659
  56 H :    0.187679
  57 H :    0.196475
  58 H :    0.180091
  59 H :    0.148011
  60 H :    0.146058
  61 H :    0.138047
  62 H :    0.135055
  63 H :    0.138199
Sum of atomic charges:    0.0000000

LOEWDIN ATOMIC CHARGES
----------------------
   0 C :   -0.357508
   1 C :   -0.225772
   2 C :   -0.228726
   3 C :    0.040169
   4 N :   -0.150241
   5 C :    0.016857
   6 N :   -0.274981
   7 C :   -0.147244
   8 C :   -0.035430
   9 C :   -0.113013
  10 C :   -0.157358
  11 C :    0.086705
  12 O :   -0.161454
  13 C :    0.362598
  14 F :   -0.106394
  15 F :   -0.089550
  16 F :   -0.104924
  17 C :   -0.141921
  18 C :   -0.121925
  19 S :    1.263076
  20 O :   -0.576445
  21 O :   -0.565460
  22 C :   -0.175285
  23 C :   -0.105501
  24 C :   -0.086608
  25 C :   -0.040053
  26 C :    0.179252
  27 O :   -0.260426
  28 O :   -0.335400
  29 C :   -0.099744
  30 C :   -0.102046
  31 C :    0.000071
  32 C :   -0.360917
  33 C :   -0.003984
  34 C :   -0.117115
  35 C :   -0.117681
  36 C :   -0.125477
  37 C :   -0.119660
  38 C :   -0.027885
  39 H :    0.120719
  40 H :    0.125073
  41 H :    0.122512
  42 H :    0.120391
  43 H :    0.121443
  44 H :    0.137274
  45 H :    0.125040
  46 H :    0.139395
  47 H :    0.140954
  48 H :    0.143065
  49 H :    0.142934
  50 H :    0.144081
  51 H :    0.140405
  52 H :    0.162751
  53 H :    0.160173
  54 H :    0.349412
  55 H :    0.153341
  56 H :    0.157819
  57 H :    0.152177
  58 H :    0.147698
  59 H :    0.129295
  60 H :    0.142610
  61 H :    0.136691
  62 H :    0.135035
  63 H :    0.137110

  Mayer bond orders larger than 0.100000
B(  0-C ,  1-C ) :   1.0098 B(  0-C , 39-H ) :   0.9520 B(  0-C , 40-H ) :   0.9514
B(  0-C , 41-H ) :   0.9512 B(  1-C ,  2-C ) :   0.9945 B(  1-C , 42-H ) :   0.9379
B(  1-C , 43-H ) :   0.9385 B(  2-C ,  3-C ) :   0.9943 B(  2-C , 44-H ) :   0.9274
B(  2-C , 45-H ) :   0.9233 B(  3-C ,  4-N ) :   1.4562 B(  3-C , 38-C ) :   1.2363
B(  4-N ,  5-C ) :   1.2566 B(  5-C ,  6-N ) :   0.8905 B(  5-C , 31-C ) :   1.4401
B(  6-N ,  7-C ) :   0.9204 B(  6-N , 19-S ) :   0.7988 B(  7-C ,  8-C ) :   0.9486
B(  7-C , 46-H ) :   0.9224 B(  7-C , 47-H ) :   0.9148 B(  8-C ,  9-C ) :   1.4451
B(  8-C , 18-C ) :   1.4248 B(  9-C , 10-C ) :   1.4284 B(  9-C , 48-H ) :   0.9176
B( 10-C , 11-C ) :   1.3958 B( 10-C , 49-H ) :   0.9091 B( 11-C , 12-O ) :   0.8220
B( 11-C , 17-C ) :   1.4153 B( 12-O , 13-C ) :   0.9912 B( 13-C , 14-F ) :   0.9704
B( 13-C , 15-F ) :   1.0057 B( 13-C , 16-F ) :   0.9666 B( 17-C , 18-C ) :   1.4394
B( 17-C , 50-H ) :   0.9187 B( 18-C , 51-H ) :   0.9185 B( 19-S , 20-O ) :   1.6259
B( 19-S , 21-O ) :   1.6522 B( 19-S , 22-C ) :   0.8091 B( 22-C , 23-C ) :   1.3921
B( 22-C , 30-C ) :   1.3875 B( 23-C , 24-C ) :   1.4148 B( 23-C , 52-H ) :   0.9085
B( 24-C , 25-C ) :   1.4034 B( 24-C , 53-H ) :   0.9099 B( 25-C , 26-C ) :   1.0082
B( 25-C , 29-C ) :   1.3801 B( 26-C , 27-O ) :   1.8639 B( 26-C , 28-O ) :   1.0238
B( 28-O , 54-H ) :   0.7420 B( 29-C , 30-C ) :   1.4305 B( 29-C , 55-H ) :   0.9155
B( 30-C , 56-H ) :   0.8972 B( 31-C , 32-C ) :   1.0091 B( 31-C , 33-C ) :   1.2571
B( 32-C , 57-H ) :   0.9207 B( 32-C , 58-H ) :   0.9194 B( 32-C , 59-H ) :   0.9270
B( 33-C , 34-C ) :   1.2938 B( 33-C , 38-C ) :   1.2824 B( 34-C , 35-C ) :   1.5066
B( 34-C , 37-C ) :   0.1048 B( 34-C , 60-H ) :   0.9145 B( 35-C , 36-C ) :   1.3570
B( 35-C , 61-H ) :   0.9287 B( 36-C , 37-C ) :   1.5098 B( 36-C , 62-H ) :   0.9291
B( 37-C , 38-C ) :   1.2883 B( 37-C , 63-H ) :   0.9171

FINAL SINGLE POINT ENERGY     -2264.179997192272

DIPOLE MOMENT
-------------

Method             : SCF
Type of density    : Electron Density
Multiplicity       :   1
Irrep              :   0
Energy             : -2264.1799971922719124 Eh
Relativity type    :
Basis              : AO
                                X                 Y                 Z
Electronic contribution:     52.454135215     -34.993881915      -6.195475301
Nuclear contribution   :    -54.971465464      35.358139041       5.324334161
                        -----------------------------------------
Total Dipole Moment    :     -2.517330249       0.364257126      -0.871141140
                        -----------------------------------------
Magnitude (a.u.)       :      2.688591029
Magnitude (Debye)      :      6.833855300

Rotational constants in cm-1:             0.003223             0.001700             0.001255
Rotational constants in MHz :            96.616827            50.969790            37.628047

                             ****ORCA TERMINATED NORMALLY****
TOTAL RUN TIME: 0 days 0 hours 13 minutes 41 seconds 492 msec
