                         Program Version 6.0.0  -   RELEASE  -
|  1> ! B3LYP 6-31G* SP
|  2>
|  3> * xyz -1 1
|  4> C -1.8417 0.0755 3.7784
|  5> O -1.5570 -1.2156 3.2530
|  6> C -1.1030 -1.4181 1.9433
|  7> N -0.8925 -0.3546 1.1261
|  8> C -0.4630 -0.4820 -0.1540
|  9> N -0.2630 0.7060 -0.9289
| 10> C 0.7989 1.6420 -0.5599
| 11> C 2.1416 0.9762 -0.6863
| 12> C 2.7314 0.3543 0.4259
| 13> C 3.9417 -0.3316 0.2936
| 14> C 4.5792 -0.4086 -0.9608
| 15> O 5.7997 -1.0755 -1.1516
| 16> C 6.5785 -1.6777 -0.1199
| 17> F 7.7388 -2.1853 -0.6726
| 18> F 6.9152 -0.7337 0.8335
| 19> F 5.8738 -2.7134 0.4670
| 20> C 3.9783 0.2000 -2.0698
| 21> C 2.7656 0.8804 -1.9379
| 22> S -1.5091 1.2123 -2.0237
| 23> O -0.8817 1.7318 -3.2868
| 24> O -2.3935 0.0484 -2.3761
| 25> C -2.4741 2.4599 -1.2454
| 26> C -3.2917 2.1239 -0.1598
| 27> C -4.0430 3.1080 0.4884
| 28> C -3.9886 4.4449 0.0569
| 29> C -4.7825 5.4905 0.7380
| 30> O -5.5033 5.2036 1.7307
| 31> O -4.7442 6.8056 0.2917
| 32> C -3.1628 4.7760 -1.0323
| 33> C -2.4085 3.7904 -1.6764
| 34> C -0.1969 -1.7617 -0.6892
| 35> C 0.3372 -1.9113 -2.0971
| 36> C -0.4120 -2.8967 0.1340
| 37> C -0.1825 -4.2107 -0.3320
| 38> C -0.3984 -5.3099 0.5009
| 39> C -0.8430 -5.1241 1.8077
| 40> C -1.0775 -3.8371 2.2918
| 41> C -0.8680 -2.7171 1.4666
| 42> H -2.6357 0.5648 3.1742
| 43> H -2.1964 -0.0268 4.8249
| 44> H -0.9236 0.7007 3.7675
| 45> H 0.7684 2.5402 -1.2130
| 46> H 0.6351 1.9956 0.4809
| 47> H 2.2501 0.3982 1.3942
| 48> H 4.3681 -0.7978 1.1709
| 49> H 4.4517 0.1368 -3.0409
| 50> H 2.3100 1.3255 -2.8123
| 51> H -3.3440 1.0996 0.1885
| 52> H -4.6641 2.8212 1.3272
| 53> H -3.0946 5.7974 -1.3847
| 54> H -1.7711 4.0686 -2.5059
| 55> H 0.4938 -0.9408 -2.6077
| 56> H 1.3197 -2.4292 -2.0706
| 57> H -0.3776 -2.4994 -2.7108
| 58> H 0.1605 -4.4050 -1.3391
| 59> H -0.2189 -6.3109 0.1295
| 60> H -1.0076 -5.9807 2.4483
| 61> H -1.4221 -3.7231 3.3118
| 62> *
| 63>
| 64>                          ****END OF INPUT****

CARTESIAN COORDINATES (ANGSTROEM)
---------------------------------
  C     -1.841700    0.075500    3.778400
  O     -1.557000   -1.215600    3.253000
  C     -1.103000   -1.418100    1.943300
  N     -0.892500   -0.354600    1.126100
  C     -0.463000   -0.482000   -0.154000
  N     -0.263000    0.706000   -0.928900
  C      0.798900    1.642000   -0.559900
  C      2.141600    0.976200   -0.686300
  C      2.731400    0.354300    0.425900
  C      3.941700   -0.331600    0.293600
  C      4.579200   -0.408600   -0.960800
  O      5.799700   -1.075500   -1.151600
  C      6.578500   -1.677700   -0.119900
  F      7.738800   -2.185300   -0.672600
  F      6.915200   -0.733700    0.833500
  F      5.873800   -2.713400    0.467000
  C      3.978300    0.200000   -2.069800
  C      2.765600    0.880400   -1.937900
  S     -1.509100    1.212300   -2.023700
  O     -0.881700    1.731800   -3.286800
  O     -2.393500    0.048400   -2.376100
  C     -2.474100    2.459900   -1.245400
  C     -3.291700    2.123900   -0.159800
  C     -4.043000    3.108000    0.488400
  C     -3.988600    4.444900    0.056900
  C     -4.782500    5.490500    0.738000
  O     -5.503300    5.203600    1.730700
  O     -4.744200    6.805600    0.291700
  C     -3.162800    4.776000   -1.032300
  C     -2.408500    3.790400   -1.676400
  C     -0.196900   -1.761700   -0.689200
  C      0.337200   -1.911300   -2.097100
  C     -0.412000   -2.896700    0.134000
  C     -0.182500   -4.210700   -0.332000
  C     -0.398400   -5.309900    0.500900
  C     -0.843000   -5.124100    1.807700
  C     -1.077500   -3.837100    2.291800
  C     -0.868000   -2.717100    1.466600
  H     -2.635700    0.564800    3.174200
  H     -2.196400   -0.026800    4.824900
  H     -0.923600    0.700700    3.767500
  H      0.768400    2.540200   -1.213000
  H      0.635100    1.995600    0.480900
  H      2.250100    0.398200    1.394200
  H      4.368100   -0.797800    1.170900
  H      4.451700    0.136800   -3.040900
  H      2.310000    1.325500   -2.812300
  H     -3.344000    1.099600    0.188500
  H     -4.664100    2.821200    1.327200
  H     -3.094600    5.797400   -1.384700
  H     -1.771100    4.068600   -2.505900
  H      0.493800   -0.940800   -2.607700
  H      1.319700   -2.429200   -2.070600
  H     -0.377600   -2.499400   -2.710800
  H      0.160500   -4.405000   -1.339100
  H     -0.218900   -6.310900    0.129500
  H     -1.007600   -5.980700    2.448300
  H     -1.422100   -3.723100    3.311800

 Total Charge           Charge          ....   -1
 Multiplicity           Mult            ....    1
 Number of Electrons    NEL             ....  282
 Basis Dimension        Dim             ....  576

ORBITAL ENERGIES
----------------

  NO   OCC          E(Eh)            E(eV)
   0   2.0000     -89.002468     -2421.8803
   1   2.0000     -24.695618      -672.0019
   2   2.0000     -24.691622      -671.8932
   3   2.0000     -24.691484      -671.8894
   4   2.0000     -19.160385      -521.3806
   5   2.0000     -19.114134      -520.1220
   6   2.0000     -19.036268      -518.0032
   7   2.0000     -19.033678      -517.9327
   8   2.0000     -18.905311      -514.4397
   9   2.0000     -18.884274      -513.8672
  10   2.0000     -14.286084      -388.7441
  11   2.0000     -14.261001      -388.0616
  12   2.0000     -10.455922      -284.5201
  13   2.0000     -10.220963      -278.1265
  14   2.0000     -10.210650      -277.8459
  15   2.0000     -10.187852      -277.2256
  16   2.0000     -10.168867      -276.7089
  17   2.0000     -10.156827      -276.3813
  18   2.0000     -10.141035      -275.9516
  19   2.0000     -10.138796      -275.8907
  20   2.0000     -10.137927      -275.8670
  21   2.0000     -10.137857      -275.8651
  22   2.0000     -10.134974      -275.7867
  23   2.0000     -10.134733      -275.7801
  24   2.0000     -10.134254      -275.7671
  25   2.0000     -10.133130      -275.7365
  26   2.0000     -10.132663      -275.7238
  27   2.0000     -10.131543      -275.6933
  28   2.0000     -10.131506      -275.6923
  29   2.0000     -10.131431      -275.6903
  30   2.0000     -10.114003      -275.2160
  31   2.0000     -10.104139      -274.9476
  32   2.0000     -10.091957      -274.6161
  33   2.0000     -10.090755      -274.5834
  34   2.0000     -10.090505      -274.5766
  35   2.0000     -10.073308      -274.1086
  36   2.0000     -10.071894      -274.0702
  37   2.0000     -10.070370      -274.0287
  38   2.0000      -8.038333      -218.7342
  39   2.0000      -6.003681      -163.3685
  40   2.0000      -6.001652      -163.3133
  41   2.0000      -6.000275      -163.2758
  42   2.0000      -1.257240       -34.2112
  43   2.0000      -1.178355       -32.0647
  44   2.0000      -1.177641       -32.0453
  45   2.0000      -1.030512       -28.0416
  46   2.0000      -0.994196       -27.0535
  47   2.0000      -0.992129       -26.9972
  48   2.0000      -0.886935       -24.1347
  49   2.0000      -0.871751       -23.7215
  50   2.0000      -0.838571       -22.8187
  51   2.0000      -0.814773       -22.1711
  52   2.0000      -0.804385       -21.8884
  53   2.0000      -0.797896       -21.7119
  54   2.0000      -0.754971       -20.5438
  55   2.0000      -0.736591       -20.0437
  56   2.0000      -0.723973       -19.7003
  57   2.0000      -0.714045       -19.4301
  58   2.0000      -0.698757       -19.0141
  59   2.0000      -0.695772       -18.9329
  60   2.0000      -0.678039       -18.4504
  61   2.0000      -0.671140       -18.2626
  62   2.0000      -0.657163       -17.8823
  63   2.0000      -0.650207       -17.6930
  64   2.0000      -0.641319       -17.4512
  65   2.0000      -0.621379       -16.9086
  66   2.0000      -0.607252       -16.5242
  67   2.0000      -0.582333       -15.8461
  68   2.0000      -0.576776       -15.6949
  69   2.0000      -0.575109       -15.6495
  70   2.0000      -0.565458       -15.3869
  71   2.0000      -0.549044       -14.9402
  72   2.0000      -0.544226       -14.8092
  73   2.0000      -0.540774       -14.7152
  74   2.0000      -0.518007       -14.0957
  75   2.0000      -0.514748       -14.0070
  76   2.0000      -0.500538       -13.6203
  77   2.0000      -0.498430       -13.5630
  78   2.0000      -0.475264       -12.9326
  79   2.0000      -0.463630       -12.6160
  80   2.0000      -0.448977       -12.2173
  81   2.0000      -0.441130       -12.0038
  82   2.0000      -0.437674       -11.9097
  83   2.0000      -0.427607       -11.6358
  84   2.0000      -0.423169       -11.5150
  85   2.0000      -0.420432       -11.4405
  86   2.0000      -0.417467       -11.3599
  87   2.0000      -0.414325       -11.2744
  88   2.0000      -0.405223       -11.0267
  89   2.0000      -0.402306       -10.9473
  90   2.0000      -0.399333       -10.8664
  91   2.0000      -0.397496       -10.8164
  92   2.0000      -0.392919       -10.6919
  93   2.0000      -0.387066       -10.5326
  94   2.0000      -0.384941       -10.4748
  95   2.0000      -0.380119       -10.3436
  96   2.0000      -0.378443       -10.2980
  97   2.0000      -0.370257       -10.0752
  98   2.0000      -0.369893       -10.0653
  99   2.0000      -0.361139        -9.8271
 100   2.0000      -0.358197        -9.7470
 101   2.0000      -0.354152        -9.6370
 102   2.0000      -0.353023        -9.6062
 103   2.0000      -0.343712        -9.3529
 104   2.0000      -0.336099        -9.1457
 105   2.0000      -0.334303        -9.0968
 106   2.0000      -0.329438        -8.9645
 107   2.0000      -0.327733        -8.9181
 108   2.0000      -0.323879        -8.8132
 109   2.0000      -0.315593        -8.5877
 110   2.0000      -0.312754        -8.5105
 111   2.0000      -0.308302        -8.3893
 112   2.0000      -0.300093        -8.1659
 113   2.0000      -0.293280        -7.9805
 114   2.0000      -0.290734        -7.9113
 115   2.0000      -0.289957        -7.8901
 116   2.0000      -0.288378        -7.8472
 117   2.0000      -0.286863        -7.8059
 118   2.0000      -0.272221        -7.4075
 119   2.0000      -0.268478        -7.3057
 120   2.0000      -0.256750        -6.9865
 121   2.0000      -0.242889        -6.6093
 122   2.0000      -0.237366        -6.4590
 123   2.0000      -0.228529        -6.2186
 124   2.0000      -0.213339        -5.8052
 125   2.0000      -0.211648        -5.7592
 126   2.0000      -0.207503        -5.6464
 127   2.0000      -0.202517        -5.5108
 128   2.0000      -0.200635        -5.4596
 129   2.0000      -0.195620        -5.3231
 130   2.0000      -0.194574        -5.2946
 131   2.0000      -0.186033        -5.0622
 132   2.0000      -0.184302        -5.0151
 133   2.0000      -0.181097        -4.9279
 134   2.0000      -0.172429        -4.6920
 135   2.0000      -0.147718        -4.0196
 136   2.0000      -0.144635        -3.9357
 137   2.0000      -0.127461        -3.4684
 138   2.0000      -0.059550        -1.6204
 139   2.0000      -0.037839        -1.0297
 140   2.0000      -0.021092        -0.5739
 141   0.0000       0.010830         0.2947
 142   0.0000       0.032962         0.8969
 143   0.0000       0.046247         1.2584
 144   0.0000       0.048868         1.3298
 145   0.0000       0.070347         1.9142

MULLIKEN ATOMIC CHARGES
-----------------------
   0 C :   -0.193978
   1 O :   -0.497659
   2 C :    0.414605
   3 N :   -0.454806
   4 C :    0.307711
   5 N :   -0.615675
   6 C :   -0.225878
   7 C :    0.149692
   8 C :   -0.166612
   9 C :   -0.192169
  10 C :    0.346142
  11 O :   -0.548098
  12 C :    1.083197
  13 F :   -0.284864
  14 F :   -0.293245
  15 F :   -0.292258
  16 C :   -0.174822
  17 C :   -0.162054
  18 S :    1.211090
  19 O :   -0.576769
  20 O :   -0.565623
  21 C :   -0.142695
  22 C :   -0.145300
  23 C :   -0.161663
  24 C :    0.105814
  25 C :    0.409903
  26 O :   -0.553823
  27 O :   -0.658307
  28 C :   -0.151229
  29 C :   -0.161679
  30 C :    0.126950
  31 C :   -0.537213
  32 C :    0.126356
  33 C :   -0.200988
  34 C :   -0.119512
  35 C :   -0.128962
  36 C :   -0.187334
  37 C :    0.076078
  38 H :    0.178617
  39 H :    0.153699
  40 H :    0.153300
  41 H :    0.183315
  42 H :    0.166951
  43 H :    0.145580
  44 H :    0.143345
  45 H :    0.140407
  46 H :    0.166402
  47 H :    0.142001
  48 H :    0.141798
  49 H :    0.150862
  50 H :    0.144014
  51 H :    0.195825
  52 H :    0.140373
  53 H :    0.163869
  54 H :    0.135572
  55 H :    0.121834
  56 H :    0.119786
  57 H :    0.148128
Sum of atomic charges:   -1.0000000

LOEWDIN ATOMIC CHARGES
----------------------
   0 C :   -0.197305
   1 O :   -0.185663
   2 C :    0.124483
   3 N :   -0.166410
   4 C :    0.039326
   5 N :   -0.288028
   6 C :   -0.145699
   7 C :   -0.029991
   8 C :   -0.120024
   9 C :   -0.164519
  10 C :    0.079618
  11 O :   -0.162912
  12 C :    0.357773
  13 F :   -0.092711
  14 F :   -0.106529
  15 F :   -0.106106
  16 C :   -0.145329
  17 C :   -0.111067
  18 S :    1.262120
  19 O :   -0.596953
  20 O :   -0.585421
  21 C :   -0.216213
  22 C :   -0.120615
  23 C :   -0.115216
  24 C :   -0.003978
  25 C :    0.070865
  26 O :   -0.379362
  27 O :   -0.506361
  28 C :   -0.109771
  29 C :   -0.128961
  30 C :   -0.015677
  31 C :   -0.358208
  32 C :    0.000095
  33 C :   -0.123984
  34 C :   -0.123647
  35 C :   -0.138527
  36 C :   -0.106293
  37 C :   -0.040674
  38 H :    0.134621
  39 H :    0.127373
  40 H :    0.122392
  41 H :    0.150150
  42 H :    0.130015
  43 H :    0.140358
  44 H :    0.137634
  45 H :    0.141170
  46 H :    0.150269
  47 H :    0.137414
  48 H :    0.144135
  49 H :    0.149687
  50 H :    0.139714
  51 H :    0.151020
  52 H :    0.124983
  53 H :    0.138465
  54 H :    0.138471
  55 H :    0.129002
  56 H :    0.127956
  57 H :    0.143045

  Mayer bond orders larger than 0.100000
B(  0-C ,  1-O ) :   0.8883 B(  0-C , 38-H ) :   0.9298 B(  0-C , 39-H ) :   0.9456
B(  0-C , 40-H ) :   0.9358 B(  1-O ,  2-C ) :   0.9762 B(  2-C ,  3-N ) :   1.4020
B(  2-C , 37-C ) :   1.2259 B(  3-N ,  4-C ) :   1.2532 B(  4-C ,  5-N ) :   0.9086
B(  4-C , 30-C ) :   1.4486 B(  5-N ,  6-C ) :   0.9285 B(  5-N , 18-S ) :   0.7729
B(  6-C ,  7-C ) :   0.9647 B(  6-C , 41-H ) :   0.9143 B(  6-C , 42-H ) :   0.9183
B(  7-C ,  8-C ) :   1.4400 B(  7-C , 17-C ) :   1.4310 B(  8-C ,  9-C ) :   1.4235
B(  8-C , 43-H ) :   0.9180 B(  9-C , 10-C ) :   1.3974 B(  9-C , 44-H ) :   0.9117
B( 10-C , 11-O ) :   0.8120 B( 10-C , 16-C ) :   1.4143 B( 11-O , 12-C ) :   1.0017
B( 12-C , 13-F ) :   1.0017 B( 12-C , 14-F ) :   0.9680 B( 12-C , 15-F ) :   0.9673
B( 16-C , 17-C ) :   1.4338 B( 16-C , 45-H ) :   0.9205 B( 17-C , 46-H ) :   0.9136
B( 18-S , 19-O ) :   1.6005 B( 18-S , 20-O ) :   1.6370 B( 18-S , 21-C ) :   0.8453
B( 21-C , 22-C ) :   1.3633 B( 21-C , 29-C ) :   1.3720 B( 22-C , 23-C ) :   1.4211
B( 22-C , 47-H ) :   0.9166 B( 23-C , 24-C ) :   1.3847 B( 23-C , 48-H ) :   0.9082
B( 24-C , 25-C ) :   0.9274 B( 24-C , 28-C ) :   1.4066 B( 25-C , 26-O ) :   1.7062
B( 25-C , 27-O ) :   1.5521 B( 26-O , 27-O ) :   0.1477 B( 28-C , 29-C ) :   1.3970
B( 28-C , 49-H ) :   0.9018 B( 29-C , 50-H ) :   0.9205 B( 30-C , 31-C ) :   1.0080
B( 30-C , 32-C ) :   1.2544 B( 31-C , 51-H ) :   0.9198 B( 31-C , 52-H ) :   0.9288
B( 31-C , 53-H ) :   0.9254 B( 32-C , 33-C ) :   1.2962 B( 32-C , 37-C ) :   1.2989
B( 33-C , 34-C ) :   1.5053 B( 33-C , 36-C ) :   0.1057 B( 33-C , 54-H ) :   0.9154
B( 34-C , 35-C ) :   1.3575 B( 34-C , 55-H ) :   0.9318 B( 35-C , 36-C ) :   1.4950
B( 35-C , 56-H ) :   0.9324 B( 36-C , 37-C ) :   1.2963 B( 36-C , 57-H ) :   0.9177

FINAL SINGLE POINT ENERGY     -2260.239361620667

DIPOLE MOMENT
-------------

Method             : SCF
Type of density    : Electron Density
Multiplicity       :   1
Irrep              :   0
Energy             : -2260.2393616206672959 Eh
Relativity type    :
Basis              : AO
                                X                 Y                 Z
Electronic contribution:     35.757987145      -5.858887936      -3.475279670
Nuclear contribution   :    -27.474989122      -2.721157084       3.885744081
                        -----------------------------------------
Total Dipole Moment    :      8.282998024      -8.580045020       0.410464410
                        -----------------------------------------
Magnitude (a.u.)       :     11.932883551
Magnitude (Debye)      :     30.330979543

Rotational constants in cm-1:             0.004280             0.001688             0.001442
Rotational constants in MHz :           128.302737            50.603956            43.231800

                             ****ORCA TERMINATED NORMALLY****
TOTAL RUN TIME: 0 days 0 hours 13 minutes 8 seconds 467 msec
