                         Program Version 6.0.0  -   RELEASE  -
|  1> ! B3LYP 6-31G* SP
|  2>
|  3> * xyz 0 1
|  4> C 5.2139 -1.6735 1.8714
|  5> O 3.9512 -1.7558 1.2171
|  6> C 3.4269 -0.7607 0.3785
|  7> C 4.1060 0.4436 0.1204
|  8> C 3.5354 1.4055 -0.7149
|  9> C 2.2875 1.1811 -1.3002
| 10> C 1.5951 -0.0248 -1.0624
| 11> C 0.2163 -0.3113 -1.6323
| 12> C -0.1567 0.5289 -2.8669
| 13> N -0.8188 -0.2077 -0.5779
| 14> C -1.2871 1.0942 -0.1677
| 15> O -2.4544 1.4577 -0.4786
| 16> C -0.4043 2.0301 0.5623
| 17> C -0.5065 3.4148 0.3419
| 18> C 0.3502 4.3004 1.0047
| 19> C 1.3034 3.8133 1.9030
| 20> C 1.3950 2.4405 2.1489
| 21> C 0.5409 1.5526 1.4863
| 22> C -1.5164 -1.4299 -0.1200
| 23> C -1.5397 -1.5346 1.3929
| 24> N -1.2155 -2.7693 2.0347
| 25> O -1.8760 -0.5478 2.0994
| 26> C -2.8871 -1.5448 -0.7706
| 27> C -4.0835 -1.2163 -0.0941
| 28> C -5.3159 -1.3142 -0.7492
| 29> C -5.3723 -1.7172 -2.0852
| 30> C -4.1956 -2.0245 -2.7710
| 31> C -2.9622 -1.9410 -2.1195
| 32> C 2.1797 -0.9842 -0.2161
| 33> H 5.3788 -2.6008 2.4585
| 34> H 5.2298 -0.8057 2.5645
| 35> H 6.0273 -1.5781 1.1206
| 36> H 5.0710 0.6467 0.5632
| 37> H 4.0603 2.3329 -0.9048
| 38> H 1.8698 1.9597 -1.9238
| 39> H 0.2569 -1.3550 -2.0154
| 40> H -1.1131 0.1599 -3.2936
| 41> H 0.6300 0.4359 -3.6465
| 42> H -0.2875 1.6011 -2.6103
| 43> H -1.2268 3.8070 -0.3657
| 44> H 0.2835 5.3632 0.8116
| 45> H 1.9685 4.4996 2.4111
| 46> H 2.1299 2.0643 2.8478
| 47> H 0.6278 0.4937 1.6890
| 48> H -0.9390 -2.3167 -0.4611
| 49> H -0.9561 -3.6168 1.4794
| 50> H -1.2379 -2.8410 3.0754
| 51> H -4.0788 -0.8844 0.9320
| 52> H -6.2284 -1.0702 -0.2205
| 53> H -6.3276 -1.7862 -2.5924
| 54> H -4.2396 -2.3266 -3.8118
| 55> H -2.0625 -2.1795 -2.6727
| 56> H 1.6546 -1.9078 -0.0038
| 57> *
| 58>
| 59>                          ****END OF INPUT****

CARTESIAN COORDINATES (ANGSTROEM)
---------------------------------
  C      5.213900   -1.673500    1.871400
  O      3.951200   -1.755800    1.217100
  C      3.426900   -0.760700    0.378500
  C      4.106000    0.443600    0.120400
  C      3.535400    1.405500   -0.714900
  C      2.287500    1.181100   -1.300200
  C      1.595100   -0.024800   -1.062400
  C      0.216300   -0.311300   -1.632300
  C     -0.156700    0.528900   -2.866900
  N     -0.818800   -0.207700   -0.577900
  C     -1.287100    1.094200   -0.167700
  O     -2.454400    1.457700   -0.478600
  C     -0.404300    2.030100    0.562300
  C     -0.506500    3.414800    0.341900
  C      0.350200    4.300400    1.004700
  C      1.303400    3.813300    1.903000
  C      1.395000    2.440500    2.148900
  C      0.540900    1.552600    1.486300
  C     -1.516400   -1.429900   -0.120000
  C     -1.539700   -1.534600    1.392900
  N     -1.215500   -2.769300    2.034700
  O     -1.876000   -0.547800    2.099400
  C     -2.887100   -1.544800   -0.770600
  C     -4.083500   -1.216300   -0.094100
  C     -5.315900   -1.314200   -0.749200
  C     -5.372300   -1.717200   -2.085200
  C     -4.195600   -2.024500   -2.771000
  C     -2.962200   -1.941000   -2.119500
  C      2.179700   -0.984200   -0.216100
  H      5.378800   -2.600800    2.458500
  H      5.229800   -0.805700    2.564500
  H      6.027300   -1.578100    1.120600
  H      5.071000    0.646700    0.563200
  H      4.060300    2.332900   -0.904800
  H      1.869800    1.959700   -1.923800
  H      0.256900   -1.355000   -2.015400
  H     -1.113100    0.159900   -3.293600
  H      0.630000    0.435900   -3.646500
  H     -0.287500    1.601100   -2.610300
  H     -1.226800    3.807000   -0.365700
  H      0.283500    5.363200    0.811600
  H      1.968500    4.499600    2.411100
  H      2.129900    2.064300    2.847800
  H      0.627800    0.493700    1.689000
  H     -0.939000   -2.316700   -0.461100
  H     -0.956100   -3.616800    1.479400
  H     -1.237900   -2.841000    3.075400
  H     -4.078800   -0.884400    0.932000
  H     -6.228400   -1.070200   -0.220500
  H     -6.327600   -1.786200   -2.592400
  H     -4.239600   -2.326600   -3.811800
  H     -2.062500   -2.179500   -2.672700
  H      1.654600   -1.907800   -0.003800

 Total Charge           Charge          ....    0
 Multiplicity           Mult            ....    1
 Number of Electrons    NEL             ....  206
 Basis Dimension        Dim             ....  454

ORBITAL ENERGIES
----------------

  NO   OCC          E(Eh)            E(eV)
   0   2.0000     -19.163334      -521.4608
   1   2.0000     -19.113087      -520.0935
   2   2.0000     -19.106928      -519.9260
   3   2.0000     -14.360405      -390.7665
   4   2.0000     -14.327779      -389.8787
   5   2.0000     -10.294340      -280.1232
   6   2.0000     -10.277689      -279.6701
   7   2.0000     -10.244006      -278.7536
   8   2.0000     -10.238033      -278.5910
   9   2.0000     -10.237547      -278.5778
  10   2.0000     -10.226041      -278.2647
  11   2.0000     -10.186917      -277.2001
  12   2.0000     -10.185293      -277.1559
  13   2.0000     -10.180692      -277.0307
  14   2.0000     -10.179521      -276.9988
  15   2.0000     -10.177750      -276.9507
  16   2.0000     -10.177126      -276.9337
  17   2.0000     -10.176242      -276.9096
  18   2.0000     -10.176227      -276.9092
  19   2.0000     -10.174661      -276.8666
  20   2.0000     -10.174214      -276.8544
  21   2.0000     -10.173642      -276.8389
  22   2.0000     -10.172883      -276.8182
  23   2.0000     -10.172603      -276.8106
  24   2.0000     -10.170550      -276.7547
  25   2.0000     -10.170152      -276.7439
  26   2.0000     -10.168845      -276.7083
  27   2.0000     -10.168507      -276.6992
  28   2.0000     -10.167291      -276.6661
  29   2.0000      -1.041172       -28.3317
  30   2.0000      -1.015407       -27.6306
  31   2.0000      -0.999279       -27.1918
  32   2.0000      -0.910828       -24.7849
  33   2.0000      -0.882593       -24.0166
  34   2.0000      -0.847150       -23.0521
  35   2.0000      -0.841196       -22.8901
  36   2.0000      -0.836844       -22.7717
  37   2.0000      -0.784309       -21.3421
  38   2.0000      -0.756166       -20.5763
  39   2.0000      -0.749539       -20.3960
  40   2.0000      -0.740510       -20.1503
  41   2.0000      -0.732965       -19.9450
  42   2.0000      -0.730852       -19.8875
  43   2.0000      -0.717264       -19.5177
  44   2.0000      -0.692039       -18.8313
  45   2.0000      -0.686973       -18.6935
  46   2.0000      -0.640534       -17.4298
  47   2.0000      -0.617968       -16.8158
  48   2.0000      -0.600260       -16.3339
  49   2.0000      -0.598399       -16.2833
  50   2.0000      -0.592174       -16.1139
  51   2.0000      -0.589591       -16.0436
  52   2.0000      -0.571729       -15.5575
  53   2.0000      -0.565873       -15.3982
  54   2.0000      -0.538898       -14.6642
  55   2.0000      -0.522690       -14.2231
  56   2.0000      -0.520599       -14.1662
  57   2.0000      -0.510255       -13.8848
  58   2.0000      -0.495498       -13.4832
  59   2.0000      -0.481488       -13.1019
  60   2.0000      -0.480865       -13.0850
  61   2.0000      -0.477890       -13.0040
  62   2.0000      -0.468454       -12.7473
  63   2.0000      -0.460424       -12.5288
  64   2.0000      -0.459449       -12.5022
  65   2.0000      -0.449042       -12.2191
  66   2.0000      -0.442653       -12.0452
  67   2.0000      -0.438126       -11.9220
  68   2.0000      -0.429586       -11.6896
  69   2.0000      -0.426439       -11.6040
  70   2.0000      -0.422850       -11.5063
  71   2.0000      -0.419847       -11.4246
  72   2.0000      -0.413328       -11.2472
  73   2.0000      -0.408841       -11.1251
  74   2.0000      -0.407152       -11.0792
  75   2.0000      -0.401269       -10.9191
  76   2.0000      -0.392030       -10.6677
  77   2.0000      -0.383646       -10.4395
  78   2.0000      -0.374958       -10.2031
  79   2.0000      -0.372404       -10.1336
  80   2.0000      -0.369264       -10.0482
  81   2.0000      -0.365300        -9.9403
  82   2.0000      -0.358486        -9.7549
  83   2.0000      -0.349394        -9.5075
  84   2.0000      -0.346805        -9.4370
  85   2.0000      -0.343493        -9.3469
  86   2.0000      -0.340579        -9.2676
  87   2.0000      -0.336349        -9.1525
  88   2.0000      -0.332988        -9.0611
  89   2.0000      -0.328236        -8.9318
  90   2.0000      -0.323724        -8.8090
  91   2.0000      -0.312551        -8.5049
  92   2.0000      -0.305903        -8.3240
  93   2.0000      -0.265449        -7.2232
  94   2.0000      -0.259029        -7.0485
  95   2.0000      -0.253455        -6.8969
  96   2.0000      -0.243451        -6.6246
  97   2.0000      -0.237638        -6.4665
  98   2.0000      -0.236059        -6.4235
  99   2.0000      -0.232277        -6.3206
 100   2.0000      -0.221145        -6.0177
 101   2.0000      -0.214100        -5.8259
 102   2.0000      -0.202619        -5.5136
 103   0.0000      -0.037681        -1.0254
 104   0.0000      -0.006786        -0.1847
 105   0.0000      -0.001501        -0.0408
 106   0.0000       0.010641         0.2896
 107   0.0000       0.011956         0.3253

MULLIKEN ATOMIC CHARGES
-----------------------
   0 C :   -0.193091
   1 O :   -0.517206
   2 C :    0.371958
   3 C :   -0.207245
   4 C :   -0.118559
   5 C :   -0.174436
   6 C :    0.184647
   7 C :   -0.070121
   8 C :   -0.455819
   9 N :   -0.431861
  10 C :    0.450003
  11 O :   -0.433223
  12 C :    0.105053
  13 C :   -0.153572
  14 C :   -0.135136
  15 C :   -0.118043
  16 C :   -0.130320
  17 C :   -0.126683
  18 C :   -0.138687
  19 C :    0.579226
  20 N :   -0.768703
  21 O :   -0.474905
  22 C :    0.172555
  23 C :   -0.144627
  24 C :   -0.129956
  25 C :   -0.121633
  26 C :   -0.128597
  27 C :   -0.174837
  28 C :   -0.229693
  29 H :    0.166043
  30 H :    0.145187
  31 H :    0.146284
  32 H :    0.126332
  33 H :    0.129732
  34 H :    0.127134
  35 H :    0.144596
  36 H :    0.164139
  37 H :    0.144047
  38 H :    0.158953
  39 H :    0.148085
  40 H :    0.127811
  41 H :    0.125566
  42 H :    0.125062
  43 H :    0.149088
  44 H :    0.133319
  45 H :    0.334609
  46 H :    0.352692
  47 H :    0.158496
  48 H :    0.128366
  49 H :    0.123150
  50 H :    0.123119
  51 H :    0.115033
  52 H :    0.116668
Sum of atomic charges:   -0.0000000

LOEWDIN ATOMIC CHARGES
----------------------
   0 C :   -0.198913
   1 O :   -0.198670
   2 C :    0.086896
   3 C :   -0.178608
   4 C :   -0.116566
   5 C :   -0.147803
   6 C :   -0.015048
   7 C :   -0.046765
   8 C :   -0.363002
   9 N :   -0.126633
  10 C :    0.162770
  11 O :   -0.230667
  12 C :   -0.048600
  13 C :   -0.101414
  14 C :   -0.136313
  15 C :   -0.118307
  16 C :   -0.131139
  17 C :   -0.088944
  18 C :   -0.060203
  19 C :    0.144488
  20 N :   -0.397119
  21 O :   -0.281105
  22 C :   -0.016445
  23 C :   -0.116384
  24 C :   -0.125008
  25 C :   -0.129881
  26 C :   -0.131078
  27 C :   -0.136015
  28 C :   -0.155939
  29 H :    0.133712
  30 H :    0.115109
  31 H :    0.115860
  32 H :    0.132591
  33 H :    0.132569
  34 H :    0.133156
  35 H :    0.129144
  36 H :    0.136685
  37 H :    0.126807
  38 H :    0.130702
  39 H :    0.143037
  40 H :    0.131187
  41 H :    0.129829
  42 H :    0.130448
  43 H :    0.144055
  44 H :    0.128773
  45 H :    0.251820
  46 H :    0.265901
  47 H :    0.146961
  48 H :    0.131637
  49 H :    0.128995
  50 H :    0.128975
  51 H :    0.123797
  52 H :    0.130666

  Mayer bond orders larger than 0.100000
B(  0-C ,  1-O ) :   0.9228 B(  0-C , 29-H ) :   0.9458 B(  0-C , 30-H ) :   0.9307
B(  0-C , 31-H ) :   0.9308 B(  1-O ,  2-C ) :   0.9104 B(  2-C ,  3-C ) :   1.3658
B(  2-C , 28-C ) :   1.3911 B(  3-C ,  4-C ) :   1.4406 B(  3-C , 32-H ) :   0.9197
B(  4-C ,  5-C ) :   1.4374 B(  4-C , 33-H ) :   0.9291 B(  5-C ,  6-C ) :   1.4252
B(  5-C , 34-H ) :   0.9193 B(  6-C ,  7-C ) :   0.9484 B(  6-C , 28-C ) :   1.4063
B(  7-C ,  8-C ) :   1.0078 B(  7-C ,  9-N ) :   0.9434 B(  7-C , 35-H ) :   0.9215
B(  8-C , 36-H ) :   0.9353 B(  8-C , 37-H ) :   0.9393 B(  8-C , 38-H ) :   0.9331
B(  9-N , 10-C ) :   0.9343 B(  9-N , 18-C ) :   0.9810 B( 10-C , 11-O ) :   1.8659
B( 10-C , 12-C ) :   0.9805 B( 12-C , 13-C ) :   1.3939 B( 12-C , 17-C ) :   1.3960
B( 13-C , 14-C ) :   1.4359 B( 13-C , 39-H ) :   0.9187 B( 14-C , 15-C ) :   1.4421
B( 14-C , 40-H ) :   0.9308 B( 15-C , 16-C ) :   1.4447 B( 15-C , 41-H ) :   0.9312
B( 16-C , 17-C ) :   1.4358 B( 16-C , 42-H ) :   0.9303 B( 17-C , 43-H ) :   0.9091
B( 18-C , 19-C ) :   0.9184 B( 18-C , 22-C ) :   0.9329 B( 18-C , 44-H ) :   0.9118
B( 19-C , 20-N ) :   1.0806 B( 19-C , 21-O ) :   1.7956 B( 20-N , 45-H ) :   0.8301
B( 20-N , 46-H ) :   0.8209 B( 22-C , 23-C ) :   1.4407 B( 22-C , 27-C ) :   1.4152
B( 23-C , 24-C ) :   1.4318 B( 23-C , 47-H ) :   0.9043 B( 24-C , 25-C ) :   1.4548
B( 24-C , 48-H ) :   0.9300 B( 25-C , 26-C ) :   1.4508 B( 25-C , 49-H ) :   0.9309
B( 26-C , 27-C ) :   1.4484 B( 26-C , 50-H ) :   0.9299 B( 27-C , 51-H ) :   0.9241
B( 28-C , 52-H ) :   0.9149

FINAL SINGLE POINT ENERGY     -1263.352604443222

DIPOLE MOMENT
-------------

Method             : SCF
Type of density    : Electron Density
Multiplicity       :   1
Irrep              :   0
Energy             : -1263.3526044432221624 Eh
Relativity type    :
Basis              : AO
                                X                 Y                 Z
Electronic contribution:     -8.743912797       1.214509081       4.045954815
Nuclear contribution   :     10.546093463      -2.492658549      -3.982636411
                        -----------------------------------------
Total Dipole Moment    :      1.802180666      -1.278149468       0.063318404
                        -----------------------------------------
Magnitude (a.u.)       :      2.210323605
Magnitude (Debye)      :      5.618196118

Rotational constants in cm-1:             0.008632             0.004110             0.003626
Rotational constants in MHz :           258.775551           123.202993           108.716983

                             ****ORCA TERMINATED NORMALLY****
TOTAL RUN TIME: 0 days 0 hours 6 minutes 44 seconds 696 msec
