                         Program Version 6.0.0  -   RELEASE  -
|  1> ! B3LYP 6-31G* SP
|  2>
|  3> * xyz 0 1
|  4> C 8.5215 -0.8308 -2.3063
|  5> N 7.3572 -0.5196 -1.4852
|  6> C 6.4740 0.5635 -1.8155
|  7> O 6.8100 1.3863 -2.7128
|  8> C 5.1793 0.7427 -1.1110
|  9> C 4.5309 -0.3420 -0.4920
| 10> C 3.3082 -0.1581 0.1612
| 11> C 2.7149 1.1077 0.2073
| 12> S 1.1736 1.3168 1.0291
| 13> O 0.8090 2.7721 1.1117
| 14> O 1.2843 0.7736 2.4259
| 15> N -0.0600 0.4668 0.1533
| 16> C -0.4301 0.8977 -1.1954
| 17> C -1.8391 1.4242 -1.1915
| 18> C -2.9249 0.5451 -1.3320
| 19> C -4.2369 1.0224 -1.2491
| 20> C -4.4811 2.3928 -1.0216
| 21> O -5.7771 2.9285 -0.9316
| 22> C -6.9871 2.1712 -0.9983
| 23> F -7.0192 1.2340 0.0226
| 24> F -7.0886 1.5400 -2.2273
| 25> F -8.0597 3.0308 -0.8493
| 26> C -3.3939 3.2638 -0.8740
| 27> C -2.0825 2.7850 -0.9493
| 28> C -0.5601 -0.7747 0.6639
| 29> N -0.1178 -1.9301 0.1025
| 30> C -0.5472 -3.1489 0.5083
| 31> C -1.4806 -3.2551 1.5413
| 32> C -1.9289 -4.5174 1.9625
| 33> C -2.8694 -4.6218 2.9877
| 34> C -3.3633 -3.4718 3.6045
| 35> C -2.9228 -2.2084 3.1985
| 36> C -1.9774 -2.0771 2.1556
| 37> C -1.5215 -0.8107 1.7019
| 38> C -2.0663 0.4717 2.2944
| 39> C 3.3439 2.1888 -0.4212
| 40> C 4.5644 2.0074 -1.0788
| 41> H 9.0707 -1.6919 -1.8718
| 42> H 8.1964 -1.0953 -3.3352
| 43> H 9.2030 0.0458 -2.3446
| 44> H 7.1926 -1.0907 -0.6256
| 45> H 4.9483 -1.3396 -0.5296
| 46> H 2.8208 -1.0050 0.6270
| 47> H -0.3359 0.0461 -1.9055
| 48> H 0.2665 1.6884 -1.5541
| 49> H -2.7548 -0.5138 -1.4893
| 50> H -5.0481 0.3170 -1.3560
| 51> H -3.5665 4.3180 -0.6880
| 52> H -1.2570 3.4740 -0.8093
| 53> H -0.1570 -4.0336 0.0205
| 54> H -1.5558 -5.4215 1.4952
| 55> H -3.2178 -5.5976 3.3057
| 56> H -4.0936 -3.5590 4.3996
| 57> H -3.3306 -1.3452 3.7071
| 58> H -1.7658 0.5475 3.3596
| 59> H -3.1729 0.4808 2.2191
| 60> H -1.7047 1.3775 1.7732
| 61> H 2.8937 3.1722 -0.4057
| 62> H 5.0325 2.8596 -1.5542
| 63> *
| 64>
| 65>                          ****END OF INPUT****

CARTESIAN COORDINATES (ANGSTROEM)
---------------------------------
  C      8.521500   -0.830800   -2.306300
  N      7.357200   -0.519600   -1.485200
  C      6.474000    0.563500   -1.815500
  O      6.810000    1.386300   -2.712800
  C      5.179300    0.742700   -1.111000
  C      4.530900   -0.342000   -0.492000
  C      3.308200   -0.158100    0.161200
  C      2.714900    1.107700    0.207300
  S      1.173600    1.316800    1.029100
  O      0.809000    2.772100    1.111700
  O      1.284300    0.773600    2.425900
  N     -0.060000    0.466800    0.153300
  C     -0.430100    0.897700   -1.195400
  C     -1.839100    1.424200   -1.191500
  C     -2.924900    0.545100   -1.332000
  C     -4.236900    1.022400   -1.249100
  C     -4.481100    2.392800   -1.021600
  O     -5.777100    2.928500   -0.931600
  C     -6.987100    2.171200   -0.998300
  F     -7.019200    1.234000    0.022600
  F     -7.088600    1.540000   -2.227300
  F     -8.059700    3.030800   -0.849300
  C     -3.393900    3.263800   -0.874000
  C     -2.082500    2.785000   -0.949300
  C     -0.560100   -0.774700    0.663900
  N     -0.117800   -1.930100    0.102500
  C     -0.547200   -3.148900    0.508300
  C     -1.480600   -3.255100    1.541300
  C     -1.928900   -4.517400    1.962500
  C     -2.869400   -4.621800    2.987700
  C     -3.363300   -3.471800    3.604500
  C     -2.922800   -2.208400    3.198500
  C     -1.977400   -2.077100    2.155600
  C     -1.521500   -0.810700    1.701900
  C     -2.066300    0.471700    2.294400
  C      3.343900    2.188800   -0.421200
  C      4.564400    2.007400   -1.078800
  H      9.070700   -1.691900   -1.871800
  H      8.196400   -1.095300   -3.335200
  H      9.203000    0.045800   -2.344600
  H      7.192600   -1.090700   -0.625600
  H      4.948300   -1.339600   -0.529600
  H      2.820800   -1.005000    0.627000
  H     -0.335900    0.046100   -1.905500
  H      0.266500    1.688400   -1.554100
  H     -2.754800   -0.513800   -1.489300
  H     -5.048100    0.317000   -1.356000
  H     -3.566500    4.318000   -0.688000
  H     -1.257000    3.474000   -0.809300
  H     -0.157000   -4.033600    0.020500
  H     -1.555800   -5.421500    1.495200
  H     -3.217800   -5.597600    3.305700
  H     -4.093600   -3.559000    4.399600
  H     -3.330600   -1.345200    3.707100
  H     -1.765800    0.547500    3.359600
  H     -3.172900    0.480800    2.219100
  H     -1.704700    1.377500    1.773200
  H      2.893700    3.172200   -0.405700
  H      5.032500    2.859600   -1.554200

 Total Charge           Charge          ....    0
 Multiplicity           Mult            ....    1
 Number of Electrons    NEL             ....  274
 Basis Dimension        Dim             ....  566

ORBITAL ENERGIES
----------------

  NO   OCC          E(Eh)            E(eV)
   0   2.0000     -89.095899     -2424.4227
   1   2.0000     -24.740074      -673.2116
   2   2.0000     -24.738071      -673.1571
   3   2.0000     -24.737864      -673.1515
   4   2.0000     -19.210799      -522.7524
   5   2.0000     -19.126223      -520.4510
   6   2.0000     -19.125106      -520.4206
   7   2.0000     -19.116166      -520.1773
   8   2.0000     -14.368876      -390.9970
   9   2.0000     -14.364724      -390.8840
  10   2.0000     -14.333967      -390.0471
  11   2.0000     -10.502894      -285.7983
  12   2.0000     -10.296981      -280.1951
  13   2.0000     -10.266415      -279.3633
  14   2.0000     -10.257460      -279.1197
  15   2.0000     -10.235490      -278.5218
  16   2.0000     -10.232106      -278.4298
  17   2.0000     -10.226386      -278.2741
  18   2.0000     -10.221550      -278.1425
  19   2.0000     -10.219179      -278.0780
  20   2.0000     -10.215987      -277.9911
  21   2.0000     -10.214165      -277.9416
  22   2.0000     -10.214015      -277.9375
  23   2.0000     -10.208949      -277.7996
  24   2.0000     -10.208259      -277.7809
  25   2.0000     -10.206225      -277.7255
  26   2.0000     -10.201558      -277.5985
  27   2.0000     -10.198903      -277.5262
  28   2.0000     -10.198301      -277.5099
  29   2.0000     -10.197193      -277.4797
  30   2.0000     -10.196156      -277.4515
  31   2.0000     -10.194508      -277.4067
  32   2.0000     -10.194369      -277.4029
  33   2.0000     -10.193737      -277.3857
  34   2.0000     -10.193678      -277.3841
  35   2.0000     -10.191455      -277.3236
  36   2.0000     -10.170499      -276.7533
  37   2.0000      -8.131645      -221.2733
  38   2.0000      -6.096673      -165.8989
  39   2.0000      -6.094749      -165.8465
  40   2.0000      -6.094217      -165.8321
  41   2.0000      -1.301718       -35.4216
  42   2.0000      -1.223204       -33.2851
  43   2.0000      -1.222723       -33.2720
  44   2.0000      -1.083319       -29.4786
  45   2.0000      -1.079619       -29.3779
  46   2.0000      -1.015379       -27.6299
  47   2.0000      -0.963927       -26.2298
  48   2.0000      -0.961313       -26.1587
  49   2.0000      -0.914535       -24.8858
  50   2.0000      -0.905131       -24.6299
  51   2.0000      -0.883468       -24.0404
  52   2.0000      -0.865594       -23.5540
  53   2.0000      -0.859772       -23.3956
  54   2.0000      -0.806832       -21.9550
  55   2.0000      -0.799619       -21.7587
  56   2.0000      -0.783743       -21.3267
  57   2.0000      -0.773874       -21.0582
  58   2.0000      -0.771004       -20.9801
  59   2.0000      -0.755542       -20.5593
  60   2.0000      -0.742609       -20.2074
  61   2.0000      -0.725850       -19.7514
  62   2.0000      -0.711437       -19.3592
  63   2.0000      -0.696480       -18.9522
  64   2.0000      -0.684801       -18.6344
  65   2.0000      -0.669872       -18.2281
  66   2.0000      -0.644389       -17.5347
  67   2.0000      -0.637750       -17.3541
  68   2.0000      -0.631532       -17.1849
  69   2.0000      -0.628815       -17.1109
  70   2.0000      -0.619426       -16.8554
  71   2.0000      -0.598559       -16.2876
  72   2.0000      -0.594466       -16.1763
  73   2.0000      -0.593650       -16.1540
  74   2.0000      -0.589324       -16.0363
  75   2.0000      -0.577692       -15.7198
  76   2.0000      -0.570510       -15.5244
  77   2.0000      -0.559260       -15.2182
  78   2.0000      -0.540113       -14.6972
  79   2.0000      -0.534287       -14.5387
  80   2.0000      -0.516871       -14.0648
  81   2.0000      -0.502299       -13.6682
  82   2.0000      -0.497863       -13.5475
  83   2.0000      -0.489150       -13.3105
  84   2.0000      -0.483068       -13.1449
  85   2.0000      -0.480703       -13.0806
  86   2.0000      -0.476855       -12.9759
  87   2.0000      -0.470067       -12.7912
  88   2.0000      -0.468373       -12.7451
  89   2.0000      -0.466918       -12.7055
  90   2.0000      -0.458245       -12.4695
  91   2.0000      -0.455386       -12.3917
  92   2.0000      -0.449645       -12.2355
  93   2.0000      -0.448853       -12.2139
  94   2.0000      -0.445443       -12.1211
  95   2.0000      -0.444455       -12.0942
  96   2.0000      -0.443864       -12.0782
  97   2.0000      -0.440987       -11.9999
  98   2.0000      -0.433333       -11.7916
  99   2.0000      -0.430839       -11.7237
 100   2.0000      -0.430209       -11.7066
 101   2.0000      -0.427211       -11.6250
 102   2.0000      -0.425327       -11.5737
 103   2.0000      -0.421475       -11.4689
 104   2.0000      -0.415369       -11.3028
 105   2.0000      -0.406314       -11.0564
 106   2.0000      -0.404366       -11.0034
 107   2.0000      -0.402140       -10.9428
 108   2.0000      -0.400149       -10.8886
 109   2.0000      -0.394224       -10.7274
 110   2.0000      -0.393051       -10.6955
 111   2.0000      -0.390608       -10.6290
 112   2.0000      -0.383162       -10.4264
 113   2.0000      -0.377310       -10.2671
 114   2.0000      -0.372050       -10.1240
 115   2.0000      -0.369777       -10.0621
 116   2.0000      -0.365360        -9.9420
 117   2.0000      -0.363542        -9.8925
 118   2.0000      -0.355056        -9.6616
 119   2.0000      -0.350535        -9.5385
 120   2.0000      -0.345167        -9.3925
 121   2.0000      -0.343519        -9.3476
 122   2.0000      -0.324877        -8.8404
 123   2.0000      -0.306648        -8.3443
 124   2.0000      -0.300074        -8.1654
 125   2.0000      -0.288905        -7.8615
 126   2.0000      -0.279495        -7.6055
 127   2.0000      -0.276648        -7.5280
 128   2.0000      -0.274929        -7.4812
 129   2.0000      -0.267078        -7.2676
 130   2.0000      -0.258666        -7.0387
 131   2.0000      -0.257058        -6.9949
 132   2.0000      -0.256326        -6.9750
 133   2.0000      -0.251007        -6.8302
 134   2.0000      -0.249303        -6.7839
 135   2.0000      -0.235606        -6.4112
 136   2.0000      -0.222672        -6.0592
 137   0.0000      -0.070826        -1.9273
 138   0.0000      -0.060792        -1.6542
 139   0.0000      -0.033103        -0.9008
 140   0.0000      -0.026691        -0.7263
 141   0.0000      -0.011882        -0.3233

MULLIKEN ATOMIC CHARGES
-----------------------
   0 C :   -0.280702
   1 N :   -0.607022
   2 C :    0.499177
   3 O :   -0.477962
   4 C :    0.084823
   5 C :   -0.164789
   6 C :   -0.135431
   7 C :   -0.128321
   8 S :    1.221086
   9 O :   -0.556408
  10 O :   -0.546778
  11 N :   -0.606755
  12 C :   -0.248368
  13 C :    0.166686
  14 C :   -0.172334
  15 C :   -0.192159
  16 C :    0.351822
  17 O :   -0.545694
  18 C :    1.086699
  19 F :   -0.292841
  20 F :   -0.291460
  21 F :   -0.279223
  22 C :   -0.172463
  23 C :   -0.160841
  24 C :    0.304493
  25 N :   -0.403624
  26 C :   -0.062160
  27 C :    0.139450
  28 C :   -0.204244
  29 C :   -0.125858
  30 C :   -0.121192
  31 C :   -0.194000
  32 C :    0.115189
  33 C :    0.131330
  34 C :   -0.542952
  35 C :   -0.153122
  36 C :   -0.137699
  37 H :    0.148499
  38 H :    0.172410
  39 H :    0.179222
  40 H :    0.327000
  41 H :    0.141311
  42 H :    0.182421
  43 H :    0.176268
  44 H :    0.169323
  45 H :    0.144300
  46 H :    0.151099
  47 H :    0.151455
  48 H :    0.162186
  49 H :    0.148702
  50 H :    0.137140
  51 H :    0.136375
  52 H :    0.139403
  53 H :    0.146055
  54 H :    0.176359
  55 H :    0.155036
  56 H :    0.199858
  57 H :    0.183826
  58 H :    0.175404
Sum of atomic charges:    0.0000000

LOEWDIN ATOMIC CHARGES
----------------------
   0 C :   -0.270360
   1 N :   -0.251228
   2 C :    0.140288
   3 O :   -0.284517
   4 C :   -0.029766
   5 C :   -0.120204
   6 C :   -0.096098
   7 C :   -0.182676
   8 S :    1.263593
   9 O :   -0.580362
  10 O :   -0.569649
  11 N :   -0.279282
  12 C :   -0.145469
  13 C :   -0.038350
  14 C :   -0.123145
  15 C :   -0.162006
  16 C :    0.086610
  17 O :   -0.161325
  18 C :    0.363169
  19 F :   -0.107296
  20 F :   -0.105854
  21 F :   -0.088043
  22 C :   -0.139680
  23 C :   -0.112701
  24 C :    0.022509
  25 N :   -0.141236
  26 C :   -0.067069
  27 C :   -0.028331
  28 C :   -0.114088
  29 C :   -0.124812
  30 C :   -0.117264
  31 C :   -0.117687
  32 C :   -0.006468
  33 C :    0.009101
  34 C :   -0.361959
  35 C :   -0.106400
  36 C :   -0.091695
  37 H :    0.129385
  38 H :    0.134070
  39 H :    0.137349
  40 H :    0.249904
  41 H :    0.138357
  42 H :    0.158276
  43 H :    0.137690
  44 H :    0.141448
  45 H :    0.139115
  46 H :    0.141322
  47 H :    0.146397
  48 H :    0.148393
  49 H :    0.135055
  50 H :    0.136104
  51 H :    0.135491
  52 H :    0.137299
  53 H :    0.142362
  54 H :    0.146435
  55 H :    0.133721
  56 H :    0.153504
  57 H :    0.159790
  58 H :    0.158278

  Mayer bond orders larger than 0.100000
B(  0-C ,  1-N ) :   0.9419 B(  0-C , 37-H ) :   0.9474 B(  0-C , 38-H ) :   0.9402
B(  0-C , 39-H ) :   0.9346 B(  1-N ,  2-C ) :   1.0649 B(  1-N , 40-H ) :   0.8278
B(  2-C ,  3-O ) :   1.8094 B(  2-C ,  4-C ) :   0.9817 B(  4-C ,  5-C ) :   1.3844
B(  4-C , 36-C ) :   1.4086 B(  5-C ,  6-C ) :   1.4402 B(  5-C , 41-H ) :   0.9188
B(  6-C ,  7-C ) :   1.3924 B(  6-C , 42-H ) :   0.9060 B(  7-C ,  8-S ) :   0.8139
B(  7-C , 35-C ) :   1.3907 B(  8-S ,  9-O ) :   1.6113 B(  8-S , 10-O ) :   1.6466
B(  8-S , 11-N ) :   0.8052 B( 11-N , 12-C ) :   0.9204 B( 11-N , 24-C ) :   0.8954
B( 12-C , 13-C ) :   0.9520 B( 12-C , 43-H ) :   0.9185 B( 12-C , 44-H ) :   0.9217
B( 13-C , 14-C ) :   1.4331 B( 13-C , 23-C ) :   1.4317 B( 14-C , 15-C ) :   1.4280
B( 14-C , 45-H ) :   0.9203 B( 15-C , 16-C ) :   1.3928 B( 15-C , 46-H ) :   0.9099
B( 16-C , 17-O ) :   0.8227 B( 16-C , 22-C ) :   1.4145 B( 17-O , 18-C ) :   0.9907
B( 18-C , 19-F ) :   0.9673 B( 18-C , 20-F ) :   0.9669 B( 18-C , 21-F ) :   1.0074
B( 22-C , 23-C ) :   1.4369 B( 22-C , 47-H ) :   0.9182 B( 23-C , 48-H ) :   0.9129
B( 24-C , 25-N ) :   1.2760 B( 24-C , 33-C ) :   1.4317 B( 25-N , 26-C ) :   1.4929
B( 26-C , 27-C ) :   1.2423 B( 26-C , 49-H ) :   0.9269 B( 27-C , 28-C ) :   1.2824
B( 27-C , 32-C ) :   1.2907 B( 28-C , 29-C ) :   1.5130 B( 28-C , 31-C ) :   0.1061
B( 28-C , 50-H ) :   0.9237 B( 29-C , 30-C ) :   1.3523 B( 29-C , 51-H ) :   0.9292
B( 30-C , 31-C ) :   1.5075 B( 30-C , 52-H ) :   0.9288 B( 31-C , 32-C ) :   1.2960
B( 31-C , 53-H ) :   0.9149 B( 32-C , 33-C ) :   1.2607 B( 33-C , 34-C ) :   1.0108
B( 34-C , 54-H ) :   0.9215 B( 34-C , 55-H ) :   0.9255 B( 34-C , 56-H ) :   0.9163
B( 35-C , 36-C ) :   1.4111 B( 35-C , 57-H ) :   0.9094 B( 36-C , 58-H ) :   0.9108

FINAL SINGLE POINT ENERGY     -2165.742966426931

DIPOLE MOMENT
-------------

Method             : SCF
Type of density    : Electron Density
Multiplicity       :   1
Irrep              :   0
Energy             : -2165.7429664269311615 Eh
Relativity type    :
Basis              : AO
                                X                 Y                 Z
Electronic contribution:    -46.943722423      16.942964314      -4.507506928
Nuclear contribution   :     47.271072721     -19.463749361       4.471196190
                        -----------------------------------------
Total Dipole Moment    :      0.327350297      -2.520785047      -0.036310738
                        -----------------------------------------
Magnitude (a.u.)       :      2.542210444
Magnitude (Debye)      :      6.461785421

Rotational constants in cm-1:             0.004658             0.001567             0.001292
Rotational constants in MHz :           139.657738            46.977947            38.727612

                             ****ORCA TERMINATED NORMALLY****
TOTAL RUN TIME: 0 days 0 hours 12 minutes 41 seconds 245 msec
