                         Program Version 6.0.0  -   RELEASE  -
|  1> ! B3LYP 6-31G* SP
|  2>
|  3> * xyz 0 1
|  4> C -3.0415 1.2761 -0.7988
|  5> C -2.2875 1.8776 0.3684
|  6> C -1.0933 1.2826 0.8430
|  7> N -0.5194 0.1395 0.1985
|  8> C 0.1189 0.2667 -1.1149
|  9> C 1.6075 0.0706 -1.0044
| 10> C 2.3714 0.9128 -0.1813
| 11> C 3.7463 0.7050 -0.0408
| 12> C 4.3859 -0.3406 -0.7326
| 13> C 5.8428 -0.5799 -0.5630
| 14> C 6.7414 0.5008 -0.4734
| 15> C 8.1105 0.2718 -0.3053
| 16> C 8.5980 -1.0318 -0.2241
| 17> C 7.7174 -2.1145 -0.3128
| 18> F 8.1900 -3.3804 -0.2239
| 19> C 6.3475 -1.8928 -0.4803
| 20> C 3.6191 -1.1666 -1.5741
| 21> C 2.2432 -0.9640 -1.7074
| 22> S -0.6457 -1.4103 0.9700
| 23> O -0.7151 -1.2382 2.4610
| 24> O 0.5617 -2.2450 0.6522
| 25> C -2.1024 -2.2118 0.3993
| 26> C -3.3490 -1.8474 0.9228
| 27> C -4.5165 -2.4495 0.4449
| 28> C -4.4525 -3.4261 -0.5661
| 29> C -5.6850 -4.0671 -1.0764
| 30> O -6.8098 -3.7601 -0.5979
| 31> O -5.6136 -5.0185 -2.0907
| 32> C -3.1970 -3.7836 -1.0906
| 33> C -2.0310 -3.1764 -0.6144
| 34> N -0.4659 1.7923 1.9359
| 35> C -0.9222 2.8840 2.5957
| 36> C -2.0746 3.5396 2.1562
| 37> C -2.5405 4.6804 2.8278
| 38> C -3.6886 5.3371 2.3841
| 39> C -4.3761 4.8637 1.2659
| 40> C -3.9247 3.7278 0.5884
| 41> C -2.7695 3.0415 1.0250
| 42> H -2.9954 1.9653 -1.6690
| 43> H -4.1018 1.1041 -0.5145
| 44> H -2.6415 0.2936 -1.1135
| 45> H -0.0753 1.2732 -1.5479
| 46> H -0.3313 -0.4781 -1.8073
| 47> H 1.8991 1.7203 0.3650
| 48> H 4.3040 1.3463 0.6299
| 49> H 6.3881 1.5201 -0.5473
| 50> H 8.7931 1.1090 -0.2383
| 51> H 9.6580 -1.2060 -0.0925
| 52> H 5.6805 -2.7478 -0.5233
| 53> H 4.0840 -1.9677 -2.1354
| 54> H 1.6731 -1.6224 -2.3517
| 55> H -3.4182 -1.0866 1.6916
| 56> H -5.4686 -2.1467 0.8632
| 57> H -6.4513 -5.4642 -2.4468
| 58> H -3.1149 -4.5290 -1.8720
| 59> H -1.0756 -3.4545 -1.0424
| 60> H -0.3779 3.2422 3.4618
| 61> H -2.0165 5.0636 3.6955
| 62> H -4.0443 6.2169 2.9050
| 63> H -5.2633 5.3795 0.9216
| 64> H -4.4847 3.4033 -0.2779
| 65> *
| 66>
| 67>                          ****END OF INPUT****

CARTESIAN COORDINATES (ANGSTROEM)
---------------------------------
  C     -3.041500    1.276100   -0.798800
  C     -2.287500    1.877600    0.368400
  C     -1.093300    1.282600    0.843000
  N     -0.519400    0.139500    0.198500
  C      0.118900    0.266700   -1.114900
  C      1.607500    0.070600   -1.004400
  C      2.371400    0.912800   -0.181300
  C      3.746300    0.705000   -0.040800
  C      4.385900   -0.340600   -0.732600
  C      5.842800   -0.579900   -0.563000
  C      6.741400    0.500800   -0.473400
  C      8.110500    0.271800   -0.305300
  C      8.598000   -1.031800   -0.224100
  C      7.717400   -2.114500   -0.312800
  F      8.190000   -3.380400   -0.223900
  C      6.347500   -1.892800   -0.480300
  C      3.619100   -1.166600   -1.574100
  C      2.243200   -0.964000   -1.707400
  S     -0.645700   -1.410300    0.970000
  O     -0.715100   -1.238200    2.461000
  O      0.561700   -2.245000    0.652200
  C     -2.102400   -2.211800    0.399300
  C     -3.349000   -1.847400    0.922800
  C     -4.516500   -2.449500    0.444900
  C     -4.452500   -3.426100   -0.566100
  C     -5.685000   -4.067100   -1.076400
  O     -6.809800   -3.760100   -0.597900
  O     -5.613600   -5.018500   -2.090700
  C     -3.197000   -3.783600   -1.090600
  C     -2.031000   -3.176400   -0.614400
  N     -0.465900    1.792300    1.935900
  C     -0.922200    2.884000    2.595700
  C     -2.074600    3.539600    2.156200
  C     -2.540500    4.680400    2.827800
  C     -3.688600    5.337100    2.384100
  C     -4.376100    4.863700    1.265900
  C     -3.924700    3.727800    0.588400
  C     -2.769500    3.041500    1.025000
  H     -2.995400    1.965300   -1.669000
  H     -4.101800    1.104100   -0.514500
  H     -2.641500    0.293600   -1.113500
  H     -0.075300    1.273200   -1.547900
  H     -0.331300   -0.478100   -1.807300
  H      1.899100    1.720300    0.365000
  H      4.304000    1.346300    0.629900
  H      6.388100    1.520100   -0.547300
  H      8.793100    1.109000   -0.238300
  H      9.658000   -1.206000   -0.092500
  H      5.680500   -2.747800   -0.523300
  H      4.084000   -1.967700   -2.135400
  H      1.673100   -1.622400   -2.351700
  H     -3.418200   -1.086600    1.691600
  H     -5.468600   -2.146700    0.863200
  H     -6.451300   -5.464200   -2.446800
  H     -3.114900   -4.529000   -1.872000
  H     -1.075600   -3.454500   -1.042400
  H     -0.377900    3.242200    3.461800
  H     -2.016500    5.063600    3.695500
  H     -4.044300    6.216900    2.905000
  H     -5.263300    5.379500    0.921600
  H     -4.484700    3.403300   -0.277900

 Total Charge           Charge          ....    0
 Multiplicity           Mult            ....    1
 Number of Electrons    NEL             ....  274
 Basis Dimension        Dim             ....  582

ORBITAL ENERGIES
----------------

  NO   OCC          E(Eh)            E(eV)
   0   2.0000     -89.095179     -2424.4031
   1   2.0000     -24.688919      -671.8196
   2   2.0000     -19.198332      -522.4132
   3   2.0000     -19.140098      -520.8285
   4   2.0000     -19.122628      -520.3532
   5   2.0000     -19.121311      -520.3173
   6   2.0000     -14.370136      -391.0313
   7   2.0000     -14.330447      -389.9513
   8   2.0000     -10.337537      -281.2987
   9   2.0000     -10.262614      -279.2599
  10   2.0000     -10.259651      -279.1793
  11   2.0000     -10.242619      -278.7158
  12   2.0000     -10.235500      -278.5221
  13   2.0000     -10.234055      -278.4828
  14   2.0000     -10.226036      -278.2646
  15   2.0000     -10.222008      -278.1550
  16   2.0000     -10.221628      -278.1447
  17   2.0000     -10.219711      -278.0925
  18   2.0000     -10.219588      -278.0891
  19   2.0000     -10.214581      -277.9529
  20   2.0000     -10.210937      -277.8537
  21   2.0000     -10.203191      -277.6430
  22   2.0000     -10.201949      -277.6091
  23   2.0000     -10.200954      -277.5821
  24   2.0000     -10.200259      -277.5632
  25   2.0000     -10.199161      -277.5333
  26   2.0000     -10.194634      -277.4101
  27   2.0000     -10.192487      -277.3517
  28   2.0000     -10.185175      -277.1527
  29   2.0000     -10.183385      -277.1040
  30   2.0000     -10.183131      -277.0971
  31   2.0000     -10.179362      -276.9945
  32   2.0000     -10.178990      -276.9844
  33   2.0000     -10.175688      -276.8946
  34   2.0000     -10.175683      -276.8944
  35   2.0000     -10.174017      -276.8491
  36   2.0000     -10.173966      -276.8477
  37   2.0000     -10.172651      -276.8119
  38   2.0000      -8.130632      -221.2458
  39   2.0000      -6.095730      -165.8732
  40   2.0000      -6.093647      -165.8166
  41   2.0000      -6.093318      -165.8076
  42   2.0000      -1.202937       -32.7336
  43   2.0000      -1.083065       -29.4717
  44   2.0000      -1.080507       -29.4021
  45   2.0000      -0.997336       -27.1389
  46   2.0000      -0.963131       -26.2081
  47   2.0000      -0.957772       -26.0623
  48   2.0000      -0.915129       -24.9019
  49   2.0000      -0.891835       -24.2681
  50   2.0000      -0.867748       -23.6126
  51   2.0000      -0.858623       -23.3643
  52   2.0000      -0.838437       -22.8150
  53   2.0000      -0.812713       -22.1150
  54   2.0000      -0.808080       -21.9890
  55   2.0000      -0.783735       -21.3265
  56   2.0000      -0.778416       -21.1818
  57   2.0000      -0.774474       -21.0745
  58   2.0000      -0.748149       -20.3582
  59   2.0000      -0.741497       -20.1772
  60   2.0000      -0.737109       -20.0578
  61   2.0000      -0.732207       -19.9244
  62   2.0000      -0.715560       -19.4714
  63   2.0000      -0.701733       -19.0951
  64   2.0000      -0.678779       -18.4705
  65   2.0000      -0.655501       -17.8371
  66   2.0000      -0.648135       -17.6367
  67   2.0000      -0.639956       -17.4141
  68   2.0000      -0.622413       -16.9367
  69   2.0000      -0.614787       -16.7292
  70   2.0000      -0.610946       -16.6247
  71   2.0000      -0.600234       -16.3332
  72   2.0000      -0.596126       -16.2214
  73   2.0000      -0.587948       -15.9989
  74   2.0000      -0.571009       -15.5379
  75   2.0000      -0.561068       -15.2674
  76   2.0000      -0.544495       -14.8165
  77   2.0000      -0.534233       -14.5372
  78   2.0000      -0.529774       -14.4159
  79   2.0000      -0.514339       -13.9959
  80   2.0000      -0.506004       -13.7691
  81   2.0000      -0.491553       -13.3758
  82   2.0000      -0.489092       -13.3089
  83   2.0000      -0.485552       -13.2125
  84   2.0000      -0.481865       -13.1122
  85   2.0000      -0.480587       -13.0774
  86   2.0000      -0.473706       -12.8902
  87   2.0000      -0.473011       -12.8713
  88   2.0000      -0.463102       -12.6016
  89   2.0000      -0.455782       -12.4025
  90   2.0000      -0.453778       -12.3479
  91   2.0000      -0.450500       -12.2587
  92   2.0000      -0.449717       -12.2374
  93   2.0000      -0.447175       -12.1682
  94   2.0000      -0.444687       -12.1005
  95   2.0000      -0.443341       -12.0639
  96   2.0000      -0.441154       -12.0044
  97   2.0000      -0.433050       -11.7839
  98   2.0000      -0.427606       -11.6358
  99   2.0000      -0.419949       -11.4274
 100   2.0000      -0.419393       -11.4123
 101   2.0000      -0.413433       -11.2501
 102   2.0000      -0.412869       -11.2347
 103   2.0000      -0.408731       -11.1221
 104   2.0000      -0.403701       -10.9853
 105   2.0000      -0.398672       -10.8484
 106   2.0000      -0.395241       -10.7550
 107   2.0000      -0.389042       -10.5864
 108   2.0000      -0.387285       -10.5386
 109   2.0000      -0.384756       -10.4697
 110   2.0000      -0.373390       -10.1605
 111   2.0000      -0.370221       -10.0742
 112   2.0000      -0.367059        -9.9882
 113   2.0000      -0.359965        -9.7951
 114   2.0000      -0.356408        -9.6984
 115   2.0000      -0.355265        -9.6673
 116   2.0000      -0.351985        -9.5780
 117   2.0000      -0.341564        -9.2944
 118   2.0000      -0.331135        -9.0107
 119   2.0000      -0.326820        -8.8932
 120   2.0000      -0.323299        -8.7974
 121   2.0000      -0.322123        -8.7654
 122   2.0000      -0.306185        -8.3317
 123   2.0000      -0.295865        -8.0509
 124   2.0000      -0.292062        -7.9474
 125   2.0000      -0.285422        -7.7667
 126   2.0000      -0.280841        -7.6421
 127   2.0000      -0.277138        -7.5413
 128   2.0000      -0.274968        -7.4823
 129   2.0000      -0.265487        -7.2243
 130   2.0000      -0.261570        -7.1177
 131   2.0000      -0.254930        -6.9370
 132   2.0000      -0.248087        -6.7508
 133   2.0000      -0.237835        -6.4718
 134   2.0000      -0.236325        -6.4307
 135   2.0000      -0.226789        -6.1712
 136   2.0000      -0.212216        -5.7747
 137   0.0000      -0.085017        -2.3134
 138   0.0000      -0.064236        -1.7479
 139   0.0000      -0.036102        -0.9824
 140   0.0000      -0.030570        -0.8318
 141   0.0000      -0.021490        -0.5848

MULLIKEN ATOMIC CHARGES
-----------------------
   0 C :   -0.541285
   1 C :    0.095740
   2 C :    0.294529
   3 N :   -0.598294
   4 C :   -0.254907
   5 C :    0.193860
   6 C :   -0.160775
   7 C :   -0.168112
   8 C :    0.085044
   9 C :    0.091842
  10 C :   -0.175485
  11 C :   -0.119413
  12 C :   -0.206477
  13 C :    0.408742
  14 F :   -0.319437
  15 C :   -0.255380
  16 C :   -0.168521
  17 C :   -0.154397
  18 S :    1.206268
  19 O :   -0.525099
  20 O :   -0.533961
  21 C :   -0.120689
  22 C :   -0.146552
  23 C :   -0.143063
  24 C :    0.082282
  25 C :    0.528054
  26 O :   -0.444426
  27 O :   -0.623722
  28 C :   -0.146761
  29 C :   -0.152942
  30 N :   -0.354270
  31 C :   -0.055160
  32 C :    0.137497
  33 C :   -0.201899
  34 C :   -0.126750
  35 C :   -0.120211
  36 C :   -0.201662
  37 C :    0.122882
  38 H :    0.163023
  39 H :    0.165590
  40 H :    0.169656
  41 H :    0.177086
  42 H :    0.149846
  43 H :    0.142746
  44 H :    0.133354
  45 H :    0.130666
  46 H :    0.134717
  47 H :    0.138616
  48 H :    0.149627
  49 H :    0.129688
  50 H :    0.116743
  51 H :    0.185395
  52 H :    0.179876
  53 H :    0.434492
  54 H :    0.173423
  55 H :    0.184294
  56 H :    0.157337
  57 H :    0.142308
  58 H :    0.137902
  59 H :    0.138724
  60 H :    0.137797
Sum of atomic charges:    0.0000000

LOEWDIN ATOMIC CHARGES
----------------------
   0 C :   -0.361657
   1 C :   -0.024264
   2 C :    0.023917
   3 N :   -0.281508
   4 C :   -0.143241
   5 C :   -0.029082
   6 C :   -0.117001
   7 C :   -0.122029
   8 C :   -0.012985
   9 C :   -0.002251
  10 C :   -0.140133
  11 C :   -0.120594
  12 C :   -0.163165
  13 C :    0.116269
  14 F :   -0.104328
  15 C :   -0.157392
  16 C :   -0.125377
  17 C :   -0.119208
  18 S :    1.268433
  19 O :   -0.553566
  20 O :   -0.560960
  21 C :   -0.175986
  22 C :   -0.104640
  23 C :   -0.087771
  24 C :   -0.040515
  25 C :    0.179367
  26 O :   -0.260682
  27 O :   -0.334751
  28 C :   -0.099183
  29 C :   -0.109805
  30 N :   -0.109997
  31 C :   -0.055826
  32 C :   -0.029474
  33 C :   -0.109974
  34 C :   -0.126165
  35 C :   -0.116470
  36 C :   -0.126781
  37 C :   -0.008019
  38 H :    0.137490
  39 H :    0.138435
  40 H :    0.138544
  41 H :    0.146194
  42 H :    0.123311
  43 H :    0.139271
  44 H :    0.134706
  45 H :    0.133643
  46 H :    0.134929
  47 H :    0.140545
  48 H :    0.146070
  49 H :    0.133127
  50 H :    0.126835
  51 H :    0.159716
  52 H :    0.159900
  53 H :    0.350115
  54 H :    0.154874
  55 H :    0.159319
  56 H :    0.139744
  57 H :    0.138642
  58 H :    0.136363
  59 H :    0.137003
  60 H :    0.138018

  Mayer bond orders larger than 0.100000
B(  0-C ,  1-C ) :   0.9979 B(  0-C , 38-H ) :   0.9266 B(  0-C , 39-H ) :   0.9282
B(  0-C , 40-H ) :   0.9301 B(  1-C ,  2-C ) :   1.4291 B(  1-C , 31-C ) :   0.1014
B(  1-C , 37-C ) :   1.2622 B(  2-C ,  3-N ) :   0.8939 B(  2-C , 30-N ) :   1.2888
B(  3-N ,  4-C ) :   0.9154 B(  3-N , 18-S ) :   0.8001 B(  4-C ,  5-C ) :   0.9561
B(  4-C , 41-H ) :   0.9184 B(  4-C , 42-H ) :   0.9270 B(  5-C ,  6-C ) :   1.4202
B(  5-C , 17-C ) :   1.4367 B(  6-C ,  7-C ) :   1.4368 B(  6-C , 43-H ) :   0.9124
B(  7-C ,  8-C ) :   1.4003 B(  7-C , 44-H ) :   0.9211 B(  8-C ,  9-C ) :   1.0114
B(  8-C , 16-C ) :   1.4128 B(  9-C , 10-C ) :   1.4097 B(  9-C , 15-C ) :   1.3774
B( 10-C , 11-C ) :   1.4359 B( 10-C , 45-H ) :   0.9219 B( 11-C , 12-C ) :   1.4332
B( 11-C , 46-H ) :   0.9299 B( 12-C , 13-C ) :   1.3908 B( 12-C , 47-H ) :   0.9219
B( 13-C , 14-F ) :   0.9096 B( 13-C , 15-C ) :   1.3817 B( 15-C , 48-H ) :   0.9120
B( 16-C , 17-C ) :   1.4261 B( 16-C , 49-H ) :   0.9207 B( 17-C , 50-H ) :   0.9228
B( 18-S , 19-O ) :   1.6611 B( 18-S , 20-O ) :   1.6364 B( 18-S , 21-C ) :   0.8123
B( 21-C , 22-C ) :   1.3750 B( 21-C , 29-C ) :   1.3963 B( 22-C , 23-C ) :   1.4255
B( 22-C , 51-H ) :   0.9092 B( 23-C , 24-C ) :   1.3976 B( 23-C , 52-H ) :   0.9098
B( 24-C , 25-C ) :   1.0082 B( 24-C , 28-C ) :   1.3873 B( 25-C , 26-O ) :   1.8631
B( 25-C , 27-O ) :   1.0252 B( 27-O , 53-H ) :   0.7415 B( 28-C , 29-C ) :   1.4098
B( 28-C , 54-H ) :   0.9148 B( 29-C , 55-H ) :   0.9087 B( 30-N , 31-C ) :   1.4985
B( 31-C , 32-C ) :   1.2290 B( 31-C , 56-H ) :   0.9255 B( 32-C , 33-C ) :   1.2846
B( 32-C , 37-C ) :   1.2919 B( 33-C , 34-C ) :   1.5122 B( 33-C , 36-C ) :   0.1058
B( 33-C , 57-H ) :   0.9227 B( 34-C , 35-C ) :   1.3533 B( 34-C , 58-H ) :   0.9289
B( 35-C , 36-C ) :   1.5088 B( 35-C , 59-H ) :   0.9288 B( 36-C , 37-C ) :   1.2947
B( 36-C , 60-H ) :   0.9169

FINAL SINGLE POINT ENERGY     -2064.329028723089

DIPOLE MOMENT
-------------

Method             : SCF
Type of density    : Electron Density
Multiplicity       :   1
Irrep              :   0
Energy             : -2064.3290287230893227 Eh
Relativity type    :
Basis              : AO
                                X                 Y                 Z
Electronic contribution:     10.080987642     -17.310515404       5.197158840
Nuclear contribution   :    -12.085961283      19.056710135      -6.973074278
                        -----------------------------------------
Total Dipole Moment    :     -2.004973640       1.746194731      -1.775915438
                        -----------------------------------------
Magnitude (a.u.)       :      3.197341236
Magnitude (Debye)      :      8.126995560

Rotational constants in cm-1:             0.003791             0.001632             0.001216
Rotational constants in MHz :           113.661018            48.913812            36.453254

                             ****ORCA TERMINATED NORMALLY****
TOTAL RUN TIME: 0 days 0 hours 7 minutes 31 seconds 179 msec
