                         Program Version 6.0.0  -   RELEASE  -
|  1> ! B3LYP 6-31G* SP
|  2>
|  3> * xyz 0 1
|  4> C -4.0154 -3.5932 1.1252
|  5> C -4.1322 -2.1882 0.6259
|  6> O -4.4105 -1.1598 1.4046
|  7> C -4.3787 -0.0796 0.6580
|  8> C -4.0795 -0.3843 -0.6344
|  9> C -3.9159 -1.7607 -0.6856
| 10> C -3.4563 -2.6077 -1.8402
| 11> C -2.0239 -3.0094 -1.6552
| 12> O -1.7158 -4.2300 -1.7143
| 13> N -1.0149 -2.0076 -1.4472
| 14> C 0.2902 -2.2740 -0.9143
| 15> N 1.2213 -1.3092 -0.7638
| 16> C 2.3657 -1.7772 -0.1901
| 17> C 3.5160 -0.8785 0.0859
| 18> C 3.3355 0.5161 0.0622
| 19> C 4.4024 1.3789 0.3298
| 20> C 5.6796 0.8646 0.6187
| 21> O 6.7771 1.6983 0.8903
| 22> C 6.7210 3.1215 0.9357
| 23> C 8.1066 3.6784 1.2312
| 24> F 8.0495 5.0576 1.2897
| 25> F 8.5626 3.1932 2.4434
| 26> F 8.9840 3.3035 0.2308
| 27> C 5.8672 -0.5258 0.6336
| 28> Cl 7.4507 -1.2043 0.9836
| 29> C 4.7969 -1.3895 0.3689
| 30> C 2.3353 -3.1378 0.1325
| 31> S 0.8364 -3.7490 -0.3178
| 32> C -3.9829 0.6303 -1.5812
| 33> O -3.7140 0.3649 -2.7831
| 34> N -4.1957 1.9283 -1.1779
| 35> C -4.1364 3.0116 -2.1746
| 36> C -4.5292 2.2051 0.1374
| 37> O -4.7850 3.3933 0.4848
| 38> N -4.5900 1.1987 1.0744
| 39> C -4.9489 1.4662 2.4735
| 40> H -4.4468 -3.6748 2.1445
| 41> H -2.9449 -3.8812 1.1648
| 42> H -4.5620 -4.2828 0.4497
| 43> H -3.5625 -2.0717 -2.8050
| 44> H -4.0998 -3.5127 -1.9013
| 45> H -1.2601 -1.0104 -1.6450
| 46> H 2.3637 0.9443 -0.1521
| 47> H 4.2221 2.4455 0.3102
| 48> H 6.0188 3.4437 1.7343
| 49> H 6.3713 3.5154 -0.0430
| 50> H 4.9814 -2.4557 0.3712
| 51> H 3.1130 -3.7101 0.6170
| 52> H -3.3087 2.8382 -2.8955
| 53> H -3.9401 3.9987 -1.7027
| 54> H -5.0981 3.0591 -2.7285
| 55> H -4.4491 0.7436 3.1536
| 56> H -6.0483 1.3838 2.5986
| 57> H -4.6224 2.4817 2.7851
| 58> *
| 59>
| 60>                          ****END OF INPUT****

CARTESIAN COORDINATES (ANGSTROEM)
---------------------------------
  C     -4.015400   -3.593200    1.125200
  C     -4.132200   -2.188200    0.625900
  O     -4.410500   -1.159800    1.404600
  C     -4.378700   -0.079600    0.658000
  C     -4.079500   -0.384300   -0.634400
  C     -3.915900   -1.760700   -0.685600
  C     -3.456300   -2.607700   -1.840200
  C     -2.023900   -3.009400   -1.655200
  O     -1.715800   -4.230000   -1.714300
  N     -1.014900   -2.007600   -1.447200
  C      0.290200   -2.274000   -0.914300
  N      1.221300   -1.309200   -0.763800
  C      2.365700   -1.777200   -0.190100
  C      3.516000   -0.878500    0.085900
  C      3.335500    0.516100    0.062200
  C      4.402400    1.378900    0.329800
  C      5.679600    0.864600    0.618700
  O      6.777100    1.698300    0.890300
  C      6.721000    3.121500    0.935700
  C      8.106600    3.678400    1.231200
  F      8.049500    5.057600    1.289700
  F      8.562600    3.193200    2.443400
  F      8.984000    3.303500    0.230800
  C      5.867200   -0.525800    0.633600
  Cl     7.450700   -1.204300    0.983600
  C      4.796900   -1.389500    0.368900
  C      2.335300   -3.137800    0.132500
  S      0.836400   -3.749000   -0.317800
  C     -3.982900    0.630300   -1.581200
  O     -3.714000    0.364900   -2.783100
  N     -4.195700    1.928300   -1.177900
  C     -4.136400    3.011600   -2.174600
  C     -4.529200    2.205100    0.137400
  O     -4.785000    3.393300    0.484800
  N     -4.590000    1.198700    1.074400
  C     -4.948900    1.466200    2.473500
  H     -4.446800   -3.674800    2.144500
  H     -2.944900   -3.881200    1.164800
  H     -4.562000   -4.282800    0.449700
  H     -3.562500   -2.071700   -2.805000
  H     -4.099800   -3.512700   -1.901300
  H     -1.260100   -1.010400   -1.645000
  H      2.363700    0.944300   -0.152100
  H      4.222100    2.445500    0.310200
  H      6.018800    3.443700    1.734300
  H      6.371300    3.515400   -0.043000
  H      4.981400   -2.455700    0.371200
  H      3.113000   -3.710100    0.617000
  H     -3.308700    2.838200   -2.895500
  H     -3.940100    3.998700   -1.702700
  H     -5.098100    3.059100   -2.728500
  H     -4.449100    0.743600    3.153600
  H     -6.048300    1.383800    2.598600
  H     -4.622400    2.481700    2.785100

 Total Charge           Charge          ....    0
 Multiplicity           Mult            ....    1
 Number of Electrons    NEL             ....  278
 Basis Dimension        Dim             ....  548

ORBITAL ENERGIES
----------------

  NO   OCC          E(Eh)            E(eV)
   0   2.0000    -101.525502     -2762.6494
   1   2.0000     -88.903248     -2419.1804
   2   2.0000     -24.730083      -672.9398
   3   2.0000     -24.720263      -672.6725
   4   2.0000     -24.720213      -672.6712
   5   2.0000     -19.260767      -524.1121
   6   2.0000     -19.187823      -522.1272
   7   2.0000     -19.134974      -520.6891
   8   2.0000     -19.121912      -520.3337
   9   2.0000     -19.119918      -520.2794
  10   2.0000     -14.422696      -392.4615
  11   2.0000     -14.405535      -391.9945
  12   2.0000     -14.393901      -391.6780
  13   2.0000     -14.331764      -389.9871
  14   2.0000     -10.442270      -284.1486
  15   2.0000     -10.339865      -281.3620
  16   2.0000     -10.313783      -280.6523
  17   2.0000     -10.308405      -280.5060
  18   2.0000     -10.300277      -280.2848
  19   2.0000     -10.290952      -280.0310
  20   2.0000     -10.274462      -279.5823
  21   2.0000     -10.268735      -279.4265
  22   2.0000     -10.260138      -279.1926
  23   2.0000     -10.249914      -278.9143
  24   2.0000     -10.246950      -278.8337
  25   2.0000     -10.227037      -278.2918
  26   2.0000     -10.226732      -278.2835
  27   2.0000     -10.210310      -277.8367
  28   2.0000     -10.207807      -277.7685
  29   2.0000     -10.206082      -277.7216
  30   2.0000     -10.205366      -277.7021
  31   2.0000     -10.205178      -277.6970
  32   2.0000     -10.202465      -277.6232
  33   2.0000     -10.199021      -277.5295
  34   2.0000     -10.197830      -277.4971
  35   2.0000     -10.193668      -277.3838
  36   2.0000      -9.456848      -257.3339
  37   2.0000      -7.979528      -217.1340
  38   2.0000      -7.220151      -196.4703
  39   2.0000      -7.210427      -196.2057
  40   2.0000      -7.209999      -196.1940
  41   2.0000      -5.942666      -161.7082
  42   2.0000      -5.938406      -161.5923
  43   2.0000      -5.936493      -161.5402
  44   2.0000      -1.284505       -34.9532
  45   2.0000      -1.212033       -32.9811
  46   2.0000      -1.206044       -32.8181
  47   2.0000      -1.190322       -32.3903
  48   2.0000      -1.077045       -29.3079
  49   2.0000      -1.067873       -29.0583
  50   2.0000      -1.035471       -28.1766
  51   2.0000      -1.030444       -28.0398
  52   2.0000      -0.984339       -26.7852
  53   2.0000      -0.978312       -26.6212
  54   2.0000      -0.948333       -25.8054
  55   2.0000      -0.917044       -24.9540
  56   2.0000      -0.888037       -24.1647
  57   2.0000      -0.861879       -23.4529
  58   2.0000      -0.838071       -22.8051
  59   2.0000      -0.815816       -22.1995
  60   2.0000      -0.809592       -22.0301
  61   2.0000      -0.798807       -21.7366
  62   2.0000      -0.777968       -21.1696
  63   2.0000      -0.765326       -20.8256
  64   2.0000      -0.751563       -20.4511
  65   2.0000      -0.738517       -20.0961
  66   2.0000      -0.731660       -19.9095
  67   2.0000      -0.718735       -19.5578
  68   2.0000      -0.712335       -19.3836
  69   2.0000      -0.672353       -18.2957
  70   2.0000      -0.667218       -18.1559
  71   2.0000      -0.639002       -17.3881
  72   2.0000      -0.633081       -17.2270
  73   2.0000      -0.626289       -17.0422
  74   2.0000      -0.619121       -16.8472
  75   2.0000      -0.612209       -16.6591
  76   2.0000      -0.591501       -16.0956
  77   2.0000      -0.583192       -15.8695
  78   2.0000      -0.578222       -15.7342
  79   2.0000      -0.571488       -15.5510
  80   2.0000      -0.561052       -15.2670
  81   2.0000      -0.549389       -14.9496
  82   2.0000      -0.543381       -14.7861
  83   2.0000      -0.537779       -14.6337
  84   2.0000      -0.536949       -14.6111
  85   2.0000      -0.518743       -14.1157
  86   2.0000      -0.515232       -14.0202
  87   2.0000      -0.497081       -13.5263
  88   2.0000      -0.491949       -13.3866
  89   2.0000      -0.489237       -13.3128
  90   2.0000      -0.484107       -13.1732
  91   2.0000      -0.479518       -13.0483
  92   2.0000      -0.470411       -12.8005
  93   2.0000      -0.468419       -12.7463
  94   2.0000      -0.460754       -12.5377
  95   2.0000      -0.458067       -12.4646
  96   2.0000      -0.455361       -12.3910
  97   2.0000      -0.451395       -12.2831
  98   2.0000      -0.451361       -12.2822
  99   2.0000      -0.441166       -12.0047
 100   2.0000      -0.440564       -11.9884
 101   2.0000      -0.434627       -11.8268
 102   2.0000      -0.431903       -11.7527
 103   2.0000      -0.429736       -11.6937
 104   2.0000      -0.428268       -11.6538
 105   2.0000      -0.422727       -11.5030
 106   2.0000      -0.421567       -11.4714
 107   2.0000      -0.417278       -11.3547
 108   2.0000      -0.415379       -11.3030
 109   2.0000      -0.413140       -11.2421
 110   2.0000      -0.408306       -11.1106
 111   2.0000      -0.403865       -10.9897
 112   2.0000      -0.402369       -10.9490
 113   2.0000      -0.400892       -10.9088
 114   2.0000      -0.398916       -10.8551
 115   2.0000      -0.397602       -10.8193
 116   2.0000      -0.396304       -10.7840
 117   2.0000      -0.392811       -10.6889
 118   2.0000      -0.380662       -10.3584
 119   2.0000      -0.375369       -10.2143
 120   2.0000      -0.365962        -9.9583
 121   2.0000      -0.354150        -9.6369
 122   2.0000      -0.339276        -9.2322
 123   2.0000      -0.338263        -9.2046
 124   2.0000      -0.334822        -9.1110
 125   2.0000      -0.334453        -9.1009
 126   2.0000      -0.311179        -8.4676
 127   2.0000      -0.306305        -8.3350
 128   2.0000      -0.296526        -8.0689
 129   2.0000      -0.285760        -7.7759
 130   2.0000      -0.285128        -7.7587
 131   2.0000      -0.276895        -7.5347
 132   2.0000      -0.275408        -7.4942
 133   2.0000      -0.264590        -7.1999
 134   2.0000      -0.258252        -7.0274
 135   2.0000      -0.255291        -6.9468
 136   2.0000      -0.239734        -6.5235
 137   2.0000      -0.215244        -5.8571
 138   2.0000      -0.207106        -5.6356
 139   0.0000      -0.039693        -1.0801
 140   0.0000      -0.030691        -0.8351
 141   0.0000      -0.022954        -0.6246
 142   0.0000      -0.015778        -0.4293
 143   0.0000      -0.012817        -0.3488

MULLIKEN ATOMIC CHARGES
-----------------------
   0 C :   -0.531208
   1 C :    0.251529
   2 O :   -0.402540
   3 C :    0.489724
   4 C :    0.016746
   5 C :    0.014270
   6 C :   -0.442724
   7 C :    0.569316
   8 O :   -0.455660
   9 N :   -0.643377
  10 C :    0.259329
  11 N :   -0.437358
  12 C :    0.210027
  13 C :    0.125470
  14 C :   -0.166683
  15 C :   -0.200324
  16 C :    0.385943
  17 O :   -0.513672
  18 C :   -0.121176
  19 C :    0.923093
  20 F :   -0.300319
  21 F :   -0.293618
  22 F :   -0.293203
  23 C :   -0.137667
  24 Cl:    0.004820
  25 C :   -0.180663
  26 C :   -0.405551
  27 S :    0.307639
  28 C :    0.501958
  29 O :   -0.509828
  30 N :   -0.481084
  31 C :   -0.315968
  32 C :    0.674982
  33 O :   -0.503068
  34 N :   -0.502547
  35 C :   -0.332523
  36 H :    0.167478
  37 H :    0.192693
  38 H :    0.183962
  39 H :    0.221053
  40 H :    0.185845
  41 H :    0.364819
  42 H :    0.155952
  43 H :    0.141742
  44 H :    0.167905
  45 H :    0.168741
  46 H :    0.153038
  47 H :    0.182279
  48 H :    0.191819
  49 H :    0.199564
  50 H :    0.180692
  51 H :    0.181372
  52 H :    0.184779
  53 H :    0.212188
Sum of atomic charges:   -0.0000000

LOEWDIN ATOMIC CHARGES
----------------------
   0 C :   -0.361240
   1 C :    0.024414
   2 O :    0.000973
   3 C :    0.094612
   4 C :   -0.118354
   5 C :   -0.054445
   6 C :   -0.243867
   7 C :    0.154938
   8 O :   -0.259246
   9 N :   -0.200834
  10 C :   -0.078056
  11 N :   -0.189784
  12 C :   -0.006875
  13 C :   -0.024330
  14 C :   -0.108794
  15 C :   -0.167107
  16 C :    0.082611
  17 O :   -0.175223
  18 C :   -0.117370
  19 C :    0.303469
  20 F :   -0.109033
  21 F :   -0.108056
  22 F :   -0.107689
  23 C :   -0.104513
  24 Cl:    0.048600
  25 C :   -0.122016
  26 C :   -0.353923
  27 S :    0.419995
  28 C :    0.105914
  29 O :   -0.307976
  30 N :   -0.028130
  31 C :   -0.259833
  32 C :    0.143451
  33 O :   -0.313980
  34 N :   -0.023111
  35 C :   -0.261601
  36 H :    0.144165
  37 H :    0.152674
  38 H :    0.151621
  39 H :    0.175277
  40 H :    0.158188
  41 H :    0.280636
  42 H :    0.147759
  43 H :    0.139226
  44 H :    0.136766
  45 H :    0.137096
  46 H :    0.146591
  47 H :    0.161226
  48 H :    0.150573
  49 H :    0.155115
  50 H :    0.142002
  51 H :    0.143617
  52 H :    0.141399
  53 H :    0.162480

  Mayer bond orders larger than 0.100000
B(  0-C ,  1-C ) :   1.0365 B(  0-C , 36-H ) :   0.9350 B(  0-C , 37-H ) :   0.9202
B(  0-C , 38-H ) :   0.9296 B(  1-C ,  2-O ) :   0.9880 B(  1-C ,  5-C ) :   1.5476
B(  2-O ,  3-C ) :   1.0719 B(  3-C ,  4-C ) :   1.3690 B(  3-C , 34-N ) :   0.9813
B(  4-C ,  5-C ) :   1.2840 B(  4-C , 28-C ) :   1.0844 B(  5-C ,  6-C ) :   0.9819
B(  6-C ,  7-C ) :   0.9711 B(  6-C , 39-H ) :   0.8819 B(  6-C , 40-H ) :   0.9128
B(  7-C ,  8-O ) :   1.8142 B(  7-C ,  9-N ) :   1.0233 B(  9-N , 10-C ) :   0.9535
B(  9-N , 41-H ) :   0.7956 B( 10-C , 11-N ) :   1.4806 B( 10-C , 26-C ) :   0.1081
B( 10-C , 27-S ) :   1.1813 B( 11-N , 12-C ) :   1.2870 B( 12-C , 13-C ) :   1.0542
B( 12-C , 26-C ) :   1.5198 B( 13-C , 14-C ) :   1.4006 B( 13-C , 25-C ) :   1.3957
B( 14-C , 15-C ) :   1.4128 B( 14-C , 42-H ) :   0.9117 B( 15-C , 16-C ) :   1.3589
B( 15-C , 43-H ) :   0.9175 B( 16-C , 17-O ) :   0.9258 B( 16-C , 23-C ) :   1.3339
B( 17-O , 18-C ) :   0.9057 B( 18-C , 19-C ) :   0.9629 B( 18-C , 44-H ) :   0.9031
B( 18-C , 45-H ) :   0.9023 B( 19-C , 20-F ) :   0.9615 B( 19-C , 21-F ) :   0.9851
B( 19-C , 22-F ) :   0.9855 B( 23-C , 24-Cl) :   1.0375 B( 23-C , 25-C ) :   1.4166
B( 25-C , 46-H ) :   0.9117 B( 26-C , 27-S ) :   1.1029 B( 26-C , 47-H ) :   0.9016
B( 28-C , 29-O ) :   1.7587 B( 28-C , 30-N ) :   0.9755 B( 30-N , 31-C ) :   0.9159
B( 30-N , 32-C ) :   1.0379 B( 31-C , 48-H ) :   0.9270 B( 31-C , 49-H ) :   0.9234
B( 31-C , 50-H ) :   0.9397 B( 32-C , 33-O ) :   1.7961 B( 32-C , 34-N ) :   1.0433
B( 34-N , 35-C ) :   0.9250 B( 35-C , 51-H ) :   0.9316 B( 35-C , 52-H ) :   0.9354
B( 35-C , 53-H ) :   0.9226

FINAL SINGLE POINT ENERGY     -2601.134602788803

DIPOLE MOMENT
-------------

Method             : SCF
Type of density    : Electron Density
Multiplicity       :   1
Irrep              :   0
Energy             : -2601.1346027888034769 Eh
Relativity type    :
Basis              : AO
                                X                 Y                 Z
Electronic contribution:     64.616183537       8.406932050       5.791414896
Nuclear contribution   :    -67.000443386      -8.136906699      -4.565169602
                        -----------------------------------------
Total Dipole Moment    :     -2.384259849       0.270025351       1.226245294
                        -----------------------------------------
Magnitude (a.u.)       :      2.694677391
Magnitude (Debye)      :      6.849325602

Rotational constants in cm-1:             0.004532             0.001153             0.000989
Rotational constants in MHz :           135.856723            34.559720            29.648923

                             ****ORCA TERMINATED NORMALLY****
TOTAL RUN TIME: 0 days 0 hours 5 minutes 52 seconds 177 msec
