                         Program Version 6.0.0  -   RELEASE  -
|  1> ! B3LYP 6-31G* SP
|  2>
|  3> * xyz 0 1
|  4> O 1.0589 0.0935 -2.1467
|  5> C 1.1965 -0.0449 -0.9001
|  6> N 0.0312 -0.1347 -0.0622
|  7> C -1.3168 -0.2737 -0.6235
|  8> C -1.7933 1.0213 -1.2771
|  9> N -2.4264 0.8692 -2.4763
| 10> C -2.9223 1.9062 -3.1932
| 11> C -2.7904 3.2014 -2.7165
| 12> C -2.1528 3.4173 -1.4991
| 13> C -1.6564 2.3407 -0.7333
| 14> C -0.9204 2.6684 0.5576
| 15> F -1.1990 3.9563 0.9840
| 16> F 0.4429 2.5772 0.3518
| 17> F -1.2922 1.8234 1.5794
| 18> C -2.3271 -0.8576 0.4124
| 19> C -1.8562 -2.2495 0.9024
| 20> C -2.8435 -2.8560 1.9065
| 21> C -4.2454 -2.9617 1.3005
| 22> C -4.7338 -1.5922 0.8210
| 23> C -3.7519 -0.9751 -0.1830
| 24> C 2.5597 -0.0845 -0.3205
| 25> C 2.8131 -0.7544 0.8915
| 26> C 4.1028 -0.7883 1.4303
| 27> C 5.1600 -0.1580 0.7623
| 28> C 6.4620 -0.1752 1.2794
| 29> C 7.4926 0.4613 0.5844
| 30> C 7.2117 1.1084 -0.6216
| 31> N 5.9438 1.1174 -1.1134
| 32> C 4.9186 0.5065 -0.4595
| 33> C 3.6267 0.5366 -0.9953
| 34> H 0.1482 -0.0949 0.9743
| 35> H -1.2476 -1.0376 -1.4326
| 36> H -3.4141 1.7212 -4.1388
| 37> H -3.1730 4.0360 -3.2899
| 38> H -2.0453 4.4408 -1.1639
| 39> H -2.3871 -0.1914 1.2944
| 40> H -1.7452 -2.9402 0.0371
| 41> H -0.8663 -2.1700 1.3994
| 42> H -2.4938 -3.8698 2.1982
| 43> H -2.8775 -2.2282 2.8241
| 44> H -4.2329 -3.6753 0.4474
| 45> H -4.9480 -3.3546 2.0666
| 46> H -5.7280 -1.7071 0.3380
| 47> H -4.8537 -0.9117 1.6927
| 48> H -3.7287 -1.5956 -1.1062
| 49> H -4.1357 0.0316 -0.4539
| 50> H 2.0232 -1.2760 1.4153
| 51> H 4.2741 -1.3115 2.3635
| 52> H 6.6807 -0.6774 2.2142
| 53> H 8.5013 0.4532 0.9767
| 54> H 8.0031 1.6042 -1.1674
| 55> H 3.4540 1.0553 -1.9311
| 56> *
| 57>
| 58>                          ****END OF INPUT****

CARTESIAN COORDINATES (ANGSTROEM)
---------------------------------
  O      1.058900    0.093500   -2.146700
  C      1.196500   -0.044900   -0.900100
  N      0.031200   -0.134700   -0.062200
  C     -1.316800   -0.273700   -0.623500
  C     -1.793300    1.021300   -1.277100
  N     -2.426400    0.869200   -2.476300
  C     -2.922300    1.906200   -3.193200
  C     -2.790400    3.201400   -2.716500
  C     -2.152800    3.417300   -1.499100
  C     -1.656400    2.340700   -0.733300
  C     -0.920400    2.668400    0.557600
  F     -1.199000    3.956300    0.984000
  F      0.442900    2.577200    0.351800
  F     -1.292200    1.823400    1.579400
  C     -2.327100   -0.857600    0.412400
  C     -1.856200   -2.249500    0.902400
  C     -2.843500   -2.856000    1.906500
  C     -4.245400   -2.961700    1.300500
  C     -4.733800   -1.592200    0.821000
  C     -3.751900   -0.975100   -0.183000
  C      2.559700   -0.084500   -0.320500
  C      2.813100   -0.754400    0.891500
  C      4.102800   -0.788300    1.430300
  C      5.160000   -0.158000    0.762300
  C      6.462000   -0.175200    1.279400
  C      7.492600    0.461300    0.584400
  C      7.211700    1.108400   -0.621600
  N      5.943800    1.117400   -1.113400
  C      4.918600    0.506500   -0.459500
  C      3.626700    0.536600   -0.995300
  H      0.148200   -0.094900    0.974300
  H     -1.247600   -1.037600   -1.432600
  H     -3.414100    1.721200   -4.138800
  H     -3.173000    4.036000   -3.289900
  H     -2.045300    4.440800   -1.163900
  H     -2.387100   -0.191400    1.294400
  H     -1.745200   -2.940200    0.037100
  H     -0.866300   -2.170000    1.399400
  H     -2.493800   -3.869800    2.198200
  H     -2.877500   -2.228200    2.824100
  H     -4.232900   -3.675300    0.447400
  H     -4.948000   -3.354600    2.066600
  H     -5.728000   -1.707100    0.338000
  H     -4.853700   -0.911700    1.692700
  H     -3.728700   -1.595600   -1.106200
  H     -4.135700    0.031600   -0.453900
  H      2.023200   -1.276000    1.415300
  H      4.274100   -1.311500    2.363500
  H      6.680700   -0.677400    2.214200
  H      8.501300    0.453200    0.976700
  H      8.003100    1.604200   -1.167400
  H      3.454000    1.055300   -1.931100

 Total Charge           Charge          ....    0
 Multiplicity           Mult            ....    1
 Number of Electrons    NEL             ....  216
 Basis Dimension        Dim             ....  464

ORBITAL ENERGIES
----------------

  NO   OCC          E(Eh)            E(eV)
   0   2.0000     -24.729892      -672.9346
   1   2.0000     -24.722491      -672.7332
   2   2.0000     -24.717517      -672.5978
   3   2.0000     -19.103907      -519.8437
   4   2.0000     -14.350588      -390.4993
   5   2.0000     -14.330415      -389.9504
   6   2.0000     -14.324644      -389.7934
   7   2.0000     -10.440192      -284.0921
   8   2.0000     -10.283567      -279.8301
   9   2.0000     -10.241554      -278.6869
  10   2.0000     -10.226409      -278.2747
  11   2.0000     -10.225586      -278.2523
  12   2.0000     -10.221808      -278.1495
  13   2.0000     -10.219495      -278.0866
  14   2.0000     -10.219147      -278.0771
  15   2.0000     -10.211051      -277.8568
  16   2.0000     -10.202405      -277.6215
  17   2.0000     -10.202310      -277.6190
  18   2.0000     -10.197583      -277.4903
  19   2.0000     -10.196054      -277.4487
  20   2.0000     -10.195478      -277.4331
  21   2.0000     -10.194122      -277.3962
  22   2.0000     -10.193339      -277.3749
  23   2.0000     -10.190606      -277.3005
  24   2.0000     -10.188923      -277.2547
  25   2.0000     -10.177214      -276.9361
  26   2.0000     -10.174311      -276.8571
  27   2.0000     -10.172195      -276.7995
  28   2.0000     -10.171816      -276.7892
  29   2.0000     -10.170952      -276.7657
  30   2.0000      -1.287194       -35.0263
  31   2.0000      -1.213458       -33.0199
  32   2.0000      -1.205778       -32.8109
  33   2.0000      -1.004054       -27.3217
  34   2.0000      -0.937729       -25.5169
  35   2.0000      -0.934280       -25.4230
  36   2.0000      -0.900325       -24.4991
  37   2.0000      -0.852381       -23.1945
  38   2.0000      -0.829007       -22.5584
  39   2.0000      -0.815890       -22.2015
  40   2.0000      -0.807686       -21.9783
  41   2.0000      -0.789477       -21.4828
  42   2.0000      -0.765642       -20.8342
  43   2.0000      -0.750390       -20.4191
  44   2.0000      -0.740183       -20.1414
  45   2.0000      -0.736362       -20.0374
  46   2.0000      -0.708138       -19.2694
  47   2.0000      -0.685116       -18.6430
  48   2.0000      -0.657596       -17.8941
  49   2.0000      -0.635696       -17.2982
  50   2.0000      -0.634071       -17.2539
  51   2.0000      -0.622176       -16.9303
  52   2.0000      -0.607080       -16.5195
  53   2.0000      -0.601698       -16.3730
  54   2.0000      -0.586914       -15.9708
  55   2.0000      -0.579089       -15.7578
  56   2.0000      -0.576746       -15.6940
  57   2.0000      -0.568592       -15.4722
  58   2.0000      -0.555900       -15.1268
  59   2.0000      -0.549729       -14.9589
  60   2.0000      -0.533700       -14.5227
  61   2.0000      -0.521605       -14.1936
  62   2.0000      -0.512002       -13.9323
  63   2.0000      -0.506266       -13.7762
  64   2.0000      -0.494640       -13.4598
  65   2.0000      -0.479562       -13.0495
  66   2.0000      -0.466151       -12.6846
  67   2.0000      -0.461124       -12.5478
  68   2.0000      -0.458074       -12.4648
  69   2.0000      -0.454820       -12.3763
  70   2.0000      -0.450708       -12.2644
  71   2.0000      -0.444452       -12.0942
  72   2.0000      -0.437085       -11.8937
  73   2.0000      -0.434877       -11.8336
  74   2.0000      -0.432451       -11.7676
  75   2.0000      -0.427079       -11.6214
  76   2.0000      -0.426605       -11.6085
  77   2.0000      -0.423128       -11.5139
  78   2.0000      -0.415333       -11.3018
  79   2.0000      -0.412005       -11.2112
  80   2.0000      -0.407769       -11.0959
  81   2.0000      -0.405780       -11.0418
  82   2.0000      -0.403753       -10.9867
  83   2.0000      -0.399997       -10.8845
  84   2.0000      -0.394368       -10.7313
  85   2.0000      -0.390776       -10.6336
  86   2.0000      -0.377199       -10.2641
  87   2.0000      -0.373012       -10.1502
  88   2.0000      -0.369181       -10.0459
  89   2.0000      -0.365200        -9.9376
  90   2.0000      -0.359818        -9.7912
  91   2.0000      -0.357538        -9.7291
  92   2.0000      -0.355190        -9.6652
  93   2.0000      -0.340814        -9.2740
  94   2.0000      -0.336404        -9.1540
  95   2.0000      -0.329184        -8.9576
  96   2.0000      -0.318409        -8.6644
  97   2.0000      -0.303090        -8.2475
  98   2.0000      -0.299168        -8.1408
  99   2.0000      -0.293695        -7.9919
 100   2.0000      -0.286400        -7.7933
 101   2.0000      -0.266674        -7.2566
 102   2.0000      -0.257335        -7.0024
 103   2.0000      -0.250405        -6.8139
 104   2.0000      -0.244673        -6.6579
 105   2.0000      -0.242263        -6.5923
 106   2.0000      -0.238766        -6.4972
 107   2.0000      -0.225079        -6.1247
 108   0.0000      -0.065692        -1.7876
 109   0.0000      -0.035567        -0.9678
 110   0.0000      -0.031048        -0.8449
 111   0.0000      -0.024309        -0.6615
 112   0.0000       0.015801         0.4300

MULLIKEN ATOMIC CHARGES
-----------------------
   0 O :   -0.477384
   1 C :    0.504086
   2 N :   -0.649369
   3 C :    0.015497
   4 C :    0.264989
   5 N :   -0.406128
   6 C :    0.030376
   7 C :   -0.134495
   8 C :   -0.129775
   9 C :   -0.082882
  10 C :    0.920651
  11 F :   -0.306877
  12 F :   -0.291757
  13 F :   -0.302967
  14 C :   -0.126516
  15 C :   -0.253478
  16 C :   -0.253199
  17 C :   -0.247432
  18 C :   -0.255235
  19 C :   -0.256316
  20 C :    0.079639
  21 C :   -0.179394
  22 C :   -0.207696
  23 C :    0.173135
  24 C :   -0.153465
  25 C :   -0.145304
  26 C :    0.015697
  27 N :   -0.428900
  28 C :    0.209556
  29 C :   -0.170419
  30 H :    0.322752
  31 H :    0.178007
  32 H :    0.155541
  33 H :    0.140427
  34 H :    0.162117
  35 H :    0.126745
  36 H :    0.132892
  37 H :    0.119041
  38 H :    0.129142
  39 H :    0.123882
  40 H :    0.126949
  41 H :    0.126587
  42 H :    0.130456
  43 H :    0.124182
  44 H :    0.139759
  45 H :    0.137588
  46 H :    0.132072
  47 H :    0.134071
  48 H :    0.141709
  49 H :    0.135416
  50 H :    0.151937
  51 H :    0.174090
Sum of atomic charges:    0.0000000

LOEWDIN ATOMIC CHARGES
----------------------
   0 O :   -0.282625
   1 C :    0.143269
   2 N :   -0.238456
   3 C :   -0.053180
   4 C :    0.061371
   5 N :   -0.124476
   6 C :   -0.053863
   7 C :   -0.147568
   8 C :   -0.090104
   9 C :   -0.085824
  10 C :    0.307969
  11 F :   -0.112329
  12 F :   -0.106470
  13 F :   -0.108059
  14 C :   -0.124859
  15 C :   -0.224825
  16 C :   -0.229246
  17 C :   -0.230289
  18 C :   -0.229112
  19 C :   -0.224291
  20 C :   -0.045156
  21 C :   -0.127917
  22 C :   -0.121177
  23 C :   -0.022916
  24 C :   -0.093917
  25 C :   -0.146563
  26 C :   -0.062239
  27 N :   -0.125064
  28 C :    0.013163
  29 C :   -0.075133
  30 H :    0.245454
  31 H :    0.152418
  32 H :    0.138345
  33 H :    0.139065
  34 H :    0.147492
  35 H :    0.118224
  36 H :    0.119668
  37 H :    0.111632
  38 H :    0.119290
  39 H :    0.113968
  40 H :    0.115656
  41 H :    0.117597
  42 H :    0.120118
  43 H :    0.114101
  44 H :    0.123397
  45 H :    0.123667
  46 H :    0.132223
  47 H :    0.133975
  48 H :    0.137908
  49 H :    0.136391
  50 H :    0.136743
  51 H :    0.162555

  Mayer bond orders larger than 0.100000
B(  0-O ,  1-C ) :   1.8071 B(  1-C ,  2-N ) :   1.0378 B(  1-C , 20-C ) :   0.9761
B(  2-N ,  3-C ) :   0.9061 B(  2-N , 30-H ) :   0.8117 B(  3-C ,  4-C ) :   0.9482
B(  3-C , 14-C ) :   0.9714 B(  3-C , 31-H ) :   0.8984 B(  4-C ,  5-N ) :   1.3655
B(  4-C ,  9-C ) :   1.3484 B(  5-N ,  6-C ) :   1.4212 B(  6-C ,  7-C ) :   1.4230
B(  6-C , 32-H ) :   0.9278 B(  7-C ,  8-C ) :   1.4378 B(  7-C , 33-H ) :   0.9241
B(  8-C ,  9-C ) :   1.4048 B(  8-C , 34-H ) :   0.9175 B(  9-C , 10-C ) :   0.9708
B( 10-C , 11-F ) :   0.9389 B( 10-C , 12-F ) :   0.9702 B( 10-C , 13-F ) :   0.9155
B( 14-C , 15-C ) :   0.9922 B( 14-C , 19-C ) :   1.0015 B( 14-C , 35-H ) :   0.9085
B( 15-C , 16-C ) :   1.0064 B( 15-C , 36-H ) :   0.9331 B( 15-C , 37-H ) :   0.9343
B( 16-C , 17-C ) :   1.0148 B( 16-C , 38-H ) :   0.9411 B( 16-C , 39-H ) :   0.9385
B( 17-C , 18-C ) :   1.0141 B( 17-C , 40-H ) :   0.9385 B( 17-C , 41-H ) :   0.9420
B( 18-C , 19-C ) :   1.0033 B( 18-C , 42-H ) :   0.9414 B( 18-C , 43-H ) :   0.9382
B( 19-C , 44-H ) :   0.9319 B( 19-C , 45-H ) :   0.9309 B( 20-C , 21-C ) :   1.3007
B( 20-C , 29-C ) :   1.4543 B( 21-C , 22-C ) :   1.5029 B( 21-C , 46-H ) :   0.9200
B( 22-C , 23-C ) :   1.2867 B( 22-C , 29-C ) :   0.1022 B( 22-C , 47-H ) :   0.9238
B( 23-C , 24-C ) :   1.3031 B( 23-C , 28-C ) :   1.2505 B( 24-C , 25-C ) :   1.5138
B( 24-C , 48-H ) :   0.9243 B( 25-C , 26-C ) :   1.3213 B( 25-C , 49-H ) :   0.9249
B( 26-C , 27-N ) :   1.5172 B( 26-C , 50-H ) :   0.9299 B( 27-N , 28-C ) :   1.2429
B( 28-C , 29-C ) :   1.2684 B( 29-C , 51-H ) :   0.9049

FINAL SINGLE POINT ENERGY     -1427.890133837240

DIPOLE MOMENT
-------------

Method             : SCF
Type of density    : Electron Density
Multiplicity       :   1
Irrep              :   0
Energy             : -1427.8901338372402279 Eh
Relativity type    :
Basis              : AO
                                X                 Y                 Z
Electronic contribution:     18.609024552      29.706691121      -3.451260683
Nuclear contribution   :    -18.858220769     -29.809278566       4.912399716
                        -----------------------------------------
Total Dipole Moment    :     -0.249196217      -0.102587444       1.461139033
                        -----------------------------------------
Magnitude (a.u.)       :      1.485782694
Magnitude (Debye)      :      3.776559479

Rotational constants in cm-1:             0.008029             0.002935             0.002510
Rotational constants in MHz :           240.694002            87.986536            75.238364

                             ****ORCA TERMINATED NORMALLY****
TOTAL RUN TIME: 0 days 0 hours 6 minutes 50 seconds 785 msec
