                         Program Version 6.0.0  -   RELEASE  -
|  1> ! B3LYP 6-31G* SP
|  2>
|  3> * xyz 0 1
|  4> C -4.4605 -1.3787 -3.0724
|  5> N -4.2573 -0.6722 -1.7919
|  6> C -3.6812 -1.3305 -0.7407
|  7> O -3.3472 -2.5363 -0.8897
|  8> C -3.4719 -0.6737 0.4964
|  9> C -2.8273 -1.2897 1.6248
| 10> C -2.2472 -2.6945 1.6255
| 11> C -0.9817 -2.7670 0.8187
| 12> O -0.8410 -3.6981 -0.0187
| 13> N 0.0815 -1.8303 1.0570
| 14> C 1.2017 -1.6319 0.1827
| 15> N 2.2302 -0.8176 0.4984
| 16> C 3.1615 -0.7459 -0.4951
| 17> C 4.3832 0.0897 -0.3500
| 18> C 5.2206 0.3703 -1.4470
| 19> C 6.3636 1.1590 -1.2870
| 20> C 6.7059 1.6729 -0.0260
| 21> C 7.9110 2.5647 0.1365
| 22> F 7.5342 3.8793 -0.0618
| 23> F 8.4453 2.4356 1.4065
| 24> F 8.8927 2.2338 -0.7809
| 25> C 5.8562 1.4225 1.0628
| 26> C 4.7130 0.6346 0.9045
| 27> C 2.8598 -1.5174 -1.6233
| 28> S 1.3914 -2.2908 -1.3536
| 29> C -2.6652 -0.5521 2.8083
| 30> C -3.1175 0.7522 2.9065
| 31> C -3.7401 1.3596 1.8276
| 32> C -3.9330 0.6705 0.6064
| 33> N -4.5610 1.2806 -0.4600
| 34> C -5.0652 2.6670 -0.3417
| 35> C -4.7209 0.6056 -1.6441
| 36> O -5.3083 1.1654 -2.6141
| 37> H -5.4344 -1.9115 -3.0533
| 38> H -4.4452 -0.6763 -3.9330
| 39> H -3.6470 -2.1107 -3.2648
| 40> H -2.0014 -3.0246 2.6579
| 41> H -3.0007 -3.4289 1.2733
| 42> H 0.0345 -1.2383 1.9164
| 43> H 4.9930 0.0012 -2.4369
| 44> H 6.9784 1.3709 -2.1532
| 45> H 6.0752 1.8378 2.0387
| 46> H 4.0880 0.4510 1.7694
| 47> H 3.4544 -1.6255 -2.5187
| 48> H -2.1719 -0.9870 3.6690
| 49> H -2.9792 1.3018 3.8291
| 50> H -4.0640 2.3799 1.9708
| 51> H -4.2197 3.3611 -0.1480
| 52> H -5.5775 3.0309 -1.2558
| 53> H -5.8077 2.7315 0.4825
| 54> *
| 55>
| 56>                          ****END OF INPUT****

CARTESIAN COORDINATES (ANGSTROEM)
---------------------------------
  C     -4.460500   -1.378700   -3.072400
  N     -4.257300   -0.672200   -1.791900
  C     -3.681200   -1.330500   -0.740700
  O     -3.347200   -2.536300   -0.889700
  C     -3.471900   -0.673700    0.496400
  C     -2.827300   -1.289700    1.624800
  C     -2.247200   -2.694500    1.625500
  C     -0.981700   -2.767000    0.818700
  O     -0.841000   -3.698100   -0.018700
  N      0.081500   -1.830300    1.057000
  C      1.201700   -1.631900    0.182700
  N      2.230200   -0.817600    0.498400
  C      3.161500   -0.745900   -0.495100
  C      4.383200    0.089700   -0.350000
  C      5.220600    0.370300   -1.447000
  C      6.363600    1.159000   -1.287000
  C      6.705900    1.672900   -0.026000
  C      7.911000    2.564700    0.136500
  F      7.534200    3.879300   -0.061800
  F      8.445300    2.435600    1.406500
  F      8.892700    2.233800   -0.780900
  C      5.856200    1.422500    1.062800
  C      4.713000    0.634600    0.904500
  C      2.859800   -1.517400   -1.623300
  S      1.391400   -2.290800   -1.353600
  C     -2.665200   -0.552100    2.808300
  C     -3.117500    0.752200    2.906500
  C     -3.740100    1.359600    1.827600
  C     -3.933000    0.670500    0.606400
  N     -4.561000    1.280600   -0.460000
  C     -5.065200    2.667000   -0.341700
  C     -4.720900    0.605600   -1.644100
  O     -5.308300    1.165400   -2.614100
  H     -5.434400   -1.911500   -3.053300
  H     -4.445200   -0.676300   -3.933000
  H     -3.647000   -2.110700   -3.264800
  H     -2.001400   -3.024600    2.657900
  H     -3.000700   -3.428900    1.273300
  H      0.034500   -1.238300    1.916400
  H      4.993000    0.001200   -2.436900
  H      6.978400    1.370900   -2.153200
  H      6.075200    1.837800    2.038700
  H      4.088000    0.451000    1.769400
  H      3.454400   -1.625500   -2.518700
  H     -2.171900   -0.987000    3.669000
  H     -2.979200    1.301800    3.829100
  H     -4.064000    2.379900    1.970800
  H     -4.219700    3.361100   -0.148000
  H     -5.577500    3.030900   -1.255800
  H     -5.807700    2.731500    0.482500

 Total Charge           Charge          ....    0
 Multiplicity           Mult            ....    1
 Number of Electrons    NEL             ....  244
 Basis Dimension        Dim             ....  500

ORBITAL ENERGIES
----------------

  NO   OCC          E(Eh)            E(eV)
   0   2.0000     -88.900281     -2419.0996
   1   2.0000     -24.712561      -672.4630
   2   2.0000     -24.712184      -672.4527
   3   2.0000     -24.708476      -672.3518
   4   2.0000     -19.124537      -520.4051
   5   2.0000     -19.114471      -520.1312
   6   2.0000     -19.113334      -520.1003
   7   2.0000     -14.408632      -392.0788
   8   2.0000     -14.399658      -391.8346
   9   2.0000     -14.392803      -391.6481
  10   2.0000     -14.331379      -389.9766
  11   2.0000     -10.426476      -283.7188
  12   2.0000     -10.329667      -281.0845
  13   2.0000     -10.306684      -280.4591
  14   2.0000     -10.296818      -280.1907
  15   2.0000     -10.288791      -279.9722
  16   2.0000     -10.267021      -279.3798
  17   2.0000     -10.238674      -278.6085
  18   2.0000     -10.233697      -278.4731
  19   2.0000     -10.226434      -278.2754
  20   2.0000     -10.220861      -278.1238
  21   2.0000     -10.219557      -278.0883
  22   2.0000     -10.215246      -277.9710
  23   2.0000     -10.209822      -277.8234
  24   2.0000     -10.207984      -277.7734
  25   2.0000     -10.206944      -277.7451
  26   2.0000     -10.205585      -277.7081
  27   2.0000     -10.205103      -277.6950
  28   2.0000     -10.203869      -277.6614
  29   2.0000     -10.195961      -277.4462
  30   2.0000     -10.194255      -277.3998
  31   2.0000     -10.193651      -277.3833
  32   2.0000     -10.188019      -277.2301
  33   2.0000      -7.976599      -217.0543
  34   2.0000      -5.939715      -161.6279
  35   2.0000      -5.935454      -161.5119
  36   2.0000      -5.933567      -161.4606
  37   2.0000      -1.272331       -34.6219
  38   2.0000      -1.197897       -32.5964
  39   2.0000      -1.196494       -32.5583
  40   2.0000      -1.072597       -29.1868
  41   2.0000      -1.027922       -27.9712
  42   2.0000      -1.023835       -27.8600
  43   2.0000      -0.976025       -26.5590
  44   2.0000      -0.975678       -26.5496
  45   2.0000      -0.942882       -25.6571
  46   2.0000      -0.914551       -24.8862
  47   2.0000      -0.879282       -23.9265
  48   2.0000      -0.865037       -23.5388
  49   2.0000      -0.809431       -22.0257
  50   2.0000      -0.806480       -21.9454
  51   2.0000      -0.795957       -21.6591
  52   2.0000      -0.789369       -21.4798
  53   2.0000      -0.752565       -20.4783
  54   2.0000      -0.752412       -20.4742
  55   2.0000      -0.740399       -20.1473
  56   2.0000      -0.727625       -19.7997
  57   2.0000      -0.713066       -19.4035
  58   2.0000      -0.683154       -18.5896
  59   2.0000      -0.661510       -18.0006
  60   2.0000      -0.660083       -17.9618
  61   2.0000      -0.632312       -17.2061
  62   2.0000      -0.623493       -16.9661
  63   2.0000      -0.616961       -16.7884
  64   2.0000      -0.609727       -16.5915
  65   2.0000      -0.582902       -15.8616
  66   2.0000      -0.576322       -15.6825
  67   2.0000      -0.563386       -15.3305
  68   2.0000      -0.562816       -15.3150
  69   2.0000      -0.557488       -15.1700
  70   2.0000      -0.553807       -15.0699
  71   2.0000      -0.552890       -15.0449
  72   2.0000      -0.524296       -14.2668
  73   2.0000      -0.514482       -13.9998
  74   2.0000      -0.507827       -13.8187
  75   2.0000      -0.498999       -13.5784
  76   2.0000      -0.494322       -13.4512
  77   2.0000      -0.483541       -13.1578
  78   2.0000      -0.470143       -12.7932
  79   2.0000      -0.465857       -12.6766
  80   2.0000      -0.463538       -12.6135
  81   2.0000      -0.460121       -12.5205
  82   2.0000      -0.456564       -12.4237
  83   2.0000      -0.453171       -12.3314
  84   2.0000      -0.441245       -12.0069
  85   2.0000      -0.439907       -11.9705
  86   2.0000      -0.438190       -11.9237
  87   2.0000      -0.437900       -11.9159
  88   2.0000      -0.431994       -11.7552
  89   2.0000      -0.428663       -11.6645
  90   2.0000      -0.425506       -11.5786
  91   2.0000      -0.419983       -11.4283
  92   2.0000      -0.413622       -11.2552
  93   2.0000      -0.410070       -11.1586
  94   2.0000      -0.405401       -11.0315
  95   2.0000      -0.404172       -10.9981
  96   2.0000      -0.401821       -10.9341
  97   2.0000      -0.399277       -10.8649
  98   2.0000      -0.391882       -10.6637
  99   2.0000      -0.390981       -10.6391
 100   2.0000      -0.390652       -10.6302
 101   2.0000      -0.382491       -10.4081
 102   2.0000      -0.376877       -10.2553
 103   2.0000      -0.374501       -10.1907
 104   2.0000      -0.370204       -10.0738
 105   2.0000      -0.365046        -9.9334
 106   2.0000      -0.360264        -9.8033
 107   2.0000      -0.351666        -9.5693
 108   2.0000      -0.343272        -9.3409
 109   2.0000      -0.323851        -8.8124
 110   2.0000      -0.310812        -8.4576
 111   2.0000      -0.292835        -7.9684
 112   2.0000      -0.277212        -7.5433
 113   2.0000      -0.276377        -7.5206
 114   2.0000      -0.275313        -7.4916
 115   2.0000      -0.268277        -7.3002
 116   2.0000      -0.259267        -7.0550
 117   2.0000      -0.256166        -6.9706
 118   2.0000      -0.250800        -6.8246
 119   2.0000      -0.249024        -6.7763
 120   2.0000      -0.238474        -6.4892
 121   2.0000      -0.211478        -5.7546
 122   0.0000      -0.065953        -1.7947
 123   0.0000      -0.041824        -1.1381
 124   0.0000      -0.034860        -0.9486
 125   0.0000      -0.020863        -0.5677
 126   0.0000      -0.007049        -0.1918

MULLIKEN ATOMIC CHARGES
-----------------------
   0 C :   -0.315883
   1 N :   -0.462935
   2 C :    0.498227
   3 O :   -0.477490
   4 C :    0.009669
   5 C :    0.099182
   6 C :   -0.427134
   7 C :    0.587952
   8 O :   -0.437714
   9 N :   -0.648512
  10 C :    0.261595
  11 N :   -0.439783
  12 C :    0.213082
  13 C :    0.128121
  14 C :   -0.180047
  15 C :   -0.168152
  16 C :   -0.011815
  17 C :    0.892683
  18 F :   -0.297940
  19 F :   -0.306645
  20 F :   -0.306978
  21 C :   -0.162276
  22 C :   -0.170236
  23 C :   -0.404232
  24 S :    0.321902
  25 C :   -0.213356
  26 C :   -0.102825
  27 C :   -0.197008
  28 C :    0.321640
  29 N :   -0.511668
  30 C :   -0.337441
  31 C :    0.672218
  32 O :   -0.508120
  33 H :    0.178570
  34 H :    0.195659
  35 H :    0.200515
  36 H :    0.166568
  37 H :    0.223442
  38 H :    0.350748
  39 H :    0.132123
  40 H :    0.149676
  41 H :    0.148886
  42 H :    0.154780
  43 H :    0.181487
  44 H :    0.134947
  45 H :    0.147109
  46 H :    0.145160
  47 H :    0.173864
  48 H :    0.226283
  49 H :    0.172103
Sum of atomic charges:    0.0000000

LOEWDIN ATOMIC CHARGES
----------------------
   0 C :   -0.258564
   1 N :   -0.019946
   2 C :    0.110467
   3 O :   -0.271622
   4 C :   -0.072520
   5 C :    0.028173
   6 C :   -0.238384
   7 C :    0.155522
   8 O :   -0.238495
   9 N :   -0.204732
  10 C :   -0.076546
  11 N :   -0.190808
  12 C :   -0.010190
  13 C :   -0.004989
  14 C :   -0.124218
  15 C :   -0.113708
  16 C :   -0.073969
  17 C :    0.308310
  18 F :   -0.115323
  19 F :   -0.114774
  20 F :   -0.114781
  21 C :   -0.112580
  22 C :   -0.115348
  23 C :   -0.348260
  24 S :    0.431495
  25 C :   -0.160977
  26 C :   -0.099381
  27 C :   -0.163039
  28 C :    0.056075
  29 N :   -0.026967
  30 C :   -0.265554
  31 C :    0.137265
  32 O :   -0.317064
  33 H :    0.141376
  34 H :    0.152887
  35 H :    0.155052
  36 H :    0.142732
  37 H :    0.176464
  38 H :    0.272306
  39 H :    0.134255
  40 H :    0.142382
  41 H :    0.141888
  42 H :    0.147168
  43 H :    0.160577
  44 H :    0.133726
  45 H :    0.141646
  46 H :    0.142271
  47 H :    0.136040
  48 H :    0.169193
  49 H :    0.135469

  Mayer bond orders larger than 0.100000
B(  0-C ,  1-N ) :   0.9154 B(  0-C , 33-H ) :   0.9405 B(  0-C , 34-H ) :   0.9253
B(  0-C , 35-H ) :   0.9231 B(  1-N ,  2-C ) :   0.9948 B(  1-N , 31-C ) :   1.0435
B(  2-C ,  3-O ) :   1.7651 B(  2-C ,  4-C ) :   1.0536 B(  4-C ,  5-C ) :   1.3649
B(  4-C , 28-C ) :   1.2887 B(  5-C ,  6-C ) :   0.9764 B(  5-C , 25-C ) :   1.4233
B(  6-C ,  7-C ) :   0.9585 B(  6-C , 36-H ) :   0.9115 B(  6-C , 37-H ) :   0.8936
B(  7-C ,  8-O ) :   1.8266 B(  7-C ,  9-N ) :   1.0056 B(  9-N , 10-C ) :   0.9547
B(  9-N , 38-H ) :   0.8037 B( 10-C , 11-N ) :   1.4802 B( 10-C , 23-C ) :   0.1054
B( 10-C , 24-S ) :   1.1839 B( 11-N , 12-C ) :   1.2874 B( 12-C , 13-C ) :   1.0574
B( 12-C , 23-C ) :   1.5158 B( 13-C , 14-C ) :   1.3998 B( 13-C , 22-C ) :   1.3963
B( 14-C , 15-C ) :   1.4335 B( 14-C , 39-H ) :   0.9202 B( 15-C , 16-C ) :   1.4044
B( 15-C , 40-H ) :   0.9202 B( 16-C , 17-C ) :   0.9812 B( 16-C , 21-C ) :   1.4047
B( 17-C , 18-F ) :   0.9855 B( 17-C , 19-F ) :   0.9475 B( 17-C , 20-F ) :   0.9464
B( 21-C , 22-C ) :   1.4142 B( 21-C , 41-H ) :   0.9217 B( 22-C , 42-H ) :   0.9125
B( 23-C , 24-S ) :   1.1100 B( 23-C , 43-H ) :   0.9013 B( 25-C , 26-C ) :   1.4018
B( 25-C , 44-H ) :   0.9238 B( 26-C , 27-C ) :   1.4753 B( 26-C , 45-H ) :   0.9252
B( 27-C , 28-C ) :   1.3397 B( 27-C , 46-H ) :   0.9136 B( 28-C , 29-N ) :   0.9757
B( 29-N , 30-C ) :   0.9333 B( 29-N , 31-C ) :   1.0398 B( 30-C , 47-H ) :   0.9319
B( 30-C , 48-H ) :   0.9132 B( 30-C , 49-H ) :   0.9316 B( 31-C , 32-O ) :   1.7870

FINAL SINGLE POINT ENERGY     -1990.069480076706

DIPOLE MOMENT
-------------

Method             : SCF
Type of density    : Electron Density
Multiplicity       :   1
Irrep              :   0
Energy             : -1990.0694800767055312 Eh
Relativity type    :
Basis              : AO
                                X                 Y                 Z
Electronic contribution:     47.867235354       6.771105891      -0.307556237
Nuclear contribution   :    -49.517847979      -5.827655835       1.650126843
                        -----------------------------------------
Total Dipole Moment    :     -1.650612625       0.943450056       1.342570605
                        -----------------------------------------
Magnitude (a.u.)       :      2.327469844
Magnitude (Debye)      :      5.915958196

Rotational constants in cm-1:             0.007085             0.001435             0.001381
Rotational constants in MHz :           212.405350            43.013966            41.387480

                             ****ORCA TERMINATED NORMALLY****
TOTAL RUN TIME: 0 days 0 hours 4 minutes 33 seconds 101 msec
