                         Program Version 6.0.0  -   RELEASE  -
|  1> ! B3LYP 6-31G* SP
|  2>
|  3> * xyz 0 1
|  4> C 5.6685 0.2409 0.0599
|  5> C 4.6021 1.3046 -0.1453
|  6> O 3.3132 0.7071 -0.0591
|  7> C 2.1295 1.4350 -0.2058
|  8> O 2.1720 2.6762 -0.4263
|  9> C 0.8223 0.7616 -0.1066
| 10> S -0.6588 1.5412 -0.2855
| 11> C -1.5665 0.1424 -0.0478
| 12> C -3.0447 0.0540 -0.0664
| 13> C -3.6810 -1.1829 0.1489
| 14> C -5.0762 -1.2743 0.1329
| 15> C -5.8507 -0.1353 -0.0975
| 16> C -5.2313 1.0977 -0.3124
| 17> C -3.8363 1.1951 -0.2975
| 18> N -0.7585 -0.9205 0.1679
| 19> C 0.5643 -0.5938 0.1399
| 20> C 1.6315 -1.6321 0.3554
| 21> O 1.0673 -2.8962 0.5807
| 22> H 6.6764 0.7022 -0.0064
| 23> H 5.5499 -0.2267 1.0603
| 24> H 5.5774 -0.5428 -0.7218
| 25> H 4.7070 2.0862 0.6382
| 26> H 4.7344 1.7696 -1.1463
| 27> H -3.1017 -2.0797 0.3296
| 28> H -5.5572 -2.2295 0.2994
| 29> H -6.9305 -0.2082 -0.1094
| 30> H -5.8327 1.9798 -0.4908
| 31> H -3.3829 2.1629 -0.4669
| 32> H 2.2751 -1.3411 1.2162
| 33> H 2.2664 -1.6903 -0.5533
| 34> H 0.7514 -2.9032 1.5222
| 35> *
| 36>
| 37>                          ****END OF INPUT****

CARTESIAN COORDINATES (ANGSTROEM)
---------------------------------
  C      5.668500    0.240900    0.059900
  C      4.602100    1.304600   -0.145300
  O      3.313200    0.707100   -0.059100
  C      2.129500    1.435000   -0.205800
  O      2.172000    2.676200   -0.426300
  C      0.822300    0.761600   -0.106600
  S     -0.658800    1.541200   -0.285500
  C     -1.566500    0.142400   -0.047800
  C     -3.044700    0.054000   -0.066400
  C     -3.681000   -1.182900    0.148900
  C     -5.076200   -1.274300    0.132900
  C     -5.850700   -0.135300   -0.097500
  C     -5.231300    1.097700   -0.312400
  C     -3.836300    1.195100   -0.297500
  N     -0.758500   -0.920500    0.167900
  C      0.564300   -0.593800    0.139900
  C      1.631500   -1.632100    0.355400
  O      1.067300   -2.896200    0.580700
  H      6.676400    0.702200   -0.006400
  H      5.549900   -0.226700    1.060300
  H      5.577400   -0.542800   -0.721800
  H      4.707000    2.086200    0.638200
  H      4.734400    1.769600   -1.146300
  H     -3.101700   -2.079700    0.329600
  H     -5.557200   -2.229500    0.299400
  H     -6.930500   -0.208200   -0.109400
  H     -5.832700    1.979800   -0.490800
  H     -3.382900    2.162900   -0.466900
  H      2.275100   -1.341100    1.216200
  H      2.266400   -1.690300   -0.553300
  H      0.751400   -2.903200    1.522200

 Total Charge           Charge          ....    0
 Multiplicity           Mult            ....    1
 Number of Electrons    NEL             ....  138
 Basis Dimension        Dim             ....  282

ORBITAL ENERGIES
----------------

  NO   OCC          E(Eh)            E(eV)
   0   2.0000     -88.905157     -2419.2323
   1   2.0000     -19.186269      -522.0849
   2   2.0000     -19.135526      -520.7041
   3   2.0000     -19.125352      -520.4273
   4   2.0000     -14.332898      -390.0180
   5   2.0000     -10.325836      -280.9803
   6   2.0000     -10.259791      -279.1831
   7   2.0000     -10.242399      -278.7098
   8   2.0000     -10.233348      -278.4635
   9   2.0000     -10.230951      -278.3983
  10   2.0000     -10.224004      -278.2093
  11   2.0000     -10.212891      -277.9069
  12   2.0000     -10.197087      -277.4768
  13   2.0000     -10.192601      -277.3548
  14   2.0000     -10.192159      -277.3427
  15   2.0000     -10.191978      -277.3378
  16   2.0000     -10.190613      -277.3007
  17   2.0000     -10.183835      -277.1162
  18   2.0000      -7.981748      -217.1944
  19   2.0000      -5.944578      -161.7602
  20   2.0000      -5.940604      -161.6521
  21   2.0000      -5.939052      -161.6098
  22   2.0000      -1.080750       -29.4087
  23   2.0000      -1.018051       -27.7026
  24   2.0000      -0.992246       -27.0004
  25   2.0000      -0.967483       -26.3265
  26   2.0000      -0.862981       -23.4829
  27   2.0000      -0.816071       -22.2064
  28   2.0000      -0.796213       -21.6661
  29   2.0000      -0.771788       -21.0014
  30   2.0000      -0.751880       -20.4597
  31   2.0000      -0.745146       -20.2764
  32   2.0000      -0.684588       -18.6286
  33   2.0000      -0.661956       -18.0127
  34   2.0000      -0.623722       -16.9723
  35   2.0000      -0.613746       -16.7009
  36   2.0000      -0.590395       -16.0655
  37   2.0000      -0.559697       -15.2301
  38   2.0000      -0.556289       -15.1374
  39   2.0000      -0.531248       -14.4560
  40   2.0000      -0.510870       -13.9015
  41   2.0000      -0.498511       -13.5652
  42   2.0000      -0.487977       -13.2785
  43   2.0000      -0.471600       -12.8329
  44   2.0000      -0.460436       -12.5291
  45   2.0000      -0.452618       -12.3164
  46   2.0000      -0.444131       -12.0854
  47   2.0000      -0.437062       -11.8931
  48   2.0000      -0.427486       -11.6325
  49   2.0000      -0.422571       -11.4987
  50   2.0000      -0.417537       -11.3618
  51   2.0000      -0.406146       -11.0518
  52   2.0000      -0.399366       -10.8673
  53   2.0000      -0.397370       -10.8130
  54   2.0000      -0.376007       -10.2317
  55   2.0000      -0.371369       -10.1055
  56   2.0000      -0.357986        -9.7413
  57   2.0000      -0.357515        -9.7285
  58   2.0000      -0.351888        -9.5754
  59   2.0000      -0.339538        -9.2393
  60   2.0000      -0.330820        -9.0021
  61   2.0000      -0.295838        -8.0502
  62   2.0000      -0.284813        -7.7502
  63   2.0000      -0.284041        -7.7291
  64   2.0000      -0.278671        -7.5830
  65   2.0000      -0.264903        -7.2084
  66   2.0000      -0.257100        -6.9960
  67   2.0000      -0.254417        -6.9230
  68   2.0000      -0.225869        -6.1462
  69   0.0000      -0.072481        -1.9723
  70   0.0000      -0.014631        -0.3981
  71   0.0000      -0.007196        -0.1958
  72   0.0000       0.037616         1.0236
  73   0.0000       0.044167         1.2018

MULLIKEN ATOMIC CHARGES
-----------------------
   0 C :   -0.456600
   1 C :   -0.008274
   2 O :   -0.489900
   3 C :    0.584516
   4 O :   -0.469717
   5 C :   -0.250551
   6 S :    0.304845
   7 C :   -0.016353
   8 C :    0.136418
   9 C :   -0.153337
  10 C :   -0.128292
  11 C :   -0.116274
  12 C :   -0.133088
  13 C :   -0.187591
  14 N :   -0.401726
  15 C :    0.247351
  16 C :   -0.084784
  17 O :   -0.600462
  18 H :    0.154757
  19 H :    0.156796
  20 H :    0.159567
  21 H :    0.152777
  22 H :    0.153934
  23 H :    0.166484
  24 H :    0.137899
  25 H :    0.135118
  26 H :    0.137551
  27 H :    0.151522
  28 H :    0.146420
  29 H :    0.173396
  30 H :    0.397598
Sum of atomic charges:    0.0000000

LOEWDIN ATOMIC CHARGES
----------------------
   0 C :   -0.365673
   1 C :   -0.087016
   2 O :   -0.177602
   3 C :    0.177163
   4 O :   -0.269906
   5 C :   -0.254514
   6 S :    0.438710
   7 C :   -0.109747
   8 C :   -0.031313
   9 C :   -0.101730
  10 C :   -0.125395
  11 C :   -0.118416
  12 C :   -0.125770
  13 C :   -0.120452
  14 N :   -0.159046
  15 C :    0.002225
  16 C :   -0.110750
  17 O :   -0.387876
  18 H :    0.135804
  19 H :    0.130755
  20 H :    0.132119
  21 H :    0.124009
  22 H :    0.124663
  23 H :    0.151536
  24 H :    0.136246
  25 H :    0.134705
  26 H :    0.136038
  27 H :    0.141384
  28 H :    0.121491
  29 H :    0.141499
  30 H :    0.316860

  Mayer bond orders larger than 0.100000
B(  0-C ,  1-C ) :   1.0196 B(  0-C , 18-H ) :   0.9416 B(  0-C , 19-H ) :   0.9471
B(  0-C , 20-H ) :   0.9466 B(  1-C ,  2-O ) :   0.8527 B(  1-C , 21-H ) :   0.9300
B(  1-C , 22-H ) :   0.9297 B(  2-O ,  3-C ) :   0.9925 B(  3-C ,  4-O ) :   1.7692
B(  3-C ,  5-C ) :   1.0537 B(  5-C ,  6-S ) :   1.0924 B(  5-C ,  7-C ) :   0.1101
B(  5-C , 15-C ) :   1.3937 B(  6-S ,  7-C ) :   1.1649 B(  7-C ,  8-C ) :   1.0176
B(  7-C , 14-N ) :   1.4287 B(  8-C ,  9-C ) :   1.4062 B(  8-C , 13-C ) :   1.3898
B(  9-C , 10-C ) :   1.4369 B(  9-C , 23-H ) :   0.9107 B( 10-C , 11-C ) :   1.4418
B( 10-C , 24-H ) :   0.9290 B( 11-C , 12-C ) :   1.4454 B( 11-C , 25-H ) :   0.9294
B( 12-C , 13-C ) :   1.4509 B( 12-C , 26-H ) :   0.9286 B( 13-C , 27-H ) :   0.9159
B( 14-N , 15-C ) :   1.3326 B( 15-C , 16-C ) :   0.9496 B( 16-C , 17-O ) :   0.9908
B( 16-C , 28-H ) :   0.9256 B( 16-C , 29-H ) :   0.9209 B( 17-O , 30-H ) :   0.7898

FINAL SINGLE POINT ENERGY     -1181.275062905463

DIPOLE MOMENT
-------------

Method             : SCF
Type of density    : Electron Density
Multiplicity       :   1
Irrep              :   0
Energy             : -1181.2750629054630735 Eh
Relativity type    :
Basis              : AO
                                X                 Y                 Z
Electronic contribution:    -10.969308530       4.931374351      -1.336909610
Nuclear contribution   :     10.785388404      -5.132877024       1.902317466
                        -----------------------------------------
Total Dipole Moment    :     -0.183920126      -0.201502673       0.565407856
                        -----------------------------------------
Magnitude (a.u.)       :      0.627786575
Magnitude (Debye)      :      1.595706660

Rotational constants in cm-1:             0.031360             0.005896             0.004980
Rotational constants in MHz :           940.134942           176.745311           149.288670

                             ****ORCA TERMINATED NORMALLY****
TOTAL RUN TIME: 0 days 0 hours 2 minutes 10 seconds 81 msec
