                         Program Version 6.0.0  -   RELEASE  -
|  1> ! B3LYP 6-31G* SP
|  2>
|  3> * xyz -1 1
|  4> C 2.4050 -1.5703 1.5860
|  5> C 2.8285 -0.1264 1.8278
|  6> N 2.8494 0.6205 0.5644
|  7> C 1.8144 1.2715 -0.0374
|  8> C 0.4057 1.3596 0.4884
|  9> N -0.5430 0.8240 -0.4903
| 10> C -0.4847 -0.5553 -0.8714
| 11> N 0.2317 -0.8894 -1.9764
| 12> C 0.3562 -2.1685 -2.4041
| 13> C -0.2651 -3.2061 -1.7050
| 14> C -0.1349 -4.5329 -2.1446
| 15> C -0.7579 -5.5679 -1.4462
| 16> C -1.5127 -5.2878 -0.3073
| 17> C -1.6501 -3.9715 0.1423
| 18> C -1.0291 -2.9069 -0.5488
| 19> C -1.1452 -1.5579 -0.1218
| 20> C -1.9468 -1.2012 1.1103
| 21> S -1.7311 1.8574 -1.2199
| 22> O -1.0553 3.0512 -1.8349
| 23> O -2.4571 1.1137 -2.3074
| 24> C -2.8860 2.3778 0.0022
| 25> C -2.6563 3.5496 0.7341
| 26> C -3.5547 3.9472 1.7287
| 27> C -4.6958 3.1745 2.0080
| 28> C -5.6423 3.5953 3.0650
| 29> O -6.6704 2.9101 3.3144
| 30> O -5.4095 4.7538 3.7994
| 31> C -4.9197 1.9968 1.2706
| 32> C -4.0204 1.6029 0.2754
| 33> C 2.2231 1.8389 -1.2425
| 34> C 3.5468 1.4908 -1.3773
| 35> C 4.4470 1.7669 -2.4041
| 36> C 5.7517 1.2574 -2.2885
| 37> C 6.1204 0.4882 -1.1640
| 38> C 5.1892 0.2237 -0.1433
| 39> C 3.8987 0.7493 -0.2778
| 40> H 3.1138 -2.0639 0.8884
| 41> H 1.3864 -1.6027 1.1509
| 42> H 2.3993 -2.1238 2.5474
| 43> H 2.1433 0.3551 2.5554
| 44> H 3.8333 -0.1117 2.3001
| 45> H 0.1785 2.4253 0.7012
| 46> H 0.2888 0.8062 1.4394
| 47> H 0.9432 -2.3719 -3.2912
| 48> H 0.4479 -4.7687 -3.0275
| 49> H -0.6555 -6.5899 -1.7887
| 50> H -1.9941 -6.0946 0.2308
| 51> H -2.2436 -3.8022 1.0302
| 52> H -1.9539 -0.1153 1.3258
| 53> H -3.0030 -1.5182 0.9750
| 54> H -1.5154 -1.7120 1.9975
| 55> H -1.7792 4.1539 0.5401
| 56> H -3.3528 4.8574 2.2802
| 57> H -5.7868 1.3775 1.4654
| 58> H -4.2031 0.6868 -0.2728
| 59> H 1.6234 2.4089 -1.9397
| 60> H 4.1520 2.3510 -3.2663
| 61> H 6.4765 1.4528 -3.0680
| 62> H 7.1263 0.0966 -1.0876
| 63> H 5.4753 -0.3750 0.7103
| 64> *
| 65>
| 66>                          ****END OF INPUT****

CARTESIAN COORDINATES (ANGSTROEM)
---------------------------------
  C      2.405000   -1.570300    1.586000
  C      2.828500   -0.126400    1.827800
  N      2.849400    0.620500    0.564400
  C      1.814400    1.271500   -0.037400
  C      0.405700    1.359600    0.488400
  N     -0.543000    0.824000   -0.490300
  C     -0.484700   -0.555300   -0.871400
  N      0.231700   -0.889400   -1.976400
  C      0.356200   -2.168500   -2.404100
  C     -0.265100   -3.206100   -1.705000
  C     -0.134900   -4.532900   -2.144600
  C     -0.757900   -5.567900   -1.446200
  C     -1.512700   -5.287800   -0.307300
  C     -1.650100   -3.971500    0.142300
  C     -1.029100   -2.906900   -0.548800
  C     -1.145200   -1.557900   -0.121800
  C     -1.946800   -1.201200    1.110300
  S     -1.731100    1.857400   -1.219900
  O     -1.055300    3.051200   -1.834900
  O     -2.457100    1.113700   -2.307400
  C     -2.886000    2.377800    0.002200
  C     -2.656300    3.549600    0.734100
  C     -3.554700    3.947200    1.728700
  C     -4.695800    3.174500    2.008000
  C     -5.642300    3.595300    3.065000
  O     -6.670400    2.910100    3.314400
  O     -5.409500    4.753800    3.799400
  C     -4.919700    1.996800    1.270600
  C     -4.020400    1.602900    0.275400
  C      2.223100    1.838900   -1.242500
  C      3.546800    1.490800   -1.377300
  C      4.447000    1.766900   -2.404100
  C      5.751700    1.257400   -2.288500
  C      6.120400    0.488200   -1.164000
  C      5.189200    0.223700   -0.143300
  C      3.898700    0.749300   -0.277800
  H      3.113800   -2.063900    0.888400
  H      1.386400   -1.602700    1.150900
  H      2.399300   -2.123800    2.547400
  H      2.143300    0.355100    2.555400
  H      3.833300   -0.111700    2.300100
  H      0.178500    2.425300    0.701200
  H      0.288800    0.806200    1.439400
  H      0.943200   -2.371900   -3.291200
  H      0.447900   -4.768700   -3.027500
  H     -0.655500   -6.589900   -1.788700
  H     -1.994100   -6.094600    0.230800
  H     -2.243600   -3.802200    1.030200
  H     -1.953900   -0.115300    1.325800
  H     -3.003000   -1.518200    0.975000
  H     -1.515400   -1.712000    1.997500
  H     -1.779200    4.153900    0.540100
  H     -3.352800    4.857400    2.280200
  H     -5.786800    1.377500    1.465400
  H     -4.203100    0.686800   -0.272800
  H      1.623400    2.408900   -1.939700
  H      4.152000    2.351000   -3.266300
  H      6.476500    1.452800   -3.068000
  H      7.126300    0.096600   -1.087600
  H      5.475300   -0.375000    0.710300

 Total Charge           Charge          ....   -1
 Multiplicity           Mult            ....    1
 Number of Electrons    NEL             ....  262
 Basis Dimension        Dim             ....  556

ORBITAL ENERGIES
----------------

  NO   OCC          E(Eh)            E(eV)
   0   2.0000     -89.001865     -2421.8639
   1   2.0000     -19.031612      -517.8765
   2   2.0000     -19.031351      -517.8694
   3   2.0000     -18.908800      -514.5346
   4   2.0000     -18.888107      -513.9715
   5   2.0000     -14.308074      -389.3425
   6   2.0000     -14.283347      -388.6696
   7   2.0000     -14.260228      -388.0405
   8   2.0000     -10.189304      -277.2650
   9   2.0000     -10.175014      -276.8762
  10   2.0000     -10.163868      -276.5729
  11   2.0000     -10.157315      -276.3946
  12   2.0000     -10.143792      -276.0266
  13   2.0000     -10.143169      -276.0097
  14   2.0000     -10.139565      -275.9116
  15   2.0000     -10.138974      -275.8955
  16   2.0000     -10.138095      -275.8716
  17   2.0000     -10.137682      -275.8604
  18   2.0000     -10.137570      -275.8573
  19   2.0000     -10.136682      -275.8331
  20   2.0000     -10.130977      -275.6779
  21   2.0000     -10.124694      -275.5069
  22   2.0000     -10.118765      -275.3456
  23   2.0000     -10.117187      -275.3026
  24   2.0000     -10.111325      -275.1431
  25   2.0000     -10.107128      -275.0289
  26   2.0000     -10.103047      -274.9179
  27   2.0000     -10.102057      -274.8909
  28   2.0000     -10.096993      -274.7531
  29   2.0000     -10.095847      -274.7220
  30   2.0000     -10.094344      -274.6811
  31   2.0000     -10.089688      -274.5544
  32   2.0000     -10.078233      -274.2426
  33   2.0000     -10.076739      -274.2020
  34   2.0000     -10.076464      -274.1945
  35   2.0000     -10.075487      -274.1680
  36   2.0000      -8.037416      -218.7092
  37   2.0000      -6.002797      -163.3444
  38   2.0000      -6.000642      -163.2858
  39   2.0000      -5.999514      -163.2551
  40   2.0000      -0.989032       -26.9129
  41   2.0000      -0.931943       -25.3594
  42   2.0000      -0.886367       -24.1193
  43   2.0000      -0.868126       -23.6229
  44   2.0000      -0.838649       -22.8208
  45   2.0000      -0.817837       -22.2545
  46   2.0000      -0.801795       -21.8180
  47   2.0000      -0.776206       -21.1216
  48   2.0000      -0.759289       -20.6613
  49   2.0000      -0.744715       -20.2647
  50   2.0000      -0.738417       -20.0934
  51   2.0000      -0.714488       -19.4422
  52   2.0000      -0.698963       -19.0197
  53   2.0000      -0.694180       -18.8896
  54   2.0000      -0.683736       -18.6054
  55   2.0000      -0.677175       -18.4269
  56   2.0000      -0.663810       -18.0632
  57   2.0000      -0.650461       -17.6999
  58   2.0000      -0.646400       -17.5894
  59   2.0000      -0.632272       -17.2050
  60   2.0000      -0.611493       -16.6396
  61   2.0000      -0.588034       -16.0012
  62   2.0000      -0.582285       -15.8448
  63   2.0000      -0.579362       -15.7653
  64   2.0000      -0.550225       -14.9724
  65   2.0000      -0.532764       -14.4972
  66   2.0000      -0.529944       -14.4205
  67   2.0000      -0.513986       -13.9863
  68   2.0000      -0.504981       -13.7412
  69   2.0000      -0.502388       -13.6707
  70   2.0000      -0.493167       -13.4197
  71   2.0000      -0.470695       -12.8083
  72   2.0000      -0.455697       -12.4002
  73   2.0000      -0.452838       -12.3224
  74   2.0000      -0.439581       -11.9616
  75   2.0000      -0.437174       -11.8961
  76   2.0000      -0.425127       -11.5683
  77   2.0000      -0.421253       -11.4629
  78   2.0000      -0.410709       -11.1760
  79   2.0000      -0.398510       -10.8440
  80   2.0000      -0.393943       -10.7197
  81   2.0000      -0.388395       -10.5688
  82   2.0000      -0.385345       -10.4858
  83   2.0000      -0.379087       -10.3155
  84   2.0000      -0.376746       -10.2518
  85   2.0000      -0.370987       -10.0951
  86   2.0000      -0.366910        -9.9841
  87   2.0000      -0.365766        -9.9530
  88   2.0000      -0.357989        -9.7414
  89   2.0000      -0.355942        -9.6857
  90   2.0000      -0.344209        -9.3664
  91   2.0000      -0.339782        -9.2459
  92   2.0000      -0.337782        -9.1915
  93   2.0000      -0.333262        -9.0685
  94   2.0000      -0.331659        -9.0249
  95   2.0000      -0.325933        -8.8691
  96   2.0000      -0.324011        -8.8168
  97   2.0000      -0.321178        -8.7397
  98   2.0000      -0.319865        -8.7040
  99   2.0000      -0.316201        -8.6043
 100   2.0000      -0.310906        -8.4602
 101   2.0000      -0.306990        -8.3536
 102   2.0000      -0.300411        -8.1746
 103   2.0000      -0.294565        -8.0155
 104   2.0000      -0.290350        -7.9008
 105   2.0000      -0.287095        -7.8123
 106   2.0000      -0.278036        -7.5657
 107   2.0000      -0.274785        -7.4773
 108   2.0000      -0.265342        -7.2203
 109   2.0000      -0.252179        -6.8621
 110   2.0000      -0.247405        -6.7322
 111   2.0000      -0.237450        -6.4614
 112   2.0000      -0.231514        -6.2998
 113   2.0000      -0.227945        -6.2027
 114   2.0000      -0.214806        -5.8452
 115   2.0000      -0.209469        -5.6999
 116   2.0000      -0.202737        -5.5168
 117   2.0000      -0.200027        -5.4430
 118   2.0000      -0.196808        -5.3554
 119   2.0000      -0.188024        -5.1164
 120   2.0000      -0.183146        -4.9837
 121   2.0000      -0.179061        -4.8725
 122   2.0000      -0.171878        -4.6770
 123   2.0000      -0.159989        -4.3535
 124   2.0000      -0.152900        -4.1606
 125   2.0000      -0.148387        -4.0378
 126   2.0000      -0.132610        -3.6085
 127   2.0000      -0.116479        -3.1695
 128   2.0000      -0.062915        -1.7120
 129   2.0000      -0.041143        -1.1196
 130   2.0000      -0.024584        -0.6690
 131   0.0000       0.001207         0.0329
 132   0.0000       0.032424         0.8823
 133   0.0000       0.056873         1.5476
 134   0.0000       0.065890         1.7930
 135   0.0000       0.082954         2.2573

MULLIKEN ATOMIC CHARGES
-----------------------
   0 C :   -0.441306
   1 C :   -0.166949
   2 N :   -0.470936
   3 C :    0.264792
   4 C :   -0.233646
   5 N :   -0.604501
   6 C :    0.323951
   7 N :   -0.353267
   8 C :   -0.054494
   9 C :    0.139894
  10 C :   -0.203166
  11 C :   -0.128710
  12 C :   -0.123322
  13 C :   -0.198898
  14 C :    0.122187
  15 C :    0.095196
  16 C :   -0.547301
  17 S :    1.188575
  18 O :   -0.559917
  19 O :   -0.555147
  20 C :   -0.141251
  21 C :   -0.161383
  22 C :   -0.150930
  23 C :    0.104199
  24 C :    0.411357
  25 O :   -0.552120
  26 O :   -0.657275
  27 C :   -0.159123
  28 C :   -0.155664
  29 C :   -0.236760
  30 C :    0.134850
  31 C :   -0.202786
  32 C :   -0.148103
  33 C :   -0.148567
  34 C :   -0.192170
  35 C :    0.287211
  36 H :    0.160956
  37 H :    0.168780
  38 H :    0.135156
  39 H :    0.161225
  40 H :    0.156518
  41 H :    0.195710
  42 H :    0.141896
  43 H :    0.144885
  44 H :    0.129870
  45 H :    0.121469
  46 H :    0.125820
  47 H :    0.138537
  48 H :    0.195074
  49 H :    0.172325
  50 H :    0.148082
  51 H :    0.142898
  52 H :    0.153203
  53 H :    0.145964
  54 H :    0.143840
  55 H :    0.169343
  56 H :    0.119652
  57 H :    0.099939
  58 H :    0.099766
  59 H :    0.104569
Sum of atomic charges:   -1.0000000

LOEWDIN ATOMIC CHARGES
----------------------
   0 C :   -0.368950
   1 C :   -0.151184
   2 N :    0.015026
   3 C :   -0.006094
   4 C :   -0.151957
   5 N :   -0.291312
   6 C :    0.040354
   7 N :   -0.102260
   8 C :   -0.062406
   9 C :   -0.028826
  10 C :   -0.114896
  11 C :   -0.134645
  12 C :   -0.125812
  13 C :   -0.123426
  14 C :   -0.009209
  15 C :   -0.015309
  16 C :   -0.362081
  17 S :    1.262867
  18 O :   -0.587821
  19 O :   -0.584163
  20 C :   -0.217434
  21 C :   -0.131861
  22 C :   -0.108145
  23 C :   -0.003644
  24 C :    0.071846
  25 O :   -0.377719
  26 O :   -0.505924
  27 C :   -0.115002
  28 C :   -0.125663
  29 C :   -0.170718
  30 C :   -0.039261
  31 C :   -0.130897
  32 C :   -0.156406
  33 C :   -0.156477
  34 C :   -0.165163
  35 C :    0.004948
  36 H :    0.132893
  37 H :    0.134869
  38 H :    0.122565
  39 H :    0.130665
  40 H :    0.130383
  41 H :    0.156352
  42 H :    0.119195
  43 H :    0.133874
  44 H :    0.132911
  45 H :    0.128599
  46 H :    0.130936
  47 H :    0.138569
  48 H :    0.150992
  49 H :    0.142793
  50 H :    0.129603
  51 H :    0.137336
  52 H :    0.150664
  53 H :    0.146156
  54 H :    0.138443
  55 H :    0.153691
  56 H :    0.129676
  57 H :    0.118709
  58 H :    0.119363
  59 H :    0.120385

  Mayer bond orders larger than 0.100000
B(  0-C ,  1-C ) :   1.0024 B(  0-C , 36-H ) :   0.9471 B(  0-C , 37-H ) :   0.9324
B(  0-C , 38-H ) :   0.9445 B(  1-C ,  2-N ) :   0.9549 B(  1-C , 39-H ) :   0.9303
B(  1-C , 40-H ) :   0.9307 B(  2-N ,  3-C ) :   1.1064 B(  2-N , 35-C ) :   1.0351
B(  3-C ,  4-C ) :   0.9652 B(  3-C , 29-C ) :   1.5275 B(  4-C ,  5-N ) :   0.9464
B(  4-C , 41-H ) :   0.9086 B(  4-C , 42-H ) :   0.9170 B(  5-N ,  6-C ) :   0.9094
B(  5-N , 17-S ) :   0.7766 B(  6-C ,  7-N ) :   1.2887 B(  6-C , 15-C ) :   1.4273
B(  7-N ,  8-C ) :   1.5012 B(  8-C ,  9-C ) :   1.2294 B(  8-C , 15-C ) :   0.1035
B(  8-C , 43-H ) :   0.9284 B(  9-C , 10-C ) :   1.2848 B(  9-C , 14-C ) :   1.2919
B( 10-C , 11-C ) :   1.5125 B( 10-C , 13-C ) :   0.1067 B( 10-C , 44-H ) :   0.9243
B( 11-C , 12-C ) :   1.3529 B( 11-C , 45-H ) :   0.9316 B( 12-C , 13-C ) :   1.5096
B( 12-C , 46-H ) :   0.9310 B( 13-C , 14-C ) :   1.2947 B( 13-C , 47-H ) :   0.9159
B( 14-C , 15-C ) :   1.2545 B( 15-C , 16-C ) :   0.9966 B( 16-C , 48-H ) :   0.9203
B( 16-C , 49-H ) :   0.9255 B( 16-C , 50-H ) :   0.9285 B( 17-S , 18-O ) :   1.6201
B( 17-S , 19-O ) :   1.6318 B( 17-S , 20-C ) :   0.8410 B( 20-C , 21-C ) :   1.3619
B( 20-C , 28-C ) :   1.3654 B( 21-C , 22-C ) :   1.4019 B( 21-C , 51-H ) :   0.9194
B( 22-C , 23-C ) :   1.4043 B( 22-C , 52-H ) :   0.9013 B( 23-C , 24-C ) :   0.9271
B( 23-C , 27-C ) :   1.3854 B( 24-C , 25-O ) :   1.7061 B( 24-C , 26-O ) :   1.5495
B( 25-O , 26-O ) :   0.1487 B( 27-C , 28-C ) :   1.4114 B( 27-C , 53-H ) :   0.9074
B( 28-C , 54-H ) :   0.9194 B( 29-C , 30-C ) :   1.2789 B( 29-C , 55-H ) :   0.9119
B( 30-C , 31-C ) :   1.3362 B( 30-C , 35-C ) :   1.3094 B( 31-C , 32-C ) :   1.4760
B( 31-C , 56-H ) :   0.9269 B( 32-C , 33-C ) :   1.3805 B( 32-C , 57-H ) :   0.9342
B( 33-C , 34-C ) :   1.4729 B( 33-C , 58-H ) :   0.9344 B( 34-C , 35-C ) :   1.3495
B( 34-C , 59-H ) :   0.9199

FINAL SINGLE POINT ENERGY     -1943.718410297821

DIPOLE MOMENT
-------------

Method             : SCF
Type of density    : Electron Density
Multiplicity       :   1
Irrep              :   0
Energy             : -1943.7184102978205829 Eh
Relativity type    :
Basis              : AO
                                X                 Y                 Z
Electronic contribution:    -15.112314171      14.289316492      -9.708362347
Nuclear contribution   :     22.802702561     -21.379478002       7.124589178
                        -----------------------------------------
Total Dipole Moment    :      7.690388389      -7.090161510      -2.583773169
                        -----------------------------------------
Magnitude (a.u.)       :     10.774430268
Magnitude (Debye)      :     27.386425308

Rotational constants in cm-1:             0.004511             0.002339             0.001828
Rotational constants in MHz :           135.228930            70.122329            54.791112

                             ****ORCA TERMINATED NORMALLY****
TOTAL RUN TIME: 0 days 0 hours 12 minutes 57 seconds 356 msec
