                         Program Version 6.0.0  -   RELEASE  -
|  1> ! B3LYP 6-31G* SP
|  2>
|  3> * xyz 0 1
|  4> O -1.2162 0.1176 -2.7931
|  5> C -0.8551 0.1282 -1.5854
|  6> C 0.5888 0.1802 -1.2839
|  7> C 1.0943 -0.1418 -0.0847
|  8> C 2.5446 -0.1133 0.2263
|  9> C 3.0186 -0.8788 1.3032
| 10> C 4.3754 -0.8737 1.6387
| 11> C 5.2898 -0.1074 0.8978
| 12> C 6.7449 -0.0627 1.2913
| 13> F 7.1380 -1.2680 1.8471
| 14> F 7.5422 0.1847 0.1872
| 15> F 6.9348 0.9444 2.2189
| 16> C 4.8115 0.6942 -0.1517
| 17> C 3.4546 0.6891 -0.4886
| 18> N -1.8460 0.1421 -0.5436
| 19> C -3.2188 -0.2187 -0.7746
| 20> C -3.5100 -1.3831 -1.5079
| 21> C -4.8277 -1.8115 -1.6699
| 22> C -5.8714 -1.0910 -1.0932
| 23> C -5.6028 0.0664 -0.3607
| 24> C -4.2822 0.5251 -0.1981
| 25> C -4.0599 1.7953 0.5349
| 26> O -3.0296 2.4905 0.3259
| 27> O -5.0165 2.2539 1.4370
| 28> H 1.2504 0.4291 -2.1028
| 29> H 0.4313 -0.5056 0.6899
| 30> H 2.3366 -1.4862 1.8860
| 31> H 4.7091 -1.4678 2.4803
| 32> H 5.4865 1.3332 -0.7074
| 33> H 3.1235 1.3372 -1.2883
| 34> H -1.5760 0.4736 0.4087
| 35> H -2.7103 -1.9776 -1.9313
| 36> H -5.0385 -2.7118 -2.2327
| 37> H -6.8927 -1.4279 -1.2165
| 38> H -6.4347 0.6157 0.0625
| 39> H -4.8864 3.1266 1.9349
| 40> *
| 41>
| 42>                          ****END OF INPUT****

CARTESIAN COORDINATES (ANGSTROEM)
---------------------------------
  O     -1.216200    0.117600   -2.793100
  C     -0.855100    0.128200   -1.585400
  C      0.588800    0.180200   -1.283900
  C      1.094300   -0.141800   -0.084700
  C      2.544600   -0.113300    0.226300
  C      3.018600   -0.878800    1.303200
  C      4.375400   -0.873700    1.638700
  C      5.289800   -0.107400    0.897800
  C      6.744900   -0.062700    1.291300
  F      7.138000   -1.268000    1.847100
  F      7.542200    0.184700    0.187200
  F      6.934800    0.944400    2.218900
  C      4.811500    0.694200   -0.151700
  C      3.454600    0.689100   -0.488600
  N     -1.846000    0.142100   -0.543600
  C     -3.218800   -0.218700   -0.774600
  C     -3.510000   -1.383100   -1.507900
  C     -4.827700   -1.811500   -1.669900
  C     -5.871400   -1.091000   -1.093200
  C     -5.602800    0.066400   -0.360700
  C     -4.282200    0.525100   -0.198100
  C     -4.059900    1.795300    0.534900
  O     -3.029600    2.490500    0.325900
  O     -5.016500    2.253900    1.437000
  H      1.250400    0.429100   -2.102800
  H      0.431300   -0.505600    0.689900
  H      2.336600   -1.486200    1.886000
  H      4.709100   -1.467800    2.480300
  H      5.486500    1.333200   -0.707400
  H      3.123500    1.337200   -1.288300
  H     -1.576000    0.473600    0.408700
  H     -2.710300   -1.977600   -1.931300
  H     -5.038500   -2.711800   -2.232700
  H     -6.892700   -1.427900   -1.216500
  H     -6.434700    0.615700    0.062500
  H     -4.886400    3.126600    1.934900

 Total Charge           Charge          ....    0
 Multiplicity           Mult            ....    1
 Number of Electrons    NEL             ....  172
 Basis Dimension        Dim             ....  360

ORBITAL ENERGIES
----------------

  NO   OCC          E(Eh)            E(eV)
   0   2.0000     -24.721473      -672.7055
   1   2.0000     -24.721364      -672.7025
   2   2.0000     -24.717634      -672.6010
   3   2.0000     -19.187923      -522.1299
   4   2.0000     -19.128165      -520.5038
   5   2.0000     -19.111185      -520.0418
   6   2.0000     -14.365322      -390.9003
   7   2.0000     -10.437123      -284.0086
   8   2.0000     -10.327058      -281.0135
   9   2.0000     -10.293983      -280.1135
  10   2.0000     -10.248666      -278.8804
  11   2.0000     -10.219566      -278.0885
  12   2.0000     -10.218715      -278.0654
  13   2.0000     -10.214682      -277.9556
  14   2.0000     -10.214353      -277.9467
  15   2.0000     -10.209153      -277.8052
  16   2.0000     -10.209141      -277.8048
  17   2.0000     -10.206136      -277.7231
  18   2.0000     -10.206000      -277.7194
  19   2.0000     -10.203384      -277.6482
  20   2.0000     -10.198747      -277.5220
  21   2.0000     -10.196603      -277.4637
  22   2.0000     -10.192900      -277.3629
  23   2.0000     -10.189914      -277.2817
  24   2.0000      -1.281182       -34.8627
  25   2.0000      -1.206736       -32.8369
  26   2.0000      -1.205361       -32.7995
  27   2.0000      -1.073147       -29.2018
  28   2.0000      -1.012715       -27.5574
  29   2.0000      -0.987266       -26.8649
  30   2.0000      -0.917934       -24.9783
  31   2.0000      -0.882326       -24.0093
  32   2.0000      -0.854760       -23.2592
  33   2.0000      -0.823660       -22.4129
  34   2.0000      -0.777254       -21.1501
  35   2.0000      -0.772498       -21.0207
  36   2.0000      -0.766798       -20.8656
  37   2.0000      -0.744496       -20.2588
  38   2.0000      -0.703389       -19.1402
  39   2.0000      -0.665003       -18.0956
  40   2.0000      -0.649560       -17.6754
  41   2.0000      -0.634376       -17.2622
  42   2.0000      -0.623951       -16.9786
  43   2.0000      -0.604375       -16.4459
  44   2.0000      -0.593772       -16.1574
  45   2.0000      -0.572119       -15.5681
  46   2.0000      -0.570983       -15.5372
  47   2.0000      -0.566272       -15.4090
  48   2.0000      -0.563231       -15.3263
  49   2.0000      -0.542554       -14.7636
  50   2.0000      -0.520984       -14.1767
  51   2.0000      -0.500749       -13.6261
  52   2.0000      -0.496532       -13.5113
  53   2.0000      -0.472711       -12.8631
  54   2.0000      -0.467341       -12.7170
  55   2.0000      -0.466535       -12.6951
  56   2.0000      -0.456804       -12.4303
  57   2.0000      -0.451513       -12.2863
  58   2.0000      -0.449985       -12.2447
  59   2.0000      -0.447351       -12.1730
  60   2.0000      -0.442750       -12.0478
  61   2.0000      -0.439531       -11.9603
  62   2.0000      -0.428915       -11.6714
  63   2.0000      -0.423324       -11.5192
  64   2.0000      -0.422787       -11.5046
  65   2.0000      -0.412762       -11.2318
  66   2.0000      -0.404768       -11.0143
  67   2.0000      -0.399744       -10.8776
  68   2.0000      -0.394718       -10.7408
  69   2.0000      -0.389583       -10.6011
  70   2.0000      -0.385095       -10.4790
  71   2.0000      -0.383764       -10.4427
  72   2.0000      -0.370517       -10.0823
  73   2.0000      -0.365424        -9.9437
  74   2.0000      -0.363810        -9.8998
  75   2.0000      -0.362155        -9.8547
  76   2.0000      -0.361651        -9.8410
  77   2.0000      -0.314477        -8.5573
  78   2.0000      -0.309383        -8.4187
  79   2.0000      -0.295786        -8.0488
  80   2.0000      -0.271454        -7.3866
  81   2.0000      -0.267420        -7.2769
  82   2.0000      -0.257601        -7.0097
  83   2.0000      -0.249903        -6.8002
  84   2.0000      -0.245072        -6.6688
  85   2.0000      -0.225965        -6.1488
  86   0.0000      -0.074801        -2.0354
  87   0.0000      -0.050727        -1.3804
  88   0.0000      -0.022764        -0.6195
  89   0.0000      -0.014910        -0.4057
  90   0.0000       0.004706         0.1281

MULLIKEN ATOMIC CHARGES
-----------------------
   0 O :   -0.476955
   1 C :    0.553866
   2 C :   -0.174212
   3 C :   -0.159393
   4 C :    0.158318
   5 C :   -0.183614
   6 C :   -0.160774
   7 C :   -0.011730
   8 C :    0.896900
   9 F :   -0.304822
  10 F :   -0.304307
  11 F :   -0.295617
  12 C :   -0.161463
  13 C :   -0.172922
  14 N :   -0.698202
  15 C :    0.296862
  16 C :   -0.130788
  17 C :   -0.126126
  18 C :   -0.125465
  19 C :   -0.170898
  20 C :    0.059114
  21 C :    0.495185
  22 O :   -0.450820
  23 O :   -0.619110
  24 H :    0.166433
  25 H :    0.138832
  26 H :    0.141241
  27 H :    0.155856
  28 H :    0.158443
  29 H :    0.149924
  30 H :    0.336019
  31 H :    0.155215
  32 H :    0.142339
  33 H :    0.135348
  34 H :    0.158738
  35 H :    0.428584
Sum of atomic charges:   -0.0000000

LOEWDIN ATOMIC CHARGES
----------------------
   0 O :   -0.271603
   1 C :    0.138972
   2 C :   -0.141593
   3 C :   -0.102823
   4 C :   -0.011464
   5 C :   -0.119767
   6 C :   -0.109754
   7 C :   -0.065788
   8 C :    0.310376
   9 F :   -0.113025
  10 F :   -0.112605
  11 F :   -0.113082
  12 C :   -0.108209
  13 C :   -0.115952
  14 N :   -0.206427
  15 C :    0.069612
  16 C :   -0.118431
  17 C :   -0.107459
  18 C :   -0.137208
  19 C :   -0.101515
  20 C :   -0.069850
  21 C :    0.175247
  22 O :   -0.268961
  23 O :   -0.336869
  24 H :    0.154943
  25 H :    0.135004
  26 H :    0.138008
  27 H :    0.145269
  28 H :    0.146477
  29 H :    0.142473
  30 H :    0.260465
  31 H :    0.148481
  32 H :    0.138833
  33 H :    0.135399
  34 H :    0.147583
  35 H :    0.345243

  Mayer bond orders larger than 0.100000
B(  0-O ,  1-C ) :   1.7727 B(  1-C ,  2-C ) :   1.0567 B(  1-C , 14-N ) :   1.0153
B(  2-C ,  3-C ) :   1.7369 B(  2-C , 24-H ) :   0.9163 B(  3-C ,  4-C ) :   1.0678
B(  3-C , 25-H ) :   0.9151 B(  4-C ,  5-C ) :   1.3853 B(  4-C , 13-C ) :   1.3936
B(  5-C ,  6-C ) :   1.4283 B(  5-C , 26-H ) :   0.9246 B(  6-C ,  7-C ) :   1.4114
B(  6-C , 27-H ) :   0.9192 B(  7-C ,  8-C ) :   0.9784 B(  7-C , 12-C ) :   1.3998
B(  8-C ,  9-F ) :   0.9485 B(  8-C , 10-F ) :   0.9490 B(  8-C , 11-F ) :   0.9870
B( 12-C , 13-C ) :   1.4380 B( 12-C , 28-H ) :   0.9186 B( 13-C , 29-H ) :   0.9169
B( 14-N , 15-C ) :   0.9114 B( 14-N , 30-H ) :   0.8071 B( 15-C , 16-C ) :   1.4113
B( 15-C , 20-C ) :   1.3626 B( 16-C , 17-C ) :   1.4445 B( 16-C , 31-H ) :   0.9146
B( 17-C , 18-C ) :   1.4276 B( 17-C , 32-H ) :   0.9275 B( 18-C , 19-C ) :   1.4463
B( 18-C , 33-H ) :   0.9297 B( 19-C , 20-C ) :   1.3719 B( 19-C , 34-H ) :   0.9181
B( 20-C , 21-C ) :   0.9930 B( 21-C , 22-O ) :   1.8387 B( 21-C , 23-O ) :   1.0243
B( 23-O , 35-H ) :   0.7442

FINAL SINGLE POINT ENERGY     -1234.314025071552

DIPOLE MOMENT
-------------

Method             : SCF
Type of density    : Electron Density
Multiplicity       :   1
Irrep              :   0
Energy             : -1234.3140250715518960 Eh
Relativity type    :
Basis              : AO
                                X                 Y                 Z
Electronic contribution:     34.428779982       2.506892889       7.461723279
Nuclear contribution   :    -35.408054714      -3.029042691      -6.231481181
                        -----------------------------------------
Total Dipole Moment    :     -0.979274732      -0.522149802       1.230242098
                        -----------------------------------------
Magnitude (a.u.)       :      1.656838868
Magnitude (Debye)      :      4.211349722

Rotational constants in cm-1:             0.020914             0.002217             0.002138
Rotational constants in MHz :           626.985467            66.463683            64.087609

                             ****ORCA TERMINATED NORMALLY****
TOTAL RUN TIME: 0 days 0 hours 4 minutes 48 seconds 302 msec
