                         Program Version 6.0.0  -   RELEASE  -
|  1> ! B3LYP 6-31G* SP
|  2>
|  3> * xyz 0 1
|  4> O 1.3866 1.1852 -1.7276
|  5> C 1.3755 0.3677 -0.7651
|  6> N 0.1290 -0.1626 -0.2986
|  7> C -1.1173 -0.0081 -1.0562
|  8> C -2.1065 -1.0748 -0.6180
|  9> C -2.0213 -2.3538 -1.1948
| 10> C -2.8923 -3.3700 -0.8015
| 11> C -3.8513 -3.1275 0.1855
| 12> C -3.9250 -1.8733 0.8163
| 13> C -4.9984 -1.6114 1.8364
| 14> F -6.1693 -1.2985 1.1848
| 15> F -5.2042 -2.7350 2.6194
| 16> F -4.6520 -0.5632 2.6630
| 17> C -3.0508 -0.8499 0.4054
| 18> C -1.6635 1.4042 -0.9070
| 19> N -1.3359 2.1008 0.2193
| 20> C -1.7743 3.3624 0.4532
| 21> C -2.5941 3.9971 -0.4739
| 22> C -2.9627 3.3227 -1.6323
| 23> C -2.5204 2.0069 -1.8707
| 24> C -2.9164 1.3062 -3.1561
| 25> F -1.8039 1.1579 -3.9628
| 26> F -3.8698 2.0278 -3.8581
| 27> F -3.4511 0.0639 -2.8815
| 28> C 2.6507 -0.0153 -0.1190
| 29> C 2.7861 -1.2605 0.5170
| 30> C 3.9917 -1.6243 1.1239
| 31> C 5.0804 -0.7465 1.1041
| 32> C 6.2979 -1.0759 1.7162
| 33> C 7.3613 -0.1724 1.6831
| 34> C 7.1974 1.0553 1.0399
| 35> N 6.0119 1.3642 0.4474
| 36> C 4.9574 0.5028 0.4606
| 37> C 3.7506 0.8582 -0.1531
| 38> H 0.0936 -0.5807 0.6560
| 39> H -0.8787 -0.1834 -2.1266
| 40> H -1.2780 -2.5626 -1.9476
| 41> H -2.8255 -4.3478 -1.2610
| 42> H -4.5333 -3.9224 0.4611
| 43> H -3.1139 0.1200 0.8769
| 44> H -1.4793 3.8746 1.3573
| 45> H -2.9394 5.0072 -0.2974
| 46> H -3.5926 3.8415 -2.3425
| 47> H 1.9660 -1.9674 0.5294
| 48> H 4.0720 -2.5875 1.6104
| 49> H 6.4255 -2.0254 2.2175
| 50> H 8.3050 -0.4183 2.1545
| 51> H 8.0153 1.7644 1.0109
| 52> H 3.6675 1.8276 -0.6379
| 53> *
| 54>
| 55>                          ****END OF INPUT****

CARTESIAN COORDINATES (ANGSTROEM)
---------------------------------
  O      1.386600    1.185200   -1.727600
  C      1.375500    0.367700   -0.765100
  N      0.129000   -0.162600   -0.298600
  C     -1.117300   -0.008100   -1.056200
  C     -2.106500   -1.074800   -0.618000
  C     -2.021300   -2.353800   -1.194800
  C     -2.892300   -3.370000   -0.801500
  C     -3.851300   -3.127500    0.185500
  C     -3.925000   -1.873300    0.816300
  C     -4.998400   -1.611400    1.836400
  F     -6.169300   -1.298500    1.184800
  F     -5.204200   -2.735000    2.619400
  F     -4.652000   -0.563200    2.663000
  C     -3.050800   -0.849900    0.405400
  C     -1.663500    1.404200   -0.907000
  N     -1.335900    2.100800    0.219300
  C     -1.774300    3.362400    0.453200
  C     -2.594100    3.997100   -0.473900
  C     -2.962700    3.322700   -1.632300
  C     -2.520400    2.006900   -1.870700
  C     -2.916400    1.306200   -3.156100
  F     -1.803900    1.157900   -3.962800
  F     -3.869800    2.027800   -3.858100
  F     -3.451100    0.063900   -2.881500
  C      2.650700   -0.015300   -0.119000
  C      2.786100   -1.260500    0.517000
  C      3.991700   -1.624300    1.123900
  C      5.080400   -0.746500    1.104100
  C      6.297900   -1.075900    1.716200
  C      7.361300   -0.172400    1.683100
  C      7.197400    1.055300    1.039900
  N      6.011900    1.364200    0.447400
  C      4.957400    0.502800    0.460600
  C      3.750600    0.858200   -0.153100
  H      0.093600   -0.580700    0.656000
  H     -0.878700   -0.183400   -2.126600
  H     -1.278000   -2.562600   -1.947600
  H     -2.825500   -4.347800   -1.261000
  H     -4.533300   -3.922400    0.461100
  H     -3.113900    0.120000    0.876900
  H     -1.479300    3.874600    1.357300
  H     -2.939400    5.007200   -0.297400
  H     -3.592600    3.841500   -2.342500
  H      1.966000   -1.967400    0.529400
  H      4.072000   -2.587500    1.610400
  H      6.425500   -2.025400    2.217500
  H      8.305000   -0.418300    2.154500
  H      8.015300    1.764400    1.010900
  H      3.667500    1.827600   -0.637900

 Total Charge           Charge          ....    0
 Multiplicity           Mult            ....    1
 Number of Electrons    NEL             ....  242
 Basis Dimension        Dim             ....  506

ORBITAL ENERGIES
----------------

  NO   OCC          E(Eh)            E(eV)
   0   2.0000     -24.724540      -672.7889
   1   2.0000     -24.724078      -672.7764
   2   2.0000     -24.721067      -672.6944
   3   2.0000     -24.720909      -672.6901
   4   2.0000     -24.718041      -672.6121
   5   2.0000     -24.716079      -672.5587
   6   2.0000     -19.108578      -519.9708
   7   2.0000     -14.356796      -390.6683
   8   2.0000     -14.338245      -390.1635
   9   2.0000     -14.326199      -389.8357
  10   2.0000     -10.440742      -284.1070
  11   2.0000     -10.434319      -283.9323
  12   2.0000     -10.288409      -279.9618
  13   2.0000     -10.247969      -278.8614
  14   2.0000     -10.244110      -278.7564
  15   2.0000     -10.232021      -278.4275
  16   2.0000     -10.224435      -278.2210
  17   2.0000     -10.223186      -278.1870
  18   2.0000     -10.221800      -278.1493
  19   2.0000     -10.216338      -278.0007
  20   2.0000     -10.215519      -277.9784
  21   2.0000     -10.213822      -277.9322
  22   2.0000     -10.205701      -277.7112
  23   2.0000     -10.205155      -277.6964
  24   2.0000     -10.204926      -277.6901
  25   2.0000     -10.204581      -277.6808
  26   2.0000     -10.201616      -277.6001
  27   2.0000     -10.201297      -277.5914
  28   2.0000     -10.200665      -277.5742
  29   2.0000     -10.200106      -277.5590
  30   2.0000     -10.198510      -277.5156
  31   2.0000     -10.196761      -277.4680
  32   2.0000     -10.195862      -277.4435
  33   2.0000     -10.192202      -277.3439
  34   2.0000      -1.285086       -34.9690
  35   2.0000      -1.281436       -34.8697
  36   2.0000      -1.210134       -32.9294
  37   2.0000      -1.207948       -32.8699
  38   2.0000      -1.206475       -32.8299
  39   2.0000      -1.204224       -32.7686
  40   2.0000      -1.009015       -27.4567
  41   2.0000      -0.947176       -25.7740
  42   2.0000      -0.936369       -25.4799
  43   2.0000      -0.908823       -24.7303
  44   2.0000      -0.871921       -23.7262
  45   2.0000      -0.855629       -23.2828
  46   2.0000      -0.822971       -22.3942
  47   2.0000      -0.811335       -22.0775
  48   2.0000      -0.802577       -21.8392
  49   2.0000      -0.787301       -21.4235
  50   2.0000      -0.771232       -20.9863
  51   2.0000      -0.764713       -20.8089
  52   2.0000      -0.743071       -20.2200
  53   2.0000      -0.717435       -19.5224
  54   2.0000      -0.700480       -19.0610
  55   2.0000      -0.693963       -18.8837
  56   2.0000      -0.664575       -18.0840
  57   2.0000      -0.639330       -17.3971
  58   2.0000      -0.637104       -17.3365
  59   2.0000      -0.634514       -17.2660
  60   2.0000      -0.621888       -16.9224
  61   2.0000      -0.611332       -16.6352
  62   2.0000      -0.603443       -16.4205
  63   2.0000      -0.579433       -15.7672
  64   2.0000      -0.574804       -15.6412
  65   2.0000      -0.573451       -15.6044
  66   2.0000      -0.571312       -15.5462
  67   2.0000      -0.568164       -15.4605
  68   2.0000      -0.562373       -15.3029
  69   2.0000      -0.559509       -15.2250
  70   2.0000      -0.536164       -14.5898
  71   2.0000      -0.523888       -14.2557
  72   2.0000      -0.517920       -14.0933
  73   2.0000      -0.512742       -13.9524
  74   2.0000      -0.508145       -13.8273
  75   2.0000      -0.500910       -13.6305
  76   2.0000      -0.479147       -13.0383
  77   2.0000      -0.476991       -12.9796
  78   2.0000      -0.465343       -12.6626
  79   2.0000      -0.458923       -12.4879
  80   2.0000      -0.455024       -12.3818
  81   2.0000      -0.451619       -12.2892
  82   2.0000      -0.448929       -12.2160
  83   2.0000      -0.447347       -12.1729
  84   2.0000      -0.445780       -12.1303
  85   2.0000      -0.444148       -12.0859
  86   2.0000      -0.436712       -11.8835
  87   2.0000      -0.430263       -11.7081
  88   2.0000      -0.427186       -11.6243
  89   2.0000      -0.424179       -11.5425
  90   2.0000      -0.421205       -11.4616
  91   2.0000      -0.420476       -11.4417
  92   2.0000      -0.419094       -11.4041
  93   2.0000      -0.413885       -11.2624
  94   2.0000      -0.410429       -11.1683
  95   2.0000      -0.408981       -11.1290
  96   2.0000      -0.405004       -11.0207
  97   2.0000      -0.402517       -10.9530
  98   2.0000      -0.400497       -10.8981
  99   2.0000      -0.398243       -10.8367
 100   2.0000      -0.397108       -10.8058
 101   2.0000      -0.392483       -10.6800
 102   2.0000      -0.378899       -10.3104
 103   2.0000      -0.373735       -10.1698
 104   2.0000      -0.370824       -10.0906
 105   2.0000      -0.363429        -9.8894
 106   2.0000      -0.362664        -9.8686
 107   2.0000      -0.359117        -9.7721
 108   2.0000      -0.354489        -9.6461
 109   2.0000      -0.334825        -9.1111
 110   2.0000      -0.305709        -8.3188
 111   2.0000      -0.294001        -8.0002
 112   2.0000      -0.277381        -7.5479
 113   2.0000      -0.270684        -7.3657
 114   2.0000      -0.264192        -7.1890
 115   2.0000      -0.260322        -7.0837
 116   2.0000      -0.257986        -7.0202
 117   2.0000      -0.250447        -6.8150
 118   2.0000      -0.246423        -6.7055
 119   2.0000      -0.240419        -6.5421
 120   2.0000      -0.228135        -6.2079
 121   0.0000      -0.069065        -1.8794
 122   0.0000      -0.041914        -1.1405
 123   0.0000      -0.038237        -1.0405
 124   0.0000      -0.033609        -0.9145
 125   0.0000      -0.026225        -0.7136

MULLIKEN ATOMIC CHARGES
-----------------------
   0 O :   -0.482130
   1 C :    0.511558
   2 N :   -0.609029
   3 C :   -0.086301
   4 C :    0.121886
   5 C :   -0.152777
   6 C :   -0.128376
   7 C :   -0.155959
   8 C :   -0.016468
   9 C :    0.898065
  10 F :   -0.293137
  11 F :   -0.307599
  12 F :   -0.303448
  13 C :   -0.210217
  14 C :    0.247681
  15 N :   -0.413198
  16 C :    0.026809
  17 C :   -0.132292
  18 C :   -0.131959
  19 C :   -0.052821
  20 C :    0.916263
  21 F :   -0.290078
  22 F :   -0.306227
  23 F :   -0.299079
  24 C :    0.074538
  25 C :   -0.178722
  26 C :   -0.207451
  27 C :    0.174147
  28 C :   -0.153784
  29 C :   -0.143736
  30 C :    0.015530
  31 N :   -0.429362
  32 C :    0.208518
  33 C :   -0.170252
  34 H :    0.331158
  35 H :    0.179955
  36 H :    0.144658
  37 H :    0.143476
  38 H :    0.152542
  39 H :    0.165523
  40 H :    0.158436
  41 H :    0.144179
  42 H :    0.165468
  43 H :    0.133609
  44 H :    0.134916
  45 H :    0.142237
  46 H :    0.136550
  47 H :    0.152689
  48 H :    0.174009
Sum of atomic charges:    0.0000000

LOEWDIN ATOMIC CHARGES
----------------------
   0 O :   -0.284630
   1 C :    0.145542
   2 N :   -0.222704
   3 C :   -0.053569
   4 C :   -0.018692
   5 C :   -0.110749
   6 C :   -0.123848
   7 C :   -0.109515
   8 C :   -0.068970
   9 C :    0.305069
  10 F :   -0.108332
  11 F :   -0.115691
  12 F :   -0.109188
  13 C :   -0.118661
  14 C :    0.054358
  15 N :   -0.130806
  16 C :   -0.053474
  17 C :   -0.143639
  18 C :   -0.088236
  19 C :   -0.080517
  20 C :    0.309939
  21 F :   -0.105698
  22 F :   -0.111767
  23 F :   -0.104474
  24 C :   -0.047457
  25 C :   -0.127874
  26 C :   -0.120957
  27 C :   -0.022897
  28 C :   -0.093748
  29 C :   -0.145705
  30 C :   -0.061643
  31 N :   -0.125278
  32 C :    0.013257
  33 C :   -0.074677
  34 H :    0.255747
  35 H :    0.153500
  36 H :    0.139892
  37 H :    0.139258
  38 H :    0.143551
  39 H :    0.149894
  40 H :    0.139601
  41 H :    0.140959
  42 H :    0.149492
  43 H :    0.134247
  44 H :    0.134514
  45 H :    0.138334
  46 H :    0.136897
  47 H :    0.137050
  48 H :    0.162296

  Mayer bond orders larger than 0.100000
B(  0-O ,  1-C ) :   1.8003 B(  1-C ,  2-N ) :   1.0414 B(  1-C , 24-C ) :   0.9811
B(  2-N ,  3-C ) :   0.9428 B(  2-N , 34-H ) :   0.8183 B(  3-C ,  4-C ) :   0.9512
B(  3-C , 14-C ) :   0.9303 B(  3-C , 35-H ) :   0.8941 B(  4-C ,  5-C ) :   1.4219
B(  4-C , 13-C ) :   1.4151 B(  5-C ,  6-C ) :   1.4402 B(  5-C , 36-H ) :   0.9227
B(  6-C ,  7-C ) :   1.4347 B(  6-C , 37-H ) :   0.9272 B(  7-C ,  8-C ) :   1.4151
B(  7-C , 38-H ) :   0.9203 B(  8-C ,  9-C ) :   0.9793 B(  8-C , 13-C ) :   1.3883
B(  9-C , 10-F ) :   0.9910 B(  9-C , 11-F ) :   0.9468 B(  9-C , 12-F ) :   0.9479
B( 13-C , 39-H ) :   0.8992 B( 14-C , 15-N ) :   1.3657 B( 14-C , 19-C ) :   1.3582
B( 15-N , 16-C ) :   1.4203 B( 16-C , 17-C ) :   1.4237 B( 16-C , 40-H ) :   0.9272
B( 17-C , 18-C ) :   1.4351 B( 17-C , 41-H ) :   0.9237 B( 18-C , 19-C ) :   1.4131
B( 18-C , 42-H ) :   0.9165 B( 19-C , 20-C ) :   0.9701 B( 20-C , 21-F ) :   0.9616
B( 20-C , 22-F ) :   0.9403 B( 20-C , 23-F ) :   0.9378 B( 24-C , 25-C ) :   1.3037
B( 24-C , 33-C ) :   1.4517 B( 25-C , 26-C ) :   1.4990 B( 25-C , 43-H ) :   0.9198
B( 26-C , 27-C ) :   1.2882 B( 26-C , 33-C ) :   0.1026 B( 26-C , 44-H ) :   0.9237
B( 27-C , 28-C ) :   1.3016 B( 27-C , 32-C ) :   1.2512 B( 28-C , 29-C ) :   1.5152
B( 28-C , 45-H ) :   0.9242 B( 29-C , 30-C ) :   1.3214 B( 29-C , 46-H ) :   0.9246
B( 30-C , 31-N ) :   1.5168 B( 30-C , 47-H ) :   0.9296 B( 31-N , 32-C ) :   1.2414
B( 32-C , 33-C ) :   1.2687 B( 33-C , 48-H ) :   0.9053

FINAL SINGLE POINT ENERGY     -1761.192807496602

DIPOLE MOMENT
-------------

Method             : SCF
Type of density    : Electron Density
Multiplicity       :   1
Irrep              :   0
Energy             : -1761.1928074966021995 Eh
Relativity type    :
Basis              : AO
                                X                 Y                 Z
Electronic contribution:    -39.276442525       0.323577107      -7.132169408
Nuclear contribution   :     39.758776347      -1.204302618       8.134675923
                        -----------------------------------------
Total Dipole Moment    :      0.482333822      -0.880725511       1.002506515
                        -----------------------------------------
Magnitude (a.u.)       :      1.418923062
Magnitude (Debye)      :      3.606615801

Rotational constants in cm-1:             0.005606             0.002081             0.001769
Rotational constants in MHz :           168.077608            62.401053            53.031349

                             ****ORCA TERMINATED NORMALLY****
TOTAL RUN TIME: 0 days 0 hours 5 minutes 42 seconds 827 msec
