                         Program Version 6.0.0  -   RELEASE  -
|  1> ! B3LYP 6-31G* SP
|  2>
|  3> * xyz 0 1
|  4> C 0.3210 2.2882 1.0160
|  5> C 1.0222 1.0949 0.4249
|  6> C 2.4083 1.1718 0.1530
|  7> C 3.0312 0.0491 -0.3816
|  8> N 4.3205 -0.1094 -0.7176
|  9> N 4.4834 -1.3430 -1.1840
| 10> C 3.2863 -1.9777 -1.1448
| 11> C 2.3521 -1.1026 -0.6360
| 12> C 0.9936 -1.2342 -0.3785
| 13> C 0.3125 -0.1185 0.1572
| 14> C -1.1301 -0.2442 0.4572
| 15> C -1.5127 -0.4776 1.7875
| 16> C -2.8585 -0.6246 2.1221
| 17> C -3.8360 -0.5473 1.1319
| 18> C -3.4734 -0.3143 -0.1964
| 19> C -2.1208 -0.1433 -0.5551
| 20> C -1.7486 0.1024 -2.0049
| 21> F -1.1506 -1.0296 -2.5260
| 22> F -0.8695 1.1661 -2.1002
| 23> F -2.8610 0.4022 -2.7727
| 24> H 0.0591 2.0790 2.0740
| 25> H 0.9629 3.1941 0.9835
| 26> H -0.6063 2.5076 0.4461
| 27> H 2.9773 2.0717 0.3509
| 28> H 5.0827 0.5994 -0.6345
| 29> H 3.1176 -2.9980 -1.4625
| 30> H 0.4806 -2.1668 -0.5794
| 31> H -0.7634 -0.5511 2.5667
| 32> H -3.1435 -0.8059 3.1504
| 33> H -4.8791 -0.6705 1.3933
| 34> H -4.2579 -0.2681 -0.9406
| 35> *
| 36>
| 37>                          ****END OF INPUT****

CARTESIAN COORDINATES (ANGSTROEM)
---------------------------------
  C      0.321000    2.288200    1.016000
  C      1.022200    1.094900    0.424900
  C      2.408300    1.171800    0.153000
  C      3.031200    0.049100   -0.381600
  N      4.320500   -0.109400   -0.717600
  N      4.483400   -1.343000   -1.184000
  C      3.286300   -1.977700   -1.144800
  C      2.352100   -1.102600   -0.636000
  C      0.993600   -1.234200   -0.378500
  C      0.312500   -0.118500    0.157200
  C     -1.130100   -0.244200    0.457200
  C     -1.512700   -0.477600    1.787500
  C     -2.858500   -0.624600    2.122100
  C     -3.836000   -0.547300    1.131900
  C     -3.473400   -0.314300   -0.196400
  C     -2.120800   -0.143300   -0.555100
  C     -1.748600    0.102400   -2.004900
  F     -1.150600   -1.029600   -2.526000
  F     -0.869500    1.166100   -2.100200
  F     -2.861000    0.402200   -2.772700
  H      0.059100    2.079000    2.074000
  H      0.962900    3.194100    0.983500
  H     -0.606300    2.507600    0.446100
  H      2.977300    2.071700    0.350900
  H      5.082700    0.599400   -0.634500
  H      3.117600   -2.998000   -1.462500
  H      0.480600   -2.166800   -0.579400
  H     -0.763400   -0.551100    2.566700
  H     -3.143500   -0.805900    3.150400
  H     -4.879100   -0.670500    1.393300
  H     -4.257900   -0.268100   -0.940600

 Total Charge           Charge          ....    0
 Multiplicity           Mult            ....    1
 Number of Electrons    NEL             ....  142
 Basis Dimension        Dim             ....  302

ORBITAL ENERGIES
----------------

  NO   OCC          E(Eh)            E(eV)
   0   2.0000     -24.716745      -672.5768
   1   2.0000     -24.711814      -672.4426
   2   2.0000     -24.711648      -672.4381
   3   2.0000     -14.397653      -391.7801
   4   2.0000     -14.343785      -390.3142
   5   2.0000     -10.430336      -283.8239
   6   2.0000     -10.211775      -277.8765
   7   2.0000     -10.207709      -277.7659
   8   2.0000     -10.206182      -277.7243
   9   2.0000     -10.198777      -277.5228
  10   2.0000     -10.194772      -277.4139
  11   2.0000     -10.194433      -277.4046
  12   2.0000     -10.192697      -277.3574
  13   2.0000     -10.192607      -277.3549
  14   2.0000     -10.191231      -277.3175
  15   2.0000     -10.188192      -277.2348
  16   2.0000     -10.182953      -277.0922
  17   2.0000     -10.181517      -277.0532
  18   2.0000     -10.175204      -276.8814
  19   2.0000     -10.166206      -276.6365
  20   2.0000      -1.274594       -34.6835
  21   2.0000      -1.199916       -32.6514
  22   2.0000      -1.197971       -32.5985
  23   2.0000      -1.049733       -28.5647
  24   2.0000      -0.875522       -23.8242
  25   2.0000      -0.850895       -23.1540
  26   2.0000      -0.818567       -22.2743
  27   2.0000      -0.789134       -21.4734
  28   2.0000      -0.777646       -21.1608
  29   2.0000      -0.761326       -20.7167
  30   2.0000      -0.727844       -19.8056
  31   2.0000      -0.689764       -18.7694
  32   2.0000      -0.685973       -18.6663
  33   2.0000      -0.640951       -17.4412
  34   2.0000      -0.617265       -16.7966
  35   2.0000      -0.614822       -16.7302
  36   2.0000      -0.597919       -16.2702
  37   2.0000      -0.580446       -15.7947
  38   2.0000      -0.564755       -15.3678
  39   2.0000      -0.561862       -15.2890
  40   2.0000      -0.548884       -14.9359
  41   2.0000      -0.532754       -14.4970
  42   2.0000      -0.505204       -13.7473
  43   2.0000      -0.471923       -12.8417
  44   2.0000      -0.469064       -12.7639
  45   2.0000      -0.464352       -12.6357
  46   2.0000      -0.452260       -12.3066
  47   2.0000      -0.448145       -12.1946
  48   2.0000      -0.446267       -12.1436
  49   2.0000      -0.444795       -12.1035
  50   2.0000      -0.439449       -11.9580
  51   2.0000      -0.434341       -11.8190
  52   2.0000      -0.416894       -11.3443
  53   2.0000      -0.412626       -11.2281
  54   2.0000      -0.410610       -11.1733
  55   2.0000      -0.404878       -11.0173
  56   2.0000      -0.396346       -10.7851
  57   2.0000      -0.392422       -10.6783
  58   2.0000      -0.385435       -10.4882
  59   2.0000      -0.371526       -10.1097
  60   2.0000      -0.368868       -10.0374
  61   2.0000      -0.356704        -9.7064
  62   2.0000      -0.343538        -9.3481
  63   2.0000      -0.338697        -9.2164
  64   2.0000      -0.327916        -8.9230
  65   2.0000      -0.283859        -7.7242
  66   2.0000      -0.271750        -7.3947
  67   2.0000      -0.263445        -7.1687
  68   2.0000      -0.255555        -6.9540
  69   2.0000      -0.228448        -6.2164
  70   2.0000      -0.207516        -5.6468
  71   0.0000      -0.026579        -0.7233
  72   0.0000      -0.021497        -0.5850
  73   0.0000      -0.011103        -0.3021
  74   0.0000       0.024421         0.6645
  75   0.0000       0.063490         1.7277

MULLIKEN ATOMIC CHARGES
-----------------------
   0 C :   -0.528161
   1 C :    0.149663
   2 C :   -0.235163
   3 C :    0.371714
   4 N :   -0.514004
   5 N :   -0.233534
   6 C :   -0.053628
   7 C :    0.095177
   8 C :   -0.221216
   9 C :   -0.033721
  10 C :    0.013998
  11 C :   -0.151109
  12 C :   -0.121513
  13 C :   -0.118188
  14 C :   -0.181210
  15 C :   -0.045041
  16 C :    0.923003
  17 F :   -0.299316
  18 F :   -0.302163
  19 F :   -0.306797
  20 H :    0.157722
  21 H :    0.150204
  22 H :    0.164548
  23 H :    0.118794
  24 H :    0.347137
  25 H :    0.147096
  26 H :    0.137407
  27 H :    0.142724
  28 H :    0.136515
  29 H :    0.136810
  30 H :    0.152252
Sum of atomic charges:   -0.0000000

LOEWDIN ATOMIC CHARGES
----------------------
   0 C :   -0.353183
   1 C :   -0.010361
   2 C :   -0.158433
   3 C :    0.000089
   4 N :   -0.076879
   5 N :   -0.123720
   6 C :   -0.127033
   7 C :   -0.066574
   8 C :   -0.110829
   9 C :   -0.041475
  10 C :    0.006739
  11 C :   -0.122563
  12 C :   -0.115454
  13 C :   -0.130180
  14 C :   -0.115051
  15 C :   -0.070970
  16 C :    0.313409
  17 F :   -0.111002
  18 F :   -0.109108
  19 F :   -0.112629
  20 H :    0.134494
  21 H :    0.129028
  22 H :    0.138038
  23 H :    0.128992
  24 H :    0.271611
  25 H :    0.140406
  26 H :    0.138617
  27 H :    0.139437
  28 H :    0.135384
  29 H :    0.136096
  30 H :    0.143105

  Mayer bond orders larger than 0.100000
B(  0-C ,  1-C ) :   0.9944 B(  0-C , 20-H ) :   0.9307 B(  0-C , 21-H ) :   0.9463
B(  0-C , 22-H ) :   0.9306 B(  1-C ,  2-C ) :   1.4751 B(  1-C ,  9-C ) :   1.3310
B(  2-C ,  3-C ) :   1.3116 B(  2-C ,  8-C ) :   0.1064 B(  2-C , 23-H ) :   0.9171
B(  3-C ,  4-N ) :   0.9318 B(  3-C ,  7-C ) :   1.3356 B(  4-N ,  5-N ) :   1.2149
B(  4-N , 24-H ) :   0.8334 B(  5-N ,  6-C ) :   1.5068 B(  6-C ,  7-C ) :   1.2559
B(  6-C , 25-H ) :   0.9338 B(  7-C ,  8-C ) :   1.2939 B(  8-C ,  9-C ) :   1.4497
B(  8-C , 26-H ) :   0.9196 B(  9-C , 10-C ) :   0.9707 B( 10-C , 11-C ) :   1.4222
B( 10-C , 15-C ) :   1.4057 B( 11-C , 12-C ) :   1.4268 B( 11-C , 27-H ) :   0.9236
B( 12-C , 13-C ) :   1.4508 B( 12-C , 28-H ) :   0.9281 B( 13-C , 14-C ) :   1.4350
B( 13-C , 29-H ) :   0.9296 B( 14-C , 15-C ) :   1.3892 B( 14-C , 30-H ) :   0.9192
B( 15-C , 16-C ) :   0.9748 B( 16-C , 17-F ) :   0.9588 B( 16-C , 18-F ) :   0.9396
B( 16-C , 19-F ) :   0.9415

FINAL SINGLE POINT ENERGY      -986.683109243385

DIPOLE MOMENT
-------------

Method             : SCF
Type of density    : Electron Density
Multiplicity       :   1
Irrep              :   0
Energy             :  -986.6831092433847061 Eh
Relativity type    :
Basis              : AO
                                X                 Y                 Z
Electronic contribution:     -4.196200218      -2.646174446     -16.290249947
Nuclear contribution   :      3.821129592       3.175449123      17.465270973
                        -----------------------------------------
Total Dipole Moment    :     -0.375070626       0.529274677       1.175021026
                        -----------------------------------------
Magnitude (a.u.)       :      1.342193753
Magnitude (Debye)      :      3.411585396

Rotational constants in cm-1:             0.020321             0.008062             0.007188
Rotational constants in MHz :           609.211831           241.681139           215.491041

                             ****ORCA TERMINATED NORMALLY****
TOTAL RUN TIME: 0 days 0 hours 3 minutes 17 seconds 306 msec
