                         Program Version 6.0.0  -   RELEASE  -
|  1> ! B3LYP 6-31G* SP
|  2>
|  3> * xyz -1 1
|  4> C -2.2456 2.2514 -1.7765
|  5> N -1.6388 3.3308 -1.0023
|  6> C -1.8500 4.6499 -1.2231
|  7> C -1.1744 5.4190 -0.2873
|  8> C -0.5241 4.5160 0.5269
|  9> C 0.2648 4.7269 1.6558
| 10> Cl 0.6098 6.3387 2.2599
| 11> C 0.7655 3.5918 2.3106
| 12> N 0.4930 2.3410 1.8310
| 13> C -0.2699 2.1307 0.7166
| 14> N -0.4550 0.7941 0.2368
| 15> C 0.3210 0.3349 -0.9200
| 16> C 1.6527 -0.2198 -0.4863
| 17> C 1.8815 -1.6039 -0.4781
| 18> C 3.1068 -2.1167 -0.0425
| 19> C 4.1298 -1.2471 0.3831
| 20> O 5.3793 -1.7055 0.8306
| 21> C 5.7641 -3.0740 0.9396
| 22> F 4.9252 -3.7351 1.8187
| 23> F 7.0563 -3.1393 1.4232
| 24> F 5.7212 -3.6830 -0.3015
| 25> C 3.9021 0.1339 0.3606
| 26> C 2.6755 0.6458 -0.0704
| 27> S -1.1549 -0.3693 1.3234
| 28> O -0.0756 -0.9490 2.1946
| 29> O -2.1676 0.3100 2.2028
| 30> C -1.9696 -1.6502 0.4281
| 31> C -1.4081 -2.9307 0.3445
| 32> C -2.0493 -3.9360 -0.3848
| 33> C -3.2685 -3.6780 -1.0340
| 34> C -3.9433 -4.7432 -1.8073
| 35> O -5.0356 -4.5160 -2.3923
| 36> O -3.3804 -6.0109 -1.9002
| 37> C -3.8359 -2.3953 -0.9323
| 38> C -3.1914 -1.3916 -0.2040
| 39> C -0.8046 3.2551 0.0613
| 40> H -2.5644 1.4309 -1.1072
| 41> H -3.1484 2.6201 -2.3085
| 42> H -1.5264 1.8745 -2.5308
| 43> H -2.4806 5.0421 -2.0108
| 44> H -1.1775 6.4977 -0.2058
| 45> H 1.3762 3.7011 3.1965
| 46> H -0.2631 -0.4249 -1.4822
| 47> H 0.5035 1.1786 -1.6195
| 48> H 1.1147 -2.2878 -0.8159
| 49> H 3.2462 -3.1882 -0.0451
| 50> H 4.6811 0.8144 0.6804
| 51> H 2.5248 1.7182 -0.0822
| 52> H -0.4736 -3.1546 0.8414
| 53> H -1.5898 -4.9148 -0.4389
| 54> H -4.7783 -2.1673 -1.4138
| 55> H -3.6504 -0.4151 -0.1280
| 56> *
| 57>
| 58>                          ****END OF INPUT****

CARTESIAN COORDINATES (ANGSTROEM)
---------------------------------
  C     -2.245600    2.251400   -1.776500
  N     -1.638800    3.330800   -1.002300
  C     -1.850000    4.649900   -1.223100
  C     -1.174400    5.419000   -0.287300
  C     -0.524100    4.516000    0.526900
  C      0.264800    4.726900    1.655800
  Cl     0.609800    6.338700    2.259900
  C      0.765500    3.591800    2.310600
  N      0.493000    2.341000    1.831000
  C     -0.269900    2.130700    0.716600
  N     -0.455000    0.794100    0.236800
  C      0.321000    0.334900   -0.920000
  C      1.652700   -0.219800   -0.486300
  C      1.881500   -1.603900   -0.478100
  C      3.106800   -2.116700   -0.042500
  C      4.129800   -1.247100    0.383100
  O      5.379300   -1.705500    0.830600
  C      5.764100   -3.074000    0.939600
  F      4.925200   -3.735100    1.818700
  F      7.056300   -3.139300    1.423200
  F      5.721200   -3.683000   -0.301500
  C      3.902100    0.133900    0.360600
  C      2.675500    0.645800   -0.070400
  S     -1.154900   -0.369300    1.323400
  O     -0.075600   -0.949000    2.194600
  O     -2.167600    0.310000    2.202800
  C     -1.969600   -1.650200    0.428100
  C     -1.408100   -2.930700    0.344500
  C     -2.049300   -3.936000   -0.384800
  C     -3.268500   -3.678000   -1.034000
  C     -3.943300   -4.743200   -1.807300
  O     -5.035600   -4.516000   -2.392300
  O     -3.380400   -6.010900   -1.900200
  C     -3.835900   -2.395300   -0.932300
  C     -3.191400   -1.391600   -0.204000
  C     -0.804600    3.255100    0.061300
  H     -2.564400    1.430900   -1.107200
  H     -3.148400    2.620100   -2.308500
  H     -1.526400    1.874500   -2.530800
  H     -2.480600    5.042100   -2.010800
  H     -1.177500    6.497700   -0.205800
  H      1.376200    3.701100    3.196500
  H     -0.263100   -0.424900   -1.482200
  H      0.503500    1.178600   -1.619500
  H      1.114700   -2.287800   -0.815900
  H      3.246200   -3.188200   -0.045100
  H      4.681100    0.814400    0.680400
  H      2.524800    1.718200   -0.082200
  H     -0.473600   -3.154600    0.841400
  H     -1.589800   -4.914800   -0.438900
  H     -4.778300   -2.167300   -1.413800
  H     -3.650400   -0.415100   -0.128000

 Total Charge           Charge          ....   -1
 Multiplicity           Mult            ....    1
 Number of Electrons    NEL             ....  276
 Basis Dimension        Dim             ....  544

ORBITAL ENERGIES
----------------

  NO   OCC          E(Eh)            E(eV)
   0   2.0000    -101.475231     -2761.2814
   1   2.0000     -89.003681     -2421.9133
   2   2.0000     -24.683169      -671.6632
   3   2.0000     -24.678668      -671.5407
   4   2.0000     -24.675914      -671.4658
   5   2.0000     -19.147269      -521.0237
   6   2.0000     -19.031496      -517.8733
   7   2.0000     -19.025072      -517.6985
   8   2.0000     -18.915191      -514.7085
   9   2.0000     -18.894294      -514.1399
  10   2.0000     -14.338587      -390.1728
  11   2.0000     -14.295089      -388.9891
  12   2.0000     -14.263069      -388.1178
  13   2.0000     -10.442343      -284.1506
  14   2.0000     -10.200741      -277.5763
  15   2.0000     -10.197364      -277.4844
  16   2.0000     -10.182656      -277.0842
  17   2.0000     -10.176121      -276.9063
  18   2.0000     -10.167790      -276.6796
  19   2.0000     -10.166346      -276.6403
  20   2.0000     -10.164808      -276.5985
  21   2.0000     -10.156230      -276.3651
  22   2.0000     -10.133113      -275.7360
  23   2.0000     -10.127595      -275.5859
  24   2.0000     -10.126163      -275.5469
  25   2.0000     -10.124198      -275.4934
  26   2.0000     -10.123783      -275.4821
  27   2.0000     -10.123381      -275.4712
  28   2.0000     -10.121007      -275.4066
  29   2.0000     -10.116609      -275.2869
  30   2.0000     -10.106797      -275.0199
  31   2.0000     -10.102386      -274.8999
  32   2.0000     -10.100362      -274.8448
  33   2.0000     -10.086429      -274.4657
  34   2.0000     -10.084864      -274.4231
  35   2.0000     -10.082915      -274.3701
  36   2.0000      -9.406661      -255.9683
  37   2.0000      -8.039536      -218.7669
  38   2.0000      -7.169626      -195.0954
  39   2.0000      -7.160372      -194.8436
  40   2.0000      -7.160067      -194.8353
  41   2.0000      -6.005146      -163.4083
  42   2.0000      -6.002258      -163.3298
  43   2.0000      -6.001810      -163.3176
  44   2.0000      -1.243815       -33.8459
  45   2.0000      -1.165732       -31.7212
  46   2.0000      -1.162961       -31.6458
  47   2.0000      -1.017257       -27.6810
  48   2.0000      -0.989525       -26.9263
  49   2.0000      -0.960732       -26.1429
  50   2.0000      -0.886800       -24.1311
  51   2.0000      -0.866106       -23.5679
  52   2.0000      -0.846742       -23.0410
  53   2.0000      -0.824581       -22.4380
  54   2.0000      -0.807868       -21.9832
  55   2.0000      -0.790986       -21.5238
  56   2.0000      -0.768879       -20.9223
  57   2.0000      -0.767194       -20.8764
  58   2.0000      -0.718153       -19.5419
  59   2.0000      -0.705680       -19.2025
  60   2.0000      -0.701858       -19.0985
  61   2.0000      -0.686660       -18.6850
  62   2.0000      -0.686246       -18.6737
  63   2.0000      -0.674188       -18.3456
  64   2.0000      -0.658671       -17.9233
  65   2.0000      -0.654450       -17.8085
  66   2.0000      -0.644765       -17.5450
  67   2.0000      -0.615509       -16.7489
  68   2.0000      -0.595228       -16.1970
  69   2.0000      -0.572058       -15.5665
  70   2.0000      -0.561939       -15.2911
  71   2.0000      -0.553580       -15.0637
  72   2.0000      -0.551332       -15.0025
  73   2.0000      -0.535016       -14.5585
  74   2.0000      -0.530329       -14.4310
  75   2.0000      -0.524400       -14.2696
  76   2.0000      -0.512293       -13.9402
  77   2.0000      -0.505602       -13.7581
  78   2.0000      -0.498432       -13.5630
  79   2.0000      -0.474891       -12.9224
  80   2.0000      -0.456020       -12.4089
  81   2.0000      -0.447236       -12.1699
  82   2.0000      -0.434006       -11.8099
  83   2.0000      -0.431046       -11.7294
  84   2.0000      -0.425518       -11.5789
  85   2.0000      -0.422045       -11.4844
  86   2.0000      -0.418455       -11.3867
  87   2.0000      -0.409651       -11.1472
  88   2.0000      -0.407938       -11.1005
  89   2.0000      -0.401605       -10.9282
  90   2.0000      -0.400985       -10.9114
  91   2.0000      -0.396114       -10.7788
  92   2.0000      -0.384887       -10.4733
  93   2.0000      -0.383411       -10.4331
  94   2.0000      -0.378172       -10.2906
  95   2.0000      -0.374007       -10.1772
  96   2.0000      -0.370916       -10.0931
  97   2.0000      -0.365842        -9.9551
  98   2.0000      -0.360025        -9.7968
  99   2.0000      -0.359612        -9.7855
 100   2.0000      -0.356236        -9.6937
 101   2.0000      -0.355723        -9.6797
 102   2.0000      -0.347166        -9.4469
 103   2.0000      -0.342370        -9.3164
 104   2.0000      -0.339786        -9.2460
 105   2.0000      -0.335754        -9.1363
 106   2.0000      -0.331092        -9.0095
 107   2.0000      -0.328142        -8.9292
 108   2.0000      -0.326592        -8.8870
 109   2.0000      -0.317455        -8.6384
 110   2.0000      -0.312190        -8.4951
 111   2.0000      -0.305976        -8.3260
 112   2.0000      -0.299264        -8.1434
 113   2.0000      -0.287867        -7.8333
 114   2.0000      -0.284148        -7.7321
 115   2.0000      -0.275943        -7.5088
 116   2.0000      -0.274387        -7.4665
 117   2.0000      -0.262459        -7.1419
 118   2.0000      -0.254828        -6.9342
 119   2.0000      -0.237669        -6.4673
 120   2.0000      -0.235645        -6.4122
 121   2.0000      -0.223238        -6.0746
 122   2.0000      -0.219606        -5.9758
 123   2.0000      -0.214428        -5.8349
 124   2.0000      -0.202088        -5.4991
 125   2.0000      -0.194311        -5.2875
 126   2.0000      -0.191777        -5.2185
 127   2.0000      -0.187094        -5.0911
 128   2.0000      -0.183899        -5.0042
 129   2.0000      -0.181938        -4.9508
 130   2.0000      -0.166407        -4.5282
 131   2.0000      -0.164266        -4.4699
 132   2.0000      -0.161104        -4.3839
 133   2.0000      -0.151529        -4.1233
 134   2.0000      -0.139710        -3.8017
 135   2.0000      -0.069209        -1.8833
 136   2.0000      -0.047183        -1.2839
 137   2.0000      -0.030649        -0.8340
 138   0.0000       0.021091         0.5739
 139   0.0000       0.052101         1.4177
 140   0.0000       0.056572         1.5394
 141   0.0000       0.063315         1.7229
 142   0.0000       0.068505         1.8641

MULLIKEN ATOMIC CHARGES
-----------------------
   0 C :   -0.336578
   1 N :   -0.434207
   2 C :    0.012865
   3 C :   -0.235246
   4 C :    0.165893
   5 C :   -0.164761
   6 Cl:   -0.029605
   7 C :   -0.007187
   8 N :   -0.374559
   9 C :    0.361190
  10 N :   -0.613943
  11 C :   -0.281124
  12 C :    0.183545
  13 C :   -0.159767
  14 C :   -0.189738
  15 C :    0.350611
  16 O :   -0.550351
  17 C :    1.082633
  18 F :   -0.288922
  19 F :   -0.286416
  20 F :   -0.293866
  21 C :   -0.172902
  22 C :   -0.139155
  23 S :    1.197825
  24 O :   -0.545153
  25 O :   -0.555376
  26 C :   -0.166295
  27 C :   -0.159190
  28 C :   -0.152512
  29 C :    0.107110
  30 C :    0.411991
  31 O :   -0.549876
  32 O :   -0.652556
  33 C :   -0.157004
  34 C :   -0.155697
  35 C :    0.278374
  36 H :    0.215306
  37 H :    0.168206
  38 H :    0.170080
  39 H :    0.146151
  40 H :    0.138471
  41 H :    0.152018
  42 H :    0.181078
  43 H :    0.156514
  44 H :    0.153142
  45 H :    0.148380
  46 H :    0.133674
  47 H :    0.133542
  48 H :    0.160752
  49 H :    0.157066
  50 H :    0.147549
  51 H :    0.138023
Sum of atomic charges:   -1.0000000

LOEWDIN ATOMIC CHARGES
----------------------
   0 C :   -0.266990
   1 N :    0.021711
   2 C :   -0.088460
   3 C :   -0.194172
   4 C :   -0.036932
   5 C :   -0.111308
   6 Cl:    0.025831
   7 C :   -0.092528
   8 N :   -0.121465
   9 C :    0.049155
  10 N :   -0.289482
  11 C :   -0.152686
  12 C :   -0.035119
  13 C :   -0.113544
  14 C :   -0.157739
  15 C :    0.083412
  16 O :   -0.163605
  17 C :    0.357230
  18 F :   -0.103206
  19 F :   -0.093858
  20 F :   -0.107243
  21 C :   -0.142553
  22 C :   -0.108979
  23 S :    1.258256
  24 O :   -0.579732
  25 O :   -0.587245
  26 C :   -0.217280
  27 C :   -0.126772
  28 C :   -0.108257
  29 C :    0.000099
  30 C :    0.070838
  31 O :   -0.375417
  32 O :   -0.500806
  33 C :   -0.113405
  34 C :   -0.128105
  35 C :   -0.002668
  36 H :    0.156722
  37 H :    0.138429
  38 H :    0.132738
  39 H :    0.135050
  40 H :    0.140796
  41 H :    0.138924
  42 H :    0.140575
  43 H :    0.131824
  44 H :    0.143209
  45 H :    0.140257
  46 H :    0.138558
  47 H :    0.136560
  48 H :    0.146460
  49 H :    0.152579
  50 H :    0.146911
  51 H :    0.133431

  Mayer bond orders larger than 0.100000
B(  0-C ,  1-N ) :   0.9340 B(  0-C , 36-H ) :   0.9113 B(  0-C , 37-H ) :   0.9405
B(  0-C , 38-H ) :   0.9292 B(  1-N ,  2-C ) :   1.1709 B(  1-N , 35-C ) :   1.0424
B(  2-C ,  3-C ) :   1.5272 B(  2-C , 39-H ) :   0.9288 B(  3-C ,  4-C ) :   1.3225
B(  3-C , 40-H ) :   0.9258 B(  4-C ,  5-C ) :   1.2759 B(  4-C , 35-C ) :   1.2936
B(  5-C ,  6-Cl) :   1.0076 B(  5-C ,  7-C ) :   1.4028 B(  7-C ,  8-N ) :   1.3677
B(  7-C , 41-H ) :   0.9280 B(  8-N ,  9-C ) :   1.3866 B(  9-C , 10-N ) :   0.9093
B(  9-C , 35-C ) :   1.2720 B( 10-N , 11-C ) :   0.9423 B( 10-N , 23-S ) :   0.7589
B( 11-C , 12-C ) :   0.9425 B( 11-C , 42-H ) :   0.9191 B( 11-C , 43-H ) :   0.9231
B( 12-C , 13-C ) :   1.4405 B( 12-C , 22-C ) :   1.4265 B( 13-C , 14-C ) :   1.4320
B( 13-C , 44-H ) :   0.9079 B( 14-C , 15-C ) :   1.3985 B( 14-C , 45-H ) :   0.9103
B( 15-C , 16-O ) :   0.8104 B( 15-C , 21-C ) :   1.4160 B( 16-O , 17-C ) :   1.0012
B( 17-C , 18-F ) :   0.9733 B( 17-C , 19-F ) :   1.0000 B( 17-C , 20-F ) :   0.9657
B( 21-C , 22-C ) :   1.4452 B( 21-C , 46-H ) :   0.9209 B( 22-C , 47-H ) :   0.9191
B( 23-S , 24-O ) :   1.6448 B( 23-S , 25-O ) :   1.6429 B( 23-S , 26-C ) :   0.8373
B( 26-C , 27-C ) :   1.3664 B( 26-C , 34-C ) :   1.3574 B( 27-C , 28-C ) :   1.3948
B( 27-C , 48-H ) :   0.9136 B( 28-C , 29-C ) :   1.4020 B( 28-C , 49-H ) :   0.9004
B( 29-C , 30-C ) :   0.9270 B( 29-C , 33-C ) :   1.3847 B( 30-C , 31-O ) :   1.7065
B( 30-C , 32-O ) :   1.5499 B( 31-O , 32-O ) :   0.1502 B( 33-C , 34-C ) :   1.4187
B( 33-C , 50-H ) :   0.9067 B( 34-C , 51-H ) :   0.9169

FINAL SINGLE POINT ENERGY     -2583.224028614002

DIPOLE MOMENT
-------------

Method             : SCF
Type of density    : Electron Density
Multiplicity       :   1
Irrep              :   0
Energy             : -2583.2240286140017815 Eh
Relativity type    :
Basis              : AO
                                X                 Y                 Z
Electronic contribution:     34.156850296      -2.713539287      18.391349190
Nuclear contribution   :    -28.648015018      10.212077468     -18.231381967
                        -----------------------------------------
Total Dipole Moment    :      5.508835279       7.498538182       0.159967223
                        -----------------------------------------
Magnitude (a.u.)       :      9.305962094
Magnitude (Debye)      :     23.653875839

Rotational constants in cm-1:             0.002829             0.002440             0.001440
Rotational constants in MHz :            84.811287            73.150569            43.168776

                             ****ORCA TERMINATED NORMALLY****
TOTAL RUN TIME: 0 days 0 hours 11 minutes 50 seconds 147 msec
