                         Program Version 6.0.0  -   RELEASE  -
|  1> ! B3LYP 6-31G* SP
|  2>
|  3> * xyz -1 1
|  4> C -2.6658 -1.3422 -1.3532
|  5> C -1.9763 -1.9839 -0.1689
|  6> C -0.9778 -1.2823 0.5478
|  7> N -0.5249 0.0105 0.1250
|  8> C 0.3326 0.1319 -1.0574
|  9> C 1.7804 0.0053 -0.6691
| 10> C 2.5817 1.1473 -0.5253
| 11> C 3.9154 1.0290 -0.1246
| 12> C 4.4685 -0.2391 0.1409
| 13> O 5.8014 -0.4144 0.5478
| 14> C 6.7493 0.6339 0.7405
| 15> F 6.3097 1.4984 1.7271
| 16> F 7.9524 0.0829 1.1360
| 17> F 6.9430 1.3263 -0.4414
| 18> C 3.6636 -1.3770 -0.0022
| 19> F 4.1775 -2.6067 0.2499
| 20> C 2.3295 -1.2572 -0.4018
| 21> S -0.6723 1.3461 1.2252
| 22> O 0.5986 1.4878 2.0149
| 23> O -1.8086 1.0982 2.1773
| 24> C -1.0134 2.8190 0.3243
| 25> C -2.2221 2.9382 -0.3712
| 26> C -2.5015 4.0935 -1.1066
| 27> C -1.5706 5.1461 -1.1602
| 28> C -1.8676 6.3676 -1.9406
| 29> O -1.0319 7.3089 -2.0002
| 30> O -3.0747 6.4937 -2.6192
| 31> C -0.3554 5.0181 -0.4627
| 32> C -0.0802 3.8627 0.2749
| 33> N -0.4200 -1.8352 1.6571
| 34> C -0.7590 -3.0676 2.1059
| 35> C -1.7034 -3.8307 1.4153
| 36> C -2.0375 -5.1180 1.8637
| 37> C -2.9743 -5.8821 1.1674
| 38> C -3.5808 -5.3705 0.0204
| 39> C -3.2599 -4.0892 -0.4357
| 40> C -2.3203 -3.2936 0.2573
| 41> H -2.4476 -0.2591 -1.4395
| 42> H -3.7670 -1.4282 -1.2457
| 43> H -2.3421 -1.8430 -2.2891
| 44> H 0.0829 -0.6578 -1.7989
| 45> H 0.1428 1.1039 -1.5608
| 46> H 2.1737 2.1312 -0.7199
| 47> H 4.5028 1.9304 -0.0221
| 48> H 1.7223 -2.1488 -0.5012
| 49> H -2.9477 2.1344 -0.3453
| 50> H -3.4451 4.1603 -1.6339
| 51> H 0.3830 5.8101 -0.4872
| 52> H 0.8620 3.7847 0.8019
| 53> H -0.2777 -3.4547 2.9957
| 54> H -1.5721 -5.5335 2.7499
| 55> H -3.2276 -6.8754 1.5152
| 56> H -4.3018 -5.9704 -0.5199
| 57> H -3.7460 -3.7396 -1.3361
| 58> *
| 59>
| 60>                          ****END OF INPUT****

CARTESIAN COORDINATES (ANGSTROEM)
---------------------------------
  C     -2.665800   -1.342200   -1.353200
  C     -1.976300   -1.983900   -0.168900
  C     -0.977800   -1.282300    0.547800
  N     -0.524900    0.010500    0.125000
  C      0.332600    0.131900   -1.057400
  C      1.780400    0.005300   -0.669100
  C      2.581700    1.147300   -0.525300
  C      3.915400    1.029000   -0.124600
  C      4.468500   -0.239100    0.140900
  O      5.801400   -0.414400    0.547800
  C      6.749300    0.633900    0.740500
  F      6.309700    1.498400    1.727100
  F      7.952400    0.082900    1.136000
  F      6.943000    1.326300   -0.441400
  C      3.663600   -1.377000   -0.002200
  F      4.177500   -2.606700    0.249900
  C      2.329500   -1.257200   -0.401800
  S     -0.672300    1.346100    1.225200
  O      0.598600    1.487800    2.014900
  O     -1.808600    1.098200    2.177300
  C     -1.013400    2.819000    0.324300
  C     -2.222100    2.938200   -0.371200
  C     -2.501500    4.093500   -1.106600
  C     -1.570600    5.146100   -1.160200
  C     -1.867600    6.367600   -1.940600
  O     -1.031900    7.308900   -2.000200
  O     -3.074700    6.493700   -2.619200
  C     -0.355400    5.018100   -0.462700
  C     -0.080200    3.862700    0.274900
  N     -0.420000   -1.835200    1.657100
  C     -0.759000   -3.067600    2.105900
  C     -1.703400   -3.830700    1.415300
  C     -2.037500   -5.118000    1.863700
  C     -2.974300   -5.882100    1.167400
  C     -3.580800   -5.370500    0.020400
  C     -3.259900   -4.089200   -0.435700
  C     -2.320300   -3.293600    0.257300
  H     -2.447600   -0.259100   -1.439500
  H     -3.767000   -1.428200   -1.245700
  H     -2.342100   -1.843000   -2.289100
  H      0.082900   -0.657800   -1.798900
  H      0.142800    1.103900   -1.560800
  H      2.173700    2.131200   -0.719900
  H      4.502800    1.930400   -0.022100
  H      1.722300   -2.148800   -0.501200
  H     -2.947700    2.134400   -0.345300
  H     -3.445100    4.160300   -1.633900
  H      0.383000    5.810100   -0.487200
  H      0.862000    3.784700    0.801900
  H     -0.277700   -3.454700    2.995700
  H     -1.572100   -5.533500    2.749900
  H     -3.227600   -6.875400    1.515200
  H     -4.301800   -5.970400   -0.519900
  H     -3.746000   -3.739600   -1.336100

 Total Charge           Charge          ....   -1
 Multiplicity           Mult            ....    1
 Number of Electrons    NEL             ....  274
 Basis Dimension        Dim             ....  556

ORBITAL ENERGIES
----------------

  NO   OCC          E(Eh)            E(eV)
   0   2.0000     -89.001131     -2421.8439
   1   2.0000     -24.685572      -671.7286
   2   2.0000     -24.681496      -671.6176
   3   2.0000     -24.679247      -671.5564
   4   2.0000     -24.639941      -670.4869
   5   2.0000     -19.151435      -521.1370
   6   2.0000     -19.028446      -517.7903
   7   2.0000     -19.024467      -517.6821
   8   2.0000     -18.911524      -514.6087
   9   2.0000     -18.890972      -514.0495
  10   2.0000     -14.289797      -388.8451
  11   2.0000     -14.263301      -388.1242
  12   2.0000     -10.446015      -284.2505
  13   2.0000     -10.212630      -277.8998
  14   2.0000     -10.204606      -277.6815
  15   2.0000     -10.194423      -277.4044
  16   2.0000     -10.165424      -276.6153
  17   2.0000     -10.160625      -276.4846
  18   2.0000     -10.146781      -276.1080
  19   2.0000     -10.145227      -276.0657
  20   2.0000     -10.142214      -275.9837
  21   2.0000     -10.141220      -275.9566
  22   2.0000     -10.139775      -275.9173
  23   2.0000     -10.139545      -275.9110
  24   2.0000     -10.139176      -275.9010
  25   2.0000     -10.131523      -275.6927
  26   2.0000     -10.131236      -275.6849
  27   2.0000     -10.129922      -275.6492
  28   2.0000     -10.123979      -275.4875
  29   2.0000     -10.123110      -275.4638
  30   2.0000     -10.123073      -275.4628
  31   2.0000     -10.100463      -274.8476
  32   2.0000     -10.100432      -274.8467
  33   2.0000     -10.097017      -274.7538
  34   2.0000     -10.081181      -274.3229
  35   2.0000     -10.080665      -274.3088
  36   2.0000     -10.079870      -274.2872
  37   2.0000      -8.036882      -218.6947
  38   2.0000      -6.002488      -163.3360
  39   2.0000      -5.999689      -163.2598
  40   2.0000      -5.999120      -163.2443
  41   2.0000      -1.246601       -33.9217
  42   2.0000      -1.168241       -31.7894
  43   2.0000      -1.166013       -31.7288
  44   2.0000      -1.153405       -31.3857
  45   2.0000      -1.020802       -27.7774
  46   2.0000      -0.987141       -26.8615
  47   2.0000      -0.890562       -24.2334
  48   2.0000      -0.864605       -23.5271
  49   2.0000      -0.844232       -22.9727
  50   2.0000      -0.820709       -22.3326
  51   2.0000      -0.805771       -21.9262
  52   2.0000      -0.797983       -21.7142
  53   2.0000      -0.763092       -20.7648
  54   2.0000      -0.746629       -20.3168
  55   2.0000      -0.723035       -19.6748
  56   2.0000      -0.713334       -19.4108
  57   2.0000      -0.701944       -19.1009
  58   2.0000      -0.689927       -18.7739
  59   2.0000      -0.685132       -18.6434
  60   2.0000      -0.672308       -18.2944
  61   2.0000      -0.661521       -18.0009
  62   2.0000      -0.650019       -17.6879
  63   2.0000      -0.636815       -17.3286
  64   2.0000      -0.616762       -16.7830
  65   2.0000      -0.592355       -16.1188
  66   2.0000      -0.585422       -15.9302
  67   2.0000      -0.572943       -15.5906
  68   2.0000      -0.560809       -15.2604
  69   2.0000      -0.547138       -14.8884
  70   2.0000      -0.537978       -14.6391
  71   2.0000      -0.536353       -14.5949
  72   2.0000      -0.534597       -14.5471
  73   2.0000      -0.516139       -14.0449
  74   2.0000      -0.508503       -13.8371
  75   2.0000      -0.503075       -13.6894
  76   2.0000      -0.473942       -12.8966
  77   2.0000      -0.468162       -12.7393
  78   2.0000      -0.456624       -12.4254
  79   2.0000      -0.446094       -12.1388
  80   2.0000      -0.440035       -11.9740
  81   2.0000      -0.436968       -11.8905
  82   2.0000      -0.422311       -11.4917
  83   2.0000      -0.417465       -11.3598
  84   2.0000      -0.416953       -11.3459
  85   2.0000      -0.413348       -11.2478
  86   2.0000      -0.409484       -11.1426
  87   2.0000      -0.399912       -10.8822
  88   2.0000      -0.392078       -10.6690
  89   2.0000      -0.391093       -10.6422
  90   2.0000      -0.386017       -10.5041
  91   2.0000      -0.385501       -10.4900
  92   2.0000      -0.382882       -10.4187
  93   2.0000      -0.378038       -10.2869
  94   2.0000      -0.375475       -10.2172
  95   2.0000      -0.370599       -10.0845
  96   2.0000      -0.369509       -10.0548
  97   2.0000      -0.360262        -9.8032
  98   2.0000      -0.358976        -9.7682
  99   2.0000      -0.352017        -9.5789
 100   2.0000      -0.347946        -9.4681
 101   2.0000      -0.342821        -9.3286
 102   2.0000      -0.340891        -9.2761
 103   2.0000      -0.336549        -9.1580
 104   2.0000      -0.335008        -9.1160
 105   2.0000      -0.328514        -8.9393
 106   2.0000      -0.325610        -8.8603
 107   2.0000      -0.322404        -8.7731
 108   2.0000      -0.314204        -8.5499
 109   2.0000      -0.309687        -8.4270
 110   2.0000      -0.304809        -8.2943
 111   2.0000      -0.297160        -8.0861
 112   2.0000      -0.294233        -8.0065
 113   2.0000      -0.292730        -7.9656
 114   2.0000      -0.289273        -7.8715
 115   2.0000      -0.279624        -7.6090
 116   2.0000      -0.276197        -7.5157
 117   2.0000      -0.250758        -6.8235
 118   2.0000      -0.237696        -6.4680
 119   2.0000      -0.233721        -6.3599
 120   2.0000      -0.228609        -6.2208
 121   2.0000      -0.217412        -5.9161
 122   2.0000      -0.215563        -5.8658
 123   2.0000      -0.204450        -5.5634
 124   2.0000      -0.197232        -5.3669
 125   2.0000      -0.190847        -5.1932
 126   2.0000      -0.187862        -5.1120
 127   2.0000      -0.184918        -5.0319
 128   2.0000      -0.180106        -4.9009
 129   2.0000      -0.170328        -4.6349
 130   2.0000      -0.164383        -4.4731
 131   2.0000      -0.157327        -4.2811
 132   2.0000      -0.154975        -4.2171
 133   2.0000      -0.135717        -3.6931
 134   2.0000      -0.065628        -1.7858
 135   2.0000      -0.043893        -1.1944
 136   2.0000      -0.027391        -0.7453
 137   0.0000      -0.001185        -0.0322
 138   0.0000       0.031483         0.8567
 139   0.0000       0.051207         1.3934
 140   0.0000       0.058891         1.6025
 141   0.0000       0.064335         1.7507

MULLIKEN ATOMIC CHARGES
-----------------------
   0 C :   -0.546759
   1 C :    0.092808
   2 C :    0.330762
   3 N :   -0.605829
   4 C :   -0.281363
   5 C :    0.203746
   6 C :   -0.153168
   7 C :   -0.184456
   8 C :    0.275286
   9 O :   -0.543302
  10 C :    1.085336
  11 F :   -0.288715
  12 F :   -0.284421
  13 F :   -0.293364
  14 C :    0.366395
  15 F :   -0.315913
  16 C :   -0.237802
  17 S :    1.200400
  18 O :   -0.550828
  19 O :   -0.553771
  20 C :   -0.162252
  21 C :   -0.155604
  22 C :   -0.149732
  23 C :    0.105873
  24 C :    0.412331
  25 O :   -0.549776
  26 O :   -0.655429
  27 C :   -0.159008
  28 C :   -0.156114
  29 N :   -0.357172
  30 C :   -0.052550
  31 C :    0.135661
  32 C :   -0.202188
  33 C :   -0.130052
  34 C :   -0.122805
  35 C :   -0.199944
  36 C :    0.122021
  37 H :    0.192514
  38 H :    0.162718
  39 H :    0.150934
  40 H :    0.161366
  41 H :    0.187012
  42 H :    0.154165
  43 H :    0.156386
  44 H :    0.142622
  45 H :    0.138930
  46 H :    0.153427
  47 H :    0.149461
  48 H :    0.154772
  49 H :    0.147267
  50 H :    0.131059
  51 H :    0.121553
  52 H :    0.124472
  53 H :    0.133037
Sum of atomic charges:   -1.0000000

LOEWDIN ATOMIC CHARGES
----------------------
   0 C :   -0.361757
   1 C :   -0.020570
   2 C :    0.045034
   3 N :   -0.285497
   4 C :   -0.150409
   5 C :   -0.023730
   6 C :   -0.116314
   7 C :   -0.149505
   8 C :    0.055331
   9 O :   -0.159241
  10 C :    0.358935
  11 F :   -0.103171
  12 F :   -0.091849
  13 F :   -0.106947
  14 C :    0.103643
  15 F :   -0.102972
  16 C :   -0.143458
  17 S :    1.260936
  18 O :   -0.584992
  19 O :   -0.585412
  20 C :   -0.217155
  21 C :   -0.128260
  22 C :   -0.106296
  23 C :   -0.000938
  24 C :    0.071502
  25 O :   -0.375398
  26 O :   -0.503531
  27 C :   -0.114741
  28 C :   -0.126994
  29 N :   -0.106946
  30 C :   -0.060372
  31 C :   -0.031787
  32 C :   -0.113444
  33 C :   -0.136690
  34 C :   -0.125500
  35 C :   -0.126714
  36 C :   -0.007133
  37 H :    0.147791
  38 H :    0.137245
  39 H :    0.131247
  40 H :    0.135451
  41 H :    0.144645
  42 H :    0.144744
  43 H :    0.144767
  44 H :    0.145120
  45 H :    0.134941
  46 H :    0.150790
  47 H :    0.147840
  48 H :    0.144004
  49 H :    0.135128
  50 H :    0.133458
  51 H :    0.128686
  52 H :    0.130357
  53 H :    0.136128

  Mayer bond orders larger than 0.100000
B(  0-C ,  1-C ) :   0.9952 B(  0-C , 37-H ) :   0.9236 B(  0-C , 38-H ) :   0.9300
B(  0-C , 39-H ) :   0.9286 B(  1-C ,  2-C ) :   1.4326 B(  1-C , 30-C ) :   0.1043
B(  1-C , 36-C ) :   1.2675 B(  2-C ,  3-N ) :   0.9157 B(  2-C , 29-N ) :   1.2796
B(  3-N ,  4-C ) :   0.9475 B(  3-N , 17-S ) :   0.7608 B(  4-C ,  5-C ) :   0.9392
B(  4-C , 40-H ) :   0.9238 B(  4-C , 41-H ) :   0.9176 B(  5-C ,  6-C ) :   1.4388
B(  5-C , 16-C ) :   1.4046 B(  6-C ,  7-C ) :   1.4372 B(  6-C , 42-H ) :   0.9088
B(  7-C ,  8-C ) :   1.3888 B(  7-C , 43-H ) :   0.9096 B(  8-C ,  9-O ) :   0.8183
B(  8-C , 14-C ) :   1.3262 B(  9-O , 10-C ) :   0.9966 B( 10-C , 11-F ) :   0.9731
B( 10-C , 12-F ) :   1.0017 B( 10-C , 13-F ) :   0.9673 B( 14-C , 15-F ) :   0.9314
B( 14-C , 16-C ) :   1.3956 B( 16-C , 44-H ) :   0.9116 B( 17-S , 18-O ) :   1.6379
B( 17-S , 19-O ) :   1.6483 B( 17-S , 20-C ) :   0.8397 B( 20-C , 21-C ) :   1.3499
B( 20-C , 28-C ) :   1.3734 B( 21-C , 22-C ) :   1.4140 B( 21-C , 45-H ) :   0.9202
B( 22-C , 23-C ) :   1.3969 B( 22-C , 46-H ) :   0.9013 B( 23-C , 24-C ) :   0.9271
B( 23-C , 27-C ) :   1.3893 B( 24-C , 25-O ) :   1.7078 B( 24-C , 26-O ) :   1.5478
B( 25-O , 26-O ) :   0.1496 B( 27-C , 28-C ) :   1.4030 B( 27-C , 47-H ) :   0.9067
B( 28-C , 48-H ) :   0.9155 B( 29-N , 30-C ) :   1.5000 B( 30-C , 31-C ) :   1.2279
B( 30-C , 49-H ) :   0.9281 B( 31-C , 32-C ) :   1.2852 B( 31-C , 36-C ) :   1.2894
B( 32-C , 33-C ) :   1.5132 B( 32-C , 35-C ) :   0.1065 B( 32-C , 50-H ) :   0.9242
B( 33-C , 34-C ) :   1.3522 B( 33-C , 51-H ) :   0.9315 B( 34-C , 35-C ) :   1.5114
B( 34-C , 52-H ) :   0.9312 B( 35-C , 36-C ) :   1.2915 B( 35-C , 53-H ) :   0.9170

FINAL SINGLE POINT ENERGY     -2244.953417719573

DIPOLE MOMENT
-------------

Method             : SCF
Type of density    : Electron Density
Multiplicity       :   1
Irrep              :   0
Energy             : -2244.9534177195732809 Eh
Relativity type    :
Basis              : AO
                                X                 Y                 Z
Electronic contribution:     52.050786819       5.201846387      11.487804545
Nuclear contribution   :    -48.973191054     -15.085057299     -10.280205739
                        -----------------------------------------
Total Dipole Moment    :      3.077595765      -9.883210912       1.207598806
                        -----------------------------------------
Magnitude (a.u.)       :     10.421504138
Magnitude (Debye)      :     26.489358376

Rotational constants in cm-1:             0.002658             0.002530             0.001411
Rotational constants in MHz :            79.685825            75.854778            42.299791

                             ****ORCA TERMINATED NORMALLY****
TOTAL RUN TIME: 0 days 0 hours 8 minutes 34 seconds 719 msec
