                         Program Version 6.0.0  -   RELEASE  -
|  1> ! B3LYP 6-31G* SP
|  2>
|  3> * xyz 0 1
|  4> O -4.1239 3.1416 0.3065
|  5> C -4.1323 1.8833 0.3815
|  6> C -3.0460 1.1712 1.1367
|  7> C -2.7371 -0.2077 0.4896
|  8> C -2.0418 -0.0095 -0.8984
|  9> C -0.8806 -0.9789 -1.1346
| 10> N 0.1027 -0.8441 -0.0498
| 11> C 1.5156 -0.8799 -0.3462
| 12> O 1.9052 -1.3364 -1.4562
| 13> N 2.4865 -0.4260 0.6162
| 14> C 3.8702 -0.1901 0.3031
| 15> C 4.2614 0.3398 -0.9386
| 16> C 5.6111 0.5836 -1.2084
| 17> C 6.5907 0.3186 -0.2447
| 18> O 7.9309 0.5807 -0.5721
| 19> C 9.0463 0.3694 0.2908
| 20> F 8.9212 1.1441 1.4301
| 21> F 10.2015 0.7360 -0.3721
| 22> F 9.1356 -0.9671 0.6363
| 23> C 6.1980 -0.1915 1.0076
| 24> C 4.8480 -0.4345 1.2779
| 25> C -0.3683 -0.7331 1.3397
| 26> C -1.8644 -1.0549 1.4539
| 27> O -3.9681 -0.9190 0.2891
| 28> C -5.1325 -0.3053 -0.1959
| 29> C -6.1912 -1.0877 -0.6780
| 30> Cl -6.0803 -2.8403 -0.6674
| 31> C -7.3385 -0.4706 -1.1891
| 32> C -7.4338 0.9237 -1.2153
| 33> C -6.3881 1.7087 -0.7211
| 34> C -5.2366 1.0970 -0.2001
| 35> H -3.4059 1.0320 2.1790
| 36> H -2.1298 1.8002 1.1774
| 37> H -1.6327 1.0211 -0.9910
| 38> H -2.7783 -0.1276 -1.7227
| 39> H -1.2555 -2.0245 -1.1723
| 40> H -0.4236 -0.7397 -2.1196
| 41> H 2.2034 -0.3266 1.6157
| 42> H 3.5255 0.5896 -1.6912
| 43> H 5.8975 0.9898 -2.1703
| 44> H 6.9235 -0.4023 1.7803
| 45> H 4.5629 -0.8246 2.2471
| 46> H -0.1758 0.2946 1.7153
| 47> H 0.1831 -1.4563 1.9792
| 48> H -2.0005 -2.1334 1.2153
| 49> H -2.1925 -0.9267 2.5083
| 50> H -8.1555 -1.0705 -1.5694
| 51> H -8.3227 1.3965 -1.6126
| 52> H -6.4845 2.7871 -0.7341
| 53> *
| 54>
| 55>                          ****END OF INPUT****

CARTESIAN COORDINATES (ANGSTROEM)
---------------------------------
  O     -4.123900    3.141600    0.306500
  C     -4.132300    1.883300    0.381500
  C     -3.046000    1.171200    1.136700
  C     -2.737100   -0.207700    0.489600
  C     -2.041800   -0.009500   -0.898400
  C     -0.880600   -0.978900   -1.134600
  N      0.102700   -0.844100   -0.049800
  C      1.515600   -0.879900   -0.346200
  O      1.905200   -1.336400   -1.456200
  N      2.486500   -0.426000    0.616200
  C      3.870200   -0.190100    0.303100
  C      4.261400    0.339800   -0.938600
  C      5.611100    0.583600   -1.208400
  C      6.590700    0.318600   -0.244700
  O      7.930900    0.580700   -0.572100
  C      9.046300    0.369400    0.290800
  F      8.921200    1.144100    1.430100
  F     10.201500    0.736000   -0.372100
  F      9.135600   -0.967100    0.636300
  C      6.198000   -0.191500    1.007600
  C      4.848000   -0.434500    1.277900
  C     -0.368300   -0.733100    1.339700
  C     -1.864400   -1.054900    1.453900
  O     -3.968100   -0.919000    0.289100
  C     -5.132500   -0.305300   -0.195900
  C     -6.191200   -1.087700   -0.678000
  Cl    -6.080300   -2.840300   -0.667400
  C     -7.338500   -0.470600   -1.189100
  C     -7.433800    0.923700   -1.215300
  C     -6.388100    1.708700   -0.721100
  C     -5.236600    1.097000   -0.200100
  H     -3.405900    1.032000    2.179000
  H     -2.129800    1.800200    1.177400
  H     -1.632700    1.021100   -0.991000
  H     -2.778300   -0.127600   -1.722700
  H     -1.255500   -2.024500   -1.172300
  H     -0.423600   -0.739700   -2.119600
  H      2.203400   -0.326600    1.615700
  H      3.525500    0.589600   -1.691200
  H      5.897500    0.989800   -2.170300
  H      6.923500   -0.402300    1.780300
  H      4.562900   -0.824600    2.247100
  H     -0.175800    0.294600    1.715300
  H      0.183100   -1.456300    1.979200
  H     -2.000500   -2.133400    1.215300
  H     -2.192500   -0.926700    2.508300
  H     -8.155500   -1.070500   -1.569400
  H     -8.322700    1.396500   -1.612600
  H     -6.484500    2.787100   -0.734100

 Total Charge           Charge          ....    0
 Multiplicity           Mult            ....    1
 Number of Electrons    NEL             ....  234
 Basis Dimension        Dim             ....  474

ORBITAL ENERGIES
----------------

  NO   OCC          E(Eh)            E(eV)
   0   2.0000    -101.536358     -2762.9448
   1   2.0000     -24.736795      -673.1224
   2   2.0000     -24.734997      -673.0735
   3   2.0000     -24.734552      -673.0614
   4   2.0000     -19.206322      -522.6306
   5   2.0000     -19.191130      -522.2172
   6   2.0000     -19.138135      -520.7751
   7   2.0000     -19.103467      -519.8318
   8   2.0000     -14.372398      -391.0928
   9   2.0000     -14.361420      -390.7941
  10   2.0000     -10.499208      -285.6980
  11   2.0000     -10.320490      -280.8348
  12   2.0000     -10.282841      -279.8103
  13   2.0000     -10.281063      -279.7619
  14   2.0000     -10.277284      -279.6591
  15   2.0000     -10.261336      -279.2251
  16   2.0000     -10.260167      -279.1933
  17   2.0000     -10.243138      -278.7300
  18   2.0000     -10.235075      -278.5105
  19   2.0000     -10.224489      -278.2225
  20   2.0000     -10.217045      -278.0199
  21   2.0000     -10.212443      -277.8947
  22   2.0000     -10.211248      -277.8622
  23   2.0000     -10.208581      -277.7896
  24   2.0000     -10.206315      -277.7280
  25   2.0000     -10.203536      -277.6523
  26   2.0000     -10.199001      -277.5289
  27   2.0000     -10.194736      -277.4129
  28   2.0000     -10.193953      -277.3916
  29   2.0000     -10.191547      -277.3261
  30   2.0000     -10.188684      -277.2482
  31   2.0000      -9.467753      -257.6307
  32   2.0000      -7.231048      -196.7668
  33   2.0000      -7.221334      -196.5025
  34   2.0000      -7.220890      -196.4904
  35   2.0000      -1.299888       -35.3717
  36   2.0000      -1.220773       -33.2189
  37   2.0000      -1.220152       -33.2020
  38   2.0000      -1.076531       -29.2939
  39   2.0000      -1.076404       -29.2904
  40   2.0000      -1.021112       -27.7859
  41   2.0000      -1.020981       -27.7823
  42   2.0000      -0.931430       -25.3455
  43   2.0000      -0.919132       -25.0108
  44   2.0000      -0.899973       -24.4895
  45   2.0000      -0.849975       -23.1290
  46   2.0000      -0.849537       -23.1171
  47   2.0000      -0.828385       -22.5415
  48   2.0000      -0.787403       -21.4263
  49   2.0000      -0.780213       -21.2307
  50   2.0000      -0.763024       -20.7629
  51   2.0000      -0.753668       -20.5084
  52   2.0000      -0.747364       -20.3368
  53   2.0000      -0.744957       -20.2713
  54   2.0000      -0.699247       -19.0275
  55   2.0000      -0.671242       -18.2654
  56   2.0000      -0.660851       -17.9827
  57   2.0000      -0.657367       -17.8879
  58   2.0000      -0.636397       -17.3173
  59   2.0000      -0.624555       -16.9950
  60   2.0000      -0.612851       -16.6765
  61   2.0000      -0.593487       -16.1496
  62   2.0000      -0.592029       -16.1099
  63   2.0000      -0.589272       -16.0349
  64   2.0000      -0.572875       -15.5887
  65   2.0000      -0.562726       -15.3126
  66   2.0000      -0.555045       -15.1036
  67   2.0000      -0.549566       -14.9545
  68   2.0000      -0.531399       -14.4601
  69   2.0000      -0.523495       -14.2450
  70   2.0000      -0.510761       -13.8985
  71   2.0000      -0.498196       -13.5566
  72   2.0000      -0.494086       -13.4448
  73   2.0000      -0.481548       -13.1036
  74   2.0000      -0.474017       -12.8987
  75   2.0000      -0.467414       -12.7190
  76   2.0000      -0.465680       -12.6718
  77   2.0000      -0.462517       -12.5857
  78   2.0000      -0.459752       -12.5105
  79   2.0000      -0.454650       -12.3717
  80   2.0000      -0.451605       -12.2888
  81   2.0000      -0.447897       -12.1879
  82   2.0000      -0.445358       -12.1188
  83   2.0000      -0.440950       -11.9989
  84   2.0000      -0.438339       -11.9278
  85   2.0000      -0.432587       -11.7713
  86   2.0000      -0.427655       -11.6371
  87   2.0000      -0.422972       -11.5096
  88   2.0000      -0.418913       -11.3992
  89   2.0000      -0.412393       -11.2218
  90   2.0000      -0.409764       -11.1502
  91   2.0000      -0.407945       -11.1007
  92   2.0000      -0.404995       -11.0205
  93   2.0000      -0.397817       -10.8251
  94   2.0000      -0.397206       -10.8085
  95   2.0000      -0.391898       -10.6641
  96   2.0000      -0.390391       -10.6231
  97   2.0000      -0.383365       -10.4319
  98   2.0000      -0.381761       -10.3883
  99   2.0000      -0.378329       -10.2949
 100   2.0000      -0.371022       -10.0960
 101   2.0000      -0.367280        -9.9942
 102   2.0000      -0.358300        -9.7498
 103   2.0000      -0.349366        -9.5067
 104   2.0000      -0.345585        -9.4038
 105   2.0000      -0.333654        -9.0792
 106   2.0000      -0.330912        -9.0046
 107   2.0000      -0.322242        -8.7687
 108   2.0000      -0.316850        -8.6219
 109   2.0000      -0.285135        -7.7589
 110   2.0000      -0.264339        -7.1930
 111   2.0000      -0.262142        -7.1332
 112   2.0000      -0.254279        -6.9193
 113   2.0000      -0.251411        -6.8412
 114   2.0000      -0.242264        -6.5923
 115   2.0000      -0.232798        -6.3348
 116   2.0000      -0.213551        -5.8110
 117   0.0000      -0.074444        -2.0257
 118   0.0000      -0.018201        -0.4953
 119   0.0000      -0.008005        -0.2178
 120   0.0000      -0.007677        -0.2089
 121   0.0000       0.018049         0.4911

MULLIKEN ATOMIC CHARGES
-----------------------
   0 O :   -0.440346
   1 C :    0.363780
   2 C :   -0.395120
   3 C :    0.342688
   4 C :   -0.317352
   5 C :   -0.127434
   6 N :   -0.442375
   7 C :    0.687761
   8 O :   -0.492763
   9 N :   -0.731309
  10 C :    0.344400
  11 C :   -0.125312
  12 C :   -0.183630
  13 C :    0.350843
  14 O :   -0.546889
  15 C :    1.084747
  16 F :   -0.293097
  17 F :   -0.280013
  18 F :   -0.291872
  19 C :   -0.192490
  20 C :   -0.183502
  21 C :   -0.142411
  22 C :   -0.327985
  23 O :   -0.538225
  24 C :    0.324663
  25 C :   -0.146212
  26 Cl:    0.006383
  27 C :   -0.119383
  28 C :   -0.128403
  29 C :   -0.161361
  30 C :    0.053830
  31 H :    0.175054
  32 H :    0.178714
  33 H :    0.158257
  34 H :    0.166508
  35 H :    0.154316
  36 H :    0.185810
  37 H :    0.328071
  38 H :    0.160001
  39 H :    0.151065
  40 H :    0.151295
  41 H :    0.129697
  42 H :    0.143877
  43 H :    0.153095
  44 H :    0.176251
  45 H :    0.155086
  46 H :    0.164231
  47 H :    0.146460
  48 H :    0.170599
Sum of atomic charges:   -0.0000000

LOEWDIN ATOMIC CHARGES
----------------------
   0 O :   -0.234306
   1 C :    0.130809
   2 C :   -0.251552
   3 C :    0.083583
   4 C :   -0.243113
   5 C :   -0.143153
   6 N :   -0.133293
   7 C :    0.166400
   8 O :   -0.309673
   9 N :   -0.230935
  10 C :    0.034725
  11 C :   -0.115441
  12 C :   -0.137073
  13 C :    0.076810
  14 O :   -0.161336
  15 C :    0.358587
  16 F :   -0.106484
  17 F :   -0.088370
  18 F :   -0.105426
  19 C :   -0.158080
  20 C :   -0.142404
  21 C :   -0.156152
  22 C :   -0.227631
  23 O :   -0.162822
  24 C :    0.095586
  25 C :   -0.112702
  26 Cl:    0.049937
  27 C :   -0.106532
  28 C :   -0.138191
  29 C :   -0.083615
  30 C :   -0.088455
  31 H :    0.149298
  32 H :    0.150152
  33 H :    0.132275
  34 H :    0.142720
  35 H :    0.121322
  36 H :    0.152181
  37 H :    0.253152
  38 H :    0.151769
  39 H :    0.146881
  40 H :    0.142105
  41 H :    0.133326
  42 H :    0.112263
  43 H :    0.125928
  44 H :    0.143111
  45 H :    0.136009
  46 H :    0.151613
  47 H :    0.141365
  48 H :    0.154831

  Mayer bond orders larger than 0.100000
B(  0-O ,  1-C ) :   1.8702 B(  1-C ,  2-C ) :   0.9598 B(  1-C , 30-C ) :   1.0109
B(  2-C ,  3-C ) :   0.9569 B(  2-C , 31-H ) :   0.9080 B(  2-C , 32-H ) :   0.9164
B(  3-C ,  4-C ) :   0.9499 B(  3-C , 22-C ) :   0.9909 B(  3-C , 23-O ) :   0.8215
B(  4-C ,  5-C ) :   0.9969 B(  4-C , 33-H ) :   0.9258 B(  4-C , 34-H ) :   0.9236
B(  5-C ,  6-N ) :   0.9390 B(  5-C , 35-H ) :   0.9269 B(  5-C , 36-H ) :   0.9193
B(  6-N ,  7-C ) :   1.0500 B(  6-N , 21-C ) :   0.9448 B(  7-C ,  8-O ) :   1.7848
B(  7-C ,  9-N ) :   1.0000 B(  9-N , 10-C ) :   0.8647 B(  9-N , 37-H ) :   0.8185
B( 10-C , 11-C ) :   1.4199 B( 10-C , 20-C ) :   1.4102 B( 11-C , 12-C ) :   1.4439
B( 11-C , 38-H ) :   0.9098 B( 12-C , 13-C ) :   1.4082 B( 12-C , 39-H ) :   0.9182
B( 13-C , 14-O ) :   0.8172 B( 13-C , 19-C ) :   1.3974 B( 14-O , 15-C ) :   0.9957
B( 15-C , 16-F ) :   0.9664 B( 15-C , 17-F ) :   1.0071 B( 15-C , 18-F ) :   0.9681
B( 19-C , 20-C ) :   1.4382 B( 19-C , 40-H ) :   0.9092 B( 20-C , 41-H ) :   0.9236
B( 21-C , 22-C ) :   0.9972 B( 21-C , 42-H ) :   0.9168 B( 21-C , 43-H ) :   0.9235
B( 22-C , 44-H ) :   0.9202 B( 22-C , 45-H ) :   0.9283 B( 23-O , 24-C ) :   0.9592
B( 24-C , 25-C ) :   1.3229 B( 24-C , 30-C ) :   1.2971 B( 25-C , 26-Cl) :   1.0378
B( 25-C , 27-C ) :   1.4269 B( 27-C , 28-C ) :   1.4207 B( 27-C , 46-H ) :   0.9208
B( 28-C , 29-C ) :   1.4388 B( 28-C , 47-H ) :   0.9277 B( 29-C , 30-C ) :   1.3749
B( 29-C , 48-H ) :   0.9111

FINAL SINGLE POINT ENERGY     -1980.280491689895

DIPOLE MOMENT
-------------

Method             : SCF
Type of density    : Electron Density
Multiplicity       :   1
Irrep              :   0
Energy             : -1980.2804916898946885 Eh
Relativity type    :
Basis              : AO
                                X                 Y                 Z
Electronic contribution:     37.873334718      -4.388026441      -1.114109846
Nuclear contribution   :    -39.428963983       4.435059371       2.323941595
                        -----------------------------------------
Total Dipole Moment    :     -1.555629265       0.047032930       1.209831749
                        -----------------------------------------
Magnitude (a.u.)       :      1.971265423
Magnitude (Debye)      :      5.010558510

Rotational constants in cm-1:             0.015376             0.001115             0.001084
Rotational constants in MHz :           460.963926            33.422761            32.505596

                             ****ORCA TERMINATED NORMALLY****
TOTAL RUN TIME: 0 days 0 hours 4 minutes 33 seconds 844 msec
