                         Program Version 6.0.0  -   RELEASE  -
|  1> ! B3LYP 6-31G* SP
|  2>
|  3> * xyz 0 1
|  4> C -5.5621 1.9105 -0.5258
|  5> C -4.1652 1.4007 -0.2082
|  6> O -4.1463 -0.0030 -0.3174
|  7> N -2.8759 -0.4015 -0.0323
|  8> C -2.5748 -0.8365 1.3316
|  9> C -1.9666 -0.6406 -1.1241
| 10> O -2.4362 -0.7735 -2.2863
| 11> C -0.5010 -0.7203 -0.9379
| 12> S 0.3939 -0.0074 0.2975
| 13> C 1.8832 -0.5071 -0.3155
| 14> C 3.2063 -0.2320 0.2901
| 15> C 3.3166 0.4986 1.4885
| 16> C 4.5719 0.7514 2.0504
| 17> C 5.7282 0.2796 1.4254
| 18> C 5.6321 -0.4466 0.2362
| 19> F 6.7553 -0.9043 -0.3698
| 20> C 4.3789 -0.7023 -0.3301
| 21> N 1.7175 -1.2023 -1.4642
| 22> C 0.4072 -1.3156 -1.8134
| 23> O 0.0163 -1.9874 -2.9673
| 24> H -5.5858 3.0175 -0.4418
| 25> H -6.2954 1.4790 0.1882
| 26> H -5.8460 1.6213 -1.5599
| 27> H -3.8999 1.7154 0.8266
| 28> H -3.4490 1.8588 -0.9279
| 29> H -3.5132 -0.9219 1.9194
| 30> H -1.9270 -0.0907 1.8342
| 31> H -2.0789 -1.8304 1.3191
| 32> H 2.4375 0.8757 1.9942
| 33> H 4.6479 1.3139 2.9720
| 34> H 6.6980 0.4774 1.8635
| 35> H 4.3276 -1.2674 -1.2524
| 36> H 0.7047 -2.4089 -3.5791
| 37> *
| 38>
| 39>                          ****END OF INPUT****

CARTESIAN COORDINATES (ANGSTROEM)
---------------------------------
  C     -5.562100    1.910500   -0.525800
  C     -4.165200    1.400700   -0.208200
  O     -4.146300   -0.003000   -0.317400
  N     -2.875900   -0.401500   -0.032300
  C     -2.574800   -0.836500    1.331600
  C     -1.966600   -0.640600   -1.124100
  O     -2.436200   -0.773500   -2.286300
  C     -0.501000   -0.720300   -0.937900
  S      0.393900   -0.007400    0.297500
  C      1.883200   -0.507100   -0.315500
  C      3.206300   -0.232000    0.290100
  C      3.316600    0.498600    1.488500
  C      4.571900    0.751400    2.050400
  C      5.728200    0.279600    1.425400
  C      5.632100   -0.446600    0.236200
  F      6.755300   -0.904300   -0.369800
  C      4.378900   -0.702300   -0.330100
  N      1.717500   -1.202300   -1.464200
  C      0.407200   -1.315600   -1.813400
  O      0.016300   -1.987400   -2.967300
  H     -5.585800    3.017500   -0.441800
  H     -6.295400    1.479000    0.188200
  H     -5.846000    1.621300   -1.559900
  H     -3.899900    1.715400    0.826600
  H     -3.449000    1.858800   -0.927900
  H     -3.513200   -0.921900    1.919400
  H     -1.927000   -0.090700    1.834200
  H     -2.078900   -1.830400    1.319100
  H      2.437500    0.875700    1.994200
  H      4.647900    1.313900    2.972000
  H      6.698000    0.477400    1.863500
  H      4.327600   -1.267400   -1.252400
  H      0.704700   -2.408900   -3.579100

 Total Charge           Charge          ....    0
 Multiplicity           Mult            ....    1
 Number of Electrons    NEL             ....  154
 Basis Dimension        Dim             ....  310

ORBITAL ENERGIES
----------------

  NO   OCC          E(Eh)            E(eV)
   0   2.0000     -88.911405     -2419.4023
   1   2.0000     -24.707183      -672.3166
   2   2.0000     -19.185231      -522.0567
   3   2.0000     -19.174433      -521.7629
   4   2.0000     -19.102004      -519.7920
   5   2.0000     -14.391819      -391.6213
   6   2.0000     -14.342346      -390.2751
   7   2.0000     -10.292798      -280.0813
   8   2.0000     -10.291688      -280.0511
   9   2.0000     -10.281483      -279.7734
  10   2.0000     -10.269114      -279.4368
  11   2.0000     -10.226507      -278.2774
  12   2.0000     -10.226091      -278.2661
  13   2.0000     -10.224141      -278.2130
  14   2.0000     -10.221184      -278.1326
  15   2.0000     -10.205751      -277.7126
  16   2.0000     -10.203936      -277.6632
  17   2.0000     -10.202519      -277.6246
  18   2.0000     -10.202126      -277.6140
  19   2.0000     -10.172778      -276.8154
  20   2.0000      -7.988561      -217.3798
  21   2.0000      -5.951442      -161.9470
  22   2.0000      -5.947516      -161.8401
  23   2.0000      -5.945686      -161.7903
  24   2.0000      -1.220220       -33.2039
  25   2.0000      -1.107682       -30.1416
  26   2.0000      -1.045786       -28.4573
  27   2.0000      -0.993595       -27.0371
  28   2.0000      -0.968715       -26.3601
  29   2.0000      -0.874439       -23.7947
  30   2.0000      -0.867289       -23.6001
  31   2.0000      -0.821941       -22.3661
  32   2.0000      -0.792998       -21.5786
  33   2.0000      -0.761221       -20.7139
  34   2.0000      -0.749682       -20.3999
  35   2.0000      -0.736858       -20.0509
  36   2.0000      -0.695762       -18.9326
  37   2.0000      -0.653578       -17.7848
  38   2.0000      -0.638337       -17.3700
  39   2.0000      -0.624420       -16.9913
  40   2.0000      -0.600956       -16.3528
  41   2.0000      -0.591327       -16.0908
  42   2.0000      -0.565695       -15.3933
  43   2.0000      -0.540433       -14.7059
  44   2.0000      -0.526604       -14.3296
  45   2.0000      -0.513498       -13.9730
  46   2.0000      -0.507904       -13.8208
  47   2.0000      -0.505020       -13.7423
  48   2.0000      -0.481283       -13.0964
  49   2.0000      -0.472467       -12.8565
  50   2.0000      -0.463437       -12.6108
  51   2.0000      -0.462213       -12.5774
  52   2.0000      -0.456057       -12.4100
  53   2.0000      -0.446130       -12.1398
  54   2.0000      -0.443256       -12.0616
  55   2.0000      -0.419702       -11.4207
  56   2.0000      -0.415568       -11.3082
  57   2.0000      -0.404825       -11.0158
  58   2.0000      -0.402545       -10.9538
  59   2.0000      -0.387807       -10.5528
  60   2.0000      -0.386257       -10.5106
  61   2.0000      -0.383827       -10.4445
  62   2.0000      -0.378077       -10.2880
  63   2.0000      -0.365879        -9.9561
  64   2.0000      -0.363915        -9.9026
  65   2.0000      -0.357525        -9.7287
  66   2.0000      -0.353164        -9.6101
  67   2.0000      -0.351064        -9.5530
  68   2.0000      -0.345947        -9.4137
  69   2.0000      -0.295564        -8.0427
  70   2.0000      -0.288298        -7.8450
  71   2.0000      -0.277743        -7.5578
  72   2.0000      -0.270532        -7.3616
  73   2.0000      -0.258146        -7.0245
  74   2.0000      -0.241500        -6.5715
  75   2.0000      -0.223790        -6.0896
  76   2.0000      -0.219687        -5.9780
  77   0.0000      -0.073191        -1.9916
  78   0.0000      -0.016380        -0.4457
  79   0.0000      -0.005261        -0.1432
  80   0.0000       0.017287         0.4704
  81   0.0000       0.035416         0.9637

MULLIKEN ATOMIC CHARGES
-----------------------
   0 C :   -0.464274
   1 C :    0.012236
   2 O :   -0.348878
   3 N :   -0.194690
   4 C :   -0.331306
   5 C :    0.515701
   6 O :   -0.443010
   7 C :   -0.273465
   8 S :    0.281602
   9 C :   -0.022674
  10 C :    0.157909
  11 C :   -0.196430
  12 C :   -0.121298
  13 C :   -0.199366
  14 C :    0.420324
  15 F :   -0.314631
  16 C :   -0.244289
  17 N :   -0.423414
  18 C :    0.511820
  19 O :   -0.616788
  20 H :    0.147288
  21 H :    0.152872
  22 H :    0.170243
  23 H :    0.117770
  24 H :    0.141060
  25 H :    0.181233
  26 H :    0.164500
  27 H :    0.175588
  28 H :    0.148847
  29 H :    0.146408
  30 H :    0.150534
  31 H :    0.173985
  32 H :    0.424594
Sum of atomic charges:    0.0000000

LOEWDIN ATOMIC CHARGES
----------------------
   0 C :   -0.368788
   1 C :   -0.101672
   2 O :   -0.139854
   3 N :   -0.024782
   4 C :   -0.284646
   5 C :    0.123794
   6 O :   -0.256166
   7 C :   -0.274082
   8 S :    0.402162
   9 C :   -0.111568
  10 C :   -0.021701
  11 C :   -0.132658
  12 C :   -0.117087
  13 C :   -0.149054
  14 C :    0.120549
  15 F :   -0.099943
  16 C :   -0.134903
  17 N :   -0.181807
  18 C :    0.113479
  19 O :   -0.312191
  20 H :    0.132258
  21 H :    0.128710
  22 H :    0.137442
  23 H :    0.100695
  24 H :    0.114054
  25 H :    0.145588
  26 H :    0.123054
  27 H :    0.137636
  28 H :    0.140554
  29 H :    0.140741
  30 H :    0.146130
  31 H :    0.159561
  32 H :    0.344492

  Mayer bond orders larger than 0.100000
B(  0-C ,  1-C ) :   1.0228 B(  0-C , 20-H ) :   0.9451 B(  0-C , 21-H ) :   0.9483
B(  0-C , 22-H ) :   0.9452 B(  1-C ,  2-O ) :   0.8833 B(  1-C , 23-H ) :   0.9296
B(  1-C , 24-H ) :   0.9265 B(  2-O ,  3-N ) :   0.9550 B(  3-N ,  4-C ) :   0.9351
B(  3-N ,  5-C ) :   0.9870 B(  4-C , 25-H ) :   0.9357 B(  4-C , 26-H ) :   0.9245
B(  4-C , 27-H ) :   0.9344 B(  5-C ,  6-O ) :   1.8613 B(  5-C ,  7-C ) :   0.9635
B(  7-C ,  8-S ) :   1.0695 B(  7-C ,  9-C ) :   0.1192 B(  7-C , 18-C ) :   1.4177
B(  8-S ,  9-C ) :   1.1624 B(  9-C , 10-C ) :   1.0257 B(  9-C , 17-N ) :   1.4397
B( 10-C , 11-C ) :   1.3922 B( 10-C , 16-C ) :   1.3749 B( 11-C , 12-C ) :   1.4478
B( 11-C , 28-H ) :   0.9160 B( 12-C , 13-C ) :   1.4267 B( 12-C , 29-H ) :   0.9280
B( 13-C , 14-C ) :   1.3854 B( 13-C , 30-H ) :   0.9200 B( 14-C , 15-F ) :   0.9132
B( 14-C , 16-C ) :   1.3731 B( 16-C , 31-H ) :   0.9036 B( 17-N , 18-C ) :   1.2905
B( 18-C , 19-O ) :   1.0232 B( 19-O , 32-H ) :   0.7546

FINAL SINGLE POINT ENERGY     -1335.721855801827

DIPOLE MOMENT
-------------

Method             : SCF
Type of density    : Electron Density
Multiplicity       :   1
Irrep              :   0
Energy             : -1335.7218558018273598 Eh
Relativity type    :
Basis              : AO
                                X                 Y                 Z
Electronic contribution:     26.808245645      -8.833161428      -6.548359843
Nuclear contribution   :    -26.095318938       9.505259403       8.266146794
                        -----------------------------------------
Total Dipole Moment    :      0.712926707       0.672097975       1.717786951
                        -----------------------------------------
Magnitude (a.u.)       :      1.977567240
Magnitude (Debye)      :      5.026576455

Rotational constants in cm-1:             0.025254             0.004255             0.003798
Rotational constants in MHz :           757.097297           127.559310           113.874673

                             ****ORCA TERMINATED NORMALLY****
TOTAL RUN TIME: 0 days 0 hours 2 minutes 22 seconds 668 msec
