                         Program Version 6.0.0  -   RELEASE  -
|  1> ! B3LYP 6-31G* SP
|  2>
|  3> * xyz 0 1
|  4> N -1.4346 6.5613 -3.7832
|  5> C -1.0698 5.5522 -3.3498
|  6> C -0.6161 4.2972 -2.8108
|  7> C 0.0991 3.4006 -3.6109
|  8> N 0.5216 2.2164 -3.0946
|  9> C 0.2749 1.8642 -1.8033
| 10> N 0.7345 0.5972 -1.3208
| 11> C 0.0899 -0.6311 -1.7881
| 12> C -1.2484 -0.7947 -1.1213
| 13> C -2.3900 -0.1861 -1.6693
| 14> C -3.6224 -0.2839 -1.0162
| 15> C -3.7226 -0.9835 0.1895
| 16> C -2.5902 -1.5859 0.7444
| 17> C -1.3563 -1.4905 0.0944
| 18> S 2.2299 0.5181 -0.4412
| 19> O 3.3288 0.0710 -1.3641
| 20> O 2.5814 1.8779 0.0959
| 21> C 2.0746 -0.6055 0.9060
| 22> C 1.5182 -0.1780 2.1175
| 23> C 1.3503 -1.0784 3.1732
| 24> C 1.7392 -2.4226 3.0320
| 25> C 1.5577 -3.3818 4.1435
| 26> O 1.0511 -3.0059 5.2353
| 27> O 1.9449 -4.7110 3.9938
| 28> C 2.3024 -2.8444 1.8152
| 29> C 2.4681 -1.9419 0.7606
| 30> C -0.4472 2.7346 -0.9696
| 31> Cl -0.8394 2.3022 0.6877
| 32> C -0.8905 3.9566 -1.4827
| 33> H 0.3201 3.6396 -4.6436
| 34> H 0.7293 -1.5131 -1.5698
| 35> H -0.0310 -0.5961 -2.8929
| 36> H -2.3228 0.3720 -2.5951
| 37> H -4.4985 0.1878 -1.4419
| 38> H -4.6767 -1.0562 0.6951
| 39> H -2.6675 -2.1238 1.6804
| 40> H -0.4884 -1.9581 0.5395
| 41> H 1.2093 0.8507 2.2453
| 42> H 0.9132 -0.7224 4.0977
| 43> H 1.8248 -5.3761 4.7485
| 44> H 2.6100 -3.8728 1.6743
| 45> H 2.8910 -2.2903 -0.1728
| 46> H -1.4519 4.6344 -0.8504
| 47> *
| 48>
| 49>                          ****END OF INPUT****

CARTESIAN COORDINATES (ANGSTROEM)
---------------------------------
  N     -1.434600    6.561300   -3.783200
  C     -1.069800    5.552200   -3.349800
  C     -0.616100    4.297200   -2.810800
  C      0.099100    3.400600   -3.610900
  N      0.521600    2.216400   -3.094600
  C      0.274900    1.864200   -1.803300
  N      0.734500    0.597200   -1.320800
  C      0.089900   -0.631100   -1.788100
  C     -1.248400   -0.794700   -1.121300
  C     -2.390000   -0.186100   -1.669300
  C     -3.622400   -0.283900   -1.016200
  C     -3.722600   -0.983500    0.189500
  C     -2.590200   -1.585900    0.744400
  C     -1.356300   -1.490500    0.094400
  S      2.229900    0.518100   -0.441200
  O      3.328800    0.071000   -1.364100
  O      2.581400    1.877900    0.095900
  C      2.074600   -0.605500    0.906000
  C      1.518200   -0.178000    2.117500
  C      1.350300   -1.078400    3.173200
  C      1.739200   -2.422600    3.032000
  C      1.557700   -3.381800    4.143500
  O      1.051100   -3.005900    5.235300
  O      1.944900   -4.711000    3.993800
  C      2.302400   -2.844400    1.815200
  C      2.468100   -1.941900    0.760600
  C     -0.447200    2.734600   -0.969600
  Cl    -0.839400    2.302200    0.687700
  C     -0.890500    3.956600   -1.482700
  H      0.320100    3.639600   -4.643600
  H      0.729300   -1.513100   -1.569800
  H     -0.031000   -0.596100   -2.892900
  H     -2.322800    0.372000   -2.595100
  H     -4.498500    0.187800   -1.441900
  H     -4.676700   -1.056200    0.695100
  H     -2.667500   -2.123800    1.680400
  H     -0.488400   -1.958100    0.539500
  H      1.209300    0.850700    2.245300
  H      0.913200   -0.722400    4.097700
  H      1.824800   -5.376100    4.748500
  H      2.610000   -3.872800    1.674300
  H      2.891000   -2.290300   -0.172800
  H     -1.451900    4.634400   -0.850400

 Total Charge           Charge          ....    0
 Multiplicity           Mult            ....    1
 Number of Electrons    NEL             ....  220
 Basis Dimension        Dim             ....  442

ORBITAL ENERGIES
----------------

  NO   OCC          E(Eh)            E(eV)
   0   2.0000    -101.552440     -2763.3824
   1   2.0000     -89.108348     -2424.7614
   2   2.0000     -19.204615      -522.5842
   3   2.0000     -19.147341      -521.0256
   4   2.0000     -19.134647      -520.6802
   5   2.0000     -19.132464      -520.6208
   6   2.0000     -14.385640      -391.4532
   7   2.0000     -14.370896      -391.0520
   8   2.0000     -14.352631      -390.5549
   9   2.0000     -10.344453      -281.4869
  10   2.0000     -10.303370      -280.3689
  11   2.0000     -10.285740      -279.8892
  12   2.0000     -10.263772      -279.2914
  13   2.0000     -10.261811      -279.2381
  14   2.0000     -10.253622      -279.0152
  15   2.0000     -10.247315      -278.8436
  16   2.0000     -10.244423      -278.7649
  17   2.0000     -10.243351      -278.7358
  18   2.0000     -10.240843      -278.6675
  19   2.0000     -10.231547      -278.4145
  20   2.0000     -10.229634      -278.3625
  21   2.0000     -10.228143      -278.3219
  22   2.0000     -10.227284      -278.2985
  23   2.0000     -10.202748      -277.6309
  24   2.0000     -10.194932      -277.4182
  25   2.0000     -10.193971      -277.3921
  26   2.0000     -10.193828      -277.3882
  27   2.0000     -10.193419      -277.3770
  28   2.0000     -10.192645      -277.3560
  29   2.0000      -9.483605      -258.0620
  30   2.0000      -8.144215      -221.6154
  31   2.0000      -7.247015      -197.2013
  32   2.0000      -7.237108      -196.9317
  33   2.0000      -7.236723      -196.9213
  34   2.0000      -6.109418      -166.2457
  35   2.0000      -6.107140      -166.1837
  36   2.0000      -6.106732      -166.1726
  37   2.0000      -1.092795       -29.7365
  38   2.0000      -1.089424       -29.6447
  39   2.0000      -1.003855       -27.3163
  40   2.0000      -0.993784       -27.0422
  41   2.0000      -0.970094       -26.3976
  42   2.0000      -0.939995       -25.5786
  43   2.0000      -0.920663       -25.0525
  44   2.0000      -0.901243       -24.5241
  45   2.0000      -0.895281       -24.3618
  46   2.0000      -0.862661       -23.4742
  47   2.0000      -0.839685       -22.8490
  48   2.0000      -0.817819       -22.2540
  49   2.0000      -0.790429       -21.5087
  50   2.0000      -0.787017       -21.4158
  51   2.0000      -0.773862       -21.0579
  52   2.0000      -0.754280       -20.5250
  53   2.0000      -0.726835       -19.7782
  54   2.0000      -0.708975       -19.2922
  55   2.0000      -0.682497       -18.5717
  56   2.0000      -0.668575       -18.1929
  57   2.0000      -0.652180       -17.7467
  58   2.0000      -0.638240       -17.3674
  59   2.0000      -0.618074       -16.8187
  60   2.0000      -0.611416       -16.6375
  61   2.0000      -0.597724       -16.2649
  62   2.0000      -0.574119       -15.6226
  63   2.0000      -0.571511       -15.5516
  64   2.0000      -0.550813       -14.9884
  65   2.0000      -0.545894       -14.8545
  66   2.0000      -0.534730       -14.5507
  67   2.0000      -0.516496       -14.0546
  68   2.0000      -0.501561       -13.6482
  69   2.0000      -0.490805       -13.3555
  70   2.0000      -0.485350       -13.2071
  71   2.0000      -0.477614       -12.9965
  72   2.0000      -0.475099       -12.9281
  73   2.0000      -0.470881       -12.8133
  74   2.0000      -0.467491       -12.7211
  75   2.0000      -0.458673       -12.4811
  76   2.0000      -0.457403       -12.4466
  77   2.0000      -0.451660       -12.2903
  78   2.0000      -0.444487       -12.0951
  79   2.0000      -0.443291       -12.0626
  80   2.0000      -0.434745       -11.8300
  81   2.0000      -0.432035       -11.7563
  82   2.0000      -0.426538       -11.6067
  83   2.0000      -0.423343       -11.5197
  84   2.0000      -0.407986       -11.1019
  85   2.0000      -0.400375       -10.8948
  86   2.0000      -0.394564       -10.7366
  87   2.0000      -0.385542       -10.4911
  88   2.0000      -0.378167       -10.2905
  89   2.0000      -0.374887       -10.2012
  90   2.0000      -0.373174       -10.1546
  91   2.0000      -0.364926        -9.9301
  92   2.0000      -0.360746        -9.8164
  93   2.0000      -0.355648        -9.6777
  94   2.0000      -0.351905        -9.5758
  95   2.0000      -0.338052        -9.1989
  96   2.0000      -0.335100        -9.1185
  97   2.0000      -0.329963        -8.9788
  98   2.0000      -0.316868        -8.6224
  99   2.0000      -0.308663        -8.3991
 100   2.0000      -0.306241        -8.3332
 101   2.0000      -0.295134        -8.0310
 102   2.0000      -0.290412        -7.9025
 103   2.0000      -0.289912        -7.8889
 104   2.0000      -0.286001        -7.7825
 105   2.0000      -0.283556        -7.7160
 106   2.0000      -0.278983        -7.5915
 107   2.0000      -0.262474        -7.1423
 108   2.0000      -0.259346        -7.0572
 109   2.0000      -0.249808        -6.7976
 110   0.0000      -0.097120        -2.6428
 111   0.0000      -0.081724        -2.2238
 112   0.0000      -0.060491        -1.6460
 113   0.0000      -0.042133        -1.1465
 114   0.0000      -0.018374        -0.5000

MULLIKEN ATOMIC CHARGES
-----------------------
   0 N :   -0.287018
   1 C :    0.084784
   2 C :    0.118151
   3 C :    0.012163
   4 N :   -0.364083
   5 C :    0.413412
   6 N :   -0.598105
   7 C :   -0.263242
   8 C :    0.178767
   9 C :   -0.176714
  10 C :   -0.124258
  11 C :   -0.122507
  12 C :   -0.128796
  13 C :   -0.171283
  14 S :    1.208993
  15 O :   -0.520440
  16 O :   -0.547557
  17 C :   -0.140156
  18 C :   -0.129056
  19 C :   -0.142120
  20 C :    0.082972
  21 C :    0.530151
  22 O :   -0.440451
  23 O :   -0.622733
  24 C :   -0.147534
  25 C :   -0.151013
  26 C :   -0.069562
  27 Cl:    0.035386
  28 C :   -0.109552
  29 H :    0.188859
  30 H :    0.173577
  31 H :    0.187888
  32 H :    0.131004
  33 H :    0.134111
  34 H :    0.133724
  35 H :    0.134509
  36 H :    0.130114
  37 H :    0.195843
  38 H :    0.185035
  39 H :    0.436737
  40 H :    0.177590
  41 H :    0.188533
  42 H :    0.193876
Sum of atomic charges:    0.0000000

LOEWDIN ATOMIC CHARGES
----------------------
   0 N :   -0.072274
   1 C :   -0.008223
   2 C :   -0.057784
   3 C :   -0.037207
   4 N :   -0.100590
   5 C :    0.065752
   6 N :   -0.281408
   7 C :   -0.145793
   8 C :   -0.034302
   9 C :   -0.134889
  10 C :   -0.123915
  11 C :   -0.125227
  12 C :   -0.124342
  13 C :   -0.130759
  14 S :    1.265943
  15 O :   -0.561925
  16 O :   -0.570699
  17 C :   -0.176752
  18 C :   -0.092789
  19 C :   -0.085348
  20 C :   -0.036551
  21 C :    0.179961
  22 O :   -0.256711
  23 O :   -0.333253
  24 C :   -0.101318
  25 C :   -0.108289
  26 C :   -0.078775
  27 Cl:    0.071956
  28 C :   -0.078414
  29 H :    0.156368
  30 H :    0.142894
  31 H :    0.144043
  32 H :    0.131706
  33 H :    0.134097
  34 H :    0.134106
  35 H :    0.134175
  36 H :    0.133025
  37 H :    0.164984
  38 H :    0.162665
  39 H :    0.351609
  40 H :    0.156971
  41 H :    0.160562
  42 H :    0.166720

  Mayer bond orders larger than 0.100000
B(  0-N ,  1-C ) :   3.0111 B(  1-C ,  2-C ) :   0.9804 B(  2-C ,  3-C ) :   1.3438
B(  2-C , 28-C ) :   1.4032 B(  3-C ,  4-N ) :   1.4181 B(  3-C , 29-H ) :   0.9199
B(  4-N ,  5-C ) :   1.3827 B(  5-C ,  6-N ) :   0.9427 B(  5-C , 26-C ) :   1.3304
B(  6-N ,  7-C ) :   0.9088 B(  6-N , 14-S ) :   0.7957 B(  7-C ,  8-C ) :   0.9379
B(  7-C , 30-H ) :   0.9219 B(  7-C , 31-H ) :   0.9183 B(  8-C ,  9-C ) :   1.4314
B(  8-C , 13-C ) :   1.4292 B(  9-C , 10-C ) :   1.4401 B(  9-C , 32-H ) :   0.9235
B( 10-C , 11-C ) :   1.4559 B( 10-C , 33-H ) :   0.9286 B( 11-C , 12-C ) :   1.4505
B( 11-C , 34-H ) :   0.9294 B( 12-C , 13-C ) :   1.4482 B( 12-C , 35-H ) :   0.9286
B( 13-C , 36-H ) :   0.9181 B( 14-S , 15-O ) :   1.6742 B( 14-S , 16-O ) :   1.6164
B( 14-S , 17-C ) :   0.8126 B( 17-C , 18-C ) :   1.3843 B( 17-C , 25-C ) :   1.3897
B( 18-C , 19-C ) :   1.4221 B( 18-C , 37-H ) :   0.9028 B( 19-C , 20-C ) :   1.3984
B( 19-C , 38-H ) :   0.9086 B( 20-C , 21-C ) :   1.0059 B( 20-C , 24-C ) :   1.3846
B( 21-C , 22-O ) :   1.8649 B( 21-C , 23-O ) :   1.0279 B( 23-O , 39-H ) :   0.7401
B( 24-C , 25-C ) :   1.4099 B( 24-C , 40-H ) :   0.9137 B( 25-C , 41-H ) :   0.9078
B( 26-C , 27-Cl) :   1.0588 B( 26-C , 28-C ) :   1.3954 B( 28-C , 42-H ) :   0.9111

FINAL SINGLE POINT ENERGY     -2093.115806710061

DIPOLE MOMENT
-------------

Method             : SCF
Type of density    : Electron Density
Multiplicity       :   1
Irrep              :   0
Energy             : -2093.1158067100609514 Eh
Relativity type    :
Basis              : AO
                                X                 Y                 Z
Electronic contribution:      6.164886693      14.615579908      -0.035264080
Nuclear contribution   :     -7.480001105     -17.008784041       0.790152485
                        -----------------------------------------
Total Dipole Moment    :     -1.315114412      -2.393204133       0.754888404
                        -----------------------------------------
Magnitude (a.u.)       :      2.833162269
Magnitude (Debye)      :      7.201326190

Rotational constants in cm-1:             0.009233             0.003068             0.002720
Rotational constants in MHz :           276.812172            91.966968            81.534397

                             ****ORCA TERMINATED NORMALLY****
TOTAL RUN TIME: 0 days 0 hours 7 minutes 8 seconds 271 msec
