                         Program Version 6.0.0  -   RELEASE  -
|  1> ! B3LYP 6-31G* SP
|  2>
|  3> * xyz 0 1
|  4> C -5.9718 -0.4970 -1.1409
|  5> C -5.4664 -0.0816 0.2344
|  6> N -4.0662 -0.4545 0.3885
|  7> N -3.6514 -1.6215 0.8506
|  8> N -2.3294 -1.6540 0.8041
|  9> C -1.9709 -0.4613 0.2859
| 10> C -0.5810 -0.0536 0.0437
| 11> S 0.7758 -0.9904 0.3733
| 12> C 1.8626 0.1791 -0.1773
| 13> C 3.3378 0.0489 -0.1959
| 14> C 3.9680 -1.1211 0.2691
| 15> C 5.3619 -1.2314 0.2461
| 16> C 6.1413 -0.1789 -0.2395
| 17> F 7.4925 -0.2887 -0.2605
| 18> C 5.5274 0.9868 -0.7034
| 19> C 4.1340 1.1024 -0.6827
| 20> N 1.2055 1.2804 -0.6117
| 21> C -0.1436 1.1548 -0.4910
| 22> O -1.0105 2.1712 -0.8790
| 23> N -3.0481 0.3003 0.0129
| 24> H -5.8821 -1.5972 -1.2642
| 25> H -5.3808 0.0092 -1.9336
| 26> H -7.0387 -0.2093 -1.2495
| 27> H -6.0751 -0.5795 1.0198
| 28> H -5.5756 1.0180 0.3536
| 29> H 3.3892 -1.9519 0.6505
| 30> H 5.8372 -2.1351 0.6057
| 31> H 6.1307 1.8029 -1.0799
| 32> H 3.6812 2.0158 -1.0476
| 33> H -0.6533 3.0370 -1.2644
| 34> *
| 35>
| 36>                          ****END OF INPUT****

CARTESIAN COORDINATES (ANGSTROEM)
---------------------------------
  C     -5.971800   -0.497000   -1.140900
  C     -5.466400   -0.081600    0.234400
  N     -4.066200   -0.454500    0.388500
  N     -3.651400   -1.621500    0.850600
  N     -2.329400   -1.654000    0.804100
  C     -1.970900   -0.461300    0.285900
  C     -0.581000   -0.053600    0.043700
  S      0.775800   -0.990400    0.373300
  C      1.862600    0.179100   -0.177300
  C      3.337800    0.048900   -0.195900
  C      3.968000   -1.121100    0.269100
  C      5.361900   -1.231400    0.246100
  C      6.141300   -0.178900   -0.239500
  F      7.492500   -0.288700   -0.260500
  C      5.527400    0.986800   -0.703400
  C      4.134000    1.102400   -0.682700
  N      1.205500    1.280400   -0.611700
  C     -0.143600    1.154800   -0.491000
  O     -1.010500    2.171200   -0.879000
  N     -3.048100    0.300300    0.012900
  H     -5.882100   -1.597200   -1.264200
  H     -5.380800    0.009200   -1.933600
  H     -7.038700   -0.209300   -1.249500
  H     -6.075100   -0.579500    1.019800
  H     -5.575600    1.018000    0.353600
  H      3.389200   -1.951900    0.650500
  H      5.837200   -2.135100    0.605700
  H      6.130700    1.802900   -1.079900
  H      3.681200    2.015800   -1.047600
  H     -0.653300    3.037000   -1.264400

 Total Charge           Charge          ....    0
 Multiplicity           Mult            ....    1
 Number of Electrons    NEL             ....  150
 Basis Dimension        Dim             ....  304

ORBITAL ENERGIES
----------------

  NO   OCC          E(Eh)            E(eV)
   0   2.0000     -88.903294     -2419.1816
   1   2.0000     -24.704243      -672.2366
   2   2.0000     -19.174043      -521.7522
   3   2.0000     -14.454197      -393.3187
   4   2.0000     -14.392495      -391.6397
   5   2.0000     -14.362843      -390.8328
   6   2.0000     -14.355540      -390.6341
   7   2.0000     -14.333756      -390.0413
   8   2.0000     -10.283162      -279.8191
   9   2.0000     -10.277044      -279.6526
  10   2.0000     -10.257815      -279.1293
  11   2.0000     -10.251379      -278.9542
  12   2.0000     -10.247847      -278.8581
  13   2.0000     -10.221014      -278.1279
  14   2.0000     -10.214241      -277.9436
  15   2.0000     -10.204213      -277.6708
  16   2.0000     -10.199808      -277.5509
  17   2.0000     -10.198394      -277.5124
  18   2.0000     -10.196936      -277.4727
  19   2.0000     -10.192160      -277.3428
  20   2.0000      -7.979922      -217.1447
  21   2.0000      -5.942921      -161.7151
  22   2.0000      -5.938964      -161.6074
  23   2.0000      -5.936913      -161.5516
  24   2.0000      -1.217375       -33.1265
  25   2.0000      -1.141567       -31.0636
  26   2.0000      -1.043793       -28.4030
  27   2.0000      -0.961466       -26.1628
  28   2.0000      -0.944921       -25.7126
  29   2.0000      -0.891571       -24.2609
  30   2.0000      -0.868772       -23.6405
  31   2.0000      -0.818479       -22.2720
  32   2.0000      -0.789492       -21.4832
  33   2.0000      -0.780723       -21.2446
  34   2.0000      -0.761381       -20.7182
  35   2.0000      -0.729668       -19.8553
  36   2.0000      -0.684356       -18.6223
  37   2.0000      -0.662509       -18.0278
  38   2.0000      -0.634366       -17.2620
  39   2.0000      -0.629345       -17.1253
  40   2.0000      -0.608354       -16.5541
  41   2.0000      -0.582111       -15.8400
  42   2.0000      -0.578761       -15.7489
  43   2.0000      -0.545543       -14.8450
  44   2.0000      -0.530223       -14.4281
  45   2.0000      -0.520801       -14.1717
  46   2.0000      -0.506974       -13.7955
  47   2.0000      -0.496618       -13.5137
  48   2.0000      -0.486381       -13.2351
  49   2.0000      -0.468305       -12.7432
  50   2.0000      -0.460065       -12.5190
  51   2.0000      -0.457158       -12.4399
  52   2.0000      -0.446018       -12.1368
  53   2.0000      -0.440029       -11.9738
  54   2.0000      -0.435309       -11.8454
  55   2.0000      -0.412589       -11.2271
  56   2.0000      -0.400141       -10.8884
  57   2.0000      -0.395541       -10.7632
  58   2.0000      -0.391184       -10.6446
  59   2.0000      -0.381101       -10.3703
  60   2.0000      -0.377845       -10.2817
  61   2.0000      -0.376732       -10.2514
  62   2.0000      -0.369828       -10.0635
  63   2.0000      -0.355454        -9.6724
  64   2.0000      -0.348897        -9.4940
  65   2.0000      -0.347683        -9.4609
  66   2.0000      -0.318633        -8.6705
  67   2.0000      -0.306193        -8.3319
  68   2.0000      -0.291755        -7.9391
  69   2.0000      -0.285280        -7.7629
  70   2.0000      -0.277482        -7.5507
  71   2.0000      -0.271683        -7.3929
  72   2.0000      -0.264855        -7.2071
  73   2.0000      -0.258872        -7.0443
  74   2.0000      -0.205603        -5.5947
  75   0.0000      -0.059778        -1.6267
  76   0.0000      -0.017089        -0.4650
  77   0.0000      -0.015675        -0.4265
  78   0.0000       0.011498         0.3129
  79   0.0000       0.024507         0.6669

MULLIKEN ATOMIC CHARGES
-----------------------
   0 C :   -0.445907
   1 C :   -0.143220
   2 N :   -0.029630
   3 N :   -0.067431
   4 N :   -0.326519
   5 C :    0.409030
   6 C :   -0.221982
   7 S :    0.299202
   8 C :   -0.020579
   9 C :    0.130495
  10 C :   -0.175590
  11 C :   -0.214712
  12 C :    0.418578
  13 F :   -0.314675
  14 C :   -0.209352
  15 C :   -0.139606
  16 N :   -0.431497
  17 C :    0.488435
  18 O :   -0.635812
  19 N :   -0.300635
  20 H :    0.173433
  21 H :    0.174986
  22 H :    0.156252
  23 H :    0.187532
  24 H :    0.188361
  25 H :    0.159479
  26 H :    0.151692
  27 H :    0.150742
  28 H :    0.165869
  29 H :    0.423061
Sum of atomic charges:   -0.0000000

LOEWDIN ATOMIC CHARGES
----------------------
   0 C :   -0.362401
   1 C :   -0.152402
   2 N :    0.096922
   3 N :   -0.077006
   4 N :   -0.127834
   5 C :   -0.005168
   6 C :   -0.247465
   7 S :    0.426577
   8 C :   -0.117554
   9 C :   -0.036839
  10 C :   -0.113964
  11 C :   -0.153894
  12 C :    0.122083
  13 F :   -0.100620
  14 C :   -0.153834
  15 C :   -0.097310
  16 N :   -0.188222
  17 C :    0.092692
  18 O :   -0.326442
  19 N :   -0.123948
  20 H :    0.138597
  21 H :    0.139274
  22 H :    0.134368
  23 H :    0.149604
  24 H :    0.150371
  25 H :    0.145713
  26 H :    0.146853
  27 H :    0.146420
  28 H :    0.152304
  29 H :    0.343126

  Mayer bond orders larger than 0.100000
B(  0-C ,  1-C ) :   1.0040 B(  0-C , 20-H ) :   0.9441 B(  0-C , 21-H ) :   0.9436
B(  0-C , 22-H ) :   0.9426 B(  1-C ,  2-N ) :   0.8992 B(  1-C , 23-H ) :   0.9272
B(  1-C , 24-H ) :   0.9266 B(  2-N ,  3-N ) :   1.2404 B(  2-N , 19-N ) :   1.2216
B(  3-N ,  4-N ) :   1.4306 B(  3-N , 19-N ) :   0.1313 B(  4-N ,  5-C ) :   1.2863
B(  5-C ,  6-C ) :   1.0431 B(  5-C , 19-N ) :   1.3849 B(  6-C ,  7-S ) :   1.0891
B(  6-C ,  8-C ) :   0.1229 B(  6-C , 17-C ) :   1.4251 B(  7-S ,  8-C ) :   1.1536
B(  8-C ,  9-C ) :   1.0264 B(  8-C , 16-N ) :   1.4414 B(  9-C , 10-C ) :   1.3887
B(  9-C , 15-C ) :   1.4027 B( 10-C , 11-C ) :   1.4324 B( 10-C , 25-H ) :   0.9150
B( 11-C , 12-C ) :   1.3848 B( 11-C , 26-H ) :   0.9197 B( 12-C , 13-F ) :   0.9212
B( 12-C , 14-C ) :   1.3815 B( 14-C , 15-C ) :   1.4206 B( 14-C , 27-H ) :   0.9204
B( 15-C , 28-H ) :   0.9111 B( 16-N , 17-C ) :   1.2878 B( 17-C , 18-O ) :   0.9955
B( 18-O , 29-H ) :   0.7564

FINAL SINGLE POINT ENERGY     -1309.666044403853

DIPOLE MOMENT
-------------

Method             : SCF
Type of density    : Electron Density
Multiplicity       :   1
Irrep              :   0
Energy             : -1309.6660444038534479 Eh
Relativity type    :
Basis              : AO
                                X                 Y                 Z
Electronic contribution:     22.002937582      -1.728563579       3.546485823
Nuclear contribution   :    -22.764224952       2.599121524      -4.001811667
                        -----------------------------------------
Total Dipole Moment    :     -0.761287369       0.870557945      -0.455325844
                        -----------------------------------------
Magnitude (a.u.)       :      1.242880211
Magnitude (Debye)      :      3.159150435

Rotational constants in cm-1:             0.041938             0.003711             0.003453
Rotational constants in MHz :          1257.263869           111.256199           103.517940

                             ****ORCA TERMINATED NORMALLY****
TOTAL RUN TIME: 0 days 0 hours 3 minutes 38 seconds 35 msec
