                         Program Version 6.0.0  -   RELEASE  -
|  1> ! B3LYP 6-31G* SP
|  2>
|  3> * xyz -1 1
|  4> C -0.2876 -1.6704 1.1137
|  5> C -1.1503 -1.4151 -0.1028
|  6> C -1.6222 -0.1130 -0.3930
|  7> N -1.3054 0.9986 0.4524
|  8> C -0.3409 2.0020 0.0014
|  9> C 1.0471 1.4254 0.0309
| 10> C 1.5474 0.7308 -1.0807
| 11> C 2.8024 0.1185 -1.0246
| 12> C 3.5744 0.1887 0.1508
| 13> O 4.8350 -0.4158 0.2603
| 14> C 5.4482 -1.1907 -0.7656
| 15> C 6.8201 -1.6610 -0.2805
| 16> C 7.3231 -2.9566 -0.8979
| 17> C 6.8142 -2.9438 0.5361
| 18> C 3.0708 0.8810 1.2580
| 19> C 1.8138 1.4894 1.2039
| 20> S -2.2866 1.3067 1.8488
| 21> O -1.4022 1.6589 3.0123
| 22> O -3.0753 0.0776 2.2072
| 23> C -3.3953 2.6241 1.4886
| 24> C -3.2026 3.8941 2.0467
| 25> C -4.0747 4.9404 1.7321
| 26> C -5.1497 4.7319 0.8501
| 27> C -6.0683 5.8424 0.5165
| 28> O -7.0351 5.6600 -0.2706
| 29> O -5.8761 7.1047 1.0674
| 30> C -5.3328 3.4555 0.2885
| 31> C -4.4596 2.4111 0.6052
| 32> N -2.3739 0.1099 -1.5025
| 33> C -2.7098 -0.8795 -2.3644
| 34> C -2.2750 -2.1872 -2.1358
| 35> C -2.6159 -3.2127 -3.0313
| 36> C -2.1739 -4.5165 -2.8057
| 37> C -1.3903 -4.8063 -1.6889
| 38> C -1.0441 -3.7952 -0.7885
| 39> C -1.4820 -2.4680 -0.9948
| 40> H -0.7757 -2.4226 1.7683
| 41> H -0.1180 -0.7624 1.7250
| 42> H 0.7075 -2.0450 0.7927
| 43> H -0.3865 2.9032 0.6511
| 44> H -0.6007 2.3367 -1.0265
| 45> H 0.9580 0.6495 -1.9859
| 46> H 3.1585 -0.4123 -1.8966
| 47> H 5.5953 -0.5617 -1.6696
| 48> H 4.7884 -2.0482 -1.0271
| 49> H 7.6022 -0.9207 -0.0059
| 50> H 8.4280 -3.0273 -0.9819
| 51> H 6.6391 -3.4584 -1.6150
| 52> H 7.6184 -3.0075 1.2989
| 53> H 5.8276 -3.4381 0.6692
| 54> H 3.6522 0.9372 2.1695
| 55> H 1.4335 1.9998 2.0799
| 56> H -2.3758 4.0791 2.7203
| 57> H -3.9042 5.9125 2.1773
| 58> H -6.1478 3.2641 -0.3982
| 59> H -4.6101 1.4368 0.1573
| 60> H -3.3143 -0.6402 -3.2304
| 61> H -3.2218 -3.0051 -3.9056
| 62> H -2.4383 -5.3044 -3.4992
| 63> H -1.0487 -5.8194 -1.5195
| 64> H -0.4340 -4.0660 0.0623
| 65> *
| 66>
| 67>                          ****END OF INPUT****

CARTESIAN COORDINATES (ANGSTROEM)
---------------------------------
  C     -0.287600   -1.670400    1.113700
  C     -1.150300   -1.415100   -0.102800
  C     -1.622200   -0.113000   -0.393000
  N     -1.305400    0.998600    0.452400
  C     -0.340900    2.002000    0.001400
  C      1.047100    1.425400    0.030900
  C      1.547400    0.730800   -1.080700
  C      2.802400    0.118500   -1.024600
  C      3.574400    0.188700    0.150800
  O      4.835000   -0.415800    0.260300
  C      5.448200   -1.190700   -0.765600
  C      6.820100   -1.661000   -0.280500
  C      7.323100   -2.956600   -0.897900
  C      6.814200   -2.943800    0.536100
  C      3.070800    0.881000    1.258000
  C      1.813800    1.489400    1.203900
  S     -2.286600    1.306700    1.848800
  O     -1.402200    1.658900    3.012300
  O     -3.075300    0.077600    2.207200
  C     -3.395300    2.624100    1.488600
  C     -3.202600    3.894100    2.046700
  C     -4.074700    4.940400    1.732100
  C     -5.149700    4.731900    0.850100
  C     -6.068300    5.842400    0.516500
  O     -7.035100    5.660000   -0.270600
  O     -5.876100    7.104700    1.067400
  C     -5.332800    3.455500    0.288500
  C     -4.459600    2.411100    0.605200
  N     -2.373900    0.109900   -1.502500
  C     -2.709800   -0.879500   -2.364400
  C     -2.275000   -2.187200   -2.135800
  C     -2.615900   -3.212700   -3.031300
  C     -2.173900   -4.516500   -2.805700
  C     -1.390300   -4.806300   -1.688900
  C     -1.044100   -3.795200   -0.788500
  C     -1.482000   -2.468000   -0.994800
  H     -0.775700   -2.422600    1.768300
  H     -0.118000   -0.762400    1.725000
  H      0.707500   -2.045000    0.792700
  H     -0.386500    2.903200    0.651100
  H     -0.600700    2.336700   -1.026500
  H      0.958000    0.649500   -1.985900
  H      3.158500   -0.412300   -1.896600
  H      5.595300   -0.561700   -1.669600
  H      4.788400   -2.048200   -1.027100
  H      7.602200   -0.920700   -0.005900
  H      8.428000   -3.027300   -0.981900
  H      6.639100   -3.458400   -1.615000
  H      7.618400   -3.007500    1.298900
  H      5.827600   -3.438100    0.669200
  H      3.652200    0.937200    2.169500
  H      1.433500    1.999800    2.079900
  H     -2.375800    4.079100    2.720300
  H     -3.904200    5.912500    2.177300
  H     -6.147800    3.264100   -0.398200
  H     -4.610100    1.436800    0.157300
  H     -3.314300   -0.640200   -3.230400
  H     -3.221800   -3.005100   -3.905600
  H     -2.438300   -5.304400   -3.499200
  H     -1.048700   -5.819400   -1.519500
  H     -0.434000   -4.066000    0.062300

 Total Charge           Charge          ....   -1
 Multiplicity           Mult            ....    1
 Number of Electrons    NEL             ....  264
 Basis Dimension        Dim             ....  558

ORBITAL ENERGIES
----------------

  NO   OCC          E(Eh)            E(eV)
   0   2.0000     -88.998119     -2421.7619
   1   2.0000     -19.108044      -519.9563
   2   2.0000     -19.032075      -517.8891
   3   2.0000     -19.030160      -517.8370
   4   2.0000     -18.901193      -514.3276
   5   2.0000     -18.877871      -513.6930
   6   2.0000     -14.278602      -388.5405
   7   2.0000     -14.261250      -388.0684
   8   2.0000     -10.194194      -277.3981
   9   2.0000     -10.186473      -277.1880
  10   2.0000     -10.185233      -277.1543
  11   2.0000     -10.156961      -276.3850
  12   2.0000     -10.152813      -276.2721
  13   2.0000     -10.149355      -276.1780
  14   2.0000     -10.147695      -276.1328
  15   2.0000     -10.142850      -276.0010
  16   2.0000     -10.139738      -275.9163
  17   2.0000     -10.137833      -275.8644
  18   2.0000     -10.137366      -275.8517
  19   2.0000     -10.136998      -275.8417
  20   2.0000     -10.135747      -275.8077
  21   2.0000     -10.135468      -275.8001
  22   2.0000     -10.133907      -275.7576
  23   2.0000     -10.122417      -275.4450
  24   2.0000     -10.121623      -275.4234
  25   2.0000     -10.118649      -275.3424
  26   2.0000     -10.118171      -275.3294
  27   2.0000     -10.117713      -275.3170
  28   2.0000     -10.110801      -275.1289
  29   2.0000     -10.103830      -274.9392
  30   2.0000     -10.086888      -274.4782
  31   2.0000     -10.086721      -274.4736
  32   2.0000     -10.086409      -274.4651
  33   2.0000     -10.067526      -273.9513
  34   2.0000     -10.066469      -273.9226
  35   2.0000     -10.064857      -273.8787
  36   2.0000      -8.033934      -218.6145
  37   2.0000      -5.999282      -163.2488
  38   2.0000      -5.997275      -163.1941
  39   2.0000      -5.995865      -163.1558
  40   2.0000      -0.988790       -26.9063
  41   2.0000      -0.987798       -26.8793
  42   2.0000      -0.885501       -24.0957
  43   2.0000      -0.867486       -23.6055
  44   2.0000      -0.836774       -22.7698
  45   2.0000      -0.815754       -22.1978
  46   2.0000      -0.810192       -22.0464
  47   2.0000      -0.800145       -21.7731
  48   2.0000      -0.785117       -21.3641
  49   2.0000      -0.750260       -20.4156
  50   2.0000      -0.738235       -20.0884
  51   2.0000      -0.713708       -19.4210
  52   2.0000      -0.704107       -19.1597
  53   2.0000      -0.690488       -18.7891
  54   2.0000      -0.684202       -18.6181
  55   2.0000      -0.676925       -18.4201
  56   2.0000      -0.663235       -18.0475
  57   2.0000      -0.650993       -17.7144
  58   2.0000      -0.636171       -17.3111
  59   2.0000      -0.626266       -17.0416
  60   2.0000      -0.603844       -16.4314
  61   2.0000      -0.583001       -15.8643
  62   2.0000      -0.579087       -15.7578
  63   2.0000      -0.552532       -15.0352
  64   2.0000      -0.549537       -14.9537
  65   2.0000      -0.542192       -14.7538
  66   2.0000      -0.529078       -14.3969
  67   2.0000      -0.527205       -14.3460
  68   2.0000      -0.515842       -14.0368
  69   2.0000      -0.496454       -13.5092
  70   2.0000      -0.494404       -13.4534
  71   2.0000      -0.474498       -12.9117
  72   2.0000      -0.466946       -12.7063
  73   2.0000      -0.456806       -12.4303
  74   2.0000      -0.450503       -12.2588
  75   2.0000      -0.438565       -11.9340
  76   2.0000      -0.430108       -11.7038
  77   2.0000      -0.422350       -11.4927
  78   2.0000      -0.415327       -11.3016
  79   2.0000      -0.411924       -11.2090
  80   2.0000      -0.405303       -11.0289
  81   2.0000      -0.397990       -10.8298
  82   2.0000      -0.391482       -10.6528
  83   2.0000      -0.384733       -10.4691
  84   2.0000      -0.384080       -10.4514
  85   2.0000      -0.375414       -10.2155
  86   2.0000      -0.374503       -10.1907
  87   2.0000      -0.364113        -9.9080
  88   2.0000      -0.359542        -9.7836
  89   2.0000      -0.357695        -9.7334
  90   2.0000      -0.350140        -9.5278
  91   2.0000      -0.339477        -9.2376
  92   2.0000      -0.336603        -9.1594
  93   2.0000      -0.331785        -9.0283
  94   2.0000      -0.329803        -8.9744
  95   2.0000      -0.327577        -8.9138
  96   2.0000      -0.323618        -8.8061
  97   2.0000      -0.318511        -8.6671
  98   2.0000      -0.315885        -8.5957
  99   2.0000      -0.310859        -8.4589
 100   2.0000      -0.310202        -8.4410
 101   2.0000      -0.304428        -8.2839
 102   2.0000      -0.300226        -8.1696
 103   2.0000      -0.288160        -7.8412
 104   2.0000      -0.287407        -7.8207
 105   2.0000      -0.285524        -7.7695
 106   2.0000      -0.283516        -7.7149
 107   2.0000      -0.266954        -7.2642
 108   2.0000      -0.260769        -7.0959
 109   2.0000      -0.255235        -6.9453
 110   2.0000      -0.248328        -6.7574
 111   2.0000      -0.237777        -6.4702
 112   2.0000      -0.237513        -6.4631
 113   2.0000      -0.234027        -6.3682
 114   2.0000      -0.225689        -6.1413
 115   2.0000      -0.223178        -6.0730
 116   2.0000      -0.209942        -5.7128
 117   2.0000      -0.207974        -5.6593
 118   2.0000      -0.199125        -5.4185
 119   2.0000      -0.191256        -5.2043
 120   2.0000      -0.188129        -5.1192
 121   2.0000      -0.182760        -4.9731
 122   2.0000      -0.180783        -4.9194
 123   2.0000      -0.178866        -4.8672
 124   2.0000      -0.170373        -4.6361
 125   2.0000      -0.155718        -4.2373
 126   2.0000      -0.154400        -4.2014
 127   2.0000      -0.142221        -3.8700
 128   2.0000      -0.122889        -3.3440
 129   2.0000      -0.054795        -1.4911
 130   2.0000      -0.032867        -0.8944
 131   2.0000      -0.016088        -0.4378
 132   0.0000       0.004335         0.1180
 133   0.0000       0.033987         0.9248
 134   0.0000       0.060624         1.6497
 135   0.0000       0.065077         1.7708
 136   0.0000       0.076225         2.0742

MULLIKEN ATOMIC CHARGES
-----------------------
   0 C :   -0.540140
   1 C :    0.133727
   2 C :    0.310774
   3 N :   -0.609899
   4 C :   -0.235819
   5 C :    0.157086
   6 C :   -0.171815
   7 C :   -0.211836
   8 C :    0.366463
   9 O :   -0.523188
  10 C :   -0.017359
  11 C :   -0.096562
  12 C :   -0.320001
  13 C :   -0.296114
  14 C :   -0.180083
  15 C :   -0.165201
  16 S :    1.209106
  17 O :   -0.577591
  18 O :   -0.567712
  19 C :   -0.141298
  20 C :   -0.162165
  21 C :   -0.151128
  22 C :    0.104936
  23 C :    0.410389
  24 O :   -0.553875
  25 O :   -0.660531
  26 C :   -0.159585
  27 C :   -0.141958
  28 N :   -0.382843
  29 C :   -0.062548
  30 C :    0.139099
  31 C :   -0.204170
  32 C :   -0.129346
  33 C :   -0.124314
  34 C :   -0.194398
  35 C :    0.114303
  36 H :    0.161131
  37 H :    0.208252
  38 H :    0.145553
  39 H :    0.178819
  40 H :    0.167115
  41 H :    0.134014
  42 H :    0.121385
  43 H :    0.130211
  44 H :    0.122747
  45 H :    0.149600
  46 H :    0.145272
  47 H :    0.147403
  48 H :    0.144774
  49 H :    0.155304
  50 H :    0.130587
  51 H :    0.161871
  52 H :    0.141693
  53 H :    0.149223
  54 H :    0.144245
  55 H :    0.143753
  56 H :    0.145749
  57 H :    0.129908
  58 H :    0.120101
  59 H :    0.121835
  60 H :    0.135048
Sum of atomic charges:   -1.0000000

LOEWDIN ATOMIC CHARGES
----------------------
   0 C :   -0.359640
   1 C :    0.005132
   2 C :    0.037372
   3 N :   -0.288760
   4 C :   -0.144148
   5 C :   -0.042186
   6 C :   -0.126473
   7 C :   -0.182125
   8 C :    0.082742
   9 O :   -0.193186
  10 C :   -0.077849
  11 C :   -0.139876
  12 C :   -0.258748
  13 C :   -0.251673
  14 C :   -0.151733
  15 C :   -0.113501
  16 S :    1.262380
  17 O :   -0.597986
  18 O :   -0.588702
  19 C :   -0.215123
  20 C :   -0.130636
  21 C :   -0.110728
  22 C :   -0.004330
  23 C :    0.071875
  24 O :   -0.379301
  25 O :   -0.508823
  26 C :   -0.113143
  27 C :   -0.117145
  28 N :   -0.124827
  29 C :   -0.068341
  30 C :   -0.030047
  31 C :   -0.115415
  32 C :   -0.136103
  33 C :   -0.127983
  34 C :   -0.121273
  35 C :   -0.007528
  36 H :    0.137884
  37 H :    0.157239
  38 H :    0.129094
  39 H :    0.147550
  40 H :    0.131985
  41 H :    0.134143
  42 H :    0.129239
  43 H :    0.110257
  44 H :    0.109942
  45 H :    0.134954
  46 H :    0.131165
  47 H :    0.130388
  48 H :    0.130805
  49 H :    0.134573
  50 H :    0.137227
  51 H :    0.147862
  52 H :    0.138471
  53 H :    0.148937
  54 H :    0.145517
  55 H :    0.139281
  56 H :    0.133768
  57 H :    0.132822
  58 H :    0.127977
  59 H :    0.129072
  60 H :    0.137677

  Mayer bond orders larger than 0.100000
B(  0-C ,  1-C ) :   1.0084 B(  0-C , 36-H ) :   0.9257 B(  0-C , 37-H ) :   0.9149
B(  0-C , 38-H ) :   0.9260 B(  1-C ,  2-C ) :   1.4284 B(  1-C , 29-C ) :   0.1038
B(  1-C , 35-C ) :   1.2630 B(  2-C ,  3-N ) :   0.9148 B(  2-C , 28-N ) :   1.2790
B(  3-N ,  4-C ) :   0.9256 B(  3-N , 16-S ) :   0.7786 B(  4-C ,  5-C ) :   0.9552
B(  4-C , 39-H ) :   0.9177 B(  4-C , 40-H ) :   0.9209 B(  5-C ,  6-C ) :   1.4431
B(  5-C , 15-C ) :   1.4251 B(  6-C ,  7-C ) :   1.4143 B(  6-C , 41-H ) :   0.9215
B(  7-C ,  8-C ) :   1.3706 B(  7-C , 42-H ) :   0.9200 B(  8-C ,  9-O ) :   0.9121
B(  8-C , 14-C ) :   1.3945 B(  9-O , 10-C ) :   0.8974 B( 10-C , 11-C ) :   1.0322
B( 10-C , 43-H ) :   0.9172 B( 10-C , 44-H ) :   0.9151 B( 11-C , 12-C ) :   0.9422
B( 11-C , 13-C ) :   0.9544 B( 11-C , 45-H ) :   0.9326 B( 12-C , 13-C ) :   0.9628
B( 12-C , 46-H ) :   0.9461 B( 12-C , 47-H ) :   0.9440 B( 13-C , 48-H ) :   0.9480
B( 13-C , 49-H ) :   0.9454 B( 14-C , 15-C ) :   1.4418 B( 14-C , 50-H ) :   0.9216
B( 15-C , 51-H ) :   0.9130 B( 16-S , 17-O ) :   1.5972 B( 16-S , 18-O ) :   1.6353
B( 16-S , 19-C ) :   0.8457 B( 19-C , 20-C ) :   1.3686 B( 19-C , 27-C ) :   1.3642
B( 20-C , 21-C ) :   1.3980 B( 20-C , 52-H ) :   0.9208 B( 21-C , 22-C ) :   1.4065
B( 21-C , 53-H ) :   0.9020 B( 22-C , 23-C ) :   0.9276 B( 22-C , 26-C ) :   1.3842
B( 23-C , 24-O ) :   1.7069 B( 23-C , 25-O ) :   1.5499 B( 24-O , 25-O ) :   0.1476
B( 26-C , 27-C ) :   1.4219 B( 26-C , 54-H ) :   0.9083 B( 27-C , 55-H ) :   0.9178
B( 28-N , 29-C ) :   1.4970 B( 29-C , 30-C ) :   1.2355 B( 29-C , 56-H ) :   0.9282
B( 30-C , 31-C ) :   1.2840 B( 30-C , 35-C ) :   1.2902 B( 31-C , 32-C ) :   1.5136
B( 31-C , 34-C ) :   0.1067 B( 31-C , 57-H ) :   0.9243 B( 32-C , 33-C ) :   1.3517
B( 32-C , 58-H ) :   0.9317 B( 33-C , 34-C ) :   1.5095 B( 33-C , 59-H ) :   0.9317
B( 34-C , 35-C ) :   1.2947 B( 34-C , 60-H ) :   0.9157

FINAL SINGLE POINT ENERGY     -1964.745897670424

DIPOLE MOMENT
-------------

Method             : SCF
Type of density    : Electron Density
Multiplicity       :   1
Irrep              :   0
Energy             : -1964.7458976704244833 Eh
Relativity type    :
Basis              : AO
                                X                 Y                 Z
Electronic contribution:    -34.590420679      19.750944683       6.176143322
Nuclear contribution   :     44.003709380     -29.115665916      -8.866578577
                        -----------------------------------------
Total Dipole Moment    :      9.413288702      -9.364721233      -2.690435255
                        -----------------------------------------
Magnitude (a.u.)       :     13.547931570
Magnitude (Debye)      :     34.436105368

Rotational constants in cm-1:             0.005092             0.001721             0.001415
Rotational constants in MHz :           152.646059            51.588925            42.410687

                             ****ORCA TERMINATED NORMALLY****
TOTAL RUN TIME: 0 days 0 hours 7 minutes 7 seconds 658 msec
