                         Program Version 6.0.0  -   RELEASE  -
|  1> ! B3LYP 6-31G* SP
|  2>
|  3> * xyz 0 1
|  4> C -1.1930 0.8037 1.2568
|  5> C -1.3073 1.6657 0.0199
|  6> C -1.6124 1.0869 -1.2346
|  7> N -1.7817 -0.3296 -1.3809
|  8> C -0.7868 -1.0924 -2.1412
|  9> C 0.5867 -0.8853 -1.5589
| 10> C 0.9758 -1.5855 -0.4077
| 11> C 2.2023 -1.3134 0.2034
| 12> C 3.0700 -0.3453 -0.3366
| 13> C 4.3751 0.0047 0.3456
| 14> F 5.3702 0.0952 -0.6162
| 15> F 4.7467 -0.9966 1.2285
| 16> C 4.2311 1.3266 1.1387
| 17> C 3.0998 1.4492 2.1684
| 18> C 4.6389 2.6237 0.4453
| 19> C 5.5365 2.0169 1.5211
| 20> C 2.6734 0.3565 -1.4880
| 21> C 1.4419 0.0910 -2.0913
| 22> S -3.3661 -0.9928 -1.1161
| 23> O -4.0176 -0.3064 0.0513
| 24> O -4.2011 -0.7585 -2.3439
| 25> C -3.2750 -2.7179 -0.7624
| 26> C -3.8873 -3.6548 -1.6066
| 27> C -3.8077 -5.0213 -1.3187
| 28> C -3.1060 -5.4708 -0.1853
| 29> C -3.0161 -6.9142 0.1247
| 30> O -3.5514 -7.7657 -0.6363
| 31> O -2.3402 -7.3468 1.2628
| 32> C -2.4901 -4.5264 0.6536
| 33> C -2.5789 -3.1609 0.3687
| 34> N -1.6899 1.8670 -2.3448
| 35> C -1.5028 3.2078 -2.3072
| 36> C -1.2145 3.8422 -1.0965
| 37> C -1.0187 5.2314 -1.0558
| 38> C -0.7240 5.8636 0.1528
| 39> C -0.6256 5.1170 1.3264
| 40> C -0.8227 3.7336 1.3017
| 41> C -1.1151 3.0706 0.0885
| 42> H -2.0336 1.0297 1.9486
| 43> H -1.2172 -0.2782 1.0253
| 44> H -0.2256 0.9928 1.7643
| 45> H -0.8110 -0.7717 -3.2054
| 46> H -1.0287 -2.1751 -2.1291
| 47> H 0.3169 -2.3235 0.0324
| 48> H 2.4609 -1.8481 1.1073
| 49> H 2.1233 1.4548 1.6414
| 50> H 3.1306 0.5841 2.8638
| 51> H 3.1744 2.3842 2.7647
| 52> H 5.0535 2.5348 -0.5797
| 53> H 4.1063 3.5400 0.7767
| 54> H 5.5333 2.5893 2.4735
| 55> H 6.4683 1.5658 1.1186
| 56> H 3.3105 1.1245 -1.9096
| 57> H 1.1458 0.6625 -2.9616
| 58> H -4.4269 -3.3319 -2.4878
| 59> H -4.2936 -5.7249 -1.9836
| 60> H -2.2773 -8.3331 1.4848
| 61> H -1.9378 -4.8422 1.5314
| 62> H -2.1016 -2.4503 1.0299
| 63> H -1.5749 3.7757 -3.2274
| 64> H -1.0950 5.8265 -1.9579
| 65> H -0.5743 6.9355 0.1802
| 66> H -0.3973 5.6125 2.2615
| 67> H -0.7453 3.1974 2.2377
| 68> *
| 69>
| 70>                          ****END OF INPUT****

CARTESIAN COORDINATES (ANGSTROEM)
---------------------------------
  C     -1.193000    0.803700    1.256800
  C     -1.307300    1.665700    0.019900
  C     -1.612400    1.086900   -1.234600
  N     -1.781700   -0.329600   -1.380900
  C     -0.786800   -1.092400   -2.141200
  C      0.586700   -0.885300   -1.558900
  C      0.975800   -1.585500   -0.407700
  C      2.202300   -1.313400    0.203400
  C      3.070000   -0.345300   -0.336600
  C      4.375100    0.004700    0.345600
  F      5.370200    0.095200   -0.616200
  F      4.746700   -0.996600    1.228500
  C      4.231100    1.326600    1.138700
  C      3.099800    1.449200    2.168400
  C      4.638900    2.623700    0.445300
  C      5.536500    2.016900    1.521100
  C      2.673400    0.356500   -1.488000
  C      1.441900    0.091000   -2.091300
  S     -3.366100   -0.992800   -1.116100
  O     -4.017600   -0.306400    0.051300
  O     -4.201100   -0.758500   -2.343900
  C     -3.275000   -2.717900   -0.762400
  C     -3.887300   -3.654800   -1.606600
  C     -3.807700   -5.021300   -1.318700
  C     -3.106000   -5.470800   -0.185300
  C     -3.016100   -6.914200    0.124700
  O     -3.551400   -7.765700   -0.636300
  O     -2.340200   -7.346800    1.262800
  C     -2.490100   -4.526400    0.653600
  C     -2.578900   -3.160900    0.368700
  N     -1.689900    1.867000   -2.344800
  C     -1.502800    3.207800   -2.307200
  C     -1.214500    3.842200   -1.096500
  C     -1.018700    5.231400   -1.055800
  C     -0.724000    5.863600    0.152800
  C     -0.625600    5.117000    1.326400
  C     -0.822700    3.733600    1.301700
  C     -1.115100    3.070600    0.088500
  H     -2.033600    1.029700    1.948600
  H     -1.217200   -0.278200    1.025300
  H     -0.225600    0.992800    1.764300
  H     -0.811000   -0.771700   -3.205400
  H     -1.028700   -2.175100   -2.129100
  H      0.316900   -2.323500    0.032400
  H      2.460900   -1.848100    1.107300
  H      2.123300    1.454800    1.641400
  H      3.130600    0.584100    2.863800
  H      3.174400    2.384200    2.764700
  H      5.053500    2.534800   -0.579700
  H      4.106300    3.540000    0.776700
  H      5.533300    2.589300    2.473500
  H      6.468300    1.565800    1.118600
  H      3.310500    1.124500   -1.909600
  H      1.145800    0.662500   -2.961600
  H     -4.426900   -3.331900   -2.487800
  H     -4.293600   -5.724900   -1.983600
  H     -2.277300   -8.333100    1.484800
  H     -1.937800   -4.842200    1.531400
  H     -2.101600   -2.450300    1.029900
  H     -1.574900    3.775700   -3.227400
  H     -1.095000    5.826500   -1.957900
  H     -0.574300    6.935500    0.180200
  H     -0.397300    5.612500    2.261500
  H     -0.745300    3.197400    2.237700

 Total Charge           Charge          ....    0
 Multiplicity           Mult            ....    1
 Number of Electrons    NEL             ....  280
 Basis Dimension        Dim             ....  588

ORBITAL ENERGIES
----------------

  NO   OCC          E(Eh)            E(eV)
   0   2.0000     -89.094581     -2424.3868
   1   2.0000     -24.698522      -672.0809
   2   2.0000     -24.693066      -671.9325
   3   2.0000     -19.200441      -522.4706
   4   2.0000     -19.142155      -520.8845
   5   2.0000     -19.121868      -520.3325
   6   2.0000     -19.115915      -520.1705
   7   2.0000     -14.368084      -390.9754
   8   2.0000     -14.328765      -389.9055
   9   2.0000     -10.349737      -281.6306
  10   2.0000     -10.339749      -281.3589
  11   2.0000     -10.256665      -279.0980
  12   2.0000     -10.249247      -278.8962
  13   2.0000     -10.237717      -278.5824
  14   2.0000     -10.232037      -278.4279
  15   2.0000     -10.227876      -278.3147
  16   2.0000     -10.224877      -278.2330
  17   2.0000     -10.223935      -278.2074
  18   2.0000     -10.222495      -278.1682
  19   2.0000     -10.222468      -278.1675
  20   2.0000     -10.209756      -277.8216
  21   2.0000     -10.208578      -277.7895
  22   2.0000     -10.205190      -277.6973
  23   2.0000     -10.203364      -277.6477
  24   2.0000     -10.202161      -277.6149
  25   2.0000     -10.199089      -277.5313
  26   2.0000     -10.197580      -277.4903
  27   2.0000     -10.197003      -277.4745
  28   2.0000     -10.195946      -277.4458
  29   2.0000     -10.195873      -277.4438
  30   2.0000     -10.195606      -277.4365
  31   2.0000     -10.195084      -277.4224
  32   2.0000     -10.194987      -277.4197
  33   2.0000     -10.192611      -277.3551
  34   2.0000     -10.189385      -277.2673
  35   2.0000     -10.186160      -277.1795
  36   2.0000     -10.185681      -277.1665
  37   2.0000     -10.179376      -276.9949
  38   2.0000      -8.130704      -221.2477
  39   2.0000      -6.095695      -165.8723
  40   2.0000      -6.093812      -165.8210
  41   2.0000      -6.093198      -165.8044
  42   2.0000      -1.234762       -33.5996
  43   2.0000      -1.181054       -32.1381
  44   2.0000      -1.084996       -29.5242
  45   2.0000      -1.079253       -29.3680
  46   2.0000      -0.999063       -27.1859
  47   2.0000      -0.960095       -26.1255
  48   2.0000      -0.956466       -26.0268
  49   2.0000      -0.912202       -24.8223
  50   2.0000      -0.895763       -24.3750
  51   2.0000      -0.872038       -23.7294
  52   2.0000      -0.863937       -23.5089
  53   2.0000      -0.860021       -23.4024
  54   2.0000      -0.812605       -22.1121
  55   2.0000      -0.806072       -21.9343
  56   2.0000      -0.790304       -21.5053
  57   2.0000      -0.782454       -21.2916
  58   2.0000      -0.773832       -21.0570
  59   2.0000      -0.755467       -20.5573
  60   2.0000      -0.744006       -20.2454
  61   2.0000      -0.729776       -19.8582
  62   2.0000      -0.715094       -19.4587
  63   2.0000      -0.706951       -19.2371
  64   2.0000      -0.692341       -18.8396
  65   2.0000      -0.670380       -18.2420
  66   2.0000      -0.656600       -17.8670
  67   2.0000      -0.643478       -17.5099
  68   2.0000      -0.640088       -17.4177
  69   2.0000      -0.622854       -16.9487
  70   2.0000      -0.618672       -16.8349
  71   2.0000      -0.603639       -16.4259
  72   2.0000      -0.595440       -16.2027
  73   2.0000      -0.593335       -16.1455
  74   2.0000      -0.589369       -16.0375
  75   2.0000      -0.570824       -15.5329
  76   2.0000      -0.562565       -15.3082
  77   2.0000      -0.542093       -14.7511
  78   2.0000      -0.540023       -14.6948
  79   2.0000      -0.533392       -14.5143
  80   2.0000      -0.531430       -14.4609
  81   2.0000      -0.516202       -14.0466
  82   2.0000      -0.510907       -13.9025
  83   2.0000      -0.502022       -13.6607
  84   2.0000      -0.496462       -13.5094
  85   2.0000      -0.485620       -13.2144
  86   2.0000      -0.479127       -13.0377
  87   2.0000      -0.477627       -12.9969
  88   2.0000      -0.468776       -12.7560
  89   2.0000      -0.464858       -12.6494
  90   2.0000      -0.463263       -12.6060
  91   2.0000      -0.461017       -12.5449
  92   2.0000      -0.455653       -12.3990
  93   2.0000      -0.452366       -12.3095
  94   2.0000      -0.447913       -12.1883
  95   2.0000      -0.446668       -12.1544
  96   2.0000      -0.443815       -12.0768
  97   2.0000      -0.432338       -11.7645
  98   2.0000      -0.431306       -11.7364
  99   2.0000      -0.429975       -11.7002
 100   2.0000      -0.427927       -11.6445
 101   2.0000      -0.425184       -11.5698
 102   2.0000      -0.419391       -11.4122
 103   2.0000      -0.417092       -11.3496
 104   2.0000      -0.410983       -11.1834
 105   2.0000      -0.403066       -10.9680
 106   2.0000      -0.401485       -10.9249
 107   2.0000      -0.397267       -10.8102
 108   2.0000      -0.394780       -10.7425
 109   2.0000      -0.393054       -10.6955
 110   2.0000      -0.391511       -10.6536
 111   2.0000      -0.389074       -10.5872
 112   2.0000      -0.384541       -10.4639
 113   2.0000      -0.382557       -10.4099
 114   2.0000      -0.376213       -10.2373
 115   2.0000      -0.373291       -10.1578
 116   2.0000      -0.368669       -10.0320
 117   2.0000      -0.366969        -9.9857
 118   2.0000      -0.359786        -9.7903
 119   2.0000      -0.353691        -9.6244
 120   2.0000      -0.350715        -9.5434
 121   2.0000      -0.349917        -9.5217
 122   2.0000      -0.331482        -9.0201
 123   2.0000      -0.325377        -8.8540
 124   2.0000      -0.318413        -8.6644
 125   2.0000      -0.307246        -8.3606
 126   2.0000      -0.299068        -8.1381
 127   2.0000      -0.289623        -7.8810
 128   2.0000      -0.287476        -7.8226
 129   2.0000      -0.286860        -7.8059
 130   2.0000      -0.285041        -7.7564
 131   2.0000      -0.281357        -7.6561
 132   2.0000      -0.278665        -7.5829
 133   2.0000      -0.273042        -7.4299
 134   2.0000      -0.266415        -7.2495
 135   2.0000      -0.260030        -7.0758
 136   2.0000      -0.255196        -6.9442
 137   2.0000      -0.248972        -6.7749
 138   2.0000      -0.240309        -6.5391
 139   2.0000      -0.220102        -5.9893
 140   0.0000      -0.089723        -2.4415
 141   0.0000      -0.059738        -1.6255
 142   0.0000      -0.036725        -0.9993
 143   0.0000      -0.032545        -0.8856
 144   0.0000      -0.024848        -0.6761

MULLIKEN ATOMIC CHARGES
-----------------------
   0 C :   -0.540916
   1 C :    0.131254
   2 C :    0.323476
   3 N :   -0.621165
   4 C :   -0.228412
   5 C :    0.151758
   6 C :   -0.166656
   7 C :   -0.171769
   8 C :    0.034695
   9 C :    0.667549
  10 F :   -0.339459
  11 F :   -0.336680
  12 C :    0.056622
  13 C :   -0.489358
  14 C :   -0.326131
  15 C :   -0.327818
  16 C :   -0.162497
  17 C :   -0.167837
  18 S :    1.206462
  19 O :   -0.546637
  20 O :   -0.529282
  21 C :   -0.152280
  22 C :   -0.142635
  23 C :   -0.137432
  24 C :    0.083826
  25 C :    0.529871
  26 O :   -0.441447
  27 O :   -0.623499
  28 C :   -0.148362
  29 C :   -0.140322
  30 N :   -0.383801
  31 C :   -0.055326
  32 C :    0.138231
  33 C :   -0.203017
  34 C :   -0.126350
  35 C :   -0.122185
  36 C :   -0.196907
  37 C :    0.119084
  38 H :    0.180249
  39 H :    0.166778
  40 H :    0.156178
  41 H :    0.178779
  42 H :    0.164653
  43 H :    0.124043
  44 H :    0.144822
  45 H :    0.166890
  46 H :    0.155520
  47 H :    0.146864
  48 H :    0.161777
  49 H :    0.151591
  50 H :    0.149919
  51 H :    0.165347
  52 H :    0.145011
  53 H :    0.149240
  54 H :    0.199812
  55 H :    0.185370
  56 H :    0.435762
  57 H :    0.173889
  58 H :    0.179402
  59 H :    0.152796
  60 H :    0.139483
  61 H :    0.135737
  62 H :    0.136076
  63 H :    0.139365
Sum of atomic charges:   -0.0000000

LOEWDIN ATOMIC CHARGES
----------------------
   0 C :   -0.357209
   1 C :    0.006924
   2 C :    0.033828
   3 N :   -0.285635
   4 C :   -0.147610
   5 C :   -0.025978
   6 C :   -0.128077
   7 C :   -0.124087
   8 C :   -0.044580
   9 C :    0.240159
  10 F :   -0.130833
  11 F :   -0.132667
  12 C :   -0.062336
  13 C :   -0.346779
  14 C :   -0.252638
  15 C :   -0.249702
  16 C :   -0.115771
  17 C :   -0.123736
  18 S :    1.257806
  19 O :   -0.574195
  20 O :   -0.573350
  21 C :   -0.174041
  22 C :   -0.097769
  23 C :   -0.083172
  24 C :   -0.036772
  25 C :    0.180224
  26 O :   -0.257597
  27 O :   -0.334140
  28 C :   -0.100480
  29 C :   -0.109327
  30 N :   -0.123138
  31 C :   -0.060750
  32 C :   -0.026790
  33 C :   -0.111679
  34 C :   -0.126166
  35 C :   -0.119221
  36 C :   -0.121788
  37 C :   -0.006088
  38 H :    0.147912
  39 H :    0.133414
  40 H :    0.129597
  41 H :    0.135319
  42 H :    0.139269
  43 H :    0.130025
  44 H :    0.139920
  45 H :    0.130101
  46 H :    0.130339
  47 H :    0.130462
  48 H :    0.136907
  49 H :    0.133593
  50 H :    0.132034
  51 H :    0.139641
  52 H :    0.140475
  53 H :    0.141614
  54 H :    0.168247
  55 H :    0.162848
  56 H :    0.350877
  57 H :    0.155090
  58 H :    0.152737
  59 H :    0.137291
  60 H :    0.137293
  61 H :    0.135285
  62 H :    0.135718
  63 H :    0.139150

  Mayer bond orders larger than 0.100000
B(  0-C ,  1-C ) :   1.0119 B(  0-C , 38-H ) :   0.9208 B(  0-C , 39-H ) :   0.9215
B(  0-C , 40-H ) :   0.9181 B(  1-C ,  2-C ) :   1.4328 B(  1-C , 31-C ) :   0.1006
B(  1-C , 37-C ) :   1.2645 B(  2-C ,  3-N ) :   0.8818 B(  2-C , 30-N ) :   1.2863
B(  3-N ,  4-C ) :   0.9230 B(  3-N , 18-S ) :   0.7989 B(  4-C ,  5-C ) :   0.9635
B(  4-C , 41-H ) :   0.9154 B(  4-C , 42-H ) :   0.9197 B(  5-C ,  6-C ) :   1.4233
B(  5-C , 17-C ) :   1.4361 B(  6-C ,  7-C ) :   1.4184 B(  6-C , 43-H ) :   0.9195
B(  7-C ,  8-C ) :   1.4048 B(  7-C , 44-H ) :   0.9200 B(  8-C ,  9-C ) :   0.9763
B(  8-C , 16-C ) :   1.4094 B(  9-C , 10-F ) :   0.8671 B(  9-C , 11-F ) :   0.8888
B(  9-C , 12-C ) :   0.9804 B( 12-C , 13-C ) :   1.0078 B( 12-C , 14-C ) :   0.9209
B( 12-C , 15-C ) :   0.9256 B( 13-C , 45-H ) :   0.9264 B( 13-C , 46-H ) :   0.9400
B( 13-C , 47-H ) :   0.9418 B( 14-C , 15-C ) :   0.9504 B( 14-C , 48-H ) :   0.9337
B( 14-C , 49-H ) :   0.9395 B( 15-C , 50-H ) :   0.9422 B( 15-C , 51-H ) :   0.9351
B( 16-C , 17-C ) :   1.4195 B( 16-C , 52-H ) :   0.9193 B( 17-C , 53-H ) :   0.9177
B( 18-S , 19-O ) :   1.6319 B( 18-S , 20-O ) :   1.6673 B( 18-S , 21-C ) :   0.8050
B( 21-C , 22-C ) :   1.3949 B( 21-C , 29-C ) :   1.3834 B( 22-C , 23-C ) :   1.4120
B( 22-C , 54-H ) :   0.9039 B( 23-C , 24-C ) :   1.4048 B( 23-C , 55-H ) :   0.9084
B( 24-C , 25-C ) :   1.0069 B( 24-C , 28-C ) :   1.3822 B( 25-C , 26-O ) :   1.8644
B( 25-C , 27-O ) :   1.0264 B( 27-O , 56-H ) :   0.7408 B( 28-C , 29-C ) :   1.4245
B( 28-C , 57-H ) :   0.9141 B( 29-C , 58-H ) :   0.9070 B( 30-N , 31-C ) :   1.4954
B( 31-C , 32-C ) :   1.2365 B( 31-C , 59-H ) :   0.9263 B( 32-C , 33-C ) :   1.2844
B( 32-C , 37-C ) :   1.2906 B( 33-C , 34-C ) :   1.5118 B( 33-C , 36-C ) :   0.1061
B( 33-C , 60-H ) :   0.9232 B( 34-C , 35-C ) :   1.3535 B( 34-C , 61-H ) :   0.9293
B( 35-C , 36-C ) :   1.5076 B( 35-C , 62-H ) :   0.9294 B( 36-C , 37-C ) :   1.2943
B( 36-C , 63-H ) :   0.9160

FINAL SINGLE POINT ENERGY     -2127.820439175346

DIPOLE MOMENT
-------------

Method             : SCF
Type of density    : Electron Density
Multiplicity       :   1
Irrep              :   0
Energy             : -2127.8204391753456548 Eh
Relativity type    :
Basis              : AO
                                X                 Y                 Z
Electronic contribution:     -8.333718300     -20.358018402     -10.882877331
Nuclear contribution   :      9.952601463      20.759306280      12.222136179
                        -----------------------------------------
Total Dipole Moment    :      1.618883163       0.401287878       1.339258848
                        -----------------------------------------
Magnitude (a.u.)       :      2.139025227
Magnitude (Debye)      :      5.436970043

Rotational constants in cm-1:             0.003980             0.002048             0.001522
Rotational constants in MHz :           119.309856            61.411090            45.641654

                             ****ORCA TERMINATED NORMALLY****
TOTAL RUN TIME: 0 days 0 hours 13 minutes 54 seconds 905 msec
