                         Program Version 6.0.0  -   RELEASE  -
|  1> ! B3LYP 6-31G* SP
|  2>
|  3> * xyz 0 1
|  4> O 3.7793 5.4776 -3.3976
|  5> C 3.4538 5.6162 -2.1878
|  6> O 4.1706 6.5010 -1.3872
|  7> C 2.3197 4.8511 -1.6241
|  8> C 2.0173 4.9354 -0.2545
|  9> C 0.9439 4.2166 0.2788
| 10> C 0.1572 3.4021 -0.5452
| 11> S -1.1856 2.4858 0.1382
| 12> O -1.8092 3.2703 1.2586
| 13> O -2.2359 2.2723 -0.9161
| 14> N -0.6228 0.9562 0.7539
| 15> C 0.2637 0.9752 1.9260
| 16> C 1.5182 0.1965 1.6518
| 17> C 1.5524 -1.1893 1.8701
| 18> C 2.6922 -1.9284 1.5411
| 19> C 3.8183 -1.2889 0.9873
| 20> O 4.9832 -1.9832 0.6237
| 21> C 5.1480 -3.3979 0.6814
| 22> F 4.1934 -4.0194 -0.1035
| 23> F 5.0449 -3.8380 1.9885
| 24> F 6.4016 -3.7229 0.2003
| 25> C 3.7822 0.0951 0.7809
| 26> C 2.6413 0.8343 1.1042
| 27> C -1.3956 -0.2297 0.4833
| 28> N -2.0563 -0.8126 1.5165
| 29> C -2.8840 -1.8764 1.3740
| 30> C -3.5200 -2.4602 2.6106
| 31> C -5.0028 -2.1521 2.7679
| 32> C -3.9885 -1.4491 3.6510
| 33> C -3.1032 -2.4158 0.0897
| 34> C -3.9702 -3.5099 -0.1121
| 35> C -4.2174 -3.9919 -1.3966
| 36> C -3.6133 -3.3906 -2.4969
| 37> C -2.7404 -2.3176 -2.3193
| 38> C -2.4417 -1.8319 -1.0256
| 39> C -1.5166 -0.7724 -0.8193
| 40> C -0.7089 -0.2009 -1.9705
| 41> C 0.8053 -0.1784 -1.7833
| 42> C 0.1830 -1.2037 -2.6995
| 43> C 0.4458 3.3270 -1.9133
| 44> C 1.5231 4.0377 -2.4486
| 45> H 4.9443 7.0361 -1.7633
| 46> H 2.6117 5.5536 0.4066
| 47> H 0.7315 4.2926 1.3380
| 48> H -0.2613 0.5521 2.8101
| 49> H 0.5292 2.0177 2.2027
| 50> H 0.6888 -1.6999 2.2783
| 51> H 2.6809 -2.9937 1.7174
| 52> H 4.6424 0.6003 0.3582
| 53> H 2.6298 1.8994 0.9137
| 54> H -3.1806 -3.4411 3.0054
| 55> H -5.4498 -1.5019 1.9848
| 56> H -5.5830 -2.9444 3.2865
| 57> H -3.9732 -1.8227 4.6960
| 58> H -3.8610 -0.3737 3.4037
| 59> H -4.4684 -3.9956 0.7162
| 60> H -4.8909 -4.8267 -1.5407
| 61> H -3.8250 -3.7550 -3.4939
| 62> H -2.3189 -1.8670 -3.2069
| 63> H -1.1539 0.5685 -2.6326
| 64> H 1.2200 -0.6589 -0.8782
| 65> H 1.3479 0.6169 -2.3345
| 66> H 0.3384 -0.9906 -3.7773
| 67> H 0.2122 -2.2360 -2.2863
| 68> H -0.1626 2.7219 -2.5707
| 69> H 1.7252 3.9586 -3.5099
| 70> *
| 71>
| 72>                          ****END OF INPUT****

CARTESIAN COORDINATES (ANGSTROEM)
---------------------------------
  O      3.779300    5.477600   -3.397600
  C      3.453800    5.616200   -2.187800
  O      4.170600    6.501000   -1.387200
  C      2.319700    4.851100   -1.624100
  C      2.017300    4.935400   -0.254500
  C      0.943900    4.216600    0.278800
  C      0.157200    3.402100   -0.545200
  S     -1.185600    2.485800    0.138200
  O     -1.809200    3.270300    1.258600
  O     -2.235900    2.272300   -0.916100
  N     -0.622800    0.956200    0.753900
  C      0.263700    0.975200    1.926000
  C      1.518200    0.196500    1.651800
  C      1.552400   -1.189300    1.870100
  C      2.692200   -1.928400    1.541100
  C      3.818300   -1.288900    0.987300
  O      4.983200   -1.983200    0.623700
  C      5.148000   -3.397900    0.681400
  F      4.193400   -4.019400   -0.103500
  F      5.044900   -3.838000    1.988500
  F      6.401600   -3.722900    0.200300
  C      3.782200    0.095100    0.780900
  C      2.641300    0.834300    1.104200
  C     -1.395600   -0.229700    0.483300
  N     -2.056300   -0.812600    1.516500
  C     -2.884000   -1.876400    1.374000
  C     -3.520000   -2.460200    2.610600
  C     -5.002800   -2.152100    2.767900
  C     -3.988500   -1.449100    3.651000
  C     -3.103200   -2.415800    0.089700
  C     -3.970200   -3.509900   -0.112100
  C     -4.217400   -3.991900   -1.396600
  C     -3.613300   -3.390600   -2.496900
  C     -2.740400   -2.317600   -2.319300
  C     -2.441700   -1.831900   -1.025600
  C     -1.516600   -0.772400   -0.819300
  C     -0.708900   -0.200900   -1.970500
  C      0.805300   -0.178400   -1.783300
  C      0.183000   -1.203700   -2.699500
  C      0.445800    3.327000   -1.913300
  C      1.523100    4.037700   -2.448600
  H      4.944300    7.036100   -1.763300
  H      2.611700    5.553600    0.406600
  H      0.731500    4.292600    1.338000
  H     -0.261300    0.552100    2.810100
  H      0.529200    2.017700    2.202700
  H      0.688800   -1.699900    2.278300
  H      2.680900   -2.993700    1.717400
  H      4.642400    0.600300    0.358200
  H      2.629800    1.899400    0.913700
  H     -3.180600   -3.441100    3.005400
  H     -5.449800   -1.501900    1.984800
  H     -5.583000   -2.944400    3.286500
  H     -3.973200   -1.822700    4.696000
  H     -3.861000   -0.373700    3.403700
  H     -4.468400   -3.995600    0.716200
  H     -4.890900   -4.826700   -1.540700
  H     -3.825000   -3.755000   -3.493900
  H     -2.318900   -1.867000   -3.206900
  H     -1.153900    0.568500   -2.632600
  H      1.220000   -0.658900   -0.878200
  H      1.347900    0.616900   -2.334500
  H      0.338400   -0.990600   -3.777300
  H      0.212200   -2.236000   -2.286300
  H     -0.162600    2.721900   -2.570700
  H      1.725200    3.958600   -3.509900

 Total Charge           Charge          ....    0
 Multiplicity           Mult            ....    1
 Number of Electrons    NEL             ....  302
 Basis Dimension        Dim             ....  628

ORBITAL ENERGIES
----------------

  NO   OCC          E(Eh)            E(eV)
   0   2.0000     -89.098115     -2424.4830
   1   2.0000     -24.742619      -673.2809
   2   2.0000     -24.740837      -673.2324
   3   2.0000     -24.740340      -673.2189
   4   2.0000     -19.214759      -522.8602
   5   2.0000     -19.200772      -522.4796
   6   2.0000     -19.142892      -520.9046
   7   2.0000     -19.127293      -520.4801
   8   2.0000     -19.122753      -520.3566
   9   2.0000     -14.372648      -391.0996
  10   2.0000     -14.324931      -389.8012
  11   2.0000     -10.505617      -285.8724
  12   2.0000     -10.340349      -281.3752
  13   2.0000     -10.271486      -279.5013
  14   2.0000     -10.257172      -279.1119
  15   2.0000     -10.248751      -278.8827
  16   2.0000     -10.238016      -278.5906
  17   2.0000     -10.230140      -278.3763
  18   2.0000     -10.228712      -278.3374
  19   2.0000     -10.227165      -278.2953
  20   2.0000     -10.225528      -278.2508
  21   2.0000     -10.223683      -278.2006
  22   2.0000     -10.222915      -278.1797
  23   2.0000     -10.201008      -277.5835
  24   2.0000     -10.200012      -277.5564
  25   2.0000     -10.199463      -277.5415
  26   2.0000     -10.198951      -277.5276
  27   2.0000     -10.198821      -277.5240
  28   2.0000     -10.198396      -277.5125
  29   2.0000     -10.196625      -277.4643
  30   2.0000     -10.193224      -277.3717
  31   2.0000     -10.192912      -277.3632
  32   2.0000     -10.192284      -277.3462
  33   2.0000     -10.188722      -277.2492
  34   2.0000     -10.188012      -277.2299
  35   2.0000     -10.186994      -277.2022
  36   2.0000     -10.185577      -277.1636
  37   2.0000     -10.181722      -277.0587
  38   2.0000     -10.178148      -276.9615
  39   2.0000     -10.177347      -276.9397
  40   2.0000     -10.176881      -276.9270
  41   2.0000      -8.134231      -221.3437
  42   2.0000      -6.099148      -165.9662
  43   2.0000      -6.097258      -165.9148
  44   2.0000      -6.096868      -165.9042
  45   2.0000      -1.305776       -35.5320
  46   2.0000      -1.226575       -33.3768
  47   2.0000      -1.225869       -33.3576
  48   2.0000      -1.085736       -29.5444
  49   2.0000      -1.084945       -29.5228
  50   2.0000      -1.083839       -29.4928
  51   2.0000      -0.999941       -27.2098
  52   2.0000      -0.961877       -26.1740
  53   2.0000      -0.959525       -26.1100
  54   2.0000      -0.912917       -24.8417
  55   2.0000      -0.896365       -24.3913
  56   2.0000      -0.867211       -23.5980
  57   2.0000      -0.862276       -23.4637
  58   2.0000      -0.850202       -23.1352
  59   2.0000      -0.846553       -23.0359
  60   2.0000      -0.812224       -22.1017
  61   2.0000      -0.788660       -21.4605
  62   2.0000      -0.783018       -21.3070
  63   2.0000      -0.777346       -21.1527
  64   2.0000      -0.766928       -20.8692
  65   2.0000      -0.761248       -20.7146
  66   2.0000      -0.734423       -19.9847
  67   2.0000      -0.728295       -19.8179
  68   2.0000      -0.706808       -19.2332
  69   2.0000      -0.678819       -18.4716
  70   2.0000      -0.664503       -18.0820
  71   2.0000      -0.655643       -17.8410
  72   2.0000      -0.641718       -17.4620
  73   2.0000      -0.636358       -17.3162
  74   2.0000      -0.624937       -17.0054
  75   2.0000      -0.620480       -16.8841
  76   2.0000      -0.617289       -16.7973
  77   2.0000      -0.598130       -16.2759
  78   2.0000      -0.597923       -16.2703
  79   2.0000      -0.592851       -16.1323
  80   2.0000      -0.584808       -15.9134
  81   2.0000      -0.583345       -15.8736
  82   2.0000      -0.577995       -15.7280
  83   2.0000      -0.575653       -15.6643
  84   2.0000      -0.563165       -15.3245
  85   2.0000      -0.553614       -15.0646
  86   2.0000      -0.540377       -14.7044
  87   2.0000      -0.526892       -14.3375
  88   2.0000      -0.517492       -14.0817
  89   2.0000      -0.504174       -13.7193
  90   2.0000      -0.502406       -13.6712
  91   2.0000      -0.495156       -13.4739
  92   2.0000      -0.492869       -13.4117
  93   2.0000      -0.486727       -13.2445
  94   2.0000      -0.480278       -13.0690
  95   2.0000      -0.478617       -13.0238
  96   2.0000      -0.473188       -12.8761
  97   2.0000      -0.471639       -12.8339
  98   2.0000      -0.470072       -12.7913
  99   2.0000      -0.466429       -12.6922
 100   2.0000      -0.464296       -12.6341
 101   2.0000      -0.461718       -12.5640
 102   2.0000      -0.455078       -12.3833
 103   2.0000      -0.452522       -12.3137
 104   2.0000      -0.451093       -12.2749
 105   2.0000      -0.447098       -12.1662
 106   2.0000      -0.446707       -12.1555
 107   2.0000      -0.438663       -11.9366
 108   2.0000      -0.436215       -11.8700
 109   2.0000      -0.432113       -11.7584
 110   2.0000      -0.429892       -11.6979
 111   2.0000      -0.426911       -11.6168
 112   2.0000      -0.425023       -11.5655
 113   2.0000      -0.418838       -11.3971
 114   2.0000      -0.417942       -11.3728
 115   2.0000      -0.408616       -11.1190
 116   2.0000      -0.408396       -11.1130
 117   2.0000      -0.402380       -10.9493
 118   2.0000      -0.396120       -10.7790
 119   2.0000      -0.390470       -10.6252
 120   2.0000      -0.388357       -10.5677
 121   2.0000      -0.381803       -10.3894
 122   2.0000      -0.378866       -10.3095
 123   2.0000      -0.375460       -10.2168
 124   2.0000      -0.372492       -10.1360
 125   2.0000      -0.366829        -9.9819
 126   2.0000      -0.365900        -9.9566
 127   2.0000      -0.360422        -9.8076
 128   2.0000      -0.352122        -9.5817
 129   2.0000      -0.348220        -9.4755
 130   2.0000      -0.345602        -9.4043
 131   2.0000      -0.342760        -9.3270
 132   2.0000      -0.327034        -8.8991
 133   2.0000      -0.325196        -8.8490
 134   2.0000      -0.312461        -8.5025
 135   2.0000      -0.309090        -8.4108
 136   2.0000      -0.299239        -8.1427
 137   2.0000      -0.291768        -7.9394
 138   2.0000      -0.288261        -7.8440
 139   2.0000      -0.284737        -7.7481
 140   2.0000      -0.283305        -7.7091
 141   2.0000      -0.282460        -7.6861
 142   2.0000      -0.279222        -7.5980
 143   2.0000      -0.269878        -7.3438
 144   2.0000      -0.268201        -7.2981
 145   2.0000      -0.266167        -7.2428
 146   2.0000      -0.262982        -7.1561
 147   2.0000      -0.250399        -6.8137
 148   2.0000      -0.242360        -6.5950
 149   2.0000      -0.239927        -6.5287
 150   2.0000      -0.210850        -5.7375
 151   0.0000      -0.088928        -2.4199
 152   0.0000      -0.056664        -1.5419
 153   0.0000      -0.037236        -1.0132
 154   0.0000      -0.029045        -0.7903
 155   0.0000      -0.016767        -0.4562

MULLIKEN ATOMIC CHARGES
-----------------------
   0 O :   -0.441855
   1 C :    0.528368
   2 O :   -0.622995
   3 C :    0.083950
   4 C :   -0.148272
   5 C :   -0.158312
   6 C :   -0.124115
   7 S :    1.228900
   8 O :   -0.536629
   9 O :   -0.555903
  10 N :   -0.603162
  11 C :   -0.256054
  12 C :    0.168996
  13 C :   -0.177914
  14 C :   -0.191437
  15 C :    0.353571
  16 O :   -0.544965
  17 C :    1.086187
  18 F :   -0.291345
  19 F :   -0.290720
  20 F :   -0.278876
  21 C :   -0.172802
  22 C :   -0.162762
  23 C :    0.346266
  24 N :   -0.438511
  25 C :    0.165093
  26 C :   -0.166958
  27 C :   -0.303171
  28 C :   -0.300647
  29 C :    0.107080
  30 C :   -0.202942
  31 C :   -0.124122
  32 C :   -0.121329
  33 C :   -0.188453
  34 C :    0.116906
  35 C :    0.068464
  36 C :   -0.194557
  37 C :   -0.312375
  38 C :   -0.314977
  39 C :   -0.133971
  40 C :   -0.141489
  41 H :    0.435896
  42 H :    0.175363
  43 H :    0.184437
  44 H :    0.195473
  45 H :    0.164975
  46 H :    0.157486
  47 H :    0.154415
  48 H :    0.148918
  49 H :    0.135684
  50 H :    0.156268
  51 H :    0.165451
  52 H :    0.143878
  53 H :    0.141564
  54 H :    0.179362
  55 H :    0.144237
  56 H :    0.131375
  57 H :    0.133705
  58 H :    0.148387
  59 H :    0.177312
  60 H :    0.174134
  61 H :    0.136483
  62 H :    0.140192
  63 H :    0.156714
  64 H :    0.184082
  65 H :    0.182049
Sum of atomic charges:    0.0000000

LOEWDIN ATOMIC CHARGES
----------------------
   0 O :   -0.258096
   1 C :    0.179560
   2 O :   -0.333754
   3 C :   -0.037183
   4 C :   -0.102351
   5 C :   -0.109814
   6 C :   -0.168621
   7 S :    1.266173
   8 O :   -0.570451
   9 O :   -0.569282
  10 N :   -0.269873
  11 C :   -0.149617
  12 C :   -0.036770
  13 C :   -0.123868
  14 C :   -0.160083
  15 C :    0.085949
  16 O :   -0.159477
  17 C :    0.359174
  18 F :   -0.104712
  19 F :   -0.104409
  20 F :   -0.087364
  21 C :   -0.140476
  22 C :   -0.120508
  23 C :    0.043501
  24 N :   -0.136833
  25 C :    0.045693
  26 C :   -0.146480
  27 C :   -0.251207
  28 C :   -0.242532
  29 C :   -0.029075
  30 C :   -0.114691
  31 C :   -0.128548
  32 C :   -0.120196
  33 C :   -0.117182
  34 C :    0.000641
  35 C :   -0.009270
  36 C :   -0.145113
  37 C :   -0.253314
  38 C :   -0.258645
  39 C :   -0.095002
  40 C :   -0.087064
  41 H :    0.351037
  42 H :    0.155840
  43 H :    0.156942
  44 H :    0.148032
  45 H :    0.138020
  46 H :    0.145613
  47 H :    0.142900
  48 H :    0.145216
  49 H :    0.137042
  50 H :    0.137799
  51 H :    0.139510
  52 H :    0.128997
  53 H :    0.130426
  54 H :    0.149289
  55 H :    0.142052
  56 H :    0.133335
  57 H :    0.134600
  58 H :    0.144366
  59 H :    0.142683
  60 H :    0.147366
  61 H :    0.126949
  62 H :    0.127075
  63 H :    0.134933
  64 H :    0.159998
  65 H :    0.161151

  Mayer bond orders larger than 0.100000
B(  0-O ,  1-C ) :   1.8647 B(  1-C ,  2-O ) :   1.0272 B(  1-C ,  3-C ) :   1.0055
B(  2-O , 41-H ) :   0.7406 B(  3-C ,  4-C ) :   1.3868 B(  3-C , 40-C ) :   1.4015
B(  4-C ,  5-C ) :   1.4095 B(  4-C , 42-H ) :   0.9142 B(  5-C ,  6-C ) :   1.3903
B(  5-C , 43-H ) :   0.9084 B(  6-C ,  7-S ) :   0.8137 B(  6-C , 39-C ) :   1.3929
B(  7-S ,  8-O ) :   1.6542 B(  7-S ,  9-O ) :   1.5906 B(  7-S , 10-N ) :   0.8080
B( 10-N , 11-C ) :   0.9164 B( 10-N , 23-C ) :   0.8933 B( 11-C , 12-C ) :   0.9438
B( 11-C , 44-H ) :   0.9078 B( 11-C , 45-H ) :   0.9210 B( 12-C , 13-C ) :   1.4334
B( 12-C , 22-C ) :   1.4264 B( 13-C , 14-C ) :   1.4209 B( 13-C , 46-H ) :   0.9140
B( 14-C , 15-C ) :   1.3918 B( 14-C , 47-H ) :   0.9094 B( 15-C , 16-O ) :   0.8257
B( 15-C , 21-C ) :   1.4157 B( 16-O , 17-C ) :   0.9902 B( 17-C , 18-F ) :   0.9701
B( 17-C , 19-F ) :   0.9679 B( 17-C , 20-F ) :   1.0083 B( 21-C , 22-C ) :   1.4408
B( 21-C , 48-H ) :   0.9182 B( 22-C , 49-H ) :   0.9163 B( 23-C , 24-N ) :   1.2700
B( 23-C , 35-C ) :   1.4136 B( 24-N , 25-C ) :   1.4404 B( 25-C , 26-C ) :   1.0232
B( 25-C , 29-C ) :   1.2300 B( 26-C , 27-C ) :   0.9258 B( 26-C , 28-C ) :   0.9502
B( 26-C , 50-H ) :   0.9217 B( 27-C , 28-C ) :   0.9651 B( 27-C , 51-H ) :   0.9420
B( 27-C , 52-H ) :   0.9432 B( 28-C , 53-H ) :   0.9441 B( 28-C , 54-H ) :   0.9330
B( 29-C , 30-C ) :   1.3023 B( 29-C , 34-C ) :   1.2719 B( 30-C , 31-C ) :   1.5051
B( 30-C , 33-C ) :   0.1049 B( 30-C , 55-H ) :   0.9125 B( 31-C , 32-C ) :   1.3521
B( 31-C , 56-H ) :   0.9301 B( 32-C , 33-C ) :   1.5072 B( 32-C , 57-H ) :   0.9297
B( 33-C , 34-C ) :   1.2955 B( 33-C , 58-H ) :   0.9109 B( 34-C , 35-C ) :   1.2589
B( 35-C , 36-C ) :   1.0304 B( 36-C , 37-C ) :   0.9305 B( 36-C , 38-C ) :   0.9202
B( 36-C , 59-H ) :   0.9023 B( 37-C , 38-C ) :   0.9556 B( 37-C , 60-H ) :   0.9293
B( 37-C , 61-H ) :   0.9399 B( 38-C , 62-H ) :   0.9445 B( 38-C , 63-H ) :   0.9428
B( 39-C , 40-C ) :   1.4156 B( 39-C , 64-H ) :   0.9051 B( 40-C , 65-H ) :   0.9090

FINAL SINGLE POINT ENERGY     -2340.245543972668

DIPOLE MOMENT
-------------

Method             : SCF
Type of density    : Electron Density
Multiplicity       :   1
Irrep              :   0
Energy             : -2340.2455439726677469 Eh
Relativity type    :
Basis              : AO
                                X                 Y                 Z
Electronic contribution:     39.104962428      -5.902843203       0.797257576
Nuclear contribution   :    -38.167950698       5.404787188      -0.722874822
                        -----------------------------------------
Total Dipole Moment    :      0.937011730      -0.498056015       0.074382754
                        -----------------------------------------
Magnitude (a.u.)       :      1.063759169
Magnitude (Debye)      :      2.703860929

Rotational constants in cm-1:             0.002678             0.002122             0.001468
Rotational constants in MHz :            80.281810            63.626619            44.016057

                             ****ORCA TERMINATED NORMALLY****
TOTAL RUN TIME: 0 days 0 hours 13 minutes 4 seconds 284 msec
