                         Program Version 6.0.0  -   RELEASE  -
|  1> ! B3LYP def2-TZVP SP
|  2>
|  3> * xyz 0 1
|  4> C -2.7572 -0.2638 -3.5221
|  5> N -3.0977 0.1180 -2.1504
|  6> C -2.3455 1.1453 -1.4529
|  7> O -1.4397 1.7947 -2.0405
|  8> C -2.6653 1.4043 -0.0316
|  9> C -3.6308 0.7001 0.6122
| 10> N -3.7012 1.0306 1.9137
| 11> C -2.7357 1.9795 2.0258
| 12> N -2.0895 2.2309 0.8587
| 13> C -0.9474 3.1244 0.6727
| 14> C 0.3295 2.3400 0.6847
| 15> O 1.0248 2.2738 -0.3647
| 16> N 0.7455 1.6689 1.8839
| 17> C 1.8837 0.8014 1.9569
| 18> N 2.6734 0.4959 0.9057
| 19> C 3.6744 -0.3639 1.2464
| 20> C 4.6674 -0.8293 0.2427
| 21> C 4.7440 -0.1938 -1.0121
| 22> C 5.6696 -0.6180 -1.9700
| 23> C 6.5282 -1.6839 -1.6920
| 24> Br 7.7905 -2.2626 -3.0034
| 25> C 6.4595 -2.3282 -0.4545
| 26> C 5.5368 -1.9070 0.5079
| 27> C 3.6739 -0.7415 2.5945
| 28> S 2.3835 0.0237 3.3566
| 29> N -4.3843 -0.3022 -0.0587
| 30> C -5.2834 -1.3036 0.4680
| 31> C -5.5479 -2.2023 -0.7610
| 32> N -4.6930 -1.6759 -1.8292
| 33> C -4.0849 -0.6264 -1.3975
| 34> H -2.4059 0.6184 -4.0981
| 35> H -3.6474 -0.6721 -4.0458
| 36> H -1.9572 -1.0334 -3.5058
| 37> H -2.4947 2.4683 2.9610
| 38> H -0.9177 3.8763 1.4905
| 39> H -1.0564 3.6819 -0.2823
| 40> H 0.1800 1.8047 2.7518
| 41> H 4.0937 0.6377 -1.2533
| 42> H 5.7182 -0.1169 -2.9284
| 43> H 7.1196 -3.1584 -0.2378
| 44> H 5.5010 -2.4401 1.4473
| 45> H 4.3794 -1.3934 3.0889
| 46> H -4.7846 -1.8762 1.2797
| 47> H -6.2181 -0.8280 0.8348
| 48> H -6.6132 -2.1392 -1.0704
| 49> H -5.2782 -3.2587 -0.5470
| 50> *
| 51>
| 52>                          ****END OF INPUT****

CARTESIAN COORDINATES (ANGSTROEM)
---------------------------------
  C     -2.757200   -0.263800   -3.522100
  N     -3.097700    0.118000   -2.150400
  C     -2.345500    1.145300   -1.452900
  O     -1.439700    1.794700   -2.040500
  C     -2.665300    1.404300   -0.031600
  C     -3.630800    0.700100    0.612200
  N     -3.701200    1.030600    1.913700
  C     -2.735700    1.979500    2.025800
  N     -2.089500    2.230900    0.858700
  C     -0.947400    3.124400    0.672700
  C      0.329500    2.340000    0.684700
  O      1.024800    2.273800   -0.364700
  N      0.745500    1.668900    1.883900
  C      1.883700    0.801400    1.956900
  N      2.673400    0.495900    0.905700
  C      3.674400   -0.363900    1.246400
  C      4.667400   -0.829300    0.242700
  C      4.744000   -0.193800   -1.012100
  C      5.669600   -0.618000   -1.970000
  C      6.528200   -1.683900   -1.692000
  Br     7.790500   -2.262600   -3.003400
  C      6.459500   -2.328200   -0.454500
  C      5.536800   -1.907000    0.507900
  C      3.673900   -0.741500    2.594500
  S      2.383500    0.023700    3.356600
  N     -4.384300   -0.302200   -0.058700
  C     -5.283400   -1.303600    0.468000
  C     -5.547900   -2.202300   -0.761000
  N     -4.693000   -1.675900   -1.829200
  C     -4.084900   -0.626400   -1.397500
  H     -2.405900    0.618400   -4.098100
  H     -3.647400   -0.672100   -4.045800
  H     -1.957200   -1.033400   -3.505800
  H     -2.494700    2.468300    2.961000
  H     -0.917700    3.876300    1.490500
  H     -1.056400    3.681900   -0.282300
  H      0.180000    1.804700    2.751800
  H      4.093700    0.637700   -1.253300
  H      5.718200   -0.116900   -2.928400
  H      7.119600   -3.158400   -0.237800
  H      5.501000   -2.440100    1.447300
  H      4.379400   -1.393400    3.088900
  H     -4.784600   -1.876200    1.279700
  H     -6.218100   -0.828000    0.834800
  H     -6.613200   -2.139200   -1.070400
  H     -5.278200   -3.258700   -0.547000

 Total Charge           Charge          ....    0
 Multiplicity           Mult            ....    1
 Number of Electrons    NEL             ....  246
 Basis Dimension        Dim             .... 1049

ORBITAL ENERGIES
----------------

  NO   OCC          E(Eh)            E(eV)
   0   2.0000    -482.854943    -13139.1510
   1   2.0000     -88.910678     -2419.3825
   2   2.0000     -62.502234     -1700.7723
   3   2.0000     -56.317709     -1532.4828
   4   2.0000     -56.315254     -1532.4160
   5   2.0000     -56.315226     -1532.4152
   6   2.0000     -19.114497      -520.1319
   7   2.0000     -19.100321      -519.7462
   8   2.0000     -14.417251      -392.3133
   9   2.0000     -14.397849      -391.7854
  10   2.0000     -14.379779      -391.2937
  11   2.0000     -14.369241      -391.0069
  12   2.0000     -14.330320      -389.9478
  13   2.0000     -14.320862      -389.6905
  14   2.0000     -14.284713      -388.7068
  15   2.0000     -10.309785      -280.5435
  16   2.0000     -10.300121      -280.2805
  17   2.0000     -10.291588      -280.0483
  18   2.0000     -10.284999      -279.8691
  19   2.0000     -10.263386      -279.2809
  20   2.0000     -10.263322      -279.2792
  21   2.0000     -10.255956      -279.0787
  22   2.0000     -10.231480      -278.4127
  23   2.0000     -10.226526      -278.2779
  24   2.0000     -10.223235      -278.1884
  25   2.0000     -10.220991      -278.1273
  26   2.0000     -10.209487      -277.8143
  27   2.0000     -10.208467      -277.7865
  28   2.0000     -10.205945      -277.7179
  29   2.0000     -10.198958      -277.5277
  30   2.0000     -10.190195      -277.2893
  31   2.0000     -10.188961      -277.2557
  32   2.0000     -10.185569      -277.1634
  33   2.0000     -10.182000      -277.0663
  34   2.0000      -8.693059      -236.5502
  35   2.0000      -7.988088      -217.3669
  36   2.0000      -6.522450      -177.4849
  37   2.0000      -6.511705      -177.1925
  38   2.0000      -6.511330      -177.1823
  39   2.0000      -5.950172      -161.9124
  40   2.0000      -5.946301      -161.8071
  41   2.0000      -5.945318      -161.7803
  42   2.0000      -2.637083       -71.7587
  43   2.0000      -2.634096       -71.6774
  44   2.0000      -2.633847       -71.6706
  45   2.0000      -2.624951       -71.4285
  46   2.0000      -2.624945       -71.4284
  47   2.0000      -1.071061       -29.1451
  48   2.0000      -1.039483       -28.2858
  49   2.0000      -1.028954       -27.9993
  50   2.0000      -1.010636       -27.5008
  51   2.0000      -0.986296       -26.8385
  52   2.0000      -0.937734       -25.5170
  53   2.0000      -0.930424       -25.3181
  54   2.0000      -0.923552       -25.1311
  55   2.0000      -0.879277       -23.9263
  56   2.0000      -0.873908       -23.7803
  57   2.0000      -0.822729       -22.3876
  58   2.0000      -0.810928       -22.0665
  59   2.0000      -0.803816       -21.8729
  60   2.0000      -0.775947       -21.1146
  61   2.0000      -0.760534       -20.6952
  62   2.0000      -0.756748       -20.5922
  63   2.0000      -0.750899       -20.4330
  64   2.0000      -0.715187       -19.4612
  65   2.0000      -0.712926       -19.3997
  66   2.0000      -0.663002       -18.0412
  67   2.0000      -0.651411       -17.7258
  68   2.0000      -0.637545       -17.3485
  69   2.0000      -0.632754       -17.2181
  70   2.0000      -0.615140       -16.7388
  71   2.0000      -0.611000       -16.6261
  72   2.0000      -0.604027       -16.4364
  73   2.0000      -0.599961       -16.3258
  74   2.0000      -0.586776       -15.9670
  75   2.0000      -0.560330       -15.2473
  76   2.0000      -0.550307       -14.9746
  77   2.0000      -0.538844       -14.6627
  78   2.0000      -0.524874       -14.2825
  79   2.0000      -0.510711       -13.8971
  80   2.0000      -0.506112       -13.7720
  81   2.0000      -0.503447       -13.6995
  82   2.0000      -0.489190       -13.3115
  83   2.0000      -0.474230       -12.9045
  84   2.0000      -0.466409       -12.6916
  85   2.0000      -0.465642       -12.6708
  86   2.0000      -0.463509       -12.6127
  87   2.0000      -0.462835       -12.5944
  88   2.0000      -0.458800       -12.4846
  89   2.0000      -0.456493       -12.4218
  90   2.0000      -0.450977       -12.2717
  91   2.0000      -0.440177       -11.9778
  92   2.0000      -0.430334       -11.7100
  93   2.0000      -0.428641       -11.6639
  94   2.0000      -0.423790       -11.5319
  95   2.0000      -0.419390       -11.4122
  96   2.0000      -0.416776       -11.3410
  97   2.0000      -0.403597       -10.9824
  98   2.0000      -0.398657       -10.8480
  99   2.0000      -0.394875       -10.7451
 100   2.0000      -0.388211       -10.5638
 101   2.0000      -0.386647       -10.5212
 102   2.0000      -0.385664       -10.4944
 103   2.0000      -0.385316       -10.4850
 104   2.0000      -0.372880       -10.1466
 105   2.0000      -0.359071        -9.7708
 106   2.0000      -0.354769        -9.6538
 107   2.0000      -0.336281        -9.1507
 108   2.0000      -0.324928        -8.8417
 109   2.0000      -0.318382        -8.6636
 110   2.0000      -0.314130        -8.5479
 111   2.0000      -0.297369        -8.0918
 112   2.0000      -0.295413        -8.0386
 113   2.0000      -0.288959        -7.8630
 114   2.0000      -0.285706        -7.7745
 115   2.0000      -0.273317        -7.4373
 116   2.0000      -0.266067        -7.2401
 117   2.0000      -0.265244        -7.2177
 118   2.0000      -0.257272        -7.0007
 119   2.0000      -0.255794        -6.9605
 120   2.0000      -0.254029        -6.9125
 121   2.0000      -0.222015        -6.0413
 122   2.0000      -0.208449        -5.6722
 123   0.0000      -0.060292        -1.6406
 124   0.0000      -0.051504        -1.4015
 125   0.0000      -0.042381        -1.1532
 126   0.0000      -0.023619        -0.6427
 127   0.0000      -0.016070        -0.4373

MULLIKEN ATOMIC CHARGES
-----------------------
   0 C :   -0.256788
   1 N :   -0.075559
   2 C :    0.261623
   3 O :   -0.379614
   4 C :   -0.062445
   5 C :    0.132394
   6 N :   -0.271570
   7 C :   -0.010316
   8 N :   -0.030861
   9 C :   -0.147361
  10 C :    0.266914
  11 O :   -0.287205
  12 N :   -0.293572
  13 C :    0.202477
  14 N :   -0.213135
  15 C :    0.143190
  16 C :    0.141399
  17 C :   -0.221779
  18 C :   -0.124433
  19 C :    0.099304
  20 Br:   -0.085561
  21 C :   -0.153901
  22 C :   -0.180628
  23 C :   -0.226206
  24 S :    0.030932
  25 N :   -0.106637
  26 C :   -0.121073
  27 C :   -0.029897
  28 N :   -0.296417
  29 C :    0.137444
  30 H :    0.152201
  31 H :    0.150082
  32 H :    0.126360
  33 H :    0.147706
  34 H :    0.155436
  35 H :    0.159171
  36 H :    0.225726
  37 H :    0.166998
  38 H :    0.126913
  39 H :    0.120601
  40 H :    0.100860
  41 H :    0.144010
  42 H :    0.096866
  43 H :    0.105286
  44 H :    0.087428
  45 H :    0.093639
Sum of atomic charges:   -0.0000000

LOEWDIN ATOMIC CHARGES
----------------------
   0 C :   -0.269712
   1 N :    0.212106
   2 C :   -0.305576
   3 O :    0.044882
   4 C :   -0.189432
   5 C :   -0.250667
   6 N :    0.114057
   7 C :   -0.248923
   8 N :    0.290956
   9 C :   -0.187525
  10 C :   -0.363530
  11 O :    0.102198
  12 N :    0.117055
  13 C :   -0.508250
  14 N :    0.144470
  15 C :   -0.234380
  16 C :   -0.102230
  17 C :   -0.074299
  18 C :   -0.136270
  19 C :   -0.367316
  20 Br:    0.327044
  21 C :   -0.142302
  22 C :   -0.093625
  23 C :   -0.399528
  24 S :    0.747885
  25 N :    0.238812
  26 C :   -0.233603
  27 C :   -0.269965
  28 N :    0.044679
  29 C :   -0.301058
  30 H :    0.131893
  31 H :    0.131489
  32 H :    0.123983
  33 H :    0.131653
  34 H :    0.153345
  35 H :    0.172444
  36 H :    0.195677
  37 H :    0.160415
  38 H :    0.147722
  39 H :    0.145963
  40 H :    0.143917
  41 H :    0.131014
  42 H :    0.132788
  43 H :    0.133616
  44 H :    0.128459
  45 H :    0.129670

  Mayer bond orders larger than 0.100000
B(  0-C ,  1-N ) :   0.9056 B(  0-C , 30-H ) :   0.9570 B(  0-C , 31-H ) :   0.9564
B(  0-C , 32-H ) :   0.9667 B(  1-N ,  2-C ) :   1.1469 B(  1-N , 29-C ) :   1.1071
B(  2-C ,  3-O ) :   1.9439 B(  2-C ,  4-C ) :   1.0269 B(  4-C ,  5-C ) :   1.4267
B(  4-C ,  8-N ) :   1.1690 B(  5-C ,  6-N ) :   1.4366 B(  5-C , 25-N ) :   1.1260
B(  6-N ,  7-C ) :   1.5554 B(  7-C ,  8-N ) :   1.2604 B(  7-C , 33-H ) :   0.9544
B(  8-N ,  9-C ) :   0.8863 B(  9-C , 10-C ) :   0.9340 B(  9-C , 34-H ) :   0.9537
B(  9-C , 35-H ) :   0.9494 B( 10-C , 11-O ) :   2.0761 B( 10-C , 12-N ) :   1.0566
B( 12-N , 13-C ) :   1.0603 B( 12-N , 36-H ) :   0.9009 B( 13-C , 14-N ) :   1.5362
B( 13-C , 24-S ) :   1.3169 B( 14-N , 15-C ) :   1.3669 B( 14-N , 16-C ) :  -0.1033
B( 15-C , 16-C ) :   0.9486 B( 15-C , 23-C ) :   1.5417 B( 16-C , 17-C ) :   1.3787
B( 16-C , 22-C ) :   1.3368 B( 17-C , 18-C ) :   1.3905 B( 17-C , 37-H ) :   0.9449
B( 18-C , 19-C ) :   1.3310 B( 18-C , 38-H ) :   0.9788 B( 19-C , 20-Br) :   1.0231
B( 19-C , 21-C ) :   1.3450 B( 21-C , 22-C ) :   1.4419 B( 21-C , 39-H ) :   0.9738
B( 22-C , 40-H ) :   0.9565 B( 23-C , 24-S ) :   1.2817 B( 23-C , 41-H ) :   0.9195
B( 25-N , 26-C ) :   0.9286 B( 25-N , 29-C ) :   1.1038 B( 26-C , 27-C ) :   0.9884
B( 26-C , 42-H ) :   0.9522 B( 26-C , 43-H ) :   0.9590 B( 27-C , 28-N ) :   1.0183
B( 27-C , 44-H ) :   0.9547 B( 27-C , 45-H ) :   0.9581 B( 28-N , 29-C ) :   1.8728

FINAL SINGLE POINT ENERGY     -4239.290034322722

DIPOLE MOMENT
-------------

Method             : SCF
Type of density    : Electron Density
Multiplicity       :   1
Irrep              :   0
Energy             : -4239.2900343227220219 Eh
Relativity type    :
Basis              : AO
                                X                 Y                 Z
Electronic contribution:     87.006784705     -18.076506105     -23.402508115
Nuclear contribution   :    -87.918496611      18.534047978      25.905509090
                        -----------------------------------------
Total Dipole Moment    :     -0.911711906       0.457541873       2.503000976
                        -----------------------------------------
Magnitude (a.u.)       :      2.702883100
Magnitude (Debye)      :      6.870182857

Rotational constants in cm-1:             0.006256             0.001539             0.001377
Rotational constants in MHz :           187.538933            46.137096            41.268474

                             ****ORCA TERMINATED NORMALLY****
TOTAL RUN TIME: 0 days 0 hours 16 minutes 40 seconds 851 msec
