                         Program Version 6.0.0  -   RELEASE  -
|  1> ! B3LYP 6-31G* SP
|  2>
|  3> * xyz 0 1
|  4> C -0.2398 2.3788 2.1357
|  5> C -0.1730 2.1550 0.6412
|  6> C -0.4114 0.8729 0.0907
|  7> N -0.7338 -0.2502 0.9276
|  8> C 0.1846 -1.3928 1.0637
|  9> C 0.1959 -2.2721 -0.2100
| 10> C 1.5733 -2.0936 -0.8776
| 11> C 2.3554 -1.3206 0.1155
| 12> C 3.7021 -0.9647 0.0208
| 13> C 4.2906 -0.2182 1.0562
| 14> O 5.6465 0.1261 0.9350
| 15> C 6.3907 0.8842 1.8863
| 16> F 5.8330 2.1416 2.0352
| 17> F 7.6884 1.0228 1.4324
| 18> F 6.4128 0.2301 3.1052
| 19> C 3.5038 0.1552 2.1744
| 20> C 2.1527 -0.2137 2.2452
| 21> C 1.5974 -0.9457 1.1947
| 22> S -2.3800 -0.4417 1.4447
| 23> O -2.4075 -0.9371 2.8638
| 24> O -3.0962 0.8794 1.3924
| 25> C -3.1877 -1.5815 0.3766
| 26> C -3.5856 -1.1725 -0.9013
| 27> C -4.1895 -2.0803 -1.7754
| 28> C -4.4008 -3.4143 -1.3828
| 29> C -5.0395 -4.3799 -2.3038
| 30> O -5.3763 -4.0266 -3.4663
| 31> O -5.2779 -5.6889 -1.8941
| 32> C -3.9908 -3.8202 -0.1006
| 33> C -3.3849 -2.9104 0.7709
| 34> N -0.3320 0.6838 -1.2526
| 35> C -0.0310 1.6841 -2.1141
| 36> C 0.2136 2.9727 -1.6343
| 37> C 0.5256 4.0115 -2.5248
| 38> C 0.7723 5.2976 -2.0435
| 39> C 0.7119 5.5557 -0.6744
| 40> C 0.4012 4.5309 0.2236
| 41> C 0.1458 3.2211 -0.2404
| 42> H 0.7415 2.7461 2.5028
| 43> H -1.0275 3.1266 2.3666
| 44> H -0.4791 1.4579 2.7026
| 45> H -0.0899 -2.0045 1.9510
| 46> H 0.0603 -3.3379 0.0775
| 47> H -0.6192 -2.0035 -0.9153
| 48> H 1.4828 -1.5125 -1.8206
| 49> H 2.0534 -3.0762 -1.0759
| 50> H 4.2859 -1.2611 -0.8417
| 51> H 3.9229 0.7278 2.9895
| 52> H 1.5515 0.0693 3.0991
| 53> H -3.4195 -0.1525 -1.2242
| 54> H -4.4880 -1.7383 -2.7584
| 55> H -5.7154 -6.3577 -2.5166
| 56> H -4.1323 -4.8421 0.2284
| 57> H -3.0629 -3.2466 1.7481
| 58> H 0.0156 1.4690 -3.1744
| 59> H 0.5785 3.8286 -3.5917
| 60> H 1.0122 6.0961 -2.7338
| 61> H 0.9049 6.5552 -0.3059
| 62> H 0.3644 4.7779 1.2756
| 63> *
| 64>
| 65>                          ****END OF INPUT****

CARTESIAN COORDINATES (ANGSTROEM)
---------------------------------
  C     -0.239800    2.378800    2.135700
  C     -0.173000    2.155000    0.641200
  C     -0.411400    0.872900    0.090700
  N     -0.733800   -0.250200    0.927600
  C      0.184600   -1.392800    1.063700
  C      0.195900   -2.272100   -0.210000
  C      1.573300   -2.093600   -0.877600
  C      2.355400   -1.320600    0.115500
  C      3.702100   -0.964700    0.020800
  C      4.290600   -0.218200    1.056200
  O      5.646500    0.126100    0.935000
  C      6.390700    0.884200    1.886300
  F      5.833000    2.141600    2.035200
  F      7.688400    1.022800    1.432400
  F      6.412800    0.230100    3.105200
  C      3.503800    0.155200    2.174400
  C      2.152700   -0.213700    2.245200
  C      1.597400   -0.945700    1.194700
  S     -2.380000   -0.441700    1.444700
  O     -2.407500   -0.937100    2.863800
  O     -3.096200    0.879400    1.392400
  C     -3.187700   -1.581500    0.376600
  C     -3.585600   -1.172500   -0.901300
  C     -4.189500   -2.080300   -1.775400
  C     -4.400800   -3.414300   -1.382800
  C     -5.039500   -4.379900   -2.303800
  O     -5.376300   -4.026600   -3.466300
  O     -5.277900   -5.688900   -1.894100
  C     -3.990800   -3.820200   -0.100600
  C     -3.384900   -2.910400    0.770900
  N     -0.332000    0.683800   -1.252600
  C     -0.031000    1.684100   -2.114100
  C      0.213600    2.972700   -1.634300
  C      0.525600    4.011500   -2.524800
  C      0.772300    5.297600   -2.043500
  C      0.711900    5.555700   -0.674400
  C      0.401200    4.530900    0.223600
  C      0.145800    3.221100   -0.240400
  H      0.741500    2.746100    2.502800
  H     -1.027500    3.126600    2.366600
  H     -0.479100    1.457900    2.702600
  H     -0.089900   -2.004500    1.951000
  H      0.060300   -3.337900    0.077500
  H     -0.619200   -2.003500   -0.915300
  H      1.482800   -1.512500   -1.820600
  H      2.053400   -3.076200   -1.075900
  H      4.285900   -1.261100   -0.841700
  H      3.922900    0.727800    2.989500
  H      1.551500    0.069300    3.099100
  H     -3.419500   -0.152500   -1.224200
  H     -4.488000   -1.738300   -2.758400
  H     -5.715400   -6.357700   -2.516600
  H     -4.132300   -4.842100    0.228400
  H     -3.062900   -3.246600    1.748100
  H      0.015600    1.469000   -3.174400
  H      0.578500    3.828600   -3.591700
  H      1.012200    6.096100   -2.733800
  H      0.904900    6.555200   -0.305900
  H      0.364400    4.777900    1.275600

 Total Charge           Charge          ....    0
 Multiplicity           Mult            ....    1
 Number of Electrons    NEL             ....  280
 Basis Dimension        Dim             ....  578

ORBITAL ENERGIES
----------------

  NO   OCC          E(Eh)            E(eV)
   0   2.0000     -89.095088     -2424.4006
   1   2.0000     -24.740837      -673.2324
   2   2.0000     -24.738542      -673.1699
   3   2.0000     -24.738336      -673.1644
   4   2.0000     -19.212363      -522.7950
   5   2.0000     -19.195244      -522.3291
   6   2.0000     -19.136678      -520.7355
   7   2.0000     -19.126612      -520.4616
   8   2.0000     -19.125488      -520.4310
   9   2.0000     -14.368483      -390.9863
  10   2.0000     -14.334617      -390.0648
  11   2.0000     -10.503379      -285.8115
  12   2.0000     -10.334048      -281.2037
  13   2.0000     -10.269352      -279.4433
  14   2.0000     -10.258918      -279.1594
  15   2.0000     -10.238732      -278.6101
  16   2.0000     -10.231959      -278.4258
  17   2.0000     -10.229796      -278.3669
  18   2.0000     -10.226734      -278.2836
  19   2.0000     -10.217464      -278.0313
  20   2.0000     -10.217176      -278.0235
  21   2.0000     -10.215303      -277.9725
  22   2.0000     -10.215035      -277.9652
  23   2.0000     -10.210028      -277.8290
  24   2.0000     -10.206582      -277.7352
  25   2.0000     -10.201548      -277.5982
  26   2.0000     -10.198655      -277.5195
  27   2.0000     -10.198337      -277.5108
  28   2.0000     -10.196880      -277.4712
  29   2.0000     -10.196286      -277.4550
  30   2.0000     -10.194911      -277.4176
  31   2.0000     -10.194411      -277.4040
  32   2.0000     -10.192684      -277.3570
  33   2.0000     -10.192146      -277.3424
  34   2.0000     -10.185068      -277.1498
  35   2.0000     -10.181479      -277.0521
  36   2.0000     -10.176993      -276.9301
  37   2.0000     -10.175453      -276.8881
  38   2.0000      -8.131052      -221.2572
  39   2.0000      -6.095953      -165.8793
  40   2.0000      -6.094156      -165.8304
  41   2.0000      -6.093706      -165.8182
  42   2.0000      -1.303533       -35.4709
  43   2.0000      -1.224287       -33.3146
  44   2.0000      -1.223891       -33.3038
  45   2.0000      -1.083220       -29.4759
  46   2.0000      -1.081967       -29.4418
  47   2.0000      -1.079908       -29.3858
  48   2.0000      -0.993910       -27.0457
  49   2.0000      -0.964640       -26.2492
  50   2.0000      -0.961539       -26.1648
  51   2.0000      -0.917560       -24.9681
  52   2.0000      -0.888213       -24.1695
  53   2.0000      -0.876214       -23.8430
  54   2.0000      -0.864429       -23.5223
  55   2.0000      -0.818493       -22.2723
  56   2.0000      -0.808275       -21.9943
  57   2.0000      -0.800943       -21.7948
  58   2.0000      -0.777231       -21.1495
  59   2.0000      -0.774071       -21.0635
  60   2.0000      -0.770133       -20.9564
  61   2.0000      -0.745604       -20.2889
  62   2.0000      -0.735064       -20.0021
  63   2.0000      -0.716552       -19.4984
  64   2.0000      -0.706872       -19.2350
  65   2.0000      -0.695621       -18.9288
  66   2.0000      -0.683190       -18.5905
  67   2.0000      -0.652583       -17.7577
  68   2.0000      -0.644875       -17.5479
  69   2.0000      -0.636395       -17.3172
  70   2.0000      -0.629608       -17.1325
  71   2.0000      -0.624851       -17.0030
  72   2.0000      -0.617898       -16.8139
  73   2.0000      -0.601878       -16.3779
  74   2.0000      -0.595689       -16.2095
  75   2.0000      -0.595524       -16.2050
  76   2.0000      -0.591929       -16.1072
  77   2.0000      -0.583111       -15.8672
  78   2.0000      -0.560090       -15.2408
  79   2.0000      -0.547600       -14.9009
  80   2.0000      -0.540167       -14.6987
  81   2.0000      -0.536527       -14.5997
  82   2.0000      -0.520860       -14.1733
  83   2.0000      -0.502255       -13.6671
  84   2.0000      -0.497097       -13.5267
  85   2.0000      -0.487264       -13.2591
  86   2.0000      -0.485849       -13.2206
  87   2.0000      -0.481756       -13.1092
  88   2.0000      -0.474776       -12.9193
  89   2.0000      -0.469958       -12.7882
  90   2.0000      -0.469338       -12.7713
  91   2.0000      -0.468853       -12.7581
  92   2.0000      -0.459845       -12.5130
  93   2.0000      -0.456536       -12.4230
  94   2.0000      -0.452623       -12.3165
  95   2.0000      -0.448361       -12.2005
  96   2.0000      -0.447026       -12.1642
  97   2.0000      -0.444895       -12.1062
  98   2.0000      -0.444515       -12.0959
  99   2.0000      -0.440828       -11.9955
 100   2.0000      -0.438503       -11.9323
 101   2.0000      -0.432566       -11.7707
 102   2.0000      -0.430731       -11.7208
 103   2.0000      -0.428498       -11.6600
 104   2.0000      -0.425981       -11.5915
 105   2.0000      -0.418611       -11.3910
 106   2.0000      -0.415985       -11.3195
 107   2.0000      -0.414752       -11.2860
 108   2.0000      -0.405901       -11.0451
 109   2.0000      -0.402707       -10.9582
 110   2.0000      -0.395532       -10.7630
 111   2.0000      -0.393271       -10.7014
 112   2.0000      -0.384050       -10.4505
 113   2.0000      -0.380664       -10.3584
 114   2.0000      -0.380302       -10.3485
 115   2.0000      -0.376907       -10.2562
 116   2.0000      -0.373084       -10.1521
 117   2.0000      -0.368226       -10.0199
 118   2.0000      -0.366329        -9.9683
 119   2.0000      -0.362063        -9.8522
 120   2.0000      -0.353779        -9.6268
 121   2.0000      -0.353287        -9.6134
 122   2.0000      -0.350907        -9.5487
 123   2.0000      -0.341118        -9.2823
 124   2.0000      -0.328963        -8.9515
 125   2.0000      -0.322704        -8.7812
 126   2.0000      -0.318991        -8.6802
 127   2.0000      -0.306096        -8.3293
 128   2.0000      -0.296294        -8.0626
 129   2.0000      -0.289021        -7.8647
 130   2.0000      -0.282619        -7.6905
 131   2.0000      -0.277141        -7.5414
 132   2.0000      -0.274457        -7.4683
 133   2.0000      -0.272909        -7.4262
 134   2.0000      -0.266738        -7.2583
 135   2.0000      -0.257630        -7.0105
 136   2.0000      -0.254304        -6.9200
 137   2.0000      -0.249025        -6.7763
 138   2.0000      -0.237331        -6.4581
 139   2.0000      -0.223209        -6.0738
 140   0.0000      -0.080957        -2.2029
 141   0.0000      -0.062320        -1.6958
 142   0.0000      -0.032893        -0.8951
 143   0.0000      -0.028606        -0.7784
 144   0.0000      -0.018786        -0.5112

MULLIKEN ATOMIC CHARGES
-----------------------
   0 C :   -0.542922
   1 C :    0.134714
   2 C :    0.308912
   3 N :   -0.624355
   4 C :   -0.060426
   5 C :   -0.292632
   6 C :   -0.347662
   7 C :    0.150324
   8 C :   -0.231767
   9 C :    0.354373
  10 O :   -0.546610
  11 C :    1.086126
  12 F :   -0.291766
  13 F :   -0.279753
  14 F :   -0.291113
  15 C :   -0.200367
  16 C :   -0.171635
  17 C :    0.090337
  18 S :    1.232230
  19 O :   -0.557266
  20 O :   -0.554050
  21 C :   -0.125291
  22 C :   -0.135819
  23 C :   -0.142533
  24 C :    0.083181
  25 C :    0.527408
  26 O :   -0.445260
  27 O :   -0.623774
  28 C :   -0.147157
  29 C :   -0.148083
  30 N :   -0.404300
  31 C :   -0.054478
  32 C :    0.137327
  33 C :   -0.203210
  34 C :   -0.125488
  35 C :   -0.119838
  36 C :   -0.194662
  37 C :    0.120658
  38 H :    0.152579
  39 H :    0.176865
  40 H :    0.194610
  41 H :    0.179842
  42 H :    0.136054
  43 H :    0.173667
  44 H :    0.168535
  45 H :    0.149535
  46 H :    0.141674
  47 H :    0.150153
  48 H :    0.151332
  49 H :    0.186117
  50 H :    0.179747
  51 H :    0.433686
  52 H :    0.171457
  53 H :    0.181928
  54 H :    0.150256
  55 H :    0.138331
  56 H :    0.137034
  57 H :    0.139419
  58 H :    0.143808
Sum of atomic charges:    0.0000000

LOEWDIN ATOMIC CHARGES
----------------------
   0 C :   -0.359809
   1 C :    0.010853
   2 C :    0.026225
   3 N :   -0.274689
   4 C :   -0.053856
   5 C :   -0.235929
   6 C :   -0.225034
   7 C :   -0.004607
   8 C :   -0.146868
   9 C :    0.092539
  10 O :   -0.159662
  11 C :    0.359499
  12 F :   -0.105344
  13 F :   -0.088163
  14 F :   -0.104769
  15 C :   -0.165520
  16 C :   -0.110298
  17 C :   -0.043435
  18 S :    1.263541
  19 O :   -0.575885
  20 O :   -0.570822
  21 C :   -0.174325
  22 C :   -0.098676
  23 C :   -0.085905
  24 C :   -0.040253
  25 C :    0.179627
  26 O :   -0.261520
  27 O :   -0.334770
  28 C :   -0.099869
  29 C :   -0.107707
  30 N :   -0.140419
  31 C :   -0.065135
  32 C :   -0.026956
  33 C :   -0.112645
  34 C :   -0.124147
  35 C :   -0.116165
  36 C :   -0.118246
  37 C :   -0.004764
  38 H :    0.131890
  39 H :    0.146347
  40 H :    0.148075
  41 H :    0.146399
  42 H :    0.121714
  43 H :    0.140301
  44 H :    0.140135
  45 H :    0.131073
  46 H :    0.143442
  47 H :    0.141053
  48 H :    0.143060
  49 H :    0.161001
  50 H :    0.160120
  51 H :    0.349495
  52 H :    0.154019
  53 H :    0.158514
  54 H :    0.135720
  55 H :    0.136733
  56 H :    0.135979
  57 H :    0.137407
  58 H :    0.141431

  Mayer bond orders larger than 0.100000
B(  0-C ,  1-C ) :   1.0076 B(  0-C , 38-H ) :   0.9250 B(  0-C , 39-H ) :   0.9224
B(  0-C , 40-H ) :   0.9199 B(  1-C ,  2-C ) :   1.4351 B(  1-C , 31-C ) :   0.1003
B(  1-C , 37-C ) :   1.2636 B(  2-C ,  3-N ) :   0.8872 B(  2-C , 30-N ) :   1.2787
B(  3-N ,  4-C ) :   0.9058 B(  3-N , 18-S ) :   0.8022 B(  4-C ,  5-C ) :   0.9619
B(  4-C , 17-C ) :   0.9842 B(  4-C , 41-H ) :   0.9091 B(  5-C ,  6-C ) :   0.9923
B(  5-C , 42-H ) :   0.9430 B(  5-C , 43-H ) :   0.9305 B(  6-C ,  7-C ) :   0.9878
B(  6-C , 44-H ) :   0.9204 B(  6-C , 45-H ) :   0.9324 B(  7-C ,  8-C ) :   1.3887
B(  7-C , 17-C ) :   1.4817 B(  8-C ,  9-C ) :   1.4073 B(  8-C , 46-H ) :   0.9183
B(  9-C , 10-O ) :   0.8186 B(  9-C , 15-C ) :   1.3674 B( 10-O , 11-C ) :   0.9913
B( 11-C , 12-F ) :   0.9686 B( 11-C , 13-F ) :   1.0073 B( 11-C , 14-F ) :   0.9684
B( 15-C , 16-C ) :   1.4312 B( 15-C , 47-H ) :   0.9113 B( 16-C , 17-C ) :   1.4043
B( 16-C , 48-H ) :   0.9165 B( 18-S , 19-O ) :   1.6182 B( 18-S , 20-O ) :   1.6293
B( 18-S , 21-C ) :   0.8110 B( 21-C , 22-C ) :   1.3786 B( 21-C , 29-C ) :   1.3983
B( 22-C , 23-C ) :   1.4268 B( 22-C , 49-H ) :   0.9077 B( 23-C , 24-C ) :   1.3971
B( 23-C , 50-H ) :   0.9099 B( 24-C , 25-C ) :   1.0085 B( 24-C , 28-C ) :   1.3873
B( 25-C , 26-O ) :   1.8625 B( 25-C , 27-O ) :   1.0247 B( 27-O , 51-H ) :   0.7421
B( 28-C , 29-C ) :   1.4113 B( 28-C , 52-H ) :   0.9152 B( 29-C , 53-H ) :   0.9099
B( 30-N , 31-C ) :   1.4832 B( 31-C , 32-C ) :   1.2420 B( 31-C , 54-H ) :   0.9264
B( 32-C , 33-C ) :   1.2833 B( 32-C , 37-C ) :   1.2902 B( 33-C , 34-C ) :   1.5133
B( 33-C , 36-C ) :   0.1062 B( 33-C , 55-H ) :   0.9235 B( 34-C , 35-C ) :   1.3524
B( 34-C , 56-H ) :   0.9291 B( 35-C , 36-C ) :   1.5080 B( 35-C , 57-H ) :   0.9288
B( 36-C , 37-C ) :   1.2956 B( 36-C , 58-H ) :   0.9151

FINAL SINGLE POINT ENERGY     -2223.691454667961

DIPOLE MOMENT
-------------

Method             : SCF
Type of density    : Electron Density
Multiplicity       :   1
Irrep              :   0
Energy             : -2223.6914546679608975 Eh
Relativity type    :
Basis              : AO
                                X                 Y                 Z
Electronic contribution:     28.447065410       0.566850483      10.973923056
Nuclear contribution   :    -27.821026329      -0.865885564     -12.047256217
                        -----------------------------------------
Total Dipole Moment    :      0.626039081      -0.299035081      -1.073333161
                        -----------------------------------------
Magnitude (a.u.)       :      1.278041855
Magnitude (Debye)      :      3.248524232

Rotational constants in cm-1:             0.004698             0.001732             0.001496
Rotational constants in MHz :           140.832135            51.916672            44.855828

                             ****ORCA TERMINATED NORMALLY****
TOTAL RUN TIME: 0 days 0 hours 14 minutes 41 seconds 494 msec
