                         Program Version 6.0.0  -   RELEASE  -
|  1> ! B3LYP 6-31G* SP
|  2>
|  3> * xyz 0 1
|  4> O -1.0699 -1.8084 6.0500
|  5> C -0.7789 -2.1568 4.8743
|  6> O 0.4036 -2.8551 4.6444
|  7> C -1.6826 -1.8282 3.7494
|  8> C -2.8789 -1.1216 3.9727
|  9> C -3.7197 -0.8002 2.9043
| 10> C -3.3811 -1.1801 1.6040
| 11> C -2.1996 -1.8961 1.3637
| 12> C -1.7960 -2.2547 -0.0408
| 13> N -0.7207 -1.3629 -0.4916
| 14> C 0.6084 -1.9020 -0.8206
| 15> C 0.8928 -1.7240 -2.2873
| 16> C 1.7138 -0.6735 -2.7314
| 17> C 1.9333 -0.4819 -4.0988
| 18> C 1.3328 -1.3333 -5.0312
| 19> F 1.5410 -1.1409 -6.3566
| 20> C 0.5083 -2.3756 -4.5967
| 21> C 0.2841 -2.5688 -3.2298
| 22> C -1.0094 0.0339 -0.6981
| 23> O -2.0836 0.3672 -1.2699
| 24> C -0.0797 1.0860 -0.2387
| 25> C 0.6446 0.9329 0.9541
| 26> N 1.4889 1.9105 1.3770
| 27> C 1.6599 3.0617 0.6744
| 28> C 2.5412 4.0444 1.1387
| 29> C 2.7143 5.2278 0.4146
| 30> C 2.0044 5.4358 -0.7728
| 31> C 1.1190 4.4605 -1.2444
| 32> C 0.9428 3.2688 -0.5249
| 33> C 0.0649 2.2738 -0.9703
| 34> C -1.3514 -2.2112 2.4377
| 35> H 1.0290 -3.0844 5.4078
| 36> H -3.1612 -0.8130 4.9711
| 37> H -4.6335 -0.2475 3.0842
| 38> H -4.0371 -0.9100 0.7854
| 39> H -1.4731 -3.3173 -0.0613
| 40> H -2.6600 -2.1801 -0.7362
| 41> H 0.6749 -2.9829 -0.5706
| 42> H 1.3874 -1.4039 -0.2075
| 43> H 2.1782 -0.0006 -2.0211
| 44> H 2.5655 0.3297 -4.4344
| 45> H 0.0382 -3.0309 -5.3177
| 46> H -0.3662 -3.3720 -2.9052
| 47> H 0.5296 0.0415 1.5578
| 48> H 3.0919 3.8933 2.0587
| 49> H 3.3968 5.9867 0.7749
| 50> H 2.1391 6.3554 -1.3284
| 51> H 0.5734 4.6372 -2.1645
| 52> H -0.4915 2.4140 -1.8910
| 53> H -0.4281 -2.7431 2.2424
| 54> *
| 55>
| 56>                          ****END OF INPUT****

CARTESIAN COORDINATES (ANGSTROEM)
---------------------------------
  O     -1.069900   -1.808400    6.050000
  C     -0.778900   -2.156800    4.874300
  O      0.403600   -2.855100    4.644400
  C     -1.682600   -1.828200    3.749400
  C     -2.878900   -1.121600    3.972700
  C     -3.719700   -0.800200    2.904300
  C     -3.381100   -1.180100    1.604000
  C     -2.199600   -1.896100    1.363700
  C     -1.796000   -2.254700   -0.040800
  N     -0.720700   -1.362900   -0.491600
  C      0.608400   -1.902000   -0.820600
  C      0.892800   -1.724000   -2.287300
  C      1.713800   -0.673500   -2.731400
  C      1.933300   -0.481900   -4.098800
  C      1.332800   -1.333300   -5.031200
  F      1.541000   -1.140900   -6.356600
  C      0.508300   -2.375600   -4.596700
  C      0.284100   -2.568800   -3.229800
  C     -1.009400    0.033900   -0.698100
  O     -2.083600    0.367200   -1.269900
  C     -0.079700    1.086000   -0.238700
  C      0.644600    0.932900    0.954100
  N      1.488900    1.910500    1.377000
  C      1.659900    3.061700    0.674400
  C      2.541200    4.044400    1.138700
  C      2.714300    5.227800    0.414600
  C      2.004400    5.435800   -0.772800
  C      1.119000    4.460500   -1.244400
  C      0.942800    3.268800   -0.524900
  C      0.064900    2.273800   -0.970300
  C     -1.351400   -2.211200    2.437700
  H      1.029000   -3.084400    5.407800
  H     -3.161200   -0.813000    4.971100
  H     -4.633500   -0.247500    3.084200
  H     -4.037100   -0.910000    0.785400
  H     -1.473100   -3.317300   -0.061300
  H     -2.660000   -2.180100   -0.736200
  H      0.674900   -2.982900   -0.570600
  H      1.387400   -1.403900   -0.207500
  H      2.178200   -0.000600   -2.021100
  H      2.565500    0.329700   -4.434400
  H      0.038200   -3.030900   -5.317700
  H     -0.366200   -3.372000   -2.905200
  H      0.529600    0.041500    1.557800
  H      3.091900    3.893300    2.058700
  H      3.396800    5.986700    0.774900
  H      2.139100    6.355400   -1.328400
  H      0.573400    4.637200   -2.164500
  H     -0.491500    2.414000   -1.891000
  H     -0.428100   -2.743100    2.242400

 Total Charge           Charge          ....    0
 Multiplicity           Mult            ....    1
 Number of Electrons    NEL             ....  216
 Basis Dimension        Dim             ....  472

ORBITAL ENERGIES
----------------

  NO   OCC          E(Eh)            E(eV)
   0   2.0000     -24.698717      -672.0863
   1   2.0000     -19.183870      -522.0196
   2   2.0000     -19.122380      -520.3464
   3   2.0000     -19.122050      -520.3374
   4   2.0000     -14.352053      -390.5392
   5   2.0000     -14.328376      -389.8949
   6   2.0000     -10.320211      -280.8272
   7   2.0000     -10.294396      -280.1248
   8   2.0000     -10.270668      -279.4791
   9   2.0000     -10.229458      -278.3577
  10   2.0000     -10.228081      -278.3202
  11   2.0000     -10.225740      -278.2565
  12   2.0000     -10.224316      -278.2178
  13   2.0000     -10.209911      -277.8258
  14   2.0000     -10.209882      -277.8250
  15   2.0000     -10.206093      -277.7219
  16   2.0000     -10.200833      -277.5788
  17   2.0000     -10.199238      -277.5354
  18   2.0000     -10.197627      -277.4915
  19   2.0000     -10.197380      -277.4848
  20   2.0000     -10.196880      -277.4712
  21   2.0000     -10.195698      -277.4391
  22   2.0000     -10.195597      -277.4363
  23   2.0000     -10.195224      -277.4261
  24   2.0000     -10.194956      -277.4188
  25   2.0000     -10.194152      -277.3970
  26   2.0000     -10.193659      -277.3836
  27   2.0000     -10.192701      -277.3575
  28   2.0000     -10.191980      -277.3379
  29   2.0000     -10.191408      -277.3223
  30   2.0000     -10.189855      -277.2801
  31   2.0000      -1.212305       -32.9885
  32   2.0000      -1.067828       -29.0571
  33   2.0000      -1.018960       -27.7273
  34   2.0000      -0.981032       -26.6952
  35   2.0000      -0.939906       -25.5762
  36   2.0000      -0.926404       -25.2087
  37   2.0000      -0.866719       -23.5846
  38   2.0000      -0.858922       -23.3725
  39   2.0000      -0.853406       -23.2224
  40   2.0000      -0.816704       -22.2236
  41   2.0000      -0.788805       -21.4645
  42   2.0000      -0.770167       -20.9573
  43   2.0000      -0.767286       -20.8789
  44   2.0000      -0.757452       -20.6113
  45   2.0000      -0.756279       -20.5794
  46   2.0000      -0.744359       -20.2550
  47   2.0000      -0.700127       -19.0514
  48   2.0000      -0.686374       -18.6772
  49   2.0000      -0.661112       -17.9898
  50   2.0000      -0.653874       -17.7928
  51   2.0000      -0.639718       -17.4076
  52   2.0000      -0.625368       -17.0171
  53   2.0000      -0.613998       -16.7077
  54   2.0000      -0.609651       -16.5894
  55   2.0000      -0.600101       -16.3296
  56   2.0000      -0.583773       -15.8853
  57   2.0000      -0.559669       -15.2294
  58   2.0000      -0.541468       -14.7341
  59   2.0000      -0.532790       -14.4980
  60   2.0000      -0.529359       -14.4046
  61   2.0000      -0.521048       -14.1784
  62   2.0000      -0.513569       -13.9749
  63   2.0000      -0.494633       -13.4597
  64   2.0000      -0.492822       -13.4104
  65   2.0000      -0.490355       -13.3432
  66   2.0000      -0.480942       -13.0871
  67   2.0000      -0.472023       -12.8444
  68   2.0000      -0.463716       -12.6183
  69   2.0000      -0.454583       -12.3698
  70   2.0000      -0.453226       -12.3329
  71   2.0000      -0.450578       -12.2609
  72   2.0000      -0.447978       -12.1901
  73   2.0000      -0.443271       -12.0620
  74   2.0000      -0.437288       -11.8992
  75   2.0000      -0.435431       -11.8487
  76   2.0000      -0.430377       -11.7112
  77   2.0000      -0.427107       -11.6222
  78   2.0000      -0.426677       -11.6105
  79   2.0000      -0.417308       -11.3555
  80   2.0000      -0.414895       -11.2899
  81   2.0000      -0.412407       -11.2222
  82   2.0000      -0.402454       -10.9513
  83   2.0000      -0.398300       -10.8383
  84   2.0000      -0.382405       -10.4058
  85   2.0000      -0.377380       -10.2690
  86   2.0000      -0.371640       -10.1129
  87   2.0000      -0.369512       -10.0549
  88   2.0000      -0.366845        -9.9824
  89   2.0000      -0.363599        -9.8940
  90   2.0000      -0.357116        -9.7176
  91   2.0000      -0.355302        -9.6683
  92   2.0000      -0.354182        -9.6378
  93   2.0000      -0.348140        -9.4734
  94   2.0000      -0.343169        -9.3381
  95   2.0000      -0.336621        -9.1599
  96   2.0000      -0.307288        -8.3617
  97   2.0000      -0.303956        -8.2711
  98   2.0000      -0.269626        -7.3369
  99   2.0000      -0.262733        -7.1493
 100   2.0000      -0.260561        -7.0902
 101   2.0000      -0.259957        -7.0738
 102   2.0000      -0.257541        -7.0081
 103   2.0000      -0.256826        -6.9886
 104   2.0000      -0.247774        -6.7423
 105   2.0000      -0.241435        -6.5698
 106   2.0000      -0.229684        -6.2500
 107   2.0000      -0.222281        -6.0486
 108   0.0000      -0.072050        -1.9606
 109   0.0000      -0.051773        -1.4088
 110   0.0000      -0.041918        -1.1407
 111   0.0000      -0.018028        -0.4906
 112   0.0000      -0.011169        -0.3039

MULLIKEN ATOMIC CHARGES
-----------------------
   0 O :   -0.453123
   1 C :    0.522569
   2 O :   -0.628428
   3 C :    0.080899
   4 C :   -0.149190
   5 C :   -0.131043
   6 C :   -0.154510
   7 C :    0.150699
   8 C :   -0.232559
   9 N :   -0.407452
  10 C :   -0.260437
  11 C :    0.161332
  12 C :   -0.166044
  13 C :   -0.208975
  14 C :    0.411399
  15 F :   -0.317891
  16 C :   -0.206903
  17 C :   -0.147095
  18 C :    0.453047
  19 O :   -0.457446
  20 C :    0.057264
  21 C :   -0.026807
  22 N :   -0.432771
  23 C :    0.216103
  24 C :   -0.143318
  25 C :   -0.127876
  26 C :   -0.131544
  27 C :   -0.197424
  28 C :    0.157949
  29 C :   -0.175246
  30 C :   -0.209216
  31 H :    0.428930
  32 H :    0.166123
  33 H :    0.142426
  34 H :    0.155289
  35 H :    0.154498
  36 H :    0.171005
  37 H :    0.159999
  38 H :    0.156737
  39 H :    0.144819
  40 H :    0.144921
  41 H :    0.145621
  42 H :    0.133277
  43 H :    0.167101
  44 H :    0.147194
  45 H :    0.139794
  46 H :    0.137178
  47 H :    0.140617
  48 H :    0.168345
  49 H :    0.150163
Sum of atomic charges:    0.0000000

LOEWDIN ATOMIC CHARGES
----------------------
   0 O :   -0.269178
   1 C :    0.178193
   2 O :   -0.340257
   3 C :   -0.056820
   4 C :   -0.091343
   5 C :   -0.125380
   6 C :   -0.108987
   7 C :   -0.034041
   8 C :   -0.144390
   9 N :   -0.119322
  10 C :   -0.150389
  11 C :   -0.041776
  12 C :   -0.126820
  13 C :   -0.156039
  14 C :    0.116768
  15 F :   -0.104071
  16 C :   -0.153516
  17 C :   -0.116022
  18 C :    0.151455
  19 O :   -0.259581
  20 C :   -0.075910
  21 C :   -0.060574
  22 N :   -0.129078
  23 C :    0.019615
  24 C :   -0.115155
  25 C :   -0.116563
  26 C :   -0.126911
  27 C :   -0.114548
  28 C :   -0.032116
  29 C :   -0.056306
  30 C :   -0.108550
  31 H :    0.346115
  32 H :    0.152889
  33 H :    0.138803
  34 H :    0.144405
  35 H :    0.132405
  36 H :    0.135704
  37 H :    0.134756
  38 H :    0.126221
  39 H :    0.138849
  40 H :    0.143300
  41 H :    0.143681
  42 H :    0.134495
  43 H :    0.143654
  44 H :    0.145830
  45 H :    0.137633
  46 H :    0.135942
  47 H :    0.137102
  48 H :    0.153562
  49 H :    0.142267

  Mayer bond orders larger than 0.100000
B(  0-O ,  1-C ) :   1.8594 B(  1-C ,  2-O ) :   1.0144 B(  1-C ,  3-C ) :   1.0119
B(  2-O , 31-H ) :   0.7450 B(  3-C ,  4-C ) :   1.3968 B(  3-C , 30-C ) :   1.3773
B(  4-C ,  5-C ) :   1.4411 B(  4-C , 32-H ) :   0.9128 B(  5-C ,  6-C ) :   1.4121
B(  5-C , 33-H ) :   0.9278 B(  6-C ,  7-C ) :   1.4450 B(  6-C , 34-H ) :   0.9177
B(  7-C ,  8-C ) :   0.9632 B(  7-C , 30-C ) :   1.3881 B(  8-C ,  9-N ) :   0.9441
B(  8-C , 35-H ) :   0.9293 B(  8-C , 36-H ) :   0.9153 B(  9-N , 10-C ) :   0.9519
B(  9-N , 18-C ) :   1.0177 B( 10-C , 11-C ) :   0.9544 B( 10-C , 37-H ) :   0.9290
B( 10-C , 38-H ) :   0.9166 B( 11-C , 12-C ) :   1.4374 B( 11-C , 17-C ) :   1.4242
B( 12-C , 13-C ) :   1.4157 B( 12-C , 39-H ) :   0.9191 B( 13-C , 14-C ) :   1.3985
B( 13-C , 40-H ) :   0.9206 B( 14-C , 15-F ) :   0.9182 B( 14-C , 16-C ) :   1.3877
B( 16-C , 17-C ) :   1.4313 B( 16-C , 41-H ) :   0.9205 B( 17-C , 42-H ) :   0.9252
B( 18-C , 19-O ) :   1.8335 B( 18-C , 20-C ) :   0.9608 B( 20-C , 21-C ) :   1.2660
B( 20-C , 29-C ) :   1.4393 B( 21-C , 22-N ) :   1.5033 B( 21-C , 43-H ) :   0.9152
B( 22-N , 23-C ) :   1.2493 B( 23-C , 24-C ) :   1.3115 B( 23-C , 28-C ) :   1.2476
B( 24-C , 25-C ) :   1.5133 B( 24-C , 27-C ) :   0.1073 B( 24-C , 44-H ) :   0.9170
B( 25-C , 26-C ) :   1.3455 B( 25-C , 45-H ) :   0.9290 B( 26-C , 27-C ) :   1.5154
B( 26-C , 46-H ) :   0.9294 B( 27-C , 28-C ) :   1.2767 B( 27-C , 47-H ) :   0.9237
B( 28-C , 29-C ) :   1.2742 B( 29-C , 48-H ) :   0.9121 B( 30-C , 49-H ) :   0.9137

FINAL SINGLE POINT ENERGY     -1398.280157606906

DIPOLE MOMENT
-------------

Method             : SCF
Type of density    : Electron Density
Multiplicity       :   1
Irrep              :   0
Energy             : -1398.2801576069055045 Eh
Relativity type    :
Basis              : AO
                                X                 Y                 Z
Electronic contribution:      1.750972252      -1.568380623      -5.742115169
Nuclear contribution   :     -1.028252379       1.384769508       5.192018648
                        -----------------------------------------
Total Dipole Moment    :      0.722719873      -0.183611115      -0.550096521
                        -----------------------------------------
Magnitude (a.u.)       :      0.926630045
Magnitude (Debye)      :      2.355306394

Rotational constants in cm-1:             0.005237             0.003381             0.002398
Rotational constants in MHz :           156.995861           101.349553            71.883138

                             ****ORCA TERMINATED NORMALLY****
TOTAL RUN TIME: 0 days 0 hours 5 minutes 16 seconds 247 msec
