                         Program Version 6.0.0  -   RELEASE  -
|  1> ! B3LYP 6-31G* SP
|  2>
|  3> * xyz 0 1
|  4> C -1.6808 2.1297 -1.3993
|  5> C -0.5891 2.4215 -0.3933
|  6> C -0.0939 1.3930 0.4451
|  7> N -0.5352 0.0363 0.3035
|  8> C -0.0501 -0.7706 -0.8194
|  9> C 1.3785 -1.1570 -0.6003
| 10> C 2.4808 -0.3398 -0.8576
| 11> C 3.6849 -0.9414 -0.4793
| 12> C 4.9596 -0.3815 -0.6036
| 13> C 6.0708 -1.1239 -0.1642
| 14> Cl 7.6830 -0.4461 -0.3074
| 15> C 5.8947 -2.4089 0.3925
| 16> C 4.6088 -2.9603 0.5158
| 17> C 3.5250 -2.2059 0.0723
| 18> S 1.8934 -2.6058 0.1102
| 19> S -1.2868 -0.7401 1.6625
| 20> O -0.2375 -1.4436 2.4770
| 21> O -1.9630 0.2876 2.5264
| 22> C -2.5036 -1.8798 1.0969
| 23> C -2.3628 -3.2546 1.3303
| 24> C -3.3244 -4.1517 0.8546
| 25> C -4.4416 -3.6856 0.1397
| 26> C -5.4479 -4.6372 -0.3797
| 27> O -6.4395 -4.2227 -1.0386
| 28> O -5.3104 -6.0023 -0.1410
| 29> C -4.5735 -2.3032 -0.0955
| 30> C -3.6116 -1.4090 0.3831
| 31> N 0.8393 1.6749 1.3923
| 32> C 1.3529 2.9168 1.5609
| 33> C 0.9452 3.9645 0.7305
| 34> C 1.5046 5.2430 0.8797
| 35> C 1.1090 6.2836 0.0395
| 36> C 0.1583 6.0563 -0.9562
| 37> C -0.4085 4.7891 -1.1154
| 38> C -0.0315 3.7219 -0.2693
| 39> H -2.4759 2.9012 -1.3438
| 40> H -1.2496 2.1109 -2.4207
| 41> H -2.1815 1.1595 -1.2088
| 42> H -0.1362 -0.2007 -1.7689
| 43> H -0.6663 -1.6867 -0.9325
| 44> H 2.4089 0.6524 -1.2879
| 45> H 5.0901 0.6066 -1.0297
| 46> H 6.7528 -2.9763 0.7303
| 47> H 4.4652 -3.9446 0.9459
| 48> H -1.5069 -3.6372 1.8738
| 49> H -3.1915 -5.2092 1.0457
| 50> H -5.9929 -6.6624 -0.4935
| 51> H -5.4164 -1.9130 -0.6527
| 52> H -3.7269 -0.3489 0.1905
| 53> H 2.0994 3.0771 2.3288
| 54> H 2.2513 5.4348 1.6418
| 55> H 1.5447 7.2676 0.1559
| 56> H -0.1381 6.8649 -1.6112
| 57> H -1.1275 4.6568 -1.9118
| 58> *
| 59>
| 60>                          ****END OF INPUT****

CARTESIAN COORDINATES (ANGSTROEM)
---------------------------------
  C     -1.680800    2.129700   -1.399300
  C     -0.589100    2.421500   -0.393300
  C     -0.093900    1.393000    0.445100
  N     -0.535200    0.036300    0.303500
  C     -0.050100   -0.770600   -0.819400
  C      1.378500   -1.157000   -0.600300
  C      2.480800   -0.339800   -0.857600
  C      3.684900   -0.941400   -0.479300
  C      4.959600   -0.381500   -0.603600
  C      6.070800   -1.123900   -0.164200
  Cl     7.683000   -0.446100   -0.307400
  C      5.894700   -2.408900    0.392500
  C      4.608800   -2.960300    0.515800
  C      3.525000   -2.205900    0.072300
  S      1.893400   -2.605800    0.110200
  S     -1.286800   -0.740100    1.662500
  O     -0.237500   -1.443600    2.477000
  O     -1.963000    0.287600    2.526400
  C     -2.503600   -1.879800    1.096900
  C     -2.362800   -3.254600    1.330300
  C     -3.324400   -4.151700    0.854600
  C     -4.441600   -3.685600    0.139700
  C     -5.447900   -4.637200   -0.379700
  O     -6.439500   -4.222700   -1.038600
  O     -5.310400   -6.002300   -0.141000
  C     -4.573500   -2.303200   -0.095500
  C     -3.611600   -1.409000    0.383100
  N      0.839300    1.674900    1.392300
  C      1.352900    2.916800    1.560900
  C      0.945200    3.964500    0.730500
  C      1.504600    5.243000    0.879700
  C      1.109000    6.283600    0.039500
  C      0.158300    6.056300   -0.956200
  C     -0.408500    4.789100   -1.115400
  C     -0.031500    3.721900   -0.269300
  H     -2.475900    2.901200   -1.343800
  H     -1.249600    2.110900   -2.420700
  H     -2.181500    1.159500   -1.208800
  H     -0.136200   -0.200700   -1.768900
  H     -0.666300   -1.686700   -0.932500
  H      2.408900    0.652400   -1.287900
  H      5.090100    0.606600   -1.029700
  H      6.752800   -2.976300    0.730300
  H      4.465200   -3.944600    0.945900
  H     -1.506900   -3.637200    1.873800
  H     -3.191500   -5.209200    1.045700
  H     -5.992900   -6.662400   -0.493500
  H     -5.416400   -1.913000   -0.652700
  H     -3.726900   -0.348900    0.190500
  H      2.099400    3.077100    2.328800
  H      2.251300    5.434800    1.641800
  H      1.544700    7.267600    0.155900
  H     -0.138100    6.864900   -1.611200
  H     -1.127500    4.656800   -1.911800

 Total Charge           Charge          ....    0
 Multiplicity           Mult            ....    1
 Number of Electrons    NEL             ....  270
 Basis Dimension        Dim             ....  540

ORBITAL ENERGIES
----------------

  NO   OCC          E(Eh)            E(eV)
   0   2.0000    -101.520733     -2762.5196
   1   2.0000     -89.096387     -2424.4359
   2   2.0000     -88.882634     -2418.6194
   3   2.0000     -19.200397      -522.4694
   4   2.0000     -19.142930      -520.9056
   5   2.0000     -19.121931      -520.3342
   6   2.0000     -19.118009      -520.2275
   7   2.0000     -14.374692      -391.1553
   8   2.0000     -14.328121      -389.8880
   9   2.0000     -10.340212      -281.3715
  10   2.0000     -10.262680      -279.2617
  11   2.0000     -10.251789      -278.9653
  12   2.0000     -10.248207      -278.8679
  13   2.0000     -10.240327      -278.6535
  14   2.0000     -10.238105      -278.5930
  15   2.0000     -10.227534      -278.3054
  16   2.0000     -10.225038      -278.2374
  17   2.0000     -10.223764      -278.2028
  18   2.0000     -10.223299      -278.1901
  19   2.0000     -10.222721      -278.1744
  20   2.0000     -10.215509      -277.9781
  21   2.0000     -10.213604      -277.9263
  22   2.0000     -10.209292      -277.8090
  23   2.0000     -10.207419      -277.7580
  24   2.0000     -10.200941      -277.5817
  25   2.0000     -10.199870      -277.5526
  26   2.0000     -10.198591      -277.5178
  27   2.0000     -10.198486      -277.5149
  28   2.0000     -10.196961      -277.4734
  29   2.0000     -10.196409      -277.4584
  30   2.0000     -10.194113      -277.3959
  31   2.0000     -10.192705      -277.3576
  32   2.0000     -10.190769      -277.3049
  33   2.0000     -10.189000      -277.2568
  34   2.0000     -10.182904      -277.0909
  35   2.0000      -9.452603      -257.2184
  36   2.0000      -8.132257      -221.2900
  37   2.0000      -7.960265      -216.6098
  38   2.0000      -7.215597      -196.3464
  39   2.0000      -7.206198      -196.0906
  40   2.0000      -7.205962      -196.0842
  41   2.0000      -6.097428      -165.9195
  42   2.0000      -6.095230      -165.8596
  43   2.0000      -6.094785      -165.8475
  44   2.0000      -5.923502      -161.1867
  45   2.0000      -5.919538      -161.0788
  46   2.0000      -5.916643      -161.0000
  47   2.0000      -1.085328       -29.5333
  48   2.0000      -1.080201       -29.3938
  49   2.0000      -0.999797       -27.2059
  50   2.0000      -0.964414       -26.2431
  51   2.0000      -0.957242       -26.0479
  52   2.0000      -0.918824       -25.0025
  53   2.0000      -0.905807       -24.6483
  54   2.0000      -0.895597       -24.3704
  55   2.0000      -0.870097       -23.6766
  56   2.0000      -0.865325       -23.5467
  57   2.0000      -0.815754       -22.1978
  58   2.0000      -0.814005       -22.1502
  59   2.0000      -0.807463       -21.9722
  60   2.0000      -0.782058       -21.2809
  61   2.0000      -0.778121       -21.1737
  62   2.0000      -0.773716       -21.0539
  63   2.0000      -0.757426       -20.6106
  64   2.0000      -0.745140       -20.2763
  65   2.0000      -0.718396       -19.5486
  66   2.0000      -0.704660       -19.1748
  67   2.0000      -0.702874       -19.1262
  68   2.0000      -0.686314       -18.6756
  69   2.0000      -0.657487       -17.8911
  70   2.0000      -0.646487       -17.5918
  71   2.0000      -0.644270       -17.5315
  72   2.0000      -0.622548       -16.9404
  73   2.0000      -0.613927       -16.7058
  74   2.0000      -0.599432       -16.3114
  75   2.0000      -0.596912       -16.2428
  76   2.0000      -0.579326       -15.7643
  77   2.0000      -0.569024       -15.4839
  78   2.0000      -0.558479       -15.1970
  79   2.0000      -0.545463       -14.8428
  80   2.0000      -0.531267       -14.4565
  81   2.0000      -0.522086       -14.2067
  82   2.0000      -0.505866       -13.7653
  83   2.0000      -0.501103       -13.6357
  84   2.0000      -0.494109       -13.4454
  85   2.0000      -0.489519       -13.3205
  86   2.0000      -0.481079       -13.0908
  87   2.0000      -0.478198       -13.0124
  88   2.0000      -0.470880       -12.8133
  89   2.0000      -0.470387       -12.7999
  90   2.0000      -0.463177       -12.6037
  91   2.0000      -0.453814       -12.3489
  92   2.0000      -0.452277       -12.3071
  93   2.0000      -0.447765       -12.1843
  94   2.0000      -0.446962       -12.1625
  95   2.0000      -0.443101       -12.0574
  96   2.0000      -0.440081       -11.9752
  97   2.0000      -0.435370       -11.8470
  98   2.0000      -0.429570       -11.6892
  99   2.0000      -0.424251       -11.5444
 100   2.0000      -0.418162       -11.3788
 101   2.0000      -0.415838       -11.3155
 102   2.0000      -0.411331       -11.1929
 103   2.0000      -0.406976       -11.0744
 104   2.0000      -0.403441       -10.9782
 105   2.0000      -0.400638       -10.9019
 106   2.0000      -0.396433       -10.7875
 107   2.0000      -0.392430       -10.6786
 108   2.0000      -0.388295       -10.5661
 109   2.0000      -0.373042       -10.1510
 110   2.0000      -0.371022       -10.0960
 111   2.0000      -0.366141        -9.9632
 112   2.0000      -0.365674        -9.9505
 113   2.0000      -0.361753        -9.8438
 114   2.0000      -0.354246        -9.6395
 115   2.0000      -0.353480        -9.6187
 116   2.0000      -0.334511        -9.1025
 117   2.0000      -0.326254        -8.8778
 118   2.0000      -0.322429        -8.7737
 119   2.0000      -0.308859        -8.4045
 120   2.0000      -0.305049        -8.3008
 121   2.0000      -0.303783        -8.2663
 122   2.0000      -0.301159        -8.1950
 123   2.0000      -0.291069        -7.9204
 124   2.0000      -0.285483        -7.7684
 125   2.0000      -0.284958        -7.7541
 126   2.0000      -0.282490        -7.6869
 127   2.0000      -0.279717        -7.6115
 128   2.0000      -0.273097        -7.4313
 129   2.0000      -0.267222        -7.2715
 130   2.0000      -0.250311        -6.8113
 131   2.0000      -0.246292        -6.7019
 132   2.0000      -0.229375        -6.2416
 133   2.0000      -0.222042        -6.0421
 134   2.0000      -0.208218        -5.6659
 135   0.0000      -0.089933        -2.4472
 136   0.0000      -0.062186        -1.6922
 137   0.0000      -0.037226        -1.0130
 138   0.0000      -0.033384        -0.9084
 139   0.0000      -0.029822        -0.8115

MULLIKEN ATOMIC CHARGES
-----------------------
   0 C :   -0.546901
   1 C :    0.092717
   2 C :    0.332387
   3 N :   -0.602646
   4 C :   -0.247604
   5 C :   -0.100423
   6 C :   -0.148870
   7 C :    0.166942
   8 C :   -0.175882
   9 C :   -0.087848
  10 Cl:   -0.027879
  11 C :   -0.124722
  12 C :   -0.161161
  13 C :   -0.124974
  14 S :    0.253323
  15 S :    1.209439
  16 O :   -0.525065
  17 O :   -0.532743
  18 C :   -0.146183
  19 C :   -0.144487
  20 C :   -0.145076
  21 C :    0.082928
  22 C :    0.529644
  23 O :   -0.442898
  24 O :   -0.622600
  25 C :   -0.140204
  26 C :   -0.143298
  27 N :   -0.358633
  28 C :   -0.047789
  29 C :    0.133114
  30 C :   -0.200887
  31 C :   -0.127111
  32 C :   -0.120240
  33 C :   -0.200474
  34 C :    0.123466
  35 H :    0.169130
  36 H :    0.161681
  37 H :    0.168699
  38 H :    0.182443
  39 H :    0.172592
  40 H :    0.136751
  41 H :    0.146251
  42 H :    0.149465
  43 H :    0.147412
  44 H :    0.198546
  45 H :    0.177088
  46 H :    0.435585
  47 H :    0.181318
  48 H :    0.181617
  49 H :    0.159201
  50 H :    0.143214
  51 H :    0.137497
  52 H :    0.137916
  53 H :    0.136229
Sum of atomic charges:   -0.0000000

LOEWDIN ATOMIC CHARGES
----------------------
   0 C :   -0.361551
   1 C :   -0.017187
   2 C :    0.036758
   3 N :   -0.281351
   4 C :   -0.151608
   5 C :   -0.186394
   6 C :   -0.158721
   7 C :   -0.034841
   8 C :   -0.129280
   9 C :   -0.094009
  10 Cl:    0.028699
  11 C :   -0.138824
  12 C :   -0.124651
  13 C :   -0.169545
  14 S :    0.392308
  15 S :    1.261266
  16 O :   -0.562917
  17 O :   -0.566315
  18 C :   -0.176578
  19 C :   -0.101482
  20 C :   -0.097429
  21 C :   -0.037111
  22 C :    0.180001
  23 O :   -0.258996
  24 O :   -0.333407
  25 C :   -0.086324
  26 C :   -0.104481
  27 N :   -0.107818
  28 C :   -0.053340
  29 C :   -0.028669
  30 C :   -0.109636
  31 C :   -0.126170
  32 C :   -0.117078
  33 C :   -0.126311
  34 C :   -0.007079
  35 H :    0.140091
  36 H :    0.136272
  37 H :    0.135862
  38 H :    0.145714
  39 H :    0.142507
  40 H :    0.137950
  41 H :    0.143583
  42 H :    0.144523
  43 H :    0.142962
  44 H :    0.166466
  45 H :    0.156834
  46 H :    0.350779
  47 H :    0.160665
  48 H :    0.155796
  49 H :    0.140836
  50 H :    0.139037
  51 H :    0.136183
  52 H :    0.136705
  53 H :    0.137307

  Mayer bond orders larger than 0.100000
B(  0-C ,  1-C ) :   0.9960 B(  0-C , 35-H ) :   0.9286 B(  0-C , 36-H ) :   0.9261
B(  0-C , 37-H ) :   0.9291 B(  1-C ,  2-C ) :   1.4398 B(  1-C , 28-C ) :   0.1012
B(  1-C , 34-C ) :   1.2662 B(  2-C ,  3-N ) :   0.8875 B(  2-C , 27-N ) :   1.2834
B(  3-N ,  4-C ) :   0.9462 B(  3-N , 15-S ) :   0.7887 B(  4-C ,  5-C ) :   0.9612
B(  4-C , 38-H ) :   0.9189 B(  4-C , 39-H ) :   0.9215 B(  5-C ,  6-C ) :   1.5704
B(  5-C , 14-S ) :   1.1182 B(  6-C ,  7-C ) :   1.2578 B(  6-C , 40-H ) :   0.9198
B(  7-C ,  8-C ) :   1.3254 B(  7-C , 13-C ) :   1.3371 B(  8-C ,  9-C ) :   1.4411
B(  8-C , 41-H ) :   0.9209 B(  9-C , 10-Cl) :   1.0019 B(  9-C , 11-C ) :   1.3523
B( 11-C , 12-C ) :   1.4876 B( 11-C , 42-H ) :   0.9255 B( 12-C , 13-C ) :   1.3339
B( 12-C , 43-H ) :   0.9235 B( 13-C , 14-S ) :   1.0684 B( 15-S , 16-O ) :   1.6418
B( 15-S , 17-O ) :   1.6544 B( 15-S , 18-C ) :   0.8072 B( 18-C , 19-C ) :   1.4030
B( 18-C , 26-C ) :   1.3722 B( 19-C , 20-C ) :   1.4070 B( 19-C , 44-H ) :   0.9039
B( 20-C , 21-C ) :   1.3885 B( 20-C , 45-H ) :   0.9140 B( 21-C , 22-C ) :   1.0073
B( 21-C , 25-C ) :   1.3967 B( 22-C , 23-O ) :   1.8634 B( 22-C , 24-O ) :   1.0274
B( 24-O , 46-H ) :   0.7410 B( 25-C , 26-C ) :   1.4322 B( 25-C , 47-H ) :   0.9093
B( 26-C , 48-H ) :   0.9094 B( 27-N , 28-C ) :   1.4987 B( 28-C , 29-C ) :   1.2285
B( 28-C , 49-H ) :   0.9255 B( 29-C , 30-C ) :   1.2849 B( 29-C , 34-C ) :   1.2901
B( 30-C , 31-C ) :   1.5126 B( 30-C , 33-C ) :   0.1058 B( 30-C , 50-H ) :   0.9226
B( 31-C , 32-C ) :   1.3529 B( 31-C , 51-H ) :   0.9290 B( 32-C , 33-C ) :   1.5101
B( 32-C , 52-H ) :   0.9290 B( 33-C , 34-C ) :   1.2927 B( 33-C , 53-H ) :   0.9174

FINAL SINGLE POINT ENERGY     -2668.038342686545

DIPOLE MOMENT
-------------

Method             : SCF
Type of density    : Electron Density
Multiplicity       :   1
Irrep              :   0
Energy             : -2668.0383426865446381 Eh
Relativity type    :
Basis              : AO
                                X                 Y                 Z
Electronic contribution:     18.056085051     -14.674968842       7.081242288
Nuclear contribution   :    -18.971823056      14.783914577      -9.027362286
                        -----------------------------------------
Total Dipole Moment    :     -0.915738005       0.108945735      -1.946119998
                        -----------------------------------------
Magnitude (a.u.)       :      2.153561774
Magnitude (Debye)      :      5.473919010

Rotational constants in cm-1:             0.003755             0.002090             0.001464
Rotational constants in MHz :           112.576733            62.664853            43.891686

                             ****ORCA TERMINATED NORMALLY****
TOTAL RUN TIME: 0 days 0 hours 12 minutes 34 seconds 403 msec
