                         Program Version 6.0.0  -   RELEASE  -
|  1> ! B3LYP 6-31G* SP
|  2>
|  3> * xyz 0 1
|  4> C 2.3978 2.8548 1.1233
|  5> C 1.1818 2.7141 0.2109
|  6> C -0.0483 2.2995 1.0076
|  7> C -0.4521 0.9399 1.0259
|  8> N 0.1641 -0.0342 0.1723
|  9> C -0.2215 -0.0989 -1.2413
| 10> C -1.4218 -0.9906 -1.4277
| 11> C -2.6969 -0.5502 -1.0333
| 12> C -3.8094 -1.3851 -1.1710
| 13> C -3.6614 -2.6809 -1.7076
| 14> O -4.7439 -3.5600 -1.8748
| 15> C -6.1020 -3.2661 -1.5459
| 16> F -6.5441 -2.1749 -2.2754
| 17> F -6.8861 -4.3596 -1.8607
| 18> F -6.2209 -3.0094 -0.1912
| 19> C -2.3888 -3.1162 -2.0960
| 20> C -1.2770 -2.2790 -1.9650
| 21> S 1.0181 -1.3601 0.8982
| 22> O 1.4396 -0.9901 2.2940
| 23> O 0.1157 -2.5606 0.9747
| 24> C 2.4624 -1.7299 -0.0419
| 25> C 2.4630 -2.7894 -0.9604
| 26> C 3.6079 -3.0646 -1.7172
| 27> C 4.7766 -2.2914 -1.5530
| 28> C 5.9948 -2.5967 -2.3384
| 29> O 7.0633 -1.9482 -2.1421
| 30> O 5.9767 -3.6107 -3.2938
| 31> C 4.7717 -1.2323 -0.6242
| 32> C 3.6205 -0.9527 0.1202
| 33> N -1.4644 0.5373 1.8388
| 34> C -2.1465 1.3962 2.6351
| 35> C -1.8290 2.7570 2.6347
| 36> C -2.5542 3.6494 3.4430
| 37> C -2.2377 5.0085 3.4482
| 38> C -1.1979 5.4860 2.6496
| 39> C -0.4641 4.6090 1.8431
| 40> C -0.7661 3.2266 1.8176
| 41> H 2.2473 3.6723 1.8634
| 42> H 3.2960 3.0921 0.5099
| 43> H 2.5776 1.9026 1.6704
| 44> H 1.0000 3.6619 -0.3392
| 45> H 1.4356 1.9705 -0.5734
| 46> H -0.4657 0.9172 -1.6211
| 47> H 0.6390 -0.4597 -1.8457
| 48> H -2.8316 0.4446 -0.6238
| 49> H -4.7755 -1.0105 -0.8624
| 50> H -2.2612 -4.1082 -2.5170
| 51> H -0.3055 -2.6327 -2.2912
| 52> H 1.5834 -3.4087 -1.0870
| 53> H 3.5812 -3.8893 -2.4206
| 54> H 6.8087 -3.8295 -3.8331
| 55> H 5.6564 -0.6191 -0.4724
| 56> H 3.6362 -0.1331 0.8263
| 57> H -2.9484 1.0147 3.2567
| 58> H -3.3654 3.2948 4.0700
| 59> H -2.7994 5.6957 4.0719
| 60> H -0.9585 6.5429 2.6547
| 61> H 0.3298 5.0350 1.2464
| 62> *
| 63>
| 64>                          ****END OF INPUT****

CARTESIAN COORDINATES (ANGSTROEM)
---------------------------------
  C      2.397800    2.854800    1.123300
  C      1.181800    2.714100    0.210900
  C     -0.048300    2.299500    1.007600
  C     -0.452100    0.939900    1.025900
  N      0.164100   -0.034200    0.172300
  C     -0.221500   -0.098900   -1.241300
  C     -1.421800   -0.990600   -1.427700
  C     -2.696900   -0.550200   -1.033300
  C     -3.809400   -1.385100   -1.171000
  C     -3.661400   -2.680900   -1.707600
  O     -4.743900   -3.560000   -1.874800
  C     -6.102000   -3.266100   -1.545900
  F     -6.544100   -2.174900   -2.275400
  F     -6.886100   -4.359600   -1.860700
  F     -6.220900   -3.009400   -0.191200
  C     -2.388800   -3.116200   -2.096000
  C     -1.277000   -2.279000   -1.965000
  S      1.018100   -1.360100    0.898200
  O      1.439600   -0.990100    2.294000
  O      0.115700   -2.560600    0.974700
  C      2.462400   -1.729900   -0.041900
  C      2.463000   -2.789400   -0.960400
  C      3.607900   -3.064600   -1.717200
  C      4.776600   -2.291400   -1.553000
  C      5.994800   -2.596700   -2.338400
  O      7.063300   -1.948200   -2.142100
  O      5.976700   -3.610700   -3.293800
  C      4.771700   -1.232300   -0.624200
  C      3.620500   -0.952700    0.120200
  N     -1.464400    0.537300    1.838800
  C     -2.146500    1.396200    2.635100
  C     -1.829000    2.757000    2.634700
  C     -2.554200    3.649400    3.443000
  C     -2.237700    5.008500    3.448200
  C     -1.197900    5.486000    2.649600
  C     -0.464100    4.609000    1.843100
  C     -0.766100    3.226600    1.817600
  H      2.247300    3.672300    1.863400
  H      3.296000    3.092100    0.509900
  H      2.577600    1.902600    1.670400
  H      1.000000    3.661900   -0.339200
  H      1.435600    1.970500   -0.573400
  H     -0.465700    0.917200   -1.621100
  H      0.639000   -0.459700   -1.845700
  H     -2.831600    0.444600   -0.623800
  H     -4.775500   -1.010500   -0.862400
  H     -2.261200   -4.108200   -2.517000
  H     -0.305500   -2.632700   -2.291200
  H      1.583400   -3.408700   -1.087000
  H      3.581200   -3.889300   -2.420600
  H      6.808700   -3.829500   -3.833100
  H      5.656400   -0.619100   -0.472400
  H      3.636200   -0.133100    0.826300
  H     -2.948400    1.014700    3.256700
  H     -3.365400    3.294800    4.070000
  H     -2.799400    5.695700    4.071900
  H     -0.958500    6.542900    2.654700
  H      0.329800    5.035000    1.246400

 Total Charge           Charge          ....    0
 Multiplicity           Mult            ....    1
 Number of Electrons    NEL             ....  274
 Basis Dimension        Dim             ....  564

ORBITAL ENERGIES
----------------

  NO   OCC          E(Eh)            E(eV)
   0   2.0000     -89.094579     -2424.3868
   1   2.0000     -24.735358      -673.0833
   2   2.0000     -24.733179      -673.0240
   3   2.0000     -24.731936      -672.9902
   4   2.0000     -19.205346      -522.6040
   5   2.0000     -19.200711      -522.4779
   6   2.0000     -19.142292      -520.8882
   7   2.0000     -19.121415      -520.3202
   8   2.0000     -19.116049      -520.1741
   9   2.0000     -14.369349      -391.0099
  10   2.0000     -14.327988      -389.8844
  11   2.0000     -10.497588      -285.6539
  12   2.0000     -10.340083      -281.3680
  13   2.0000     -10.261139      -279.2198
  14   2.0000     -10.260429      -279.2005
  15   2.0000     -10.247369      -278.8451
  16   2.0000     -10.238208      -278.5958
  17   2.0000     -10.237990      -278.5899
  18   2.0000     -10.225518      -278.2505
  19   2.0000     -10.225377      -278.2467
  20   2.0000     -10.223487      -278.1952
  21   2.0000     -10.223118      -278.1852
  22   2.0000     -10.222807      -278.1767
  23   2.0000     -10.210938      -277.8537
  24   2.0000     -10.210329      -277.8372
  25   2.0000     -10.201336      -277.5925
  26   2.0000     -10.199657      -277.5468
  27   2.0000     -10.198796      -277.5233
  28   2.0000     -10.198648      -277.5193
  29   2.0000     -10.197047      -277.4758
  30   2.0000     -10.194610      -277.4094
  31   2.0000     -10.190814      -277.3062
  32   2.0000     -10.190345      -277.2934
  33   2.0000     -10.188922      -277.2547
  34   2.0000     -10.188188      -277.2347
  35   2.0000     -10.187629      -277.2195
  36   2.0000     -10.180606      -277.0284
  37   2.0000      -8.130275      -221.2360
  38   2.0000      -6.095389      -165.8640
  39   2.0000      -6.093349      -165.8085
  40   2.0000      -6.092803      -165.7936
  41   2.0000      -1.297301       -35.3014
  42   2.0000      -1.218493       -33.1569
  43   2.0000      -1.217723       -33.1359
  44   2.0000      -1.083702       -29.4890
  45   2.0000      -1.077890       -29.3309
  46   2.0000      -1.074626       -29.2421
  47   2.0000      -0.997536       -27.1443
  48   2.0000      -0.960912       -26.1477
  49   2.0000      -0.955305       -25.9952
  50   2.0000      -0.913439       -24.8559
  51   2.0000      -0.893329       -24.3087
  52   2.0000      -0.865041       -23.5390
  53   2.0000      -0.855536       -23.2803
  54   2.0000      -0.816744       -22.2247
  55   2.0000      -0.809080       -22.0162
  56   2.0000      -0.782755       -21.2998
  57   2.0000      -0.780746       -21.2452
  58   2.0000      -0.772173       -21.0119
  59   2.0000      -0.758027       -20.6270
  60   2.0000      -0.750759       -20.4292
  61   2.0000      -0.732883       -19.9428
  62   2.0000      -0.725157       -19.7325
  63   2.0000      -0.702966       -19.1287
  64   2.0000      -0.677650       -18.4398
  65   2.0000      -0.660168       -17.9641
  66   2.0000      -0.653432       -17.7808
  67   2.0000      -0.641608       -17.4590
  68   2.0000      -0.629083       -17.1182
  69   2.0000      -0.627664       -17.0796
  70   2.0000      -0.619092       -16.8464
  71   2.0000      -0.615381       -16.7454
  72   2.0000      -0.594990       -16.1905
  73   2.0000      -0.589513       -16.0415
  74   2.0000      -0.587859       -15.9965
  75   2.0000      -0.584903       -15.9160
  76   2.0000      -0.567781       -15.4501
  77   2.0000      -0.560693       -15.2572
  78   2.0000      -0.543452       -14.7881
  79   2.0000      -0.531301       -14.4574
  80   2.0000      -0.520743       -14.1701
  81   2.0000      -0.505537       -13.7564
  82   2.0000      -0.494455       -13.4548
  83   2.0000      -0.493600       -13.4315
  84   2.0000      -0.483909       -13.1678
  85   2.0000      -0.478941       -13.0326
  86   2.0000      -0.473762       -12.8917
  87   2.0000      -0.473473       -12.8839
  88   2.0000      -0.464853       -12.6493
  89   2.0000      -0.463437       -12.6108
  90   2.0000      -0.461831       -12.5671
  91   2.0000      -0.460817       -12.5395
  92   2.0000      -0.455093       -12.3837
  93   2.0000      -0.453600       -12.3431
  94   2.0000      -0.451674       -12.2907
  95   2.0000      -0.445360       -12.1189
  96   2.0000      -0.444404       -12.0928
  97   2.0000      -0.440709       -11.9923
  98   2.0000      -0.438517       -11.9327
  99   2.0000      -0.429444       -11.6858
 100   2.0000      -0.426859       -11.6154
 101   2.0000      -0.425349       -11.5743
 102   2.0000      -0.421344       -11.4654
 103   2.0000      -0.419092       -11.4041
 104   2.0000      -0.415130       -11.2963
 105   2.0000      -0.410333       -11.1657
 106   2.0000      -0.410158       -11.1610
 107   2.0000      -0.407282       -11.0827
 108   2.0000      -0.398830       -10.8527
 109   2.0000      -0.396025       -10.7764
 110   2.0000      -0.389012       -10.5855
 111   2.0000      -0.383072       -10.4239
 112   2.0000      -0.380971       -10.3668
 113   2.0000      -0.375232       -10.2106
 114   2.0000      -0.372918       -10.1476
 115   2.0000      -0.372115       -10.1258
 116   2.0000      -0.369846       -10.0640
 117   2.0000      -0.354845        -9.6558
 118   2.0000      -0.349454        -9.5091
 119   2.0000      -0.344262        -9.3679
 120   2.0000      -0.340944        -9.2776
 121   2.0000      -0.339306        -9.2330
 122   2.0000      -0.324274        -8.8240
 123   2.0000      -0.316883        -8.6228
 124   2.0000      -0.306607        -8.3432
 125   2.0000      -0.299322        -8.1450
 126   2.0000      -0.289852        -7.8873
 127   2.0000      -0.283823        -7.7232
 128   2.0000      -0.282282        -7.6813
 129   2.0000      -0.278684        -7.5834
 130   2.0000      -0.272219        -7.4074
 131   2.0000      -0.267770        -7.2864
 132   2.0000      -0.253163        -6.8889
 133   2.0000      -0.248541        -6.7631
 134   2.0000      -0.243112        -6.6154
 135   2.0000      -0.231475        -6.2988
 136   2.0000      -0.220274        -5.9940
 137   0.0000      -0.089363        -2.4317
 138   0.0000      -0.061937        -1.6854
 139   0.0000      -0.036466        -0.9923
 140   0.0000      -0.031460        -0.8561
 141   0.0000      -0.005407        -0.1471

MULLIKEN ATOMIC CHARGES
-----------------------
   0 C :   -0.449556
   1 C :   -0.343625
   2 C :    0.083519
   3 C :    0.320051
   4 N :   -0.598876
   5 C :   -0.284249
   6 C :    0.190631
   7 C :   -0.143266
   8 C :   -0.189465
   9 C :    0.354849
  10 O :   -0.547013
  11 C :    1.086170
  12 F :   -0.293604
  13 F :   -0.280379
  14 F :   -0.289773
  15 C :   -0.169390
  16 C :   -0.144305
  17 S :    1.216446
  18 O :   -0.545374
  19 O :   -0.525805
  20 C :   -0.143408
  21 C :   -0.151024
  22 C :   -0.146307
  23 C :    0.080786
  24 C :    0.530328
  25 O :   -0.445325
  26 O :   -0.622287
  27 C :   -0.139773
  28 C :   -0.142844
  29 N :   -0.358135
  30 C :   -0.052633
  31 C :    0.138107
  32 C :   -0.202349
  33 C :   -0.126166
  34 C :   -0.123455
  35 C :   -0.199398
  36 C :    0.118504
  37 H :    0.152738
  38 H :    0.140660
  39 H :    0.176015
  40 H :    0.142608
  41 H :    0.154360
  42 H :    0.174814
  43 H :    0.160147
  44 H :    0.137411
  45 H :    0.149759
  46 H :    0.143330
  47 H :    0.120560
  48 H :    0.191586
  49 H :    0.174705
  50 H :    0.435361
  51 H :    0.182858
  52 H :    0.187736
  53 H :    0.157504
  54 H :    0.142066
  55 H :    0.137176
  56 H :    0.137784
  57 H :    0.139216
Sum of atomic charges:   -0.0000000

LOEWDIN ATOMIC CHARGES
----------------------
   0 C :   -0.355857
   1 C :   -0.233146
   2 C :   -0.009505
   3 C :    0.034352
   4 N :   -0.282377
   5 C :   -0.151235
   6 C :   -0.037198
   7 C :   -0.107687
   8 C :   -0.155459
   9 C :    0.089009
  10 O :   -0.160930
  11 C :    0.361129
  12 F :   -0.107475
  13 F :   -0.088774
  14 F :   -0.103937
  15 C :   -0.138762
  16 C :   -0.116633
  17 S :    1.263548
  18 O :   -0.571361
  19 O :   -0.562198
  20 C :   -0.174679
  21 C :   -0.109070
  22 C :   -0.099812
  23 C :   -0.037056
  24 C :    0.182205
  25 O :   -0.262331
  26 O :   -0.333760
  27 C :   -0.086079
  28 C :   -0.099771
  29 N :   -0.111520
  30 C :   -0.056633
  31 C :   -0.028601
  32 C :   -0.110651
  33 C :   -0.126314
  34 C :   -0.118705
  35 C :   -0.125786
  36 C :   -0.005034
  37 H :    0.126437
  38 H :    0.122720
  39 H :    0.134192
  40 H :    0.123741
  41 H :    0.131299
  42 H :    0.141918
  43 H :    0.130523
  44 H :    0.137735
  45 H :    0.141093
  46 H :    0.143050
  47 H :    0.128939
  48 H :    0.160652
  49 H :    0.155493
  50 H :    0.350901
  51 H :    0.161359
  52 H :    0.159756
  53 H :    0.139850
  54 H :    0.138458
  55 H :    0.135863
  56 H :    0.136467
  57 H :    0.137648

  Mayer bond orders larger than 0.100000
B(  0-C ,  1-C ) :   0.9971 B(  0-C , 37-H ) :   0.9449 B(  0-C , 38-H ) :   0.9470
B(  0-C , 39-H ) :   0.9335 B(  1-C ,  2-C ) :   0.9948 B(  1-C , 40-H ) :   0.9229
B(  1-C , 41-H ) :   0.9251 B(  2-C ,  3-C ) :   1.4330 B(  2-C , 30-C ) :   0.1011
B(  2-C , 36-C ) :   1.2589 B(  3-C ,  4-N ) :   0.8975 B(  3-C , 29-N ) :   1.2814
B(  4-N ,  5-C ) :   0.9347 B(  4-N , 17-S ) :   0.8047 B(  5-C ,  6-C ) :   0.9378
B(  5-C , 42-H ) :   0.9216 B(  5-C , 43-H ) :   0.9261 B(  6-C ,  7-C ) :   1.4242
B(  6-C , 16-C ) :   1.4389 B(  7-C ,  8-C ) :   1.4433 B(  7-C , 44-H ) :   0.9184
B(  8-C ,  9-C ) :   1.3862 B(  8-C , 45-H ) :   0.9099 B(  9-C , 10-O ) :   0.8208
B(  9-C , 15-C ) :   1.4260 B( 10-O , 11-C ) :   0.9921 B( 11-C , 12-F ) :   0.9654
B( 11-C , 13-F ) :   1.0064 B( 11-C , 14-F ) :   0.9706 B( 15-C , 16-C ) :   1.4375
B( 15-C , 46-H ) :   0.9185 B( 16-C , 47-H ) :   0.9177 B( 17-S , 18-O ) :   1.6196
B( 17-S , 19-O ) :   1.6593 B( 17-S , 20-C ) :   0.8085 B( 20-C , 21-C ) :   1.3947
B( 20-C , 28-C ) :   1.3804 B( 21-C , 22-C ) :   1.4100 B( 21-C , 48-H ) :   0.9019
B( 22-C , 23-C ) :   1.3858 B( 22-C , 49-H ) :   0.9147 B( 23-C , 24-C ) :   1.0074
B( 23-C , 27-C ) :   1.3967 B( 24-C , 25-O ) :   1.8589 B( 24-C , 26-O ) :   1.0270
B( 26-O , 50-H ) :   0.7412 B( 27-C , 28-C ) :   1.4272 B( 27-C , 51-H ) :   0.9090
B( 28-C , 52-H ) :   0.9051 B( 29-N , 30-C ) :   1.4927 B( 30-C , 31-C ) :   1.2312
B( 30-C , 53-H ) :   0.9257 B( 31-C , 32-C ) :   1.2816 B( 31-C , 36-C ) :   1.2887
B( 32-C , 33-C ) :   1.5144 B( 32-C , 35-C ) :   0.1056 B( 32-C , 54-H ) :   0.9229
B( 33-C , 34-C ) :   1.3516 B( 33-C , 55-H ) :   0.9289 B( 34-C , 35-C ) :   1.5125
B( 34-C , 56-H ) :   0.9289 B( 35-C , 36-C ) :   1.2859 B( 35-C , 57-H ) :   0.9164

FINAL SINGLE POINT ENERGY     -2185.589930640812

DIPOLE MOMENT
-------------

Method             : SCF
Type of density    : Electron Density
Multiplicity       :   1
Irrep              :   0
Energy             : -2185.5899306408118719 Eh
Relativity type    :
Basis              : AO
                                X                 Y                 Z
Electronic contribution:    -35.795525505     -33.494319310      -8.906119126
Nuclear contribution   :     36.469977211      35.422356172       7.361696758
                        -----------------------------------------
Total Dipole Moment    :      0.674451706       1.928036862      -1.544422368
                        -----------------------------------------
Magnitude (a.u.)       :      2.560752173
Magnitude (Debye)      :      6.508914753

Rotational constants in cm-1:             0.003074             0.002203             0.001384
Rotational constants in MHz :            92.157184            66.045761            41.487283

                             ****ORCA TERMINATED NORMALLY****
TOTAL RUN TIME: 0 days 0 hours 12 minutes 37 seconds 628 msec
