                         Program Version 6.0.0  -   RELEASE  -
|  1> ! B3LYP 6-31G* SP
|  2>
|  3> * xyz 0 1
|  4> C 2.9609 -2.4355 2.7573
|  5> C 1.9441 -1.5194 2.1547
|  6> N 0.7203 -1.3330 2.6874
|  7> C 0.1344 -0.4846 1.8182
|  8> N -1.2087 -0.0144 1.9755
|  9> C -1.7947 0.9594 1.0939
| 10> C -1.0616 2.1069 0.7502
| 11> C -1.5957 3.0592 -0.1133
| 12> C -2.8655 2.8785 -0.6540
| 13> C -3.6207 1.7401 -0.3371
| 14> C -3.1055 0.7847 0.5800
| 15> C -3.8787 -0.4860 0.8913
| 16> C -5.3642 -0.4102 0.4990
| 17> O -5.9650 -1.6784 0.5811
| 18> C -5.5227 0.1784 -0.9060
| 19> C -5.0062 1.6164 -0.9271
| 20> O 0.9115 -0.1551 0.8116
| 21> C 2.0550 -0.7692 0.9912
| 22> C 3.1972 -0.6478 0.0593
| 23> C 2.9478 -0.4189 -1.3027
| 24> C 4.0059 -0.2852 -2.2060
| 25> C 5.3359 -0.3821 -1.7645
| 26> C 6.4779 -0.1871 -2.7297
| 27> F 7.5934 -0.8942 -2.3154
| 28> F 6.1302 -0.6300 -3.9942
| 29> F 6.7947 1.1569 -2.7944
| 30> C 5.5856 -0.5606 -0.3936
| 31> C 4.5269 -0.6952 0.5094
| 32> H 3.6596 -1.8533 3.3926
| 33> H 2.4553 -3.1946 3.3902
| 34> H 3.5235 -2.9658 1.9609
| 35> H -1.7796 -0.4272 2.7451
| 36> H -0.0754 2.2715 1.1651
| 37> H -1.0221 3.9419 -0.3651
| 38> H -3.2635 3.6305 -1.3246
| 39> H -3.8396 -0.7039 1.9784
| 40> H -3.3901 -1.3263 0.3515
| 41> H -5.8855 0.2562 1.2221
| 42> H -5.5289 -2.2642 -0.0921
| 43> H -4.9580 -0.4331 -1.6445
| 44> H -6.5957 0.1716 -1.1964
| 45> H -5.6982 2.2651 -0.3473
| 46> H -5.0050 1.9740 -1.9800
| 47> H 1.9310 -0.3498 -1.6701
| 48> H 3.7836 -0.1031 -3.2500
| 49> H 6.6009 -0.5845 -0.0177
| 50> H 4.7551 -0.7984 1.5601
| 51> *
| 52>
| 53>                          ****END OF INPUT****

CARTESIAN COORDINATES (ANGSTROEM)
---------------------------------
  C      2.960900   -2.435500    2.757300
  C      1.944100   -1.519400    2.154700
  N      0.720300   -1.333000    2.687400
  C      0.134400   -0.484600    1.818200
  N     -1.208700   -0.014400    1.975500
  C     -1.794700    0.959400    1.093900
  C     -1.061600    2.106900    0.750200
  C     -1.595700    3.059200   -0.113300
  C     -2.865500    2.878500   -0.654000
  C     -3.620700    1.740100   -0.337100
  C     -3.105500    0.784700    0.580000
  C     -3.878700   -0.486000    0.891300
  C     -5.364200   -0.410200    0.499000
  O     -5.965000   -1.678400    0.581100
  C     -5.522700    0.178400   -0.906000
  C     -5.006200    1.616400   -0.927100
  O      0.911500   -0.155100    0.811600
  C      2.055000   -0.769200    0.991200
  C      3.197200   -0.647800    0.059300
  C      2.947800   -0.418900   -1.302700
  C      4.005900   -0.285200   -2.206000
  C      5.335900   -0.382100   -1.764500
  C      6.477900   -0.187100   -2.729700
  F      7.593400   -0.894200   -2.315400
  F      6.130200   -0.630000   -3.994200
  F      6.794700    1.156900   -2.794400
  C      5.585600   -0.560600   -0.393600
  C      4.526900   -0.695200    0.509400
  H      3.659600   -1.853300    3.392600
  H      2.455300   -3.194600    3.390200
  H      3.523500   -2.965800    1.960900
  H     -1.779600   -0.427200    2.745100
  H     -0.075400    2.271500    1.165100
  H     -1.022100    3.941900   -0.365100
  H     -3.263500    3.630500   -1.324600
  H     -3.839600   -0.703900    1.978400
  H     -3.390100   -1.326300    0.351500
  H     -5.885500    0.256200    1.222100
  H     -5.528900   -2.264200   -0.092100
  H     -4.958000   -0.433100   -1.644500
  H     -6.595700    0.171600   -1.196400
  H     -5.698200    2.265100   -0.347300
  H     -5.005000    1.974000   -1.980000
  H      1.931000   -0.349800   -1.670100
  H      3.783600   -0.103100   -3.250000
  H      6.600900   -0.584500   -0.017700
  H      4.755100   -0.798400    1.560100

 Total Charge           Charge          ....    0
 Multiplicity           Mult            ....    1
 Number of Electrons    NEL             ....  202
 Basis Dimension        Dim             ....  430

ORBITAL ENERGIES
----------------

  NO   OCC          E(Eh)            E(eV)
   0   2.0000     -24.713922      -672.5000
   1   2.0000     -24.713878      -672.4988
   2   2.0000     -24.709772      -672.3871
   3   2.0000     -19.235543      -523.4257
   4   2.0000     -19.140368      -520.8359
   5   2.0000     -14.375491      -391.1770
   6   2.0000     -14.316397      -389.5690
   7   2.0000     -10.427101      -283.7358
   8   2.0000     -10.312776      -280.6249
   9   2.0000     -10.234261      -278.4884
  10   2.0000     -10.232918      -278.4519
  11   2.0000     -10.230070      -278.3744
  12   2.0000     -10.210923      -277.8533
  13   2.0000     -10.208551      -277.7888
  14   2.0000     -10.205345      -277.7016
  15   2.0000     -10.198593      -277.5178
  16   2.0000     -10.198234      -277.5081
  17   2.0000     -10.197209      -277.4802
  18   2.0000     -10.195336      -277.4292
  19   2.0000     -10.193557      -277.3808
  20   2.0000     -10.191048      -277.3125
  21   2.0000     -10.190663      -277.3020
  22   2.0000     -10.188558      -277.2447
  23   2.0000     -10.183943      -277.1192
  24   2.0000     -10.183256      -277.1005
  25   2.0000     -10.181330      -277.0481
  26   2.0000     -10.180285      -277.0196
  27   2.0000     -10.180068      -277.0137
  28   2.0000      -1.273071       -34.6420
  29   2.0000      -1.198899       -32.6237
  30   2.0000      -1.197321       -32.5808
  31   2.0000      -1.173951       -31.9448
  32   2.0000      -1.021047       -27.7841
  33   2.0000      -0.946377       -25.7522
  34   2.0000      -0.915377       -24.9087
  35   2.0000      -0.869738       -23.6668
  36   2.0000      -0.858208       -23.3530
  37   2.0000      -0.808481       -21.9999
  38   2.0000      -0.802919       -21.8485
  39   2.0000      -0.771930       -21.0053
  40   2.0000      -0.755656       -20.5624
  41   2.0000      -0.751959       -20.4619
  42   2.0000      -0.735894       -20.0247
  43   2.0000      -0.718470       -19.5506
  44   2.0000      -0.713645       -19.4193
  45   2.0000      -0.684787       -18.6340
  46   2.0000      -0.638054       -17.3623
  47   2.0000      -0.630269       -17.1505
  48   2.0000      -0.625235       -17.0135
  49   2.0000      -0.618135       -16.8203
  50   2.0000      -0.609904       -16.5963
  51   2.0000      -0.598545       -16.2872
  52   2.0000      -0.572351       -15.5745
  53   2.0000      -0.563991       -15.3470
  54   2.0000      -0.563091       -15.3225
  55   2.0000      -0.559789       -15.2326
  56   2.0000      -0.555100       -15.1050
  57   2.0000      -0.541206       -14.7270
  58   2.0000      -0.520001       -14.1500
  59   2.0000      -0.504114       -13.7176
  60   2.0000      -0.501051       -13.6343
  61   2.0000      -0.491891       -13.3850
  62   2.0000      -0.484022       -13.1709
  63   2.0000      -0.466925       -12.7057
  64   2.0000      -0.460764       -12.5380
  65   2.0000      -0.458378       -12.4731
  66   2.0000      -0.456196       -12.4137
  67   2.0000      -0.442532       -12.0419
  68   2.0000      -0.441925       -12.0254
  69   2.0000      -0.439741       -11.9660
  70   2.0000      -0.434050       -11.8111
  71   2.0000      -0.432411       -11.7665
  72   2.0000      -0.424655       -11.5554
  73   2.0000      -0.417507       -11.3609
  74   2.0000      -0.414746       -11.2858
  75   2.0000      -0.413727       -11.2581
  76   2.0000      -0.405089       -11.0230
  77   2.0000      -0.404130       -10.9969
  78   2.0000      -0.403135       -10.9698
  79   2.0000      -0.392115       -10.6700
  80   2.0000      -0.391537       -10.6543
  81   2.0000      -0.391232       -10.6460
  82   2.0000      -0.378458       -10.2984
  83   2.0000      -0.374159       -10.1814
  84   2.0000      -0.371702       -10.1145
  85   2.0000      -0.366970        -9.9858
  86   2.0000      -0.357124        -9.7178
  87   2.0000      -0.355679        -9.6785
  88   2.0000      -0.349305        -9.5051
  89   2.0000      -0.343886        -9.3576
  90   2.0000      -0.334170        -9.0932
  91   2.0000      -0.329412        -8.9638
  92   2.0000      -0.311171        -8.4674
  93   2.0000      -0.300348        -8.1729
  94   2.0000      -0.285990        -7.7822
  95   2.0000      -0.273928        -7.4540
  96   2.0000      -0.263137        -7.1603
  97   2.0000      -0.259662        -7.0658
  98   2.0000      -0.240724        -6.5504
  99   2.0000      -0.238526        -6.4906
 100   2.0000      -0.186179        -5.0662
 101   0.0000      -0.035874        -0.9762
 102   0.0000      -0.011190        -0.3045
 103   0.0000      -0.008070        -0.2196
 104   0.0000      -0.004268        -0.1161
 105   0.0000       0.038422         1.0455

MULLIKEN ATOMIC CHARGES
-----------------------
   0 C :   -0.528817
   1 C :    0.192565
   2 N :   -0.446313
   3 C :    0.631896
   4 N :   -0.739100
   5 C :    0.245106
   6 C :   -0.148169
   7 C :   -0.133753
   8 C :   -0.176494
   9 C :    0.101223
  10 C :    0.065251
  11 C :   -0.351964
  12 C :    0.167238
  13 O :   -0.631212
  14 C :   -0.287005
  15 C :   -0.347255
  16 O :   -0.383524
  17 C :    0.165204
  18 C :    0.102673
  19 C :   -0.170132
  20 C :   -0.165283
  21 C :   -0.014998
  22 C :    0.892535
  23 F :   -0.307134
  24 F :   -0.307157
  25 F :   -0.298054
  26 C :   -0.169016
  27 C :   -0.171046
  28 H :    0.163807
  29 H :    0.171363
  30 H :    0.165549
  31 H :    0.356199
  32 H :    0.137899
  33 H :    0.131192
  34 H :    0.121831
  35 H :    0.137823
  36 H :    0.143909
  37 H :    0.136496
  38 H :    0.386803
  39 H :    0.122866
  40 H :    0.145633
  41 H :    0.154859
  42 H :    0.147028
  43 H :    0.145470
  44 H :    0.150223
  45 H :    0.150932
  46 H :    0.142851
Sum of atomic charges:   -0.0000000

LOEWDIN ATOMIC CHARGES
----------------------
   0 C :   -0.358488
   1 C :   -0.023039
   2 N :   -0.196390
   3 C :    0.121707
   4 N :   -0.210048
   5 C :    0.019923
   6 C :   -0.140812
   7 C :   -0.126593
   8 C :   -0.139198
   9 C :   -0.019925
  10 C :   -0.041524
  11 C :   -0.234353
  12 C :   -0.019642
  13 O :   -0.389384
  14 C :   -0.241684
  15 C :   -0.224439
  16 O :    0.000036
  17 C :   -0.025308
  18 C :   -0.013451
  19 C :   -0.127052
  20 C :   -0.111036
  21 C :   -0.078416
  22 C :    0.308661
  23 F :   -0.115226
  24 F :   -0.115109
  25 F :   -0.115787
  26 C :   -0.111801
  27 C :   -0.129529
  28 H :    0.136708
  29 H :    0.143965
  30 H :    0.140329
  31 H :    0.276132
  32 H :    0.137668
  33 H :    0.133797
  34 H :    0.129992
  35 H :    0.126280
  36 H :    0.129029
  37 H :    0.121404
  38 H :    0.309587
  39 H :    0.114614
  40 H :    0.128495
  41 H :    0.132216
  42 H :    0.130928
  43 H :    0.140652
  44 H :    0.142589
  45 H :    0.143098
  46 H :    0.140424

  Mayer bond orders larger than 0.100000
B(  0-C ,  1-C ) :   1.0187 B(  0-C , 28-H ) :   0.9309 B(  0-C , 29-H ) :   0.9378
B(  0-C , 30-H ) :   0.9367 B(  1-C ,  2-N ) :   1.2915 B(  1-C , 17-C ) :   1.5075
B(  2-N ,  3-C ) :   1.5035 B(  3-C ,  4-N ) :   1.0107 B(  3-C , 16-O ) :   1.1205
B(  4-N ,  5-C ) :   0.8801 B(  4-N , 31-H ) :   0.8117 B(  5-C ,  6-C ) :   1.4112
B(  5-C , 10-C ) :   1.3670 B(  6-C ,  7-C ) :   1.4416 B(  6-C , 32-H ) :   0.9189
B(  7-C ,  8-C ) :   1.4378 B(  7-C , 33-H ) :   0.9278 B(  8-C ,  9-C ) :   1.4058
B(  8-C , 34-H ) :   0.9269 B(  9-C , 10-C ) :   1.4403 B(  9-C , 15-C ) :   0.9797
B( 10-C , 11-C ) :   0.9557 B( 11-C , 12-C ) :   0.9830 B( 11-C , 35-H ) :   0.9251
B( 11-C , 36-H ) :   0.9202 B( 12-C , 13-O ) :   0.9292 B( 12-C , 14-C ) :   0.9958
B( 12-C , 37-H ) :   0.9246 B( 13-O , 38-H ) :   0.7873 B( 14-C , 15-C ) :   0.9894
B( 14-C , 39-H ) :   0.9353 B( 14-C , 40-H ) :   0.9338 B( 15-C , 41-H ) :   0.9240
B( 15-C , 42-H ) :   0.9330 B( 16-O , 17-C ) :   0.9629 B( 17-C , 18-C ) :   1.0645
B( 18-C , 19-C ) :   1.3731 B( 18-C , 27-C ) :   1.3914 B( 19-C , 20-C ) :   1.4316
B( 19-C , 43-H ) :   0.9234 B( 20-C , 21-C ) :   1.4010 B( 20-C , 44-H ) :   0.9209
B( 21-C , 22-C ) :   0.9823 B( 21-C , 26-C ) :   1.4035 B( 22-C , 23-F ) :   0.9465
B( 22-C , 24-F ) :   0.9462 B( 22-C , 25-F ) :   0.9852 B( 26-C , 27-C ) :   1.4300
B( 26-C , 45-H ) :   0.9201 B( 27-C , 46-H ) :   0.9189

FINAL SINGLE POINT ENERGY     -1370.368347499184

DIPOLE MOMENT
-------------

Method             : SCF
Type of density    : Electron Density
Multiplicity       :   1
Irrep              :   0
Energy             : -1370.3683474991835283 Eh
Relativity type    :
Basis              : AO
                                X                 Y                 Z
Electronic contribution:     50.575419017       0.144912881     -16.691982866
Nuclear contribution   :    -51.601819527       0.120087670      16.722372946
                        -----------------------------------------
Total Dipole Moment    :     -1.026400510       0.265000551       0.030390080
                        -----------------------------------------
Magnitude (a.u.)       :      1.060493685
Magnitude (Debye)      :      2.695560727

Rotational constants in cm-1:             0.010734             0.002150             0.001959
Rotational constants in MHz :           321.785462            64.446744            58.729557

                             ****ORCA TERMINATED NORMALLY****
TOTAL RUN TIME: 0 days 0 hours 4 minutes 34 seconds 442 msec
