                         Program Version 6.0.0  -   RELEASE  -
|  1> ! B3LYP 6-31G* SP
|  2>
|  3> * xyz 0 1
|  4> O -6.1634 -1.9388 -1.2856
|  5> C -4.8663 -1.4742 -1.0701
|  6> C -4.6840 -0.2154 -0.4918
|  7> C -3.3940 0.2852 -0.2535
|  8> C -2.2648 -0.4824 -0.6327
|  9> C -2.4598 -1.7517 -1.2021
| 10> C -3.7507 -2.2477 -1.4243
| 11> O -3.9279 -3.5071 -1.9957
| 12> C -0.8466 0.0027 -0.3763
| 13> N -0.6071 1.4107 -0.7600
| 14> C 0.5955 2.0547 -0.2776
| 15> S 0.7618 3.6890 -0.2832
| 16> N 1.6697 1.2675 0.2424
| 17> C 1.8140 1.0616 1.6822
| 18> C 2.2402 -0.3783 1.9890
| 19> C 3.6236 -0.6769 1.4710
| 20> C 4.7543 -0.2388 2.1809
| 21> C 6.0382 -0.4978 1.6909
| 22> C 6.2031 -1.1907 0.4871
| 23> Cl 7.8144 -1.5177 -0.1240
| 24> C 5.0813 -1.6234 -0.2295
| 25> C 3.7960 -1.3660 0.2582
| 26> C -1.5827 2.1440 -1.5872
| 27> C -2.7428 2.6741 -0.7283
| 28> C -3.2269 1.6683 0.3300
| 29> H -6.3493 -2.8433 -1.7020
| 30> H -5.5548 0.3737 -0.2298
| 31> H -1.6064 -2.3604 -1.4753
| 32> H -3.1394 -4.0865 -2.2606
| 33> H -0.6641 -0.1167 0.7124
| 34> H -0.1093 -0.6371 -0.9093
| 35> H 2.5107 1.1447 -0.3649
| 36> H 0.8451 1.2565 2.1924
| 37> H 2.5597 1.7802 2.0859
| 38> H 1.5007 -1.0854 1.5535
| 39> H 2.2224 -0.5323 3.0901
| 40> H 4.6400 0.3043 3.1122
| 41> H 6.9033 -0.1589 2.2476
| 42> H 5.2035 -2.1578 -1.1630
| 43> H 2.9363 -1.6990 -0.3109
| 44> H -1.9789 1.4750 -2.3823
| 45> H -1.1019 2.9839 -2.1315
| 46> H -3.5903 2.9403 -1.3973
| 47> H -2.4195 3.6034 -0.2111
| 48> H -4.1830 2.0350 0.7636
| 49> H -2.4999 1.6297 1.1703
| 50> *
| 51>
| 52>                          ****END OF INPUT****

CARTESIAN COORDINATES (ANGSTROEM)
---------------------------------
  O     -6.163400   -1.938800   -1.285600
  C     -4.866300   -1.474200   -1.070100
  C     -4.684000   -0.215400   -0.491800
  C     -3.394000    0.285200   -0.253500
  C     -2.264800   -0.482400   -0.632700
  C     -2.459800   -1.751700   -1.202100
  C     -3.750700   -2.247700   -1.424300
  O     -3.927900   -3.507100   -1.995700
  C     -0.846600    0.002700   -0.376300
  N     -0.607100    1.410700   -0.760000
  C      0.595500    2.054700   -0.277600
  S      0.761800    3.689000   -0.283200
  N      1.669700    1.267500    0.242400
  C      1.814000    1.061600    1.682200
  C      2.240200   -0.378300    1.989000
  C      3.623600   -0.676900    1.471000
  C      4.754300   -0.238800    2.180900
  C      6.038200   -0.497800    1.690900
  C      6.203100   -1.190700    0.487100
  Cl     7.814400   -1.517700   -0.124000
  C      5.081300   -1.623400   -0.229500
  C      3.796000   -1.366000    0.258200
  C     -1.582700    2.144000   -1.587200
  C     -2.742800    2.674100   -0.728300
  C     -3.226900    1.668300    0.330000
  H     -6.349300   -2.843300   -1.702000
  H     -5.554800    0.373700   -0.229800
  H     -1.606400   -2.360400   -1.475300
  H     -3.139400   -4.086500   -2.260600
  H     -0.664100   -0.116700    0.712400
  H     -0.109300   -0.637100   -0.909300
  H      2.510700    1.144700   -0.364900
  H      0.845100    1.256500    2.192400
  H      2.559700    1.780200    2.085900
  H      1.500700   -1.085400    1.553500
  H      2.222400   -0.532300    3.090100
  H      4.640000    0.304300    3.112200
  H      6.903300   -0.158900    2.247600
  H      5.203500   -2.157800   -1.163000
  H      2.936300   -1.699000   -0.310900
  H     -1.978900    1.475000   -2.382300
  H     -1.101900    2.983900   -2.131500
  H     -3.590300    2.940300   -1.397300
  H     -2.419500    3.603400   -0.211100
  H     -4.183000    2.035000    0.763600
  H     -2.499900    1.629700    1.170300

 Total Charge           Charge          ....    0
 Multiplicity           Mult            ....    1
 Number of Electrons    NEL             ....  198
 Basis Dimension        Dim             ....  400

ORBITAL ENERGIES
----------------

  NO   OCC          E(Eh)            E(eV)
   0   2.0000    -101.527544     -2762.7049
   1   2.0000     -88.799991     -2416.3706
   2   2.0000     -19.176814      -521.8276
   3   2.0000     -19.162945      -521.4502
   4   2.0000     -14.368033      -390.9740
   5   2.0000     -14.324283      -389.7836
   6   2.0000     -10.288357      -279.9604
   7   2.0000     -10.249463      -278.9021
   8   2.0000     -10.249066      -278.8913
   9   2.0000     -10.247173      -278.8398
  10   2.0000     -10.227923      -278.3159
  11   2.0000     -10.218861      -278.0693
  12   2.0000     -10.212003      -277.8827
  13   2.0000     -10.201202      -277.5888
  14   2.0000     -10.199097      -277.5315
  15   2.0000     -10.198842      -277.5246
  16   2.0000     -10.195914      -277.4449
  17   2.0000     -10.195527      -277.4344
  18   2.0000     -10.194338      -277.4020
  19   2.0000     -10.190076      -277.2861
  20   2.0000     -10.189943      -277.2824
  21   2.0000     -10.188783      -277.2509
  22   2.0000     -10.182703      -277.0854
  23   2.0000     -10.181852      -277.0623
  24   2.0000     -10.175214      -276.8816
  25   2.0000      -9.459486      -257.4057
  26   2.0000      -7.877862      -214.3675
  27   2.0000      -7.222492      -196.5340
  28   2.0000      -7.213086      -196.2781
  29   2.0000      -7.212798      -196.2702
  30   2.0000      -5.841183      -158.9467
  31   2.0000      -5.838726      -158.8798
  32   2.0000      -5.832549      -158.7117
  33   2.0000      -1.046522       -28.4773
  34   2.0000      -1.021167       -27.7874
  35   2.0000      -0.952969       -25.9316
  36   2.0000      -0.898573       -24.4514
  37   2.0000      -0.888141       -24.1675
  38   2.0000      -0.853668       -23.2295
  39   2.0000      -0.841110       -22.8878
  40   2.0000      -0.791975       -21.5507
  41   2.0000      -0.782924       -21.3044
  42   2.0000      -0.767257       -20.8781
  43   2.0000      -0.758178       -20.6311
  44   2.0000      -0.742448       -20.2030
  45   2.0000      -0.733107       -19.9489
  46   2.0000      -0.701528       -19.0896
  47   2.0000      -0.683730       -18.6052
  48   2.0000      -0.664336       -18.0775
  49   2.0000      -0.632833       -17.2203
  50   2.0000      -0.627747       -17.0819
  51   2.0000      -0.621578       -16.9140
  52   2.0000      -0.591669       -16.1001
  53   2.0000      -0.589616       -16.0443
  54   2.0000      -0.581796       -15.8315
  55   2.0000      -0.554256       -15.0821
  56   2.0000      -0.540887       -14.7183
  57   2.0000      -0.525930       -14.3113
  58   2.0000      -0.508628       -13.8405
  59   2.0000      -0.506588       -13.7849
  60   2.0000      -0.495714       -13.4891
  61   2.0000      -0.488268       -13.2865
  62   2.0000      -0.471205       -12.8221
  63   2.0000      -0.465362       -12.6631
  64   2.0000      -0.460077       -12.5193
  65   2.0000      -0.449812       -12.2400
  66   2.0000      -0.443545       -12.0695
  67   2.0000      -0.438305       -11.9269
  68   2.0000      -0.435835       -11.8597
  69   2.0000      -0.432549       -11.7703
  70   2.0000      -0.422296       -11.4913
  71   2.0000      -0.419151       -11.4057
  72   2.0000      -0.415674       -11.3111
  73   2.0000      -0.410525       -11.1709
  74   2.0000      -0.399117       -10.8605
  75   2.0000      -0.387020       -10.5313
  76   2.0000      -0.383751       -10.4424
  77   2.0000      -0.379764       -10.3339
  78   2.0000      -0.378632       -10.3031
  79   2.0000      -0.367936       -10.0120
  80   2.0000      -0.360141        -9.7999
  81   2.0000      -0.354270        -9.6402
  82   2.0000      -0.353525        -9.6199
  83   2.0000      -0.351509        -9.5650
  84   2.0000      -0.343580        -9.3493
  85   2.0000      -0.341789        -9.3005
  86   2.0000      -0.334698        -9.1076
  87   2.0000      -0.326906        -8.8956
  88   2.0000      -0.321421        -8.7463
  89   2.0000      -0.311118        -8.4660
  90   2.0000      -0.310479        -8.4486
  91   2.0000      -0.296917        -8.0795
  92   2.0000      -0.262943        -7.1550
  93   2.0000      -0.243832        -6.6350
  94   2.0000      -0.238251        -6.4832
  95   2.0000      -0.234078        -6.3696
  96   2.0000      -0.215527        -5.8648
  97   2.0000      -0.203687        -5.5426
  98   2.0000      -0.185306        -5.0424
  99   0.0000      -0.037935        -1.0323
 100   0.0000      -0.015808        -0.4301
 101   0.0000      -0.012996        -0.3537
 102   0.0000      -0.000265        -0.0072
 103   0.0000       0.007932         0.2158

MULLIKEN ATOMIC CHARGES
-----------------------
   0 O :   -0.677734
   1 C :    0.356165
   2 C :   -0.241021
   3 C :    0.129953
   4 C :    0.087890
   5 C :   -0.271960
   6 C :    0.329448
   7 O :   -0.692189
   8 C :   -0.194801
   9 N :   -0.358081
  10 C :    0.258793
  11 S :   -0.241599
  12 N :   -0.601423
  13 C :   -0.101211
  14 C :   -0.341979
  15 C :    0.148041
  16 C :   -0.160209
  17 C :   -0.130939
  18 C :   -0.065453
  19 Cl:   -0.021069
  20 C :   -0.131230
  21 C :   -0.175532
  22 C :   -0.154717
  23 C :   -0.245615
  24 C :   -0.352902
  25 H :    0.426590
  26 H :    0.141943
  27 H :    0.113717
  28 H :    0.419836
  29 H :    0.165736
  30 H :    0.150933
  31 H :    0.337140
  32 H :    0.151604
  33 H :    0.150023
  34 H :    0.144965
  35 H :    0.141847
  36 H :    0.138146
  37 H :    0.153145
  38 H :    0.149978
  39 H :    0.134157
  40 H :    0.156515
  41 H :    0.185646
  42 H :    0.132400
  43 H :    0.165202
  44 H :    0.144968
  45 H :    0.144883
Sum of atomic charges:   -0.0000000

LOEWDIN ATOMIC CHARGES
----------------------
   0 O :   -0.349286
   1 C :    0.065189
   2 C :   -0.148637
   3 C :   -0.024582
   4 C :   -0.051030
   5 C :   -0.170135
   6 C :    0.042857
   7 O :   -0.362426
   8 C :   -0.140491
   9 N :   -0.080715
  10 C :   -0.031524
  11 S :   -0.172857
  12 N :   -0.312816
  13 C :   -0.142043
  14 C :   -0.229345
  15 C :   -0.020534
  16 C :   -0.126466
  17 C :   -0.128903
  18 C :   -0.091489
  19 Cl:    0.033819
  20 C :   -0.132832
  21 C :   -0.136579
  22 C :   -0.158006
  23 C :   -0.231173
  24 C :   -0.224464
  25 H :    0.341384
  26 H :    0.144428
  27 H :    0.126555
  28 H :    0.338094
  29 H :    0.133076
  30 H :    0.126180
  31 H :    0.259674
  32 H :    0.129008
  33 H :    0.117805
  34 H :    0.126511
  35 H :    0.128693
  36 H :    0.137049
  37 H :    0.144851
  38 H :    0.143291
  39 H :    0.134634
  40 H :    0.129446
  41 H :    0.150613
  42 H :    0.121834
  43 H :    0.135544
  44 H :    0.129330
  45 H :    0.126466

  Mayer bond orders larger than 0.100000
B(  0-O ,  1-C ) :   0.9188 B(  0-O , 25-H ) :   0.7547 B(  1-C ,  2-C ) :   1.3967
B(  1-C ,  6-C ) :   1.3205 B(  2-C ,  3-C ) :   1.4178 B(  2-C , 26-H ) :   0.9125
B(  3-C ,  4-C ) :   1.3937 B(  3-C , 24-C ) :   0.9930 B(  4-C ,  5-C ) :   1.4053
B(  4-C ,  8-C ) :   0.9680 B(  5-C ,  6-C ) :   1.3676 B(  5-C , 27-H ) :   0.9171
B(  6-C ,  7-O ) :   0.8792 B(  7-O , 28-H ) :   0.7646 B(  8-C ,  9-N ) :   0.9052
B(  8-C , 29-H ) :   0.9123 B(  8-C , 30-H ) :   0.9218 B(  9-N , 10-C ) :   1.1605
B(  9-N , 11-S ) :   0.1300 B(  9-N , 22-C ) :   0.9426 B( 10-C , 11-S ) :   1.6557
B( 10-C , 12-N ) :   1.0055 B( 12-N , 13-C ) :   0.9513 B( 12-N , 31-H ) :   0.8180
B( 13-C , 14-C ) :   0.9742 B( 13-C , 32-H ) :   0.9333 B( 13-C , 33-H ) :   0.9255
B( 14-C , 15-C ) :   0.9933 B( 14-C , 34-H ) :   0.9296 B( 14-C , 35-H ) :   0.9258
B( 15-C , 16-C ) :   1.4206 B( 15-C , 21-C ) :   1.4304 B( 16-C , 17-C ) :   1.4421
B( 16-C , 36-H ) :   0.9231 B( 17-C , 18-C ) :   1.4136 B( 17-C , 37-H ) :   0.9231
B( 18-C , 19-Cl) :   1.0114 B( 18-C , 20-C ) :   1.4212 B( 20-C , 21-C ) :   1.4281
B( 20-C , 38-H ) :   0.9236 B( 21-C , 39-H ) :   0.9219 B( 22-C , 23-C ) :   0.9888
B( 22-C , 40-H ) :   0.9239 B( 22-C , 41-H ) :   0.9142 B( 23-C , 24-C ) :   0.9926
B( 23-C , 42-H ) :   0.9363 B( 23-C , 43-H ) :   0.9256 B( 24-C , 44-H ) :   0.9364
B( 24-C , 45-H ) :   0.9233

FINAL SINGLE POINT ENERGY     -1854.188447678998

DIPOLE MOMENT
-------------

Method             : SCF
Type of density    : Electron Density
Multiplicity       :   1
Irrep              :   0
Energy             : -1854.1884476789975906 Eh
Relativity type    :
Basis              : AO
                                X                 Y                 Z
Electronic contribution:     23.520243907      -7.761002577      -4.809215957
Nuclear contribution   :    -24.182930151       5.881836957       4.754033681
                        -----------------------------------------
Total Dipole Moment    :     -0.662686244      -1.879165620      -0.055182276
                        -----------------------------------------
Magnitude (a.u.)       :      1.993354351
Magnitude (Debye)      :      5.066704103

Rotational constants in cm-1:             0.010180             0.002464             0.002123
Rotational constants in MHz :           305.201214            73.858663            63.636971

                             ****ORCA TERMINATED NORMALLY****
TOTAL RUN TIME: 0 days 0 hours 5 minutes 38 seconds 988 msec
