                         Program Version 6.0.0  -   RELEASE  -
|  1> ! B3LYP 6-31G* SP
|  2>
|  3> * xyz 0 1
|  4> C -8.1512 -1.1610 1.9643
|  5> N -7.1996 -0.6321 0.9672
|  6> C -5.9316 -1.1633 0.9036
|  7> O -5.5711 -2.0786 1.6960
|  8> C -5.0546 -0.6733 -0.0591
|  9> C -3.7624 -1.0020 -0.4351
| 10> C -2.8370 -2.0307 0.1397
| 11> C -1.6985 -1.3559 0.8429
| 12> O -1.8698 -0.9291 2.0159
| 13> N -0.4364 -1.1937 0.1721
| 14> C 0.6656 -0.4214 0.6722
| 15> N 1.8698 -0.4061 0.0612
| 16> C 2.7610 0.4120 0.6900
| 17> C 4.1547 0.5620 0.1994
| 18> C 4.9737 1.6261 0.6267
| 19> C 6.2879 1.7397 0.1684
| 20> F 7.0617 2.7691 0.5958
| 21> C 6.8132 0.7864 -0.7154
| 22> O 8.1418 0.9046 -1.1391
| 23> C 9.1736 0.0204 -0.6951
| 24> C 9.6243 0.3756 0.7204
| 25> F 10.0025 1.7054 0.7714
| 26> F 8.5943 0.1575 1.6225
| 27> F 10.7038 -0.4173 1.0735
| 28> C 5.9937 -0.2580 -1.1760
| 29> Cl 6.5754 -1.4111 -2.3710
| 30> C 4.6755 -0.3662 -0.7175
| 31> C 2.2514 1.0578 1.8249
| 32> S 0.6485 0.5870 2.0176
| 33> C -3.4652 -0.1418 -1.4915
| 34> O -4.4955 0.6462 -1.7396
| 35> C -5.4464 0.3351 -0.8880
| 36> N -6.6744 0.9123 -0.8007
| 37> C -7.0621 1.9856 -1.7277
| 38> C -7.5614 0.4135 0.1300
| 39> O -8.7174 0.9162 0.2153
| 40> H -8.0552 -2.2676 2.0454
| 41> H -7.9481 -0.7009 2.9574
| 42> H -9.2075 -0.9610 1.6801
| 43> H -2.4554 -2.6699 -0.6819
| 44> H -3.3619 -2.7019 0.8458
| 45> H -0.2984 -1.6841 -0.7418
| 46> H 4.6022 2.3817 1.3127
| 47> H 8.8314 -1.0353 -0.7255
| 48> H 10.0410 0.1188 -1.3831
| 49> H 4.0617 -1.1826 -1.0785
| 50> H 2.7823 1.7281 2.4900
| 51> H -2.5318 -0.1084 -2.0390
| 52> H -7.6530 1.5573 -2.5655
| 53> H -6.1721 2.5029 -2.1444
| 54> H -7.6730 2.7519 -1.2031
| 55> *
| 56>
| 57>                          ****END OF INPUT****

CARTESIAN COORDINATES (ANGSTROEM)
---------------------------------
  C     -8.151200   -1.161000    1.964300
  N     -7.199600   -0.632100    0.967200
  C     -5.931600   -1.163300    0.903600
  O     -5.571100   -2.078600    1.696000
  C     -5.054600   -0.673300   -0.059100
  C     -3.762400   -1.002000   -0.435100
  C     -2.837000   -2.030700    0.139700
  C     -1.698500   -1.355900    0.842900
  O     -1.869800   -0.929100    2.015900
  N     -0.436400   -1.193700    0.172100
  C      0.665600   -0.421400    0.672200
  N      1.869800   -0.406100    0.061200
  C      2.761000    0.412000    0.690000
  C      4.154700    0.562000    0.199400
  C      4.973700    1.626100    0.626700
  C      6.287900    1.739700    0.168400
  F      7.061700    2.769100    0.595800
  C      6.813200    0.786400   -0.715400
  O      8.141800    0.904600   -1.139100
  C      9.173600    0.020400   -0.695100
  C      9.624300    0.375600    0.720400
  F     10.002500    1.705400    0.771400
  F      8.594300    0.157500    1.622500
  F     10.703800   -0.417300    1.073500
  C      5.993700   -0.258000   -1.176000
  Cl     6.575400   -1.411100   -2.371000
  C      4.675500   -0.366200   -0.717500
  C      2.251400    1.057800    1.824900
  S      0.648500    0.587000    2.017600
  C     -3.465200   -0.141800   -1.491500
  O     -4.495500    0.646200   -1.739600
  C     -5.446400    0.335100   -0.888000
  N     -6.674400    0.912300   -0.800700
  C     -7.062100    1.985600   -1.727700
  C     -7.561400    0.413500    0.130000
  O     -8.717400    0.916200    0.215300
  H     -8.055200   -2.267600    2.045400
  H     -7.948100   -0.700900    2.957400
  H     -9.207500   -0.961000    1.680100
  H     -2.455400   -2.669900   -0.681900
  H     -3.361900   -2.701900    0.845800
  H     -0.298400   -1.684100   -0.741800
  H      4.602200    2.381700    1.312700
  H      8.831400   -1.035300   -0.725500
  H     10.041000    0.118800   -1.383100
  H      4.061700   -1.182600   -1.078500
  H      2.782300    1.728100    2.490000
  H     -2.531800   -0.108400   -2.039000
  H     -7.653000    1.557300   -2.565500
  H     -6.172100    2.502900   -2.144400
  H     -7.673000    2.751900   -1.203100

 Total Charge           Charge          ....    0
 Multiplicity           Mult            ....    1
 Number of Electrons    NEL             ....  278
 Basis Dimension        Dim             ....  542

ORBITAL ENERGIES
----------------

  NO   OCC          E(Eh)            E(eV)
   0   2.0000    -101.541134     -2763.0747
   1   2.0000     -88.908914     -2419.3346
   2   2.0000     -24.723432      -672.7588
   3   2.0000     -24.722125      -672.7232
   4   2.0000     -24.716922      -672.5816
   5   2.0000     -24.708795      -672.3605
   6   2.0000     -19.259833      -524.0867
   7   2.0000     -19.182622      -521.9857
   8   2.0000     -19.133933      -520.6608
   9   2.0000     -19.119548      -520.2694
  10   2.0000     -19.111212      -520.0425
  11   2.0000     -14.419842      -392.3838
  12   2.0000     -14.405109      -391.9829
  13   2.0000     -14.401268      -391.8784
  14   2.0000     -14.339587      -390.2000
  15   2.0000     -10.434321      -283.9323
  16   2.0000     -10.337145      -281.2880
  17   2.0000     -10.316229      -280.7189
  18   2.0000     -10.307603      -280.4841
  19   2.0000     -10.296992      -280.1954
  20   2.0000     -10.294322      -280.1228
  21   2.0000     -10.284492      -279.8552
  22   2.0000     -10.267277      -279.3868
  23   2.0000     -10.267154      -279.3835
  24   2.0000     -10.259845      -279.1846
  25   2.0000     -10.252669      -278.9893
  26   2.0000     -10.244769      -278.7743
  27   2.0000     -10.236187      -278.5408
  28   2.0000     -10.222433      -278.1665
  29   2.0000     -10.220055      -278.1018
  30   2.0000     -10.216541      -278.0062
  31   2.0000     -10.214176      -277.9419
  32   2.0000     -10.213823      -277.9323
  33   2.0000     -10.205463      -277.7048
  34   2.0000     -10.202500      -277.6241
  35   2.0000     -10.196433      -277.4591
  36   2.0000      -9.472302      -257.7545
  37   2.0000      -7.985030      -217.2837
  38   2.0000      -7.235567      -196.8898
  39   2.0000      -7.225898      -196.6267
  40   2.0000      -7.225520      -196.6164
  41   2.0000      -5.948156      -161.8575
  42   2.0000      -5.943852      -161.7404
  43   2.0000      -5.942050      -161.6914
  44   2.0000      -1.280037       -34.8316
  45   2.0000      -1.220621       -33.2148
  46   2.0000      -1.207582       -32.8600
  47   2.0000      -1.203983       -32.7620
  48   2.0000      -1.187243       -32.3065
  49   2.0000      -1.072508       -29.1844
  50   2.0000      -1.065097       -28.9828
  51   2.0000      -1.036569       -28.2065
  52   2.0000      -1.021951       -27.8087
  53   2.0000      -0.984469       -26.7888
  54   2.0000      -0.981412       -26.7056
  55   2.0000      -0.941759       -25.6266
  56   2.0000      -0.924062       -25.1450
  57   2.0000      -0.896804       -24.4033
  58   2.0000      -0.860768       -23.4227
  59   2.0000      -0.850896       -23.1541
  60   2.0000      -0.816242       -22.2111
  61   2.0000      -0.803639       -21.8681
  62   2.0000      -0.796851       -21.6834
  63   2.0000      -0.769808       -20.9475
  64   2.0000      -0.760806       -20.7026
  65   2.0000      -0.750731       -20.4284
  66   2.0000      -0.747679       -20.3454
  67   2.0000      -0.724564       -19.7164
  68   2.0000      -0.718752       -19.5582
  69   2.0000      -0.671700       -18.2779
  70   2.0000      -0.665095       -18.0982
  71   2.0000      -0.650133       -17.6910
  72   2.0000      -0.641401       -17.4534
  73   2.0000      -0.631856       -17.1937
  74   2.0000      -0.625057       -17.0087
  75   2.0000      -0.619652       -16.8616
  76   2.0000      -0.590936       -16.0802
  77   2.0000      -0.583787       -15.8857
  78   2.0000      -0.575941       -15.6722
  79   2.0000      -0.575137       -15.6503
  80   2.0000      -0.567862       -15.4523
  81   2.0000      -0.559024       -15.2118
  82   2.0000      -0.553410       -15.0591
  83   2.0000      -0.535173       -14.5628
  84   2.0000      -0.532955       -14.5025
  85   2.0000      -0.528961       -14.3938
  86   2.0000      -0.513230       -13.9657
  87   2.0000      -0.511652       -13.9228
  88   2.0000      -0.505354       -13.7514
  89   2.0000      -0.499131       -13.5821
  90   2.0000      -0.493681       -13.4338
  91   2.0000      -0.486137       -13.2285
  92   2.0000      -0.484293       -13.1783
  93   2.0000      -0.475902       -12.9499
  94   2.0000      -0.465665       -12.6714
  95   2.0000      -0.462282       -12.5793
  96   2.0000      -0.460927       -12.5425
  97   2.0000      -0.457809       -12.4576
  98   2.0000      -0.453864       -12.3503
  99   2.0000      -0.449113       -12.2210
 100   2.0000      -0.445863       -12.1326
 101   2.0000      -0.444318       -12.0905
 102   2.0000      -0.439385       -11.9563
 103   2.0000      -0.437671       -11.9096
 104   2.0000      -0.429907       -11.6984
 105   2.0000      -0.425691       -11.5837
 106   2.0000      -0.419199       -11.4070
 107   2.0000      -0.416053       -11.3214
 108   2.0000      -0.415293       -11.3007
 109   2.0000      -0.413233       -11.2446
 110   2.0000      -0.408129       -11.1058
 111   2.0000      -0.404252       -11.0002
 112   2.0000      -0.404089       -10.9958
 113   2.0000      -0.400065       -10.8863
 114   2.0000      -0.397621       -10.8198
 115   2.0000      -0.395207       -10.7541
 116   2.0000      -0.392479       -10.6799
 117   2.0000      -0.385259       -10.4834
 118   2.0000      -0.382017       -10.3952
 119   2.0000      -0.378069       -10.2878
 120   2.0000      -0.372229       -10.1289
 121   2.0000      -0.361473        -9.8362
 122   2.0000      -0.357536        -9.7291
 123   2.0000      -0.342612        -9.3229
 124   2.0000      -0.333744        -9.0816
 125   2.0000      -0.322060        -8.7637
 126   2.0000      -0.316097        -8.6014
 127   2.0000      -0.304286        -8.2800
 128   2.0000      -0.297709        -8.1011
 129   2.0000      -0.290848        -7.9144
 130   2.0000      -0.284099        -7.7307
 131   2.0000      -0.280806        -7.6411
 132   2.0000      -0.269576        -7.3355
 133   2.0000      -0.264689        -7.2026
 134   2.0000      -0.256519        -6.9802
 135   2.0000      -0.251824        -6.8525
 136   2.0000      -0.250913        -6.8277
 137   2.0000      -0.220063        -5.9882
 138   2.0000      -0.218038        -5.9331
 139   0.0000      -0.046686        -1.2704
 140   0.0000      -0.035242        -0.9590
 141   0.0000      -0.023650        -0.6436
 142   0.0000      -0.017115        -0.4657
 143   0.0000      -0.015372        -0.4183

MULLIKEN ATOMIC CHARGES
-----------------------
   0 C :   -0.314990
   1 N :   -0.484171
   2 C :    0.512910
   3 O :   -0.496360
   4 C :    0.025116
   5 C :    0.073619
   6 C :   -0.448603
   7 C :    0.567982
   8 O :   -0.442566
   9 N :   -0.650436
  10 C :    0.260520
  11 N :   -0.437596
  12 C :    0.207901
  13 C :    0.151333
  14 C :   -0.280950
  15 C :    0.403837
  16 F :   -0.303234
  17 C :    0.266628
  18 O :   -0.502764
  19 C :   -0.139652
  20 C :    0.913794
  21 F :   -0.293670
  22 F :   -0.299632
  23 F :   -0.301973
  24 C :   -0.117825
  25 Cl:    0.004336
  26 C :   -0.186197
  27 C :   -0.401809
  28 S :    0.330117
  29 C :   -0.003954
  30 O :   -0.383149
  31 C :    0.492119
  32 N :   -0.498388
  33 C :   -0.330160
  34 C :    0.679170
  35 O :   -0.501315
  36 H :    0.191861
  37 H :    0.182681
  38 H :    0.197755
  39 H :    0.151164
  40 H :    0.237990
  41 H :    0.351636
  42 H :    0.150129
  43 H :    0.176944
  44 H :    0.187359
  45 H :    0.173780
  46 H :    0.186448
  47 H :    0.164309
  48 H :    0.186136
  49 H :    0.183964
  50 H :    0.207856
Sum of atomic charges:   -0.0000000

LOEWDIN ATOMIC CHARGES
----------------------
   0 C :   -0.258701
   1 N :   -0.029234
   2 C :    0.115110
   3 O :   -0.295696
   4 C :   -0.109297
   5 C :   -0.023484
   6 C :   -0.242543
   7 C :    0.156168
   8 O :   -0.250767
   9 N :   -0.206319
  10 C :   -0.080160
  11 N :   -0.189181
  12 C :   -0.007699
  13 C :   -0.009095
  14 C :   -0.150199
  15 C :    0.114905
  16 F :   -0.088307
  17 C :    0.036774
  18 O :   -0.179345
  19 C :   -0.117626
  20 C :    0.292703
  21 F :   -0.109062
  22 F :   -0.114922
  23 F :   -0.115224
  24 C :   -0.100332
  25 Cl:    0.049335
  26 C :   -0.127424
  27 C :   -0.347328
  28 S :    0.437666
  29 C :   -0.092942
  30 O :   -0.001659
  31 C :    0.098672
  32 N :   -0.024266
  33 C :   -0.260198
  34 C :    0.146393
  35 O :   -0.310838
  36 H :    0.150789
  37 H :    0.143103
  38 H :    0.153973
  39 H :    0.133532
  40 H :    0.184382
  41 H :    0.272767
  42 H :    0.147176
  43 H :    0.140712
  44 H :    0.153441
  45 H :    0.157970
  46 H :    0.163172
  47 H :    0.145704
  48 H :    0.142531
  49 H :    0.145656
  50 H :    0.159217

  Mayer bond orders larger than 0.100000
B(  0-C ,  1-N ) :   0.9148 B(  0-C , 36-H ) :   0.9270 B(  0-C , 37-H ) :   0.9390
B(  0-C , 38-H ) :   0.9238 B(  1-N ,  2-C ) :   0.9680 B(  1-N , 34-C ) :   1.0404
B(  2-C ,  3-O ) :   1.7824 B(  2-C ,  4-C ) :   1.0806 B(  4-C ,  5-C ) :   1.3363
B(  4-C , 31-C ) :   1.3616 B(  5-C ,  6-C ) :   0.9705 B(  5-C , 29-C ) :   1.5568
B(  6-C ,  7-C ) :   0.9570 B(  6-C , 39-H ) :   0.9228 B(  6-C , 40-H ) :   0.8821
B(  7-C ,  8-O ) :   1.8424 B(  7-C ,  9-N ) :   1.0055 B(  9-N , 10-C ) :   0.9433
B(  9-N , 41-H ) :   0.8099 B( 10-C , 11-N ) :   1.4768 B( 10-C , 27-C ) :   0.1074
B( 10-C , 28-S ) :   1.1889 B( 11-N , 12-C ) :   1.2922 B( 12-C , 13-C ) :   1.0584
B( 12-C , 27-C ) :   1.5137 B( 13-C , 14-C ) :   1.3614 B( 13-C , 26-C ) :   1.4014
B( 14-C , 15-C ) :   1.3833 B( 14-C , 42-H ) :   0.9091 B( 15-C , 16-F ) :   0.9365
B( 15-C , 17-C ) :   1.3010 B( 17-C , 18-O ) :   0.9119 B( 17-C , 24-C ) :   1.3365
B( 18-O , 19-C ) :   0.9217 B( 19-C , 20-C ) :   0.9358 B( 19-C , 43-H ) :   0.9036
B( 19-C , 44-H ) :   0.9177 B( 20-C , 21-F ) :   0.9831 B( 20-C , 22-F ) :   0.9648
B( 20-C , 23-F ) :   0.9610 B( 24-C , 25-Cl) :   1.0326 B( 24-C , 26-C ) :   1.3769
B( 26-C , 45-H ) :   0.9038 B( 27-C , 28-S ) :   1.1110 B( 27-C , 46-H ) :   0.9008
B( 29-C , 30-O ) :   1.0020 B( 29-C , 47-H ) :   0.9287 B( 30-O , 31-C ) :   1.0729
B( 31-C , 32-N ) :   0.9902 B( 32-N , 33-C ) :   0.9233 B( 32-N , 34-C ) :   1.0377
B( 33-C , 48-H ) :   0.9352 B( 33-C , 49-H ) :   0.9303 B( 33-C , 50-H ) :   0.9251
B( 34-C , 35-O ) :   1.7987

FINAL SINGLE POINT ENERGY     -2661.035859625962

DIPOLE MOMENT
-------------

Method             : SCF
Type of density    : Electron Density
Multiplicity       :   1
Irrep              :   0
Energy             : -2661.0358596259616206 Eh
Relativity type    :
Basis              : AO
                                X                 Y                 Z
Electronic contribution:     75.725224514       4.608324449       1.504161035
Nuclear contribution   :    -76.618244031      -4.644957047      -3.285879578
                        -----------------------------------------
Total Dipole Moment    :     -0.893019517      -0.036632598      -1.781718543
                        -----------------------------------------
Magnitude (a.u.)       :      1.993325556
Magnitude (Debye)      :      5.066630911

Rotational constants in cm-1:             0.010477             0.000790             0.000784
Rotational constants in MHz :           314.099939            23.685901            23.497701

                             ****ORCA TERMINATED NORMALLY****
TOTAL RUN TIME: 0 days 0 hours 5 minutes 4 seconds 15 msec
