                         Program Version 6.0.0  -   RELEASE  -
|  1> ! B3LYP 6-31G* SP
|  2>
|  3> * xyz -1 1
|  4> C 1.2148 0.8270 2.0343
|  5> C 0.6155 1.4160 0.7759
|  6> C -0.1463 0.6127 -0.1058
|  7> N -0.3639 -0.7784 0.1559
|  8> C 0.3687 -1.7844 -0.6129
|  9> C 1.8110 -1.7800 -0.2053
| 10> C 2.2694 -2.6201 0.8178
| 11> C 3.5959 -2.5226 1.2391
| 12> C 4.4473 -1.5841 0.6524
| 13> F 5.7325 -1.4839 1.0765
| 14> C 3.9549 -0.7471 -0.3621
| 15> C 4.8302 0.2990 -0.9895
| 16> F 5.9444 -0.2982 -1.5502
| 17> F 5.2334 1.2053 -0.0260
| 18> F 4.1416 0.9780 -1.9799
| 19> N 2.6568 -0.8661 -0.7552
| 20> S -1.6916 -1.2526 1.1656
| 21> O -1.2656 -2.3885 2.0532
| 22> O -2.1101 -0.1025 2.0388
| 23> C -3.0425 -1.7358 0.1484
| 24> C -3.8194 -0.7597 -0.4859
| 25> C -4.8822 -1.1330 -1.3138
| 26> C -5.1791 -2.4912 -1.5231
| 27> C -6.3043 -2.8840 -2.3995
| 28> O -6.5723 -4.0998 -2.5925
| 29> O -7.0830 -1.9156 -3.0226
| 30> C -4.3888 -3.4671 -0.8894
| 31> C -3.3265 -3.0908 -0.0622
| 32> N -0.6635 1.1471 -1.2427
| 33> C -0.4864 2.4466 -1.5816
| 34> C 0.2612 3.2915 -0.7577
| 35> C 0.4555 4.6354 -1.1123
| 36> C 1.2104 5.4751 -0.2930
| 37> C 1.7767 4.9816 0.8822
| 38> C 1.5902 3.6460 1.2485
| 39> C 0.8267 2.7778 0.4366
| 40> H 2.3224 0.8893 1.9840
| 41> H 0.8501 1.3866 2.9211
| 42> H 0.9477 -0.2371 2.1862
| 43> H 0.2847 -1.5600 -1.6983
| 44> H -0.0701 -2.7933 -0.4536
| 45> H 1.6044 -3.3314 1.2916
| 46> H 3.9602 -3.1665 2.0291
| 47> H -3.6000 0.2910 -0.3422
| 48> H -5.4685 -0.3580 -1.7910
| 49> H -4.5890 -4.5214 -1.0346
| 50> H -2.7252 -3.8576 0.4087
| 51> H -0.9258 2.8156 -2.5002
| 52> H 0.0254 5.0349 -2.0233
| 53> H 1.3586 6.5107 -0.5705
| 54> H 2.3635 5.6368 1.5132
| 55> H 2.0499 3.3068 2.1667
| 56> *
| 57>
| 58>                          ****END OF INPUT****

CARTESIAN COORDINATES (ANGSTROEM)
---------------------------------
  C      1.214800    0.827000    2.034300
  C      0.615500    1.416000    0.775900
  C     -0.146300    0.612700   -0.105800
  N     -0.363900   -0.778400    0.155900
  C      0.368700   -1.784400   -0.612900
  C      1.811000   -1.780000   -0.205300
  C      2.269400   -2.620100    0.817800
  C      3.595900   -2.522600    1.239100
  C      4.447300   -1.584100    0.652400
  F      5.732500   -1.483900    1.076500
  C      3.954900   -0.747100   -0.362100
  C      4.830200    0.299000   -0.989500
  F      5.944400   -0.298200   -1.550200
  F      5.233400    1.205300   -0.026000
  F      4.141600    0.978000   -1.979900
  N      2.656800   -0.866100   -0.755200
  S     -1.691600   -1.252600    1.165600
  O     -1.265600   -2.388500    2.053200
  O     -2.110100   -0.102500    2.038800
  C     -3.042500   -1.735800    0.148400
  C     -3.819400   -0.759700   -0.485900
  C     -4.882200   -1.133000   -1.313800
  C     -5.179100   -2.491200   -1.523100
  C     -6.304300   -2.884000   -2.399500
  O     -6.572300   -4.099800   -2.592500
  O     -7.083000   -1.915600   -3.022600
  C     -4.388800   -3.467100   -0.889400
  C     -3.326500   -3.090800   -0.062200
  N     -0.663500    1.147100   -1.242700
  C     -0.486400    2.446600   -1.581600
  C      0.261200    3.291500   -0.757700
  C      0.455500    4.635400   -1.112300
  C      1.210400    5.475100   -0.293000
  C      1.776700    4.981600    0.882200
  C      1.590200    3.646000    1.248500
  C      0.826700    2.777800    0.436600
  H      2.322400    0.889300    1.984000
  H      0.850100    1.386600    2.921100
  H      0.947700   -0.237100    2.186200
  H      0.284700   -1.560000   -1.698300
  H     -0.070100   -2.793300   -0.453600
  H      1.604400   -3.331400    1.291600
  H      3.960200   -3.166500    2.029100
  H     -3.600000    0.291000   -0.342200
  H     -5.468500   -0.358000   -1.791000
  H     -4.589000   -4.521400   -1.034600
  H     -2.725200   -3.857600    0.408700
  H     -0.925800    2.815600   -2.500200
  H      0.025400    5.034900   -2.023300
  H      1.358600    6.510700   -0.570500
  H      2.363500    5.636800    1.513200
  H      2.049900    3.306800    2.166700

 Total Charge           Charge          ....   -1
 Multiplicity           Mult            ....    1
 Number of Electrons    NEL             ....  266
 Basis Dimension        Dim             ....  540

ORBITAL ENERGIES
----------------

  NO   OCC          E(Eh)            E(eV)
   0   2.0000     -89.006336     -2421.9855
   1   2.0000     -24.670666      -671.3230
   2   2.0000     -24.668989      -671.2773
   3   2.0000     -24.668755      -671.2710
   4   2.0000     -24.662015      -671.0876
   5   2.0000     -19.041157      -518.1362
   6   2.0000     -19.038257      -518.0573
   7   2.0000     -18.905033      -514.4321
   8   2.0000     -18.881910      -513.8029
   9   2.0000     -14.295554      -389.0018
  10   2.0000     -14.289938      -388.8490
  11   2.0000     -14.260406      -388.0454
  12   2.0000     -10.386167      -282.6220
  13   2.0000     -10.244414      -278.7647
  14   2.0000     -10.200606      -277.5726
  15   2.0000     -10.187307      -277.2107
  16   2.0000     -10.183364      -277.1034
  17   2.0000     -10.166333      -276.6400
  18   2.0000     -10.166014      -276.6313
  19   2.0000     -10.156400      -276.3697
  20   2.0000     -10.155737      -276.3517
  21   2.0000     -10.139775      -275.9173
  22   2.0000     -10.139227      -275.9024
  23   2.0000     -10.135801      -275.8092
  24   2.0000     -10.134984      -275.7869
  25   2.0000     -10.134011      -275.7604
  26   2.0000     -10.133918      -275.7579
  27   2.0000     -10.132803      -275.7276
  28   2.0000     -10.116437      -275.2822
  29   2.0000     -10.111254      -275.1412
  30   2.0000     -10.093908      -274.6692
  31   2.0000     -10.090419      -274.5743
  32   2.0000     -10.090336      -274.5720
  33   2.0000     -10.072634      -274.0903
  34   2.0000     -10.071276      -274.0534
  35   2.0000     -10.069642      -274.0089
  36   2.0000      -8.042233      -218.8403
  37   2.0000      -6.007629      -163.4759
  38   2.0000      -6.005576      -163.4200
  39   2.0000      -6.004080      -163.3793
  40   2.0000      -1.227656       -33.4062
  41   2.0000      -1.182954       -32.1898
  42   2.0000      -1.155096       -31.4318
  43   2.0000      -1.148856       -31.2620
  44   2.0000      -0.996520       -27.1167
  45   2.0000      -0.903918       -24.5968
  46   2.0000      -0.886417       -24.1206
  47   2.0000      -0.875921       -23.8350
  48   2.0000      -0.840506       -22.8713
  49   2.0000      -0.814102       -22.1528
  50   2.0000      -0.798898       -21.7391
  51   2.0000      -0.764505       -20.8032
  52   2.0000      -0.756744       -20.5921
  53   2.0000      -0.753108       -20.4931
  54   2.0000      -0.738443       -20.0940
  55   2.0000      -0.710699       -19.3391
  56   2.0000      -0.694600       -18.9010
  57   2.0000      -0.682341       -18.5674
  58   2.0000      -0.675044       -18.3689
  59   2.0000      -0.661142       -17.9906
  60   2.0000      -0.642427       -17.4813
  61   2.0000      -0.641032       -17.4434
  62   2.0000      -0.626946       -17.0601
  63   2.0000      -0.594062       -16.1653
  64   2.0000      -0.586000       -15.9459
  65   2.0000      -0.579010       -15.7557
  66   2.0000      -0.576740       -15.6939
  67   2.0000      -0.543357       -14.7855
  68   2.0000      -0.529011       -14.3951
  69   2.0000      -0.520768       -14.1708
  70   2.0000      -0.518847       -14.1185
  71   2.0000      -0.515236       -14.0203
  72   2.0000      -0.502153       -13.6643
  73   2.0000      -0.499888       -13.6026
  74   2.0000      -0.491436       -13.3726
  75   2.0000      -0.470734       -12.8093
  76   2.0000      -0.465605       -12.6698
  77   2.0000      -0.457175       -12.4404
  78   2.0000      -0.442619       -12.0443
  79   2.0000      -0.435578       -11.8527
  80   2.0000      -0.428497       -11.6600
  81   2.0000      -0.423400       -11.5213
  82   2.0000      -0.418599       -11.3907
  83   2.0000      -0.409187       -11.1345
  84   2.0000      -0.398593       -10.8463
  85   2.0000      -0.394043       -10.7225
  86   2.0000      -0.389071       -10.5872
  87   2.0000      -0.388069       -10.5599
  88   2.0000      -0.384454       -10.4615
  89   2.0000      -0.381117       -10.3707
  90   2.0000      -0.370297       -10.0763
  91   2.0000      -0.366177        -9.9642
  92   2.0000      -0.362577        -9.8662
  93   2.0000      -0.362241        -9.8571
  94   2.0000      -0.358837        -9.7645
  95   2.0000      -0.356911        -9.7120
  96   2.0000      -0.350993        -9.5510
  97   2.0000      -0.344715        -9.3802
  98   2.0000      -0.338635        -9.2147
  99   2.0000      -0.338139        -9.2012
 100   2.0000      -0.333993        -9.0884
 101   2.0000      -0.332365        -9.0441
 102   2.0000      -0.329193        -8.9578
 103   2.0000      -0.326963        -8.8971
 104   2.0000      -0.321958        -8.7609
 105   2.0000      -0.315346        -8.5810
 106   2.0000      -0.315178        -8.5764
 107   2.0000      -0.303077        -8.2472
 108   2.0000      -0.291644        -7.9360
 109   2.0000      -0.287390        -7.8203
 110   2.0000      -0.285350        -7.7648
 111   2.0000      -0.271897        -7.3987
 112   2.0000      -0.246063        -6.6957
 113   2.0000      -0.245286        -6.6746
 114   2.0000      -0.242684        -6.6038
 115   2.0000      -0.229531        -6.2459
 116   2.0000      -0.225404        -6.1335
 117   2.0000      -0.217943        -5.9305
 118   2.0000      -0.216070        -5.8796
 119   2.0000      -0.212630        -5.7859
 120   2.0000      -0.211474        -5.7545
 121   2.0000      -0.202137        -5.5004
 122   2.0000      -0.196515        -5.3475
 123   2.0000      -0.187599        -5.1048
 124   2.0000      -0.183410        -4.9908
 125   2.0000      -0.181516        -4.9393
 126   2.0000      -0.178103        -4.8464
 127   2.0000      -0.155821        -4.2401
 128   2.0000      -0.147191        -4.0053
 129   2.0000      -0.127951        -3.4817
 130   2.0000      -0.058680        -1.5968
 131   2.0000      -0.036657        -0.9975
 132   2.0000      -0.019875        -0.5408
 133   0.0000       0.002920         0.0794
 134   0.0000       0.005321         0.1448
 135   0.0000       0.022201         0.6041
 136   0.0000       0.035496         0.9659
 137   0.0000       0.069410         1.8887

MULLIKEN ATOMIC CHARGES
-----------------------
   0 C :   -0.544622
   1 C :    0.132924
   2 C :    0.328717
   3 N :   -0.624395
   4 C :   -0.197912
   5 C :    0.255572
   6 C :   -0.139039
   7 C :   -0.175749
   8 C :    0.385169
   9 F :   -0.303755
  10 C :    0.010782
  11 C :    0.937256
  12 F :   -0.302839
  13 F :   -0.301152
  14 F :   -0.294616
  15 N :   -0.413610
  16 S :    1.210754
  17 O :   -0.581352
  18 O :   -0.564727
  19 C :   -0.139954
  20 C :   -0.142327
  21 C :   -0.151594
  22 C :    0.105328
  23 C :    0.411054
  24 O :   -0.553264
  25 O :   -0.657256
  26 C :   -0.157428
  27 C :   -0.160275
  28 N :   -0.384897
  29 C :   -0.053037
  30 C :    0.140118
  31 C :   -0.202565
  32 C :   -0.128048
  33 C :   -0.122071
  34 C :   -0.193578
  35 C :    0.120491
  36 H :    0.143052
  37 H :    0.165931
  38 H :    0.194794
  39 H :    0.188655
  40 H :    0.181875
  41 H :    0.180479
  42 H :    0.160316
  43 H :    0.145289
  44 H :    0.152613
  45 H :    0.144196
  46 H :    0.136471
  47 H :    0.148632
  48 H :    0.131548
  49 H :    0.121288
  50 H :    0.123084
  51 H :    0.133671
Sum of atomic charges:   -1.0000000

LOEWDIN ATOMIC CHARGES
----------------------
   0 C :   -0.361172
   1 C :    0.004135
   2 C :    0.038545
   3 N :   -0.287950
   4 C :   -0.146180
   5 C :    0.022226
   6 C :   -0.110444
   7 C :   -0.130711
   8 C :    0.112574
   9 F :   -0.096857
  10 C :   -0.053472
  11 C :    0.310307
  12 F :   -0.113072
  13 F :   -0.112242
  14 F :   -0.099608
  15 N :   -0.105007
  16 S :    1.262716
  17 O :   -0.600694
  18 O :   -0.583917
  19 C :   -0.215497
  20 C :   -0.117273
  21 C :   -0.105388
  22 C :   -0.002781
  23 C :    0.071648
  24 O :   -0.378735
  25 O :   -0.505271
  26 C :   -0.116516
  27 C :   -0.130355
  28 N :   -0.121377
  29 C :   -0.061411
  30 C :   -0.026812
  31 C :   -0.113367
  32 C :   -0.134019
  33 C :   -0.125412
  34 C :   -0.121061
  35 C :   -0.005095
  36 H :    0.126577
  37 H :    0.140134
  38 H :    0.150034
  39 H :    0.146795
  40 H :    0.150726
  41 H :    0.157543
  42 H :    0.151216
  43 H :    0.140308
  44 H :    0.150693
  45 H :    0.145419
  46 H :    0.135742
  47 H :    0.135332
  48 H :    0.133687
  49 H :    0.128607
  50 H :    0.129772
  51 H :    0.136963

  Mayer bond orders larger than 0.100000
B(  0-C ,  1-C ) :   1.0055 B(  0-C , 36-H ) :   0.9256 B(  0-C , 37-H ) :   0.9267
B(  0-C , 38-H ) :   0.9202 B(  1-C ,  2-C ) :   1.4320 B(  1-C , 29-C ) :   0.1031
B(  1-C , 35-C ) :   1.2666 B(  2-C ,  3-N ) :   0.8941 B(  2-C , 28-N ) :   1.2850
B(  3-N ,  4-C ) :   0.9419 B(  3-N , 16-S ) :   0.7725 B(  4-C ,  5-C ) :   0.9611
B(  4-C , 39-H ) :   0.9101 B(  4-C , 40-H ) :   0.9158 B(  5-C ,  6-C ) :   1.4003
B(  5-C , 15-N ) :   1.3860 B(  6-C ,  7-C ) :   1.4345 B(  6-C , 41-H ) :   0.9077
B(  7-C ,  8-C ) :   1.3777 B(  7-C , 42-H ) :   0.9184 B(  8-C ,  9-F ) :   0.9484
B(  8-C , 10-C ) :   1.3007 B( 10-C , 11-C ) :   0.9400 B( 10-C , 15-N ) :   1.3816
B( 11-C , 12-F ) :   0.9675 B( 11-C , 13-F ) :   0.9727 B( 11-C , 14-F ) :   0.9678
B( 16-S , 17-O ) :   1.5975 B( 16-S , 18-O ) :   1.6337 B( 16-S , 19-C ) :   0.8490
B( 19-C , 20-C ) :   1.3594 B( 19-C , 27-C ) :   1.3698 B( 20-C , 21-C ) :   1.4138
B( 20-C , 43-H ) :   0.9188 B( 21-C , 22-C ) :   1.3972 B( 21-C , 44-H ) :   0.9018
B( 22-C , 23-C ) :   0.9274 B( 22-C , 26-C ) :   1.3925 B( 23-C , 24-O ) :   1.7070
B( 23-C , 25-O ) :   1.5497 B( 24-O , 25-O ) :   0.1480 B( 26-C , 27-C ) :   1.4073
B( 26-C , 45-H ) :   0.9075 B( 27-C , 46-H ) :   0.9215 B( 28-N , 29-C ) :   1.4968
B( 29-C , 30-C ) :   1.2360 B( 29-C , 47-H ) :   0.9275 B( 30-C , 31-C ) :   1.2851
B( 30-C , 35-C ) :   1.2909 B( 31-C , 32-C ) :   1.5127 B( 31-C , 34-C ) :   0.1065
B( 31-C , 48-H ) :   0.9240 B( 32-C , 33-C ) :   1.3527 B( 32-C , 49-H ) :   0.9316
B( 33-C , 34-C ) :   1.5096 B( 33-C , 50-H ) :   0.9314 B( 34-C , 35-C ) :   1.2948
B( 34-C , 51-H ) :   0.9162

FINAL SINGLE POINT ENERGY     -2185.816749075114

DIPOLE MOMENT
-------------

Method             : SCF
Type of density    : Electron Density
Multiplicity       :   1
Irrep              :   0
Energy             : -2185.8167490751143305 Eh
Relativity type    :
Basis              : AO
                                X                 Y                 Z
Electronic contribution:     33.367202637      -4.039517374      -5.433432465
Nuclear contribution   :    -22.661570749       7.918132071       8.459270036
                        -----------------------------------------
Total Dipole Moment    :     10.705631888       3.878614697       3.025837571
                        -----------------------------------------
Magnitude (a.u.)       :     11.781761290
Magnitude (Debye)      :     29.946857284

Rotational constants in cm-1:             0.005281             0.002010             0.001704
Rotational constants in MHz :           158.312647            60.272992            51.095303

                             ****ORCA TERMINATED NORMALLY****
TOTAL RUN TIME: 0 days 0 hours 10 minutes 26 seconds 751 msec
