                         Program Version 6.0.0  -   RELEASE  -
|  1> ! B3LYP 6-31G* SP
|  2>
|  3> * xyz 0 1
|  4> C 0.6495 3.5474 -1.7777
|  5> C -0.0442 3.3452 -0.4629
|  6> N -0.0132 4.3616 0.4433
|  7> C -0.6295 4.2774 1.6504
|  8> C -1.3399 3.1292 1.9911
|  9> C -1.4020 2.0715 1.0858
| 10> C -0.7431 2.1534 -0.1500
| 11> C -0.8240 1.0083 -1.0842
| 12> O -1.0609 1.2124 -2.3050
| 13> N -0.6775 -0.3470 -0.6105
| 14> C 0.6141 -0.8233 -0.0533
| 15> C 0.6891 -0.6253 1.4796
| 16> C 1.7638 0.4414 1.7578
| 17> C 2.4107 0.6501 0.4423
| 18> C 3.5257 1.4496 0.1777
| 19> F 4.1295 2.1477 1.1711
| 20> C 4.0160 1.5139 -1.1350
| 21> C 3.3887 0.7822 -2.1599
| 22> Cl 4.0010 0.8697 -3.8003
| 23> C 2.2634 -0.0069 -1.8739
| 24> C 1.7851 -0.0498 -0.5602
| 25> C -1.8549 -1.2348 -0.7376
| 26> C -2.0008 -1.7789 -2.1415
| 27> N -0.8704 -2.1957 -2.9087
| 28> O -3.1536 -1.8962 -2.6372
| 29> C -1.8934 -2.3262 0.3241
| 30> C -2.5075 -2.0589 1.5625
| 31> C -2.5229 -3.0245 2.5728
| 32> C -1.9238 -4.2676 2.3626
| 33> C -1.3061 -4.5468 1.1422
| 34> C -1.2869 -3.5846 0.1282
| 35> H 1.2435 2.6531 -2.0477
| 36> H 1.3427 4.4130 -1.7207
| 37> H -0.1022 3.7470 -2.5696
| 38> H -0.5760 5.1083 2.3413
| 39> H -1.8453 3.0622 2.9457
| 40> H -1.9813 1.1950 1.3434
| 41> H 0.7770 -1.8922 -0.3011
| 42> H 0.9895 -1.5834 1.9582
| 43> H -0.2828 -0.3250 1.9177
| 44> H 2.5025 0.0790 2.5048
| 45> H 1.3011 1.3899 2.1053
| 46> H 4.8795 2.1277 -1.3564
| 47> H 1.7706 -0.5617 -2.6595
| 48> H -2.7604 -0.6067 -0.5664
| 49> H -1.0013 -2.5497 -3.8820
| 50> H 0.0900 -2.1978 -2.5065
| 51> H -2.9698 -1.0981 1.7502
| 52> H -2.9976 -2.8070 3.5209
| 53> H -1.9352 -5.0137 3.1467
| 54> H -0.8368 -5.5090 0.9824
| 55> H -0.7897 -3.8253 -0.8006
| 56> *
| 57>
| 58>                          ****END OF INPUT****

CARTESIAN COORDINATES (ANGSTROEM)
---------------------------------
  C      0.649500    3.547400   -1.777700
  C     -0.044200    3.345200   -0.462900
  N     -0.013200    4.361600    0.443300
  C     -0.629500    4.277400    1.650400
  C     -1.339900    3.129200    1.991100
  C     -1.402000    2.071500    1.085800
  C     -0.743100    2.153400   -0.150000
  C     -0.824000    1.008300   -1.084200
  O     -1.060900    1.212400   -2.305000
  N     -0.677500   -0.347000   -0.610500
  C      0.614100   -0.823300   -0.053300
  C      0.689100   -0.625300    1.479600
  C      1.763800    0.441400    1.757800
  C      2.410700    0.650100    0.442300
  C      3.525700    1.449600    0.177700
  F      4.129500    2.147700    1.171100
  C      4.016000    1.513900   -1.135000
  C      3.388700    0.782200   -2.159900
  Cl     4.001000    0.869700   -3.800300
  C      2.263400   -0.006900   -1.873900
  C      1.785100   -0.049800   -0.560200
  C     -1.854900   -1.234800   -0.737600
  C     -2.000800   -1.778900   -2.141500
  N     -0.870400   -2.195700   -2.908700
  O     -3.153600   -1.896200   -2.637200
  C     -1.893400   -2.326200    0.324100
  C     -2.507500   -2.058900    1.562500
  C     -2.522900   -3.024500    2.572800
  C     -1.923800   -4.267600    2.362600
  C     -1.306100   -4.546800    1.142200
  C     -1.286900   -3.584600    0.128200
  H      1.243500    2.653100   -2.047700
  H      1.342700    4.413000   -1.720700
  H     -0.102200    3.747000   -2.569600
  H     -0.576000    5.108300    2.341300
  H     -1.845300    3.062200    2.945700
  H     -1.981300    1.195000    1.343400
  H      0.777000   -1.892200   -0.301100
  H      0.989500   -1.583400    1.958200
  H     -0.282800   -0.325000    1.917700
  H      2.502500    0.079000    2.504800
  H      1.301100    1.389900    2.105300
  H      4.879500    2.127700   -1.356400
  H      1.770600   -0.561700   -2.659500
  H     -2.760400   -0.606700   -0.566400
  H     -1.001300   -2.549700   -3.882000
  H      0.090000   -2.197800   -2.506500
  H     -2.969800   -1.098100    1.750200
  H     -2.997600   -2.807000    3.520900
  H     -1.935200   -5.013700    3.146700
  H     -0.836800   -5.509000    0.982400
  H     -0.789700   -3.825300   -0.800600

 Total Charge           Charge          ....    0
 Multiplicity           Mult            ....    1
 Number of Electrons    NEL             ....  228
 Basis Dimension        Dim             ....  480

ORBITAL ENERGIES
----------------

  NO   OCC          E(Eh)            E(eV)
   0   2.0000    -101.535865     -2762.9314
   1   2.0000     -24.713616      -672.4917
   2   2.0000     -19.137388      -520.7548
   3   2.0000     -19.103008      -519.8193
   4   2.0000     -14.351752      -390.5310
   5   2.0000     -14.345214      -390.3531
   6   2.0000     -14.329850      -389.9350
   7   2.0000     -10.302994      -280.3587
   8   2.0000     -10.285866      -279.8926
   9   2.0000     -10.284437      -279.8538
  10   2.0000     -10.260648      -279.2064
  11   2.0000     -10.243357      -278.7359
  12   2.0000     -10.241143      -278.6757
  13   2.0000     -10.239606      -278.6338
  14   2.0000     -10.228734      -278.3380
  15   2.0000     -10.213809      -277.9319
  16   2.0000     -10.211812      -277.8775
  17   2.0000     -10.209294      -277.8090
  18   2.0000     -10.209140      -277.8048
  19   2.0000     -10.206481      -277.7325
  20   2.0000     -10.205487      -277.7054
  21   2.0000     -10.202250      -277.6173
  22   2.0000     -10.199780      -277.5501
  23   2.0000     -10.198903      -277.5263
  24   2.0000     -10.197835      -277.4972
  25   2.0000     -10.197272      -277.4819
  26   2.0000     -10.196729      -277.4671
  27   2.0000     -10.195989      -277.4470
  28   2.0000     -10.191026      -277.3119
  29   2.0000     -10.185092      -277.1504
  30   2.0000     -10.168473      -276.6982
  31   2.0000      -9.467568      -257.6256
  32   2.0000      -7.230708      -196.7576
  33   2.0000      -7.221134      -196.4970
  34   2.0000      -7.220825      -196.4886
  35   2.0000      -1.225571       -33.3495
  36   2.0000      -1.030141       -28.0316
  37   2.0000      -1.002675       -27.2842
  38   2.0000      -0.936736       -25.4899
  39   2.0000      -0.934021       -25.4160
  40   2.0000      -0.901492       -24.5308
  41   2.0000      -0.875133       -23.8136
  42   2.0000      -0.868972       -23.6459
  43   2.0000      -0.861544       -23.4438
  44   2.0000      -0.813894       -22.1472
  45   2.0000      -0.811199       -22.0738
  46   2.0000      -0.791327       -21.5331
  47   2.0000      -0.782576       -21.2950
  48   2.0000      -0.767943       -20.8968
  49   2.0000      -0.758059       -20.6278
  50   2.0000      -0.733023       -19.9466
  51   2.0000      -0.715278       -19.4637
  52   2.0000      -0.708795       -19.2873
  53   2.0000      -0.690158       -18.7801
  54   2.0000      -0.654601       -17.8126
  55   2.0000      -0.633568       -17.2403
  56   2.0000      -0.623999       -16.9799
  57   2.0000      -0.615773       -16.7560
  58   2.0000      -0.609398       -16.5826
  59   2.0000      -0.598582       -16.2883
  60   2.0000      -0.597154       -16.2494
  61   2.0000      -0.576952       -15.6997
  62   2.0000      -0.560404       -15.2494
  63   2.0000      -0.540980       -14.7208
  64   2.0000      -0.530891       -14.4463
  65   2.0000      -0.522565       -14.2197
  66   2.0000      -0.516945       -14.0668
  67   2.0000      -0.511704       -13.9242
  68   2.0000      -0.508665       -13.8415
  69   2.0000      -0.500903       -13.6303
  70   2.0000      -0.495604       -13.4861
  71   2.0000      -0.491039       -13.3619
  72   2.0000      -0.475786       -12.9468
  73   2.0000      -0.470463       -12.8020
  74   2.0000      -0.468440       -12.7469
  75   2.0000      -0.450116       -12.2483
  76   2.0000      -0.448197       -12.1961
  77   2.0000      -0.443666       -12.0728
  78   2.0000      -0.439796       -11.9675
  79   2.0000      -0.435821       -11.8593
  80   2.0000      -0.433577       -11.7982
  81   2.0000      -0.428237       -11.6529
  82   2.0000      -0.425299       -11.5730
  83   2.0000      -0.413621       -11.2552
  84   2.0000      -0.412263       -11.2182
  85   2.0000      -0.408083       -11.1045
  86   2.0000      -0.398149       -10.8342
  87   2.0000      -0.394477       -10.7343
  88   2.0000      -0.386399       -10.5145
  89   2.0000      -0.380759       -10.3610
  90   2.0000      -0.379173       -10.3178
  91   2.0000      -0.373332       -10.1589
  92   2.0000      -0.373092       -10.1524
  93   2.0000      -0.371489       -10.1087
  94   2.0000      -0.370091       -10.0707
  95   2.0000      -0.366941        -9.9850
  96   2.0000      -0.359988        -9.7958
  97   2.0000      -0.357122        -9.7178
  98   2.0000      -0.355547        -9.6749
  99   2.0000      -0.354535        -9.6474
 100   2.0000      -0.345606        -9.4044
 101   2.0000      -0.323453        -8.8016
 102   2.0000      -0.318734        -8.6732
 103   2.0000      -0.288817        -7.8591
 104   2.0000      -0.275474        -7.4960
 105   2.0000      -0.268181        -7.2976
 106   2.0000      -0.264043        -7.1850
 107   2.0000      -0.261899        -7.1266
 108   2.0000      -0.257541        -7.0081
 109   2.0000      -0.254297        -6.9198
 110   2.0000      -0.247672        -6.7395
 111   2.0000      -0.245660        -6.6847
 112   2.0000      -0.242690        -6.6039
 113   2.0000      -0.217830        -5.9275
 114   0.0000      -0.064687        -1.7602
 115   0.0000      -0.028239        -0.7684
 116   0.0000      -0.027618        -0.7515
 117   0.0000      -0.022796        -0.6203
 118   0.0000      -0.017539        -0.4773

MULLIKEN ATOMIC CHARGES
-----------------------
   0 C :   -0.501178
   1 C :    0.240067
   2 N :   -0.401476
   3 C :    0.025262
   4 C :   -0.148036
   5 C :   -0.139219
   6 C :    0.083174
   7 C :    0.409404
   8 O :   -0.412368
   9 N :   -0.454084
  10 C :   -0.044470
  11 C :   -0.285596
  12 C :   -0.349368
  13 C :    0.036604
  14 C :    0.372310
  15 F :   -0.305741
  16 C :   -0.212065
  17 C :   -0.066414
  18 Cl:   -0.003504
  19 C :   -0.182390
  20 C :    0.095722
  21 C :   -0.145677
  22 C :    0.595791
  23 N :   -0.771343
  24 O :   -0.478234
  25 C :    0.147979
  26 C :   -0.172998
  27 C :   -0.126091
  28 C :   -0.121064
  29 C :   -0.129032
  30 C :   -0.172031
  31 H :    0.171420
  32 H :    0.164516
  33 H :    0.188529
  34 H :    0.155019
  35 H :    0.135918
  36 H :    0.149913
  37 H :    0.152980
  38 H :    0.147208
  39 H :    0.152295
  40 H :    0.159526
  41 H :    0.170625
  42 H :    0.166966
  43 H :    0.153227
  44 H :    0.183567
  45 H :    0.352541
  46 H :    0.334591
  47 H :    0.133550
  48 H :    0.135998
  49 H :    0.135590
  50 H :    0.136790
  51 H :    0.135299
Sum of atomic charges:    0.0000000

LOEWDIN ATOMIC CHARGES
----------------------
   0 C :   -0.360896
   1 C :    0.062296
   2 N :   -0.136226
   3 C :   -0.055910
   4 C :   -0.157473
   5 C :   -0.093979
   6 C :   -0.068650
   7 C :    0.152902
   8 O :   -0.213193
   9 N :   -0.145493
  10 C :   -0.046772
  11 C :   -0.230226
  12 C :   -0.225923
  13 C :   -0.043935
  14 C :    0.121704
  15 F :   -0.095011
  16 C :   -0.159235
  17 C :   -0.086106
  18 Cl:    0.047149
  19 C :   -0.141407
  20 C :   -0.029012
  21 C :   -0.060642
  22 C :    0.143596
  23 N :   -0.401803
  24 O :   -0.285595
  25 C :   -0.013442
  26 C :   -0.125325
  27 C :   -0.124799
  28 C :   -0.123125
  29 C :   -0.124831
  30 C :   -0.133796
  31 H :    0.145062
  32 H :    0.140000
  33 H :    0.155684
  34 H :    0.137848
  35 H :    0.136702
  36 H :    0.137442
  37 H :    0.132466
  38 H :    0.128273
  39 H :    0.130740
  40 H :    0.136297
  41 H :    0.140349
  42 H :    0.155899
  43 H :    0.144288
  44 H :    0.154688
  45 H :    0.266514
  46 H :    0.241924
  47 H :    0.130512
  48 H :    0.135212
  49 H :    0.134954
  50 H :    0.135403
  51 H :    0.134899

  Mayer bond orders larger than 0.100000
B(  0-C ,  1-C ) :   1.0278 B(  0-C , 31-H ) :   0.9202 B(  0-C , 32-H ) :   0.9354
B(  0-C , 33-H ) :   0.9218 B(  1-C ,  2-N ) :   1.4073 B(  1-C ,  6-C ) :   1.3349
B(  2-N ,  3-C ) :   1.4157 B(  3-C ,  4-C ) :   1.4191 B(  3-C , 34-H ) :   0.9288
B(  4-C ,  5-C ) :   1.4314 B(  4-C , 35-H ) :   0.9247 B(  5-C ,  6-C ) :   1.3949
B(  5-C , 36-H ) :   0.9130 B(  6-C ,  7-C ) :   0.9531 B(  7-C ,  8-O ) :   1.8605
B(  7-C ,  9-N ) :   0.9834 B(  9-N , 10-C ) :   0.9338 B(  9-N , 21-C ) :   0.9354
B( 10-C , 11-C ) :   0.9551 B( 10-C , 20-C ) :   0.9809 B( 10-C , 37-H ) :   0.9128
B( 11-C , 12-C ) :   0.9837 B( 11-C , 38-H ) :   0.9407 B( 11-C , 39-H ) :   0.9355
B( 12-C , 13-C ) :   0.9788 B( 12-C , 40-H ) :   0.9322 B( 12-C , 41-H ) :   0.9215
B( 13-C , 14-C ) :   1.3094 B( 13-C , 20-C ) :   1.4723 B( 14-C , 15-F ) :   0.9491
B( 14-C , 16-C ) :   1.3878 B( 16-C , 17-C ) :   1.3723 B( 16-C , 42-H ) :   0.9133
B( 17-C , 18-Cl) :   1.0221 B( 17-C , 19-C ) :   1.4009 B( 19-C , 20-C ) :   1.3913
B( 19-C , 43-H ) :   0.9089 B( 21-C , 22-C ) :   0.9031 B( 21-C , 25-C ) :   0.9670
B( 21-C , 44-H ) :   0.9065 B( 22-C , 23-N ) :   1.0588 B( 22-C , 24-O ) :   1.8560
B( 23-N , 45-H ) :   0.8232 B( 23-N , 46-H ) :   0.8121 B( 25-C , 26-C ) :   1.4213
B( 25-C , 30-C ) :   1.4215 B( 26-C , 27-C ) :   1.4427 B( 26-C , 47-H ) :   0.9202
B( 27-C , 28-C ) :   1.4512 B( 27-C , 48-H ) :   0.9281 B( 28-C , 29-C ) :   1.4549
B( 28-C , 49-H ) :   0.9289 B( 29-C , 30-C ) :   1.4367 B( 29-C , 50-H ) :   0.9284
B( 30-C , 51-H ) :   0.9094

FINAL SINGLE POINT ENERGY     -1801.029210675980

DIPOLE MOMENT
-------------

Method             : SCF
Type of density    : Electron Density
Multiplicity       :   1
Irrep              :   0
Energy             : -1801.0292106759804938 Eh
Relativity type    :
Basis              : AO
                                X                 Y                 Z
Electronic contribution:     18.518350520       9.226656137     -14.549555497
Nuclear contribution   :    -17.750150264     -10.383416685      16.597279274
                        -----------------------------------------
Total Dipole Moment    :      0.768200256      -1.156760548       2.047723776
                        -----------------------------------------
Magnitude (a.u.)       :      2.474146168
Magnitude (Debye)      :      6.288779782

Rotational constants in cm-1:             0.006163             0.003751             0.003299
Rotational constants in MHz :           184.761321           112.455633            98.894852

                             ****ORCA TERMINATED NORMALLY****
TOTAL RUN TIME: 0 days 0 hours 11 minutes 0 seconds 64 msec
