                         Program Version 6.0.0  -   RELEASE  -
|  1> ! B3LYP 6-31G* SP
|  2>
|  3> * xyz -1 1
|  4> C -0.8254 -0.5680 2.3045
|  5> C -1.1337 0.2514 1.0702
|  6> C -0.7180 -0.1888 -0.2046
|  7> N 0.0926 -1.3596 -0.3698
|  8> C 1.5410 -1.3053 -0.1450
|  9> C 2.1386 -0.0906 -0.8067
| 10> C 2.4319 -0.1028 -2.1800
| 11> C 2.8914 1.0580 -2.8099
| 12> C 3.0482 2.2491 -2.0868
| 13> O 3.5035 3.3878 -2.7729
| 14> C 3.6702 4.6824 -2.2013
| 15> F 4.5934 4.6360 -1.1715
| 16> F 4.1323 5.5485 -3.1750
| 17> F 2.4600 5.1500 -1.7281
| 18> C 2.7422 2.2622 -0.7108
| 19> C 2.2912 1.1012 -0.0788
| 20> S -0.6400 -2.8146 -0.9648
| 21> O 0.0169 -3.2220 -2.2540
| 22> O -2.1018 -2.5844 -1.2294
| 23> C -0.4634 -4.0800 0.2448
| 24> C -1.3489 -4.1418 1.3263
| 25> C -1.1791 -5.1079 2.3223
| 26> C -0.1222 -6.0325 2.2448
| 27> C 0.0701 -7.0505 3.3005
| 28> O -0.6536 -7.0499 4.3295
| 29> O 1.0601 -8.0178 3.1740
| 30> C 0.7604 -5.9689 1.1516
| 31> C 0.5940 -4.9946 0.1631
| 32> N -1.0037 0.5482 -1.3057
| 33> C -1.6694 1.7285 -1.2588
| 34> C -1.9041 2.4737 -2.5494
| 35> C -0.7922 2.3820 -3.5893
| 36> C -0.9548 3.6455 -2.7658
| 37> C -2.1235 2.2200 -0.0173
| 38> C -2.8459 3.4284 0.0761
| 39> C -3.2794 3.9007 1.3140
| 40> C -2.9917 3.1871 2.4748
| 41> C -2.2795 1.9889 2.4057
| 42> C -1.8439 1.4772 1.1633
| 43> H -1.7649 -0.7973 2.8485
| 44> H -0.1373 -0.0009 2.9658
| 45> H -0.3524 -1.5399 2.0713
| 46> H 2.0277 -2.2226 -0.5396
| 47> H 1.7440 -1.2815 0.9462
| 48> H 2.2931 -1.0067 -2.7632
| 49> H 3.1138 1.0370 -3.8698
| 50> H 2.8431 3.1623 -0.1189
| 51> H 2.0385 1.1367 0.9760
| 52> H -2.1622 -3.4326 1.4076
| 53> H -1.8723 -5.1281 3.1547
| 54> H 1.5881 -6.6623 1.0674
| 55> H 1.2983 -4.9470 -0.6580
| 56> H -2.9327 2.6016 -2.9457
| 57> H -1.1240 2.4988 -4.6409
| 58> H 0.1111 1.7980 -3.3160
| 59> H -1.3925 4.4962 -3.3283
| 60> H -0.1630 3.7822 -1.9983
| 61> H -3.0836 4.0139 -0.8025
| 62> H -3.8362 4.8275 1.3743
| 63> H -3.3244 3.5630 3.4343
| 64> H -2.0759 1.4752 3.3356
| 65> *
| 66>
| 67>                          ****END OF INPUT****

CARTESIAN COORDINATES (ANGSTROEM)
---------------------------------
  C     -0.825400   -0.568000    2.304500
  C     -1.133700    0.251400    1.070200
  C     -0.718000   -0.188800   -0.204600
  N      0.092600   -1.359600   -0.369800
  C      1.541000   -1.305300   -0.145000
  C      2.138600   -0.090600   -0.806700
  C      2.431900   -0.102800   -2.180000
  C      2.891400    1.058000   -2.809900
  C      3.048200    2.249100   -2.086800
  O      3.503500    3.387800   -2.772900
  C      3.670200    4.682400   -2.201300
  F      4.593400    4.636000   -1.171500
  F      4.132300    5.548500   -3.175000
  F      2.460000    5.150000   -1.728100
  C      2.742200    2.262200   -0.710800
  C      2.291200    1.101200   -0.078800
  S     -0.640000   -2.814600   -0.964800
  O      0.016900   -3.222000   -2.254000
  O     -2.101800   -2.584400   -1.229400
  C     -0.463400   -4.080000    0.244800
  C     -1.348900   -4.141800    1.326300
  C     -1.179100   -5.107900    2.322300
  C     -0.122200   -6.032500    2.244800
  C      0.070100   -7.050500    3.300500
  O     -0.653600   -7.049900    4.329500
  O      1.060100   -8.017800    3.174000
  C      0.760400   -5.968900    1.151600
  C      0.594000   -4.994600    0.163100
  N     -1.003700    0.548200   -1.305700
  C     -1.669400    1.728500   -1.258800
  C     -1.904100    2.473700   -2.549400
  C     -0.792200    2.382000   -3.589300
  C     -0.954800    3.645500   -2.765800
  C     -2.123500    2.220000   -0.017300
  C     -2.845900    3.428400    0.076100
  C     -3.279400    3.900700    1.314000
  C     -2.991700    3.187100    2.474800
  C     -2.279500    1.988900    2.405700
  C     -1.843900    1.477200    1.163300
  H     -1.764900   -0.797300    2.848500
  H     -0.137300   -0.000900    2.965800
  H     -0.352400   -1.539900    2.071300
  H      2.027700   -2.222600   -0.539600
  H      1.744000   -1.281500    0.946200
  H      2.293100   -1.006700   -2.763200
  H      3.113800    1.037000   -3.869800
  H      2.843100    3.162300   -0.118900
  H      2.038500    1.136700    0.976000
  H     -2.162200   -3.432600    1.407600
  H     -1.872300   -5.128100    3.154700
  H      1.588100   -6.662300    1.067400
  H      1.298300   -4.947000   -0.658000
  H     -2.932700    2.601600   -2.945700
  H     -1.124000    2.498800   -4.640900
  H      0.111100    1.798000   -3.316000
  H     -1.392500    4.496200   -3.328300
  H     -0.163000    3.782200   -1.998300
  H     -3.083600    4.013900   -0.802500
  H     -3.836200    4.827500    1.374300
  H     -3.324400    3.563000    3.434300
  H     -2.075900    1.475200    3.335600

 Total Charge           Charge          ....   -1
 Multiplicity           Mult            ....    1
 Number of Electrons    NEL             ....  288
 Basis Dimension        Dim             ....  594

ORBITAL ENERGIES
----------------

  NO   OCC          E(Eh)            E(eV)
   0   2.0000     -88.999843     -2421.8088
   1   2.0000     -24.695036      -671.9861
   2   2.0000     -24.692386      -671.9140
   3   2.0000     -24.691698      -671.8953
   4   2.0000     -19.159880      -521.3668
   5   2.0000     -19.029424      -517.8170
   6   2.0000     -19.029124      -517.8088
   7   2.0000     -18.907983      -514.5124
   8   2.0000     -18.886681      -513.9327
   9   2.0000     -14.282643      -388.6505
  10   2.0000     -14.254537      -387.8857
  11   2.0000     -10.455753      -284.5155
  12   2.0000     -10.210951      -277.8541
  13   2.0000     -10.185196      -277.1533
  14   2.0000     -10.163470      -276.5621
  15   2.0000     -10.160623      -276.4846
  16   2.0000     -10.140145      -275.9274
  17   2.0000     -10.138085      -275.8713
  18   2.0000     -10.137746      -275.8621
  19   2.0000     -10.137422      -275.8533
  20   2.0000     -10.135755      -275.8079
  21   2.0000     -10.135581      -275.8032
  22   2.0000     -10.134665      -275.7783
  23   2.0000     -10.134613      -275.7768
  24   2.0000     -10.133798      -275.7547
  25   2.0000     -10.133169      -275.7376
  26   2.0000     -10.132837      -275.7285
  27   2.0000     -10.132699      -275.7248
  28   2.0000     -10.132365      -275.7157
  29   2.0000     -10.122979      -275.4603
  30   2.0000     -10.117146      -275.3015
  31   2.0000     -10.116127      -275.2738
  32   2.0000     -10.115059      -275.2447
  33   2.0000     -10.095810      -274.7210
  34   2.0000     -10.094304      -274.6800
  35   2.0000     -10.092951      -274.6432
  36   2.0000     -10.077213      -274.2149
  37   2.0000     -10.075427      -274.1663
  38   2.0000     -10.074222      -274.1335
  39   2.0000      -8.035485      -218.6567
  40   2.0000      -6.000842      -163.2912
  41   2.0000      -5.998680      -163.2324
  42   2.0000      -5.997617      -163.2034
  43   2.0000      -1.257486       -34.2179
  44   2.0000      -1.178392       -32.0657
  45   2.0000      -1.177860       -32.0512
  46   2.0000      -1.029923       -28.0256
  47   2.0000      -0.987427       -26.8692
  48   2.0000      -0.886043       -24.1104
  49   2.0000      -0.866440       -23.5770
  50   2.0000      -0.840941       -22.8832
  51   2.0000      -0.818139       -22.2627
  52   2.0000      -0.803199       -21.8562
  53   2.0000      -0.799219       -21.7479
  54   2.0000      -0.786541       -21.4029
  55   2.0000      -0.758222       -20.6323
  56   2.0000      -0.738222       -20.0881
  57   2.0000      -0.723180       -19.6787
  58   2.0000      -0.708256       -19.2726
  59   2.0000      -0.698301       -19.0017
  60   2.0000      -0.697882       -18.9903
  61   2.0000      -0.678938       -18.4748
  62   2.0000      -0.671670       -18.2771
  63   2.0000      -0.659964       -17.9585
  64   2.0000      -0.645255       -17.5583
  65   2.0000      -0.635820       -17.3015
  66   2.0000      -0.617076       -16.7915
  67   2.0000      -0.587573       -15.9887
  68   2.0000      -0.580585       -15.7985
  69   2.0000      -0.576781       -15.6950
  70   2.0000      -0.564959       -15.3733
  71   2.0000      -0.550021       -14.9668
  72   2.0000      -0.549342       -14.9484
  73   2.0000      -0.543223       -14.7819
  74   2.0000      -0.540340       -14.7034
  75   2.0000      -0.521654       -14.1949
  76   2.0000      -0.514495       -14.0001
  77   2.0000      -0.504220       -13.7205
  78   2.0000      -0.503263       -13.6945
  79   2.0000      -0.493703       -13.4343
  80   2.0000      -0.469214       -12.7680
  81   2.0000      -0.458016       -12.4633
  82   2.0000      -0.445296       -12.1171
  83   2.0000      -0.438965       -11.9448
  84   2.0000      -0.435582       -11.8528
  85   2.0000      -0.427494       -11.6327
  86   2.0000      -0.423195       -11.5157
  87   2.0000      -0.421363       -11.4659
  88   2.0000      -0.417552       -11.3622
  89   2.0000      -0.415398       -11.3036
  90   2.0000      -0.409723       -11.1491
  91   2.0000      -0.403409       -10.9773
  92   2.0000      -0.398020       -10.8307
  93   2.0000      -0.393187       -10.6992
  94   2.0000      -0.387098       -10.5335
  95   2.0000      -0.384369       -10.4592
  96   2.0000      -0.378001       -10.2859
  97   2.0000      -0.375753       -10.2248
  98   2.0000      -0.372948       -10.1484
  99   2.0000      -0.370856       -10.0915
 100   2.0000      -0.369893       -10.0653
 101   2.0000      -0.363824        -9.9001
 102   2.0000      -0.358289        -9.7495
 103   2.0000      -0.352740        -9.5986
 104   2.0000      -0.348525        -9.4839
 105   2.0000      -0.339430        -9.2364
 106   2.0000      -0.337320        -9.1789
 107   2.0000      -0.330976        -9.0063
 108   2.0000      -0.328292        -8.9333
 109   2.0000      -0.325369        -8.8537
 110   2.0000      -0.321734        -8.7548
 111   2.0000      -0.318911        -8.6780
 112   2.0000      -0.314337        -8.5535
 113   2.0000      -0.309456        -8.4207
 114   2.0000      -0.305924        -8.3246
 115   2.0000      -0.301522        -8.2048
 116   2.0000      -0.293087        -7.9753
 117   2.0000      -0.290123        -7.8946
 118   2.0000      -0.288848        -7.8600
 119   2.0000      -0.282093        -7.6761
 120   2.0000      -0.281489        -7.6597
 121   2.0000      -0.274283        -7.4636
 122   2.0000      -0.246305        -6.7023
 123   2.0000      -0.243320        -6.6211
 124   2.0000      -0.231698        -6.3048
 125   2.0000      -0.230673        -6.2769
 126   2.0000      -0.223112        -6.0712
 127   2.0000      -0.213394        -5.8068
 128   2.0000      -0.212289        -5.7767
 129   2.0000      -0.207528        -5.6471
 130   2.0000      -0.202092        -5.4992
 131   2.0000      -0.198302        -5.3961
 132   2.0000      -0.194413        -5.2903
 133   2.0000      -0.187154        -5.0927
 134   2.0000      -0.182857        -4.9758
 135   2.0000      -0.180135        -4.9017
 136   2.0000      -0.175528        -4.7764
 137   2.0000      -0.165995        -4.5170
 138   2.0000      -0.154436        -4.2024
 139   2.0000      -0.151690        -4.1277
 140   2.0000      -0.131060        -3.5663
 141   2.0000      -0.062079        -1.6892
 142   2.0000      -0.040212        -1.0942
 143   2.0000      -0.023453        -0.6382
 144   0.0000       0.004099         0.1115
 145   0.0000       0.034262         0.9323
 146   0.0000       0.046852         1.2749
 147   0.0000       0.048835         1.3289
 148   0.0000       0.067069         1.8250

MULLIKEN ATOMIC CHARGES
-----------------------
   0 C :   -0.550013
   1 C :    0.096512
   2 C :    0.318028
   3 N :   -0.613533
   4 C :   -0.216723
   5 C :    0.145158
   6 C :   -0.139698
   7 C :   -0.182300
   8 C :    0.349981
   9 O :   -0.547523
  10 C :    1.083953
  11 F :   -0.293623
  12 F :   -0.284753
  13 F :   -0.289834
  14 C :   -0.195263
  15 C :   -0.164692
  16 S :    1.185298
  17 O :   -0.561784
  18 O :   -0.555713
  19 C :   -0.142128
  20 C :   -0.156660
  21 C :   -0.159433
  22 C :    0.105087
  23 C :    0.409534
  24 O :   -0.550625
  25 O :   -0.657359
  26 C :   -0.149809
  27 C :   -0.159359
  28 N :   -0.388400
  29 C :    0.162529
  30 C :   -0.155902
  31 C :   -0.301182
  32 C :   -0.308393
  33 C :    0.108234
  34 C :   -0.199085
  35 C :   -0.126965
  36 C :   -0.120990
  37 C :   -0.204460
  38 C :    0.124737
  39 H :    0.166411
  40 H :    0.147777
  41 H :    0.195440
  42 H :    0.182858
  43 H :    0.148297
  44 H :    0.171889
  45 H :    0.143820
  46 H :    0.142274
  47 H :    0.136894
  48 H :    0.142938
  49 H :    0.145680
  50 H :    0.152482
  51 H :    0.141720
  52 H :    0.151448
  53 H :    0.132921
  54 H :    0.184763
  55 H :    0.130573
  56 H :    0.155733
  57 H :    0.136154
  58 H :    0.119029
  59 H :    0.122758
  60 H :    0.135293
Sum of atomic charges:   -1.0000000

LOEWDIN ATOMIC CHARGES
----------------------
   0 C :   -0.362472
   1 C :   -0.018948
   2 C :    0.041825
   3 N :   -0.294996
   4 C :   -0.142836
   5 C :   -0.028273
   6 C :   -0.099500
   7 C :   -0.145261
   8 C :    0.080627
   9 O :   -0.161855
  10 C :    0.357351
  11 F :   -0.107274
  12 F :   -0.092870
  13 F :   -0.103837
  14 C :   -0.167964
  15 C :   -0.121157
  16 S :    1.261758
  17 O :   -0.593351
  18 O :   -0.583311
  19 C :   -0.217275
  20 C :   -0.126728
  21 C :   -0.114490
  22 C :   -0.003383
  23 C :    0.069991
  24 O :   -0.375961
  25 O :   -0.505670
  26 C :   -0.108029
  27 C :   -0.130369
  28 N :   -0.105775
  29 C :    0.042179
  30 C :   -0.140871
  31 C :   -0.242139
  32 C :   -0.257453
  33 C :   -0.025140
  34 C :   -0.114448
  35 C :   -0.135354
  36 C :   -0.126845
  37 C :   -0.125401
  38 C :   -0.006860
  39 H :    0.139221
  40 H :    0.129379
  41 H :    0.150967
  42 H :    0.149399
  43 H :    0.119325
  44 H :    0.153835
  45 H :    0.142699
  46 H :    0.137022
  47 H :    0.135962
  48 H :    0.137879
  49 H :    0.145957
  50 H :    0.150323
  51 H :    0.137828
  52 H :    0.135446
  53 H :    0.126528
  54 H :    0.151618
  55 H :    0.121981
  56 H :    0.134389
  57 H :    0.138534
  58 H :    0.127550
  59 H :    0.129395
  60 H :    0.137128

  Mayer bond orders larger than 0.100000
B(  0-C ,  1-C ) :   0.9954 B(  0-C , 39-H ) :   0.9277 B(  0-C , 40-H ) :   0.9291
B(  0-C , 41-H ) :   0.9187 B(  1-C ,  2-C ) :   1.4410 B(  1-C , 38-C ) :   1.2540
B(  2-C ,  3-N ) :   0.9059 B(  2-C , 28-N ) :   1.2721 B(  3-N ,  4-C ) :   0.9292
B(  3-N , 16-S ) :   0.7800 B(  4-C ,  5-C ) :   0.9725 B(  4-C , 42-H ) :   0.9124
B(  4-C , 43-H ) :   0.9202 B(  5-C ,  6-C ) :   1.4323 B(  5-C , 15-C ) :   1.4342
B(  6-C ,  7-C ) :   1.4319 B(  6-C , 44-H ) :   0.9118 B(  7-C ,  8-C ) :   1.4070
B(  7-C , 45-H ) :   0.9201 B(  8-C ,  9-O ) :   0.8108 B(  8-C , 14-C ) :   1.3961
B(  9-O , 10-C ) :   1.0029 B( 10-C , 11-F ) :   0.9648 B( 10-C , 12-F ) :   1.0017
B( 10-C , 13-F ) :   0.9669 B( 14-C , 15-C ) :   1.4254 B( 14-C , 46-H ) :   0.9118
B( 15-C , 47-H ) :   0.9208 B( 16-S , 17-O ) :   1.6317 B( 16-S , 18-O ) :   1.6315
B( 16-S , 19-C ) :   0.8415 B( 19-C , 20-C ) :   1.3636 B( 19-C , 27-C ) :   1.3650
B( 20-C , 21-C ) :   1.4130 B( 20-C , 48-H ) :   0.9201 B( 21-C , 22-C ) :   1.3854
B( 21-C , 49-H ) :   0.9076 B( 22-C , 23-C ) :   0.9263 B( 22-C , 26-C ) :   1.4048
B( 23-C , 24-O ) :   1.7088 B( 23-C , 25-O ) :   1.5508 B( 24-O , 25-O ) :   0.1479
B( 26-C , 27-C ) :   1.4004 B( 26-C , 50-H ) :   0.9016 B( 27-C , 51-H ) :   0.9202
B( 28-N , 29-C ) :   1.4598 B( 29-C , 30-C ) :   1.0231 B( 29-C , 33-C ) :   1.2212
B( 30-C , 31-C ) :   0.9528 B( 30-C , 32-C ) :   0.9235 B( 30-C , 52-H ) :   0.9228
B( 31-C , 32-C ) :   0.9656 B( 31-C , 53-H ) :   0.9460 B( 31-C , 54-H ) :   0.9224
B( 32-C , 55-H ) :   0.9449 B( 32-C , 56-H ) :   0.9382 B( 33-C , 34-C ) :   1.3056
B( 33-C , 38-C ) :   1.2817 B( 34-C , 35-C ) :   1.5020 B( 34-C , 37-C ) :   0.1061
B( 34-C , 57-H ) :   0.9136 B( 35-C , 36-C ) :   1.3562 B( 35-C , 58-H ) :   0.9318
B( 36-C , 37-C ) :   1.5089 B( 36-C , 59-H ) :   0.9313 B( 37-C , 38-C ) :   1.2912
B( 37-C , 60-H ) :   0.9163

FINAL SINGLE POINT ENERGY     -2262.373023963251

DIPOLE MOMENT
-------------

Method             : SCF
Type of density    : Electron Density
Multiplicity       :   1
Irrep              :   0
Energy             : -2262.3730239632513985 Eh
Relativity type    :
Basis              : AO
                                X                 Y                 Z
Electronic contribution:     22.511166150      16.084381385     -12.770304005
Nuclear contribution   :    -21.869022247      -4.189831575       9.169664178
                        -----------------------------------------
Total Dipole Moment    :      0.642143902      11.894549810      -3.600639827
                        -----------------------------------------
Magnitude (a.u.)       :     12.444166148
Magnitude (Debye)      :     31.630556627

Rotational constants in cm-1:             0.004683             0.001615             0.001413
Rotational constants in MHz :           140.381733            48.426306            42.364293

                             ****ORCA TERMINATED NORMALLY****
TOTAL RUN TIME: 0 days 0 hours 14 minutes 13 seconds 405 msec
