                         Program Version 6.0.0  -   RELEASE  -
|  1> ! B3LYP 6-31G* SP
|  2>
|  3> * xyz 0 1
|  4> C -4.9305 2.4647 0.5422
|  5> N -4.6323 1.0720 0.1688
|  6> C -3.7871 0.3193 0.9527
|  7> O -3.2410 0.8042 1.9809
|  8> C -3.5563 -0.9987 0.5905
|  9> C -2.8021 -2.0333 1.1048
| 10> C -1.8949 -2.0161 2.2952
| 11> C -0.5555 -1.4637 1.9121
| 12> O 0.2105 -2.1583 1.1904
| 13> N -0.1607 -0.1537 2.3494
| 14> C 1.0333 0.5059 1.9101
| 15> N 1.9007 -0.0120 1.0143
| 16> C 2.9422 0.8305 0.7664
| 17> C 4.0031 0.4785 -0.2078
| 18> C 3.6821 -0.3436 -1.2988
| 19> C 4.6587 -0.7066 -2.2241
| 20> C 5.9697 -0.2506 -2.0831
| 21> F 6.8972 -0.6583 -2.9862
| 22> C 6.3183 0.5956 -1.0104
| 23> C 7.7502 1.0514 -0.8195
| 24> F 8.4180 1.1317 -2.0288
| 25> F 7.7933 2.3055 -0.2357
| 26> F 8.4081 0.1514 -0.0021
| 27> C 5.3332 0.9247 -0.0528
| 28> F 5.6858 1.6228 1.0578
| 29> C 2.8877 2.0409 1.4637
| 30> S 1.5034 2.0341 2.4199
| 31> O -2.9844 -3.0819 0.3223
| 32> N -3.8050 -2.8157 -0.6606
| 33> C -4.1597 -1.5265 -0.5003
| 34> N -5.0055 -0.8055 -1.2848
| 35> C -5.6829 -1.4268 -2.4305
| 36> C -5.2630 0.5004 -0.9250
| 37> O -6.0886 1.1796 -1.5988
| 38> H -5.8237 2.4900 1.2013
| 39> H -5.1221 3.0878 -0.3574
| 40> H -4.0740 2.9343 1.0714
| 41> H -1.7672 -3.0532 2.6720
| 42> H -2.3516 -1.4194 3.1125
| 43> H -0.7774 0.3587 3.0185
| 44> H 2.6708 -0.7062 -1.4377
| 45> H 4.3981 -1.3515 -3.0537
| 46> H 3.5830 2.8649 1.3831
| 47> H -5.1115 -2.2989 -2.8140
| 48> H -5.7747 -0.7043 -3.2695
| 49> H -6.6957 -1.7641 -2.1253
| 50> *
| 51>
| 52>                          ****END OF INPUT****

CARTESIAN COORDINATES (ANGSTROEM)
---------------------------------
  C     -4.930500    2.464700    0.542200
  N     -4.632300    1.072000    0.168800
  C     -3.787100    0.319300    0.952700
  O     -3.241000    0.804200    1.980900
  C     -3.556300   -0.998700    0.590500
  C     -2.802100   -2.033300    1.104800
  C     -1.894900   -2.016100    2.295200
  C     -0.555500   -1.463700    1.912100
  O      0.210500   -2.158300    1.190400
  N     -0.160700   -0.153700    2.349400
  C      1.033300    0.505900    1.910100
  N      1.900700   -0.012000    1.014300
  C      2.942200    0.830500    0.766400
  C      4.003100    0.478500   -0.207800
  C      3.682100   -0.343600   -1.298800
  C      4.658700   -0.706600   -2.224100
  C      5.969700   -0.250600   -2.083100
  F      6.897200   -0.658300   -2.986200
  C      6.318300    0.595600   -1.010400
  C      7.750200    1.051400   -0.819500
  F      8.418000    1.131700   -2.028800
  F      7.793300    2.305500   -0.235700
  F      8.408100    0.151400   -0.002100
  C      5.333200    0.924700   -0.052800
  F      5.685800    1.622800    1.057800
  C      2.887700    2.040900    1.463700
  S      1.503400    2.034100    2.419900
  O     -2.984400   -3.081900    0.322300
  N     -3.805000   -2.815700   -0.660600
  C     -4.159700   -1.526500   -0.500300
  N     -5.005500   -0.805500   -1.284800
  C     -5.682900   -1.426800   -2.430500
  C     -5.263000    0.500400   -0.925000
  O     -6.088600    1.179600   -1.598800
  H     -5.823700    2.490000    1.201300
  H     -5.122100    3.087800   -0.357400
  H     -4.074000    2.934300    1.071400
  H     -1.767200   -3.053200    2.672000
  H     -2.351600   -1.419400    3.112500
  H     -0.777400    0.358700    3.018500
  H      2.670800   -0.706200   -1.437700
  H      4.398100   -1.351500   -3.053700
  H      3.583000    2.864900    1.383100
  H     -5.111500   -2.298900   -2.814000
  H     -5.774700   -0.704300   -3.269500
  H     -6.695700   -1.764100   -2.125300

 Total Charge           Charge          ....    0
 Multiplicity           Mult            ....    1
 Number of Electrons    NEL             ....  254
 Basis Dimension        Dim             ....  504

ORBITAL ENERGIES
----------------

  NO   OCC          E(Eh)            E(eV)
   0   2.0000     -88.913779     -2419.4669
   1   2.0000     -24.723329      -672.7560
   2   2.0000     -24.715279      -672.5369
   3   2.0000     -24.715205      -672.5349
   4   2.0000     -24.715004      -672.5294
   5   2.0000     -24.713918      -672.4999
   6   2.0000     -19.276618      -524.5434
   7   2.0000     -19.137350      -520.7538
   8   2.0000     -19.131411      -520.5922
   9   2.0000     -19.128295      -520.5074
  10   2.0000     -14.415302      -392.2603
  11   2.0000     -14.414605      -392.2414
  12   2.0000     -14.403127      -391.9290
  13   2.0000     -14.392402      -391.6372
  14   2.0000     -14.333529      -390.0352
  15   2.0000     -10.439767      -284.0805
  16   2.0000     -10.343971      -281.4738
  17   2.0000     -10.318920      -280.7921
  18   2.0000     -10.318110      -280.7700
  19   2.0000     -10.300899      -280.3017
  20   2.0000     -10.296629      -280.1855
  21   2.0000     -10.296587      -280.1844
  22   2.0000     -10.296486      -280.1816
  23   2.0000     -10.277192      -279.6566
  24   2.0000     -10.237055      -278.5644
  25   2.0000     -10.236929      -278.5610
  26   2.0000     -10.234778      -278.5025
  27   2.0000     -10.233741      -278.4742
  28   2.0000     -10.229187      -278.3503
  29   2.0000     -10.218931      -278.0713
  30   2.0000     -10.216200      -277.9969
  31   2.0000     -10.214174      -277.9418
  32   2.0000     -10.209866      -277.8246
  33   2.0000     -10.203098      -277.6404
  34   2.0000      -7.991492      -217.4596
  35   2.0000      -5.954556      -162.0317
  36   2.0000      -5.950424      -161.9193
  37   2.0000      -5.948339      -161.8625
  38   2.0000      -1.277283       -34.7567
  39   2.0000      -1.235530       -33.6205
  40   2.0000      -1.227834       -33.4111
  41   2.0000      -1.218513       -33.1574
  42   2.0000      -1.201074       -32.6829
  43   2.0000      -1.199748       -32.6468
  44   2.0000      -1.083618       -29.4867
  45   2.0000      -1.041881       -28.3510
  46   2.0000      -1.034326       -28.1454
  47   2.0000      -0.991259       -26.9735
  48   2.0000      -0.983230       -26.7551
  49   2.0000      -0.958065       -26.0703
  50   2.0000      -0.924229       -25.1496
  51   2.0000      -0.884873       -24.0786
  52   2.0000      -0.882854       -24.0237
  53   2.0000      -0.865925       -23.5630
  54   2.0000      -0.821361       -22.3504
  55   2.0000      -0.803306       -21.8591
  56   2.0000      -0.791795       -21.5458
  57   2.0000      -0.779629       -21.2148
  58   2.0000      -0.758166       -20.6307
  59   2.0000      -0.733581       -19.9618
  60   2.0000      -0.730073       -19.8663
  61   2.0000      -0.699749       -19.0411
  62   2.0000      -0.687243       -18.7008
  63   2.0000      -0.681343       -18.5403
  64   2.0000      -0.652476       -17.7548
  65   2.0000      -0.640967       -17.4416
  66   2.0000      -0.629788       -17.1374
  67   2.0000      -0.623691       -16.9715
  68   2.0000      -0.609674       -16.5901
  69   2.0000      -0.585677       -15.9371
  70   2.0000      -0.577111       -15.7040
  71   2.0000      -0.569292       -15.4912
  72   2.0000      -0.568538       -15.4707
  73   2.0000      -0.568128       -15.4595
  74   2.0000      -0.558539       -15.1986
  75   2.0000      -0.543137       -14.7795
  76   2.0000      -0.539143       -14.6708
  77   2.0000      -0.533923       -14.5288
  78   2.0000      -0.522974       -14.2308
  79   2.0000      -0.517503       -14.0820
  80   2.0000      -0.510472       -13.8906
  81   2.0000      -0.498027       -13.5520
  82   2.0000      -0.495199       -13.4750
  83   2.0000      -0.492001       -13.3880
  84   2.0000      -0.484989       -13.1972
  85   2.0000      -0.478528       -13.0214
  86   2.0000      -0.473880       -12.8949
  87   2.0000      -0.468916       -12.7598
  88   2.0000      -0.466473       -12.6934
  89   2.0000      -0.455728       -12.4010
  90   2.0000      -0.451220       -12.2783
  91   2.0000      -0.448880       -12.2146
  92   2.0000      -0.443025       -12.0553
  93   2.0000      -0.442365       -12.0374
  94   2.0000      -0.437886       -11.9155
  95   2.0000      -0.435970       -11.8633
  96   2.0000      -0.432092       -11.7578
  97   2.0000      -0.427153       -11.6234
  98   2.0000      -0.420771       -11.4498
  99   2.0000      -0.417828       -11.3697
 100   2.0000      -0.414024       -11.2662
 101   2.0000      -0.411614       -11.2006
 102   2.0000      -0.409476       -11.1424
 103   2.0000      -0.406161       -11.0522
 104   2.0000      -0.404786       -11.0148
 105   2.0000      -0.399937       -10.8828
 106   2.0000      -0.396435       -10.7875
 107   2.0000      -0.396215       -10.7816
 108   2.0000      -0.383778       -10.4431
 109   2.0000      -0.382135       -10.3984
 110   2.0000      -0.369737       -10.0611
 111   2.0000      -0.363045        -9.8790
 112   2.0000      -0.361819        -9.8456
 113   2.0000      -0.357291        -9.7224
 114   2.0000      -0.322698        -8.7811
 115   2.0000      -0.317378        -8.6363
 116   2.0000      -0.299594        -8.1524
 117   2.0000      -0.294940        -8.0257
 118   2.0000      -0.291916        -7.9434
 119   2.0000      -0.284958        -7.7541
 120   2.0000      -0.284434        -7.7398
 121   2.0000      -0.271912        -7.3991
 122   2.0000      -0.271263        -7.3814
 123   2.0000      -0.260140        -7.0788
 124   2.0000      -0.256600        -6.9824
 125   2.0000      -0.246698        -6.7130
 126   2.0000      -0.220948        -6.0123
 127   0.0000      -0.070167        -1.9094
 128   0.0000      -0.044291        -1.2052
 129   0.0000      -0.037792        -1.0284
 130   0.0000      -0.027315        -0.7433
 131   0.0000      -0.006285        -0.1710

MULLIKEN ATOMIC CHARGES
-----------------------
   0 C :   -0.317073
   1 N :   -0.488098
   2 C :    0.528584
   3 O :   -0.516733
   4 C :   -0.046348
   5 C :    0.352415
   6 C :   -0.427208
   7 C :    0.562496
   8 O :   -0.419826
   9 N :   -0.652418
  10 C :    0.249786
  11 N :   -0.370940
  12 C :    0.213119
  13 C :    0.020857
  14 C :   -0.129769
  15 C :   -0.213613
  16 C :    0.407328
  17 F :   -0.298296
  18 C :   -0.216769
  19 C :    0.928589
  20 F :   -0.298336
  21 F :   -0.301101
  22 F :   -0.292998
  23 C :    0.349053
  24 F :   -0.295193
  25 C :   -0.379649
  26 S :    0.263352
  27 O :   -0.285347
  28 N :   -0.203032
  29 C :    0.450236
  30 N :   -0.500909
  31 C :   -0.328578
  32 C :    0.684007
  33 O :   -0.495345
  34 H :    0.181836
  35 H :    0.199988
  36 H :    0.195025
  37 H :    0.210174
  38 H :    0.195554
  39 H :    0.363233
  40 H :    0.185206
  41 H :    0.159490
  42 H :    0.194825
  43 H :    0.199552
  44 H :    0.199664
  45 H :    0.183210
Sum of atomic charges:    0.0000000

LOEWDIN ATOMIC CHARGES
----------------------
   0 C :   -0.259928
   1 N :   -0.029108
   2 C :    0.121986
   3 O :   -0.306264
   4 C :   -0.119787
   5 C :    0.111049
   6 C :   -0.246174
   7 C :    0.152293
   8 O :   -0.239586
   9 N :   -0.199548
  10 C :   -0.083560
  11 N :   -0.152635
  12 C :   -0.006454
  13 C :   -0.048581
  14 C :   -0.081914
  15 C :   -0.158195
  16 C :    0.138478
  17 F :   -0.088200
  18 C :   -0.126147
  19 C :    0.317294
  20 F :   -0.107476
  21 F :   -0.110891
  22 F :   -0.110595
  23 C :    0.142450
  24 F :   -0.084405
  25 C :   -0.335963
  26 S :    0.398456
  27 O :    0.042298
  28 N :   -0.110387
  29 C :    0.027748
  30 N :   -0.025101
  31 C :   -0.259090
  32 C :    0.148744
  33 O :   -0.301694
  34 H :    0.142279
  35 H :    0.155263
  36 H :    0.152763
  37 H :    0.172578
  38 H :    0.159643
  39 H :    0.275669
  40 H :    0.162224
  41 H :    0.151873
  42 H :    0.167494
  43 H :    0.154285
  44 H :    0.154905
  45 H :    0.141910

  Mayer bond orders larger than 0.100000
B(  0-C ,  1-N ) :   0.9151 B(  0-C , 34-H ) :   0.9394 B(  0-C , 35-H ) :   0.9255
B(  0-C , 36-H ) :   0.9242 B(  1-N ,  2-C ) :   1.0026 B(  1-N , 32-C ) :   1.0144
B(  2-C ,  3-O ) :   1.7529 B(  2-C ,  4-C ) :   1.0640 B(  4-C ,  5-C ) :   1.4091
B(  4-C , 27-O ) :   0.1079 B(  4-C , 29-C ) :   1.2564 B(  5-C ,  6-C ) :   1.0178
B(  5-C , 27-O ) :   1.0630 B(  5-C , 28-N ) :   0.1140 B(  6-C ,  7-C ) :   0.9332
B(  6-C , 37-H ) :   0.9023 B(  6-C , 38-H ) :   0.9029 B(  7-C ,  8-O ) :   1.8983
B(  7-C ,  9-N ) :   1.0103 B(  9-N , 10-C ) :   0.9488 B(  9-N , 39-H ) :   0.8018
B( 10-C , 11-N ) :   1.5125 B( 10-C , 25-C ) :   0.1098 B( 10-C , 26-S ) :   1.1429
B( 11-N , 12-C ) :   1.2702 B( 12-C , 13-C ) :   1.0125 B( 12-C , 25-C ) :   1.5211
B( 13-C , 14-C ) :   1.3999 B( 13-C , 23-C ) :   1.3337 B( 14-C , 15-C ) :   1.4160
B( 14-C , 40-H ) :   0.9088 B( 15-C , 16-C ) :   1.3845 B( 15-C , 41-H ) :   0.9173
B( 16-C , 17-F ) :   0.9507 B( 16-C , 18-C ) :   1.3247 B( 18-C , 19-C ) :   0.9452
B( 18-C , 23-C ) :   1.3102 B( 19-C , 20-F ) :   0.9585 B( 19-C , 21-F ) :   0.9555
B( 19-C , 22-F ) :   0.9983 B( 23-C , 24-F ) :   0.9515 B( 25-C , 26-S ) :   1.1231
B( 25-C , 42-H ) :   0.8996 B( 27-O , 28-N ) :   1.0340 B( 28-N , 29-C ) :   1.4194
B( 29-C , 30-N ) :   0.9684 B( 30-N , 31-C ) :   0.9259 B( 30-N , 32-C ) :   1.0552
B( 31-C , 43-H ) :   0.9239 B( 31-C , 44-H ) :   0.9279 B( 31-C , 45-H ) :   0.9372
B( 32-C , 33-O ) :   1.8046

FINAL SINGLE POINT ENERGY     -2202.255387329446

DIPOLE MOMENT
-------------

Method             : SCF
Type of density    : Electron Density
Multiplicity       :   1
Irrep              :   0
Energy             : -2202.2553873294455116 Eh
Relativity type    :
Basis              : AO
                                X                 Y                 Z
Electronic contribution:     64.613473782       5.041039242      -1.877053344
Nuclear contribution   :    -66.791643863      -4.587632742       2.629906404
                        -----------------------------------------
Total Dipole Moment    :     -2.178170082       0.453406500       0.752853060
                        -----------------------------------------
Magnitude (a.u.)       :      2.348784811
Magnitude (Debye)      :      5.970136535

Rotational constants in cm-1:             0.007793             0.001355             0.001299
Rotational constants in MHz :           233.617117            40.626810            38.954799

                             ****ORCA TERMINATED NORMALLY****
TOTAL RUN TIME: 0 days 0 hours 8 minutes 22 seconds 745 msec
