                         Program Version 6.0.0  -   RELEASE  -
|  1> ! B3LYP 6-31G* SP
|  2>
|  3> * xyz 0 1
|  4> C 0.0147 2.8151 0.2061
|  5> C -1.2277 1.9881 0.3658
|  6> C -1.2883 0.5982 0.1637
|  7> N -0.1794 -0.2809 -0.1206
|  8> C -0.2171 -1.1841 -1.2825
|  9> C -1.4045 -2.1159 -1.2591
| 10> C -2.3517 -2.0805 -2.2988
| 11> C -3.4514 -2.9397 -2.2784
| 12> C -3.6283 -3.8352 -1.2197
| 13> F -4.6968 -4.6689 -1.2330
| 14> C -2.7030 -3.8710 -0.1572
| 15> C -2.8799 -4.8499 0.9848
| 16> F -2.4657 -6.1077 0.5788
| 17> F -2.1409 -4.4686 2.0913
| 18> F -4.2082 -4.9108 1.3641
| 19> C -1.5734 -3.0299 -0.2052
| 20> S 1.1241 -0.4248 1.0387
| 21> O 0.7874 0.4149 2.2430
| 22> O 1.2026 -1.8538 1.4938
| 23> N 2.7047 0.0223 0.4037
| 24> C 3.2784 1.1846 1.1073
| 25> C 4.7804 1.3145 0.7898
| 26> C 5.1461 0.8701 -0.6481
| 27> C 5.7221 -0.5253 -0.6836
| 28> O 6.6240 -0.8066 -1.5188
| 29> O 5.2375 -1.5172 0.1690
| 30> C 3.9307 0.9798 -1.5842
| 31> C 2.7232 0.1680 -1.0700
| 32> S -2.8671 0.0619 0.4677
| 33> C -3.4780 1.5705 0.8519
| 34> C -4.7846 1.8942 1.2118
| 35> C -5.0763 3.2304 1.5176
| 36> C -4.0626 4.2067 1.4651
| 37> C -2.7540 3.8584 1.0889
| 38> C -2.4691 2.5222 0.7696
| 39> H 0.5111 2.9338 1.1916
| 40> H -0.2284 3.8206 -0.2000
| 41> H 0.7064 2.3436 -0.5124
| 42> H 0.6954 -1.8154 -1.3091
| 43> H -0.2142 -0.5708 -2.2102
| 44> H -2.2438 -1.3827 -3.1237
| 45> H -4.1736 -2.9036 -3.0820
| 46> H -0.8350 -3.0696 0.5840
| 47> H 2.7497 2.1189 0.8064
| 48> H 3.1767 1.0661 2.2127
| 49> H 5.0690 2.3761 0.9232
| 50> H 5.3676 0.7375 1.5356
| 51> H 5.9308 1.5630 -1.0276
| 52> H 5.6223 -2.4587 0.1540
| 53> H 4.1991 0.6481 -2.6116
| 54> H 3.6388 2.0534 -1.6583
| 55> H 2.7828 -0.8486 -1.5147
| 56> H 1.8051 0.6560 -1.4463
| 57> H -5.5593 1.1348 1.2503
| 58> H -6.0840 3.5109 1.7978
| 59> H -4.2955 5.2351 1.7097
| 60> H -1.9888 4.6224 1.0567
| 61> *
| 62>
| 63>                          ****END OF INPUT****

CARTESIAN COORDINATES (ANGSTROEM)
---------------------------------
  C      0.014700    2.815100    0.206100
  C     -1.227700    1.988100    0.365800
  C     -1.288300    0.598200    0.163700
  N     -0.179400   -0.280900   -0.120600
  C     -0.217100   -1.184100   -1.282500
  C     -1.404500   -2.115900   -1.259100
  C     -2.351700   -2.080500   -2.298800
  C     -3.451400   -2.939700   -2.278400
  C     -3.628300   -3.835200   -1.219700
  F     -4.696800   -4.668900   -1.233000
  C     -2.703000   -3.871000   -0.157200
  C     -2.879900   -4.849900    0.984800
  F     -2.465700   -6.107700    0.578800
  F     -2.140900   -4.468600    2.091300
  F     -4.208200   -4.910800    1.364100
  C     -1.573400   -3.029900   -0.205200
  S      1.124100   -0.424800    1.038700
  O      0.787400    0.414900    2.243000
  O      1.202600   -1.853800    1.493800
  N      2.704700    0.022300    0.403700
  C      3.278400    1.184600    1.107300
  C      4.780400    1.314500    0.789800
  C      5.146100    0.870100   -0.648100
  C      5.722100   -0.525300   -0.683600
  O      6.624000   -0.806600   -1.518800
  O      5.237500   -1.517200    0.169000
  C      3.930700    0.979800   -1.584200
  C      2.723200    0.168000   -1.070000
  S     -2.867100    0.061900    0.467700
  C     -3.478000    1.570500    0.851900
  C     -4.784600    1.894200    1.211800
  C     -5.076300    3.230400    1.517600
  C     -4.062600    4.206700    1.465100
  C     -2.754000    3.858400    1.088900
  C     -2.469100    2.522200    0.769600
  H      0.511100    2.933800    1.191600
  H     -0.228400    3.820600   -0.200000
  H      0.706400    2.343600   -0.512400
  H      0.695400   -1.815400   -1.309100
  H     -0.214200   -0.570800   -2.210200
  H     -2.243800   -1.382700   -3.123700
  H     -4.173600   -2.903600   -3.082000
  H     -0.835000   -3.069600    0.584000
  H      2.749700    2.118900    0.806400
  H      3.176700    1.066100    2.212700
  H      5.069000    2.376100    0.923200
  H      5.367600    0.737500    1.535600
  H      5.930800    1.563000   -1.027600
  H      5.622300   -2.458700    0.154000
  H      4.199100    0.648100   -2.611600
  H      3.638800    2.053400   -1.658300
  H      2.782800   -0.848600   -1.514700
  H      1.805100    0.656000   -1.446300
  H     -5.559300    1.134800    1.250300
  H     -6.084000    3.510900    1.797800
  H     -4.295500    5.235100    1.709700
  H     -1.988800    4.622400    1.056700

 Total Charge           Charge          ....    0
 Multiplicity           Mult            ....    1
 Number of Electrons    NEL             ....  274
 Basis Dimension        Dim             ....  542

ORBITAL ENERGIES
----------------

  NO   OCC          E(Eh)            E(eV)
   0   2.0000     -89.112473     -2424.8737
   1   2.0000     -88.882299     -2418.6103
   2   2.0000     -24.713623      -672.4919
   3   2.0000     -24.712750      -672.4681
   4   2.0000     -24.710059      -672.3949
   5   2.0000     -24.709932      -672.3914
   6   2.0000     -19.190431      -522.1982
   7   2.0000     -19.133792      -520.6569
   8   2.0000     -19.132345      -520.6176
   9   2.0000     -19.130405      -520.5648
  10   2.0000     -14.395057      -391.7094
  11   2.0000     -14.384603      -391.4249
  12   2.0000     -10.432845      -283.8921
  13   2.0000     -10.327467      -281.0247
  14   2.0000     -10.291561      -280.0476
  15   2.0000     -10.250873      -278.9404
  16   2.0000     -10.250824      -278.9391
  17   2.0000     -10.243716      -278.7457
  18   2.0000     -10.231901      -278.4242
  19   2.0000     -10.225536      -278.2510
  20   2.0000     -10.221544      -278.1424
  21   2.0000     -10.219728      -278.0929
  22   2.0000     -10.212430      -277.8943
  23   2.0000     -10.211500      -277.8690
  24   2.0000     -10.207827      -277.7691
  25   2.0000     -10.207508      -277.7604
  26   2.0000     -10.205884      -277.7162
  27   2.0000     -10.205045      -277.6934
  28   2.0000     -10.198017      -277.5021
  29   2.0000     -10.191684      -277.3298
  30   2.0000     -10.187869      -277.2260
  31   2.0000     -10.187333      -277.2114
  32   2.0000     -10.186956      -277.2012
  33   2.0000     -10.186705      -277.1943
  34   2.0000     -10.184225      -277.1268
  35   2.0000      -8.146235      -221.6703
  36   2.0000      -7.960113      -216.6057
  37   2.0000      -6.111502      -166.3024
  38   2.0000      -6.109993      -166.2614
  39   2.0000      -6.108282      -166.2148
  40   2.0000      -5.923357      -161.1827
  41   2.0000      -5.919441      -161.0762
  42   2.0000      -5.916279      -160.9901
  43   2.0000      -1.272435       -34.6247
  44   2.0000      -1.226122       -33.3645
  45   2.0000      -1.197291       -32.5799
  46   2.0000      -1.195988       -32.5445
  47   2.0000      -1.092976       -29.7414
  48   2.0000      -1.073419       -29.2092
  49   2.0000      -0.988595       -26.9010
  50   2.0000      -0.967156       -26.3177
  51   2.0000      -0.955571       -26.0024
  52   2.0000      -0.950028       -25.8516
  53   2.0000      -0.901737       -24.5375
  54   2.0000      -0.878959       -23.9177
  55   2.0000      -0.832486       -22.6531
  56   2.0000      -0.826824       -22.4990
  57   2.0000      -0.798597       -21.7309
  58   2.0000      -0.788939       -21.4681
  59   2.0000      -0.782606       -21.2958
  60   2.0000      -0.779744       -21.2179
  61   2.0000      -0.736771       -20.0486
  62   2.0000      -0.732175       -19.9235
  63   2.0000      -0.720449       -19.6044
  64   2.0000      -0.700157       -19.0522
  65   2.0000      -0.694064       -18.8864
  66   2.0000      -0.675051       -18.3691
  67   2.0000      -0.660712       -17.9789
  68   2.0000      -0.656626       -17.8677
  69   2.0000      -0.635320       -17.2879
  70   2.0000      -0.625982       -17.0338
  71   2.0000      -0.617489       -16.8027
  72   2.0000      -0.598298       -16.2805
  73   2.0000      -0.585293       -15.9266
  74   2.0000      -0.573331       -15.6011
  75   2.0000      -0.565214       -15.3803
  76   2.0000      -0.563684       -15.3386
  77   2.0000      -0.561985       -15.2924
  78   2.0000      -0.558083       -15.1862
  79   2.0000      -0.539859       -14.6903
  80   2.0000      -0.530023       -14.4227
  81   2.0000      -0.521220       -14.1831
  82   2.0000      -0.512842       -13.9552
  83   2.0000      -0.498949       -13.5771
  84   2.0000      -0.495831       -13.4922
  85   2.0000      -0.493026       -13.4159
  86   2.0000      -0.484996       -13.1974
  87   2.0000      -0.482060       -13.1175
  88   2.0000      -0.471026       -12.8173
  89   2.0000      -0.469322       -12.7709
  90   2.0000      -0.465096       -12.6559
  91   2.0000      -0.460527       -12.5316
  92   2.0000      -0.455181       -12.3861
  93   2.0000      -0.449613       -12.2346
  94   2.0000      -0.448794       -12.2123
  95   2.0000      -0.442972       -12.0539
  96   2.0000      -0.441254       -12.0071
  97   2.0000      -0.439311       -11.9543
  98   2.0000      -0.437277       -11.8989
  99   2.0000      -0.434931       -11.8351
 100   2.0000      -0.427080       -11.6214
 101   2.0000      -0.424613       -11.5543
 102   2.0000      -0.422254       -11.4901
 103   2.0000      -0.416441       -11.3319
 104   2.0000      -0.411235       -11.1903
 105   2.0000      -0.409273       -11.1369
 106   2.0000      -0.405342       -11.0299
 107   2.0000      -0.402930       -10.9643
 108   2.0000      -0.400203       -10.8901
 109   2.0000      -0.396094       -10.7783
 110   2.0000      -0.395535       -10.7630
 111   2.0000      -0.389384       -10.5957
 112   2.0000      -0.388078       -10.5601
 113   2.0000      -0.384016       -10.4496
 114   2.0000      -0.381510       -10.3814
 115   2.0000      -0.368346       -10.0232
 116   2.0000      -0.363359        -9.8875
 117   2.0000      -0.361787        -9.8447
 118   2.0000      -0.355539        -9.6747
 119   2.0000      -0.352527        -9.5928
 120   2.0000      -0.352163        -9.5828
 121   2.0000      -0.347838        -9.4652
 122   2.0000      -0.335002        -9.1159
 123   2.0000      -0.331952        -9.0329
 124   2.0000      -0.325804        -8.8656
 125   2.0000      -0.317234        -8.6324
 126   2.0000      -0.306499        -8.3403
 127   2.0000      -0.301076        -8.1927
 128   2.0000      -0.289381        -7.8745
 129   2.0000      -0.279961        -7.6181
 130   2.0000      -0.275313        -7.4916
 131   2.0000      -0.270956        -7.3731
 132   2.0000      -0.265718        -7.2305
 133   2.0000      -0.256877        -6.9900
 134   2.0000      -0.250815        -6.8250
 135   2.0000      -0.228738        -6.2243
 136   2.0000      -0.205921        -5.6034
 137   0.0000      -0.049331        -1.3424
 138   0.0000      -0.034929        -0.9505
 139   0.0000      -0.026578        -0.7232
 140   0.0000      -0.014487        -0.3942
 141   0.0000      -0.009344        -0.2543

MULLIKEN ATOMIC CHARGES
-----------------------
   0 C :   -0.543143
   1 C :    0.164182
   2 C :   -0.034871
   3 N :   -0.616889
   4 C :   -0.224349
   5 C :    0.112700
   6 C :   -0.140012
   7 C :   -0.202486
   8 C :    0.389454
   9 F :   -0.298856
  10 C :   -0.110654
  11 C :    0.918254
  12 F :   -0.297664
  13 F :   -0.297105
  14 F :   -0.299543
  15 C :   -0.194081
  16 S :    1.305053
  17 O :   -0.545939
  18 O :   -0.513432
  19 N :   -0.485897
  20 C :   -0.153412
  21 C :   -0.288165
  22 C :   -0.149662
  23 C :    0.572893
  24 O :   -0.457480
  25 O :   -0.597556
  26 C :   -0.309145
  27 C :   -0.165585
  28 S :    0.254221
  29 C :   -0.128281
  30 C :   -0.173675
  31 C :   -0.116032
  32 C :   -0.144875
  33 C :   -0.178546
  34 C :    0.119256
  35 H :    0.193426
  36 H :    0.153853
  37 H :    0.143512
  38 H :    0.188821
  39 H :    0.158701
  40 H :    0.142428
  41 H :    0.154949
  42 H :    0.210999
  43 H :    0.144224
  44 H :    0.201822
  45 H :    0.151088
  46 H :    0.174299
  47 H :    0.181593
  48 H :    0.431155
  49 H :    0.177690
  50 H :    0.155995
  51 H :    0.171026
  52 H :    0.164107
  53 H :    0.142509
  54 H :    0.132366
  55 H :    0.128869
  56 H :    0.127891
Sum of atomic charges:   -0.0000000

LOEWDIN ATOMIC CHARGES
----------------------
   0 C :   -0.359515
   1 C :   -0.040664
   2 C :   -0.152272
   3 N :   -0.286687
   4 C :   -0.146876
   5 C :   -0.047209
   6 C :   -0.106446
   7 C :   -0.152197
   8 C :    0.136347
   9 F :   -0.090387
  10 C :   -0.091918
  11 C :    0.316229
  12 F :   -0.114649
  13 F :   -0.105607
  14 F :   -0.109729
  15 C :   -0.097033
  16 S :    1.283325
  17 O :   -0.564252
  18 O :   -0.558119
  19 N :   -0.282135
  20 C :   -0.162836
  21 C :   -0.228239
  22 C :   -0.137216
  23 C :    0.179054
  24 O :   -0.270285
  25 O :   -0.325932
  26 C :   -0.220276
  27 C :   -0.173808
  28 S :    0.385287
  29 C :   -0.169222
  30 C :   -0.131418
  31 C :   -0.129037
  32 C :   -0.135070
  33 C :   -0.125413
  34 C :   -0.041590
  35 H :    0.150107
  36 H :    0.131936
  37 H :    0.124211
  38 H :    0.149995
  39 H :    0.127121
  40 H :    0.138673
  41 H :    0.149427
  42 H :    0.168341
  43 H :    0.113206
  44 H :    0.157528
  45 H :    0.133138
  46 H :    0.140180
  47 H :    0.155983
  48 H :    0.347483
  49 H :    0.145282
  50 H :    0.129187
  51 H :    0.131713
  52 H :    0.122856
  53 H :    0.139597
  54 H :    0.134539
  55 H :    0.132120
  56 H :    0.133174

  Mayer bond orders larger than 0.100000
B(  0-C ,  1-C ) :   1.0158 B(  0-C , 35-H ) :   0.9112 B(  0-C , 36-H ) :   0.9290
B(  0-C , 37-H ) :   0.9313 B(  1-C ,  2-C ) :   1.5029 B(  1-C , 34-C ) :   1.2593
B(  2-C ,  3-N ) :   0.9062 B(  2-C , 28-S ) :   1.0688 B(  3-N ,  4-C ) :   0.9087
B(  3-N , 16-S ) :   0.7688 B(  4-C ,  5-C ) :   0.9701 B(  4-C , 38-H ) :   0.9083
B(  4-C , 39-H ) :   0.9236 B(  5-C ,  6-C ) :   1.4261 B(  5-C , 15-C ) :   1.4084
B(  6-C ,  7-C ) :   1.4226 B(  6-C , 40-H ) :   0.9211 B(  7-C ,  8-C ) :   1.3879
B(  7-C , 41-H ) :   0.9173 B(  8-C ,  9-F ) :   0.9564 B(  8-C , 10-C ) :   1.3234
B( 10-C , 11-C ) :   0.9597 B( 10-C , 15-C ) :   1.3893 B( 11-C , 12-F ) :   0.9853
B( 11-C , 13-F ) :   0.9555 B( 11-C , 14-F ) :   0.9593 B( 15-C , 42-H ) :   0.8819
B( 16-S , 17-O ) :   1.5783 B( 16-S , 18-O ) :   1.6641 B( 16-S , 19-N ) :   0.8080
B( 19-N , 20-C ) :   0.9237 B( 19-N , 27-C ) :   0.9497 B( 20-C , 21-C ) :   0.9767
B( 20-C , 43-H ) :   0.9228 B( 20-C , 44-H ) :   0.9225 B( 21-C , 22-C ) :   0.9590
B( 21-C , 45-H ) :   0.9344 B( 21-C , 46-H ) :   0.9353 B( 22-C , 23-C ) :   0.9626
B( 22-C , 26-C ) :   0.9971 B( 22-C , 47-H ) :   0.9219 B( 23-C , 24-O ) :   1.8719
B( 23-C , 25-O ) :   1.0411 B( 25-O , 48-H ) :   0.7421 B( 26-C , 27-C ) :   0.9896
B( 26-C , 49-H ) :   0.9276 B( 26-C , 50-H ) :   0.9340 B( 27-C , 51-H ) :   0.9243
B( 27-C , 52-H ) :   0.9002 B( 28-S , 29-C ) :   1.0617 B( 29-C , 30-C ) :   1.3333
B( 29-C , 34-C ) :   1.3149 B( 30-C , 31-C ) :   1.4919 B( 30-C , 53-H ) :   0.9243
B( 31-C , 32-C ) :   1.3840 B( 31-C , 54-H ) :   0.9306 B( 32-C , 33-C ) :   1.4818
B( 32-C , 55-H ) :   0.9305 B( 33-C , 34-C ) :   1.3340 B( 33-C , 56-H ) :   0.9192

FINAL SINGLE POINT ENERGY     -2494.642179570086

DIPOLE MOMENT
-------------

Method             : SCF
Type of density    : Electron Density
Multiplicity       :   1
Irrep              :   0
Energy             : -2494.6421795700857729 Eh
Relativity type    :
Basis              : AO
                                X                 Y                 Z
Electronic contribution:    -35.948758531     -49.782980350       9.425264467
Nuclear contribution   :     36.443444002      51.931098814     -11.319854068
                        -----------------------------------------
Total Dipole Moment    :      0.494685471       2.148118465      -1.894589601
                        -----------------------------------------
Magnitude (a.u.)       :      2.906646936
Magnitude (Debye)      :      7.388109368

Rotational constants in cm-1:             0.004052             0.002445             0.001741
Rotational constants in MHz :           121.472027            73.307776            52.197085

                             ****ORCA TERMINATED NORMALLY****
TOTAL RUN TIME: 0 days 0 hours 11 minutes 10 seconds 387 msec
