                         Program Version 6.0.0  -   RELEASE  -
|  1> ! B3LYP 6-31G* SP
|  2>
|  3> * xyz 0 1
|  4> C 1.4491 -4.2796 0.7248
|  5> C 0.9558 -3.4086 -0.4252
|  6> N 0.0852 -2.3431 0.0824
|  7> C 0.4511 -1.0908 0.4669
|  8> N 1.6899 -0.6932 0.3338
|  9> S 2.5001 0.8005 0.6830
| 10> O 2.5705 1.0254 2.1682
| 11> O 1.8142 1.9592 0.0161
| 12> C 4.1349 0.6818 0.0416
| 13> C 5.2020 0.3129 0.8751
| 14> C 6.4946 0.2010 0.3533
| 15> C 6.7263 0.4508 -1.0019
| 16> C 5.6651 0.8105 -1.8379
| 17> C 4.3716 0.9233 -1.3193
| 18> N -0.6121 -0.3667 0.9560
| 19> C -0.7300 1.0101 1.4579
| 20> C -1.3044 1.9475 0.4193
| 21> C -1.1174 1.7345 -0.9579
| 22> C -1.6451 2.6293 -1.8924
| 23> C -2.3689 3.7576 -1.4715
| 24> C -2.9154 4.7440 -2.4755
| 25> F -2.9595 4.1983 -3.7480
| 26> F -4.2001 5.1190 -2.1236
| 27> F -2.1070 5.8653 -2.4983
| 28> C -2.5145 3.9959 -0.0917
| 29> F -3.1585 5.1028 0.3549
| 30> C -1.9896 3.0967 0.8408
| 31> C -1.6571 -1.2225 0.8471
| 32> C -3.0021 -1.0030 1.1660
| 33> C -3.9193 -2.0630 0.9778
| 34> C -5.3861 -1.8593 1.2594
| 35> F -6.0141 -1.4261 0.1066
| 36> F -5.5696 -0.9147 2.2555
| 37> F -5.9694 -3.0442 1.6744
| 38> C -3.4631 -3.2927 0.4361
| 39> C -2.1078 -3.4794 0.1168
| 40> C -1.2336 -2.4140 0.3341
| 41> H 2.1071 -5.0829 0.3316
| 42> H 2.0265 -3.6647 1.4476
| 43> H 0.5869 -4.7456 1.2482
| 44> H 1.8291 -2.9705 -0.9559
| 45> H 0.4060 -4.0344 -1.1599
| 46> H 5.0355 0.1083 1.9246
| 47> H 7.3161 -0.0821 0.9990
| 48> H 7.7269 0.3624 -1.4045
| 49> H 5.8443 0.9991 -2.8880
| 50> H 3.5559 1.1950 -1.9779
| 51> H -1.3962 1.0021 2.3481
| 52> H 0.2150 1.4010 1.8487
| 53> H -0.5619 0.8786 -1.3178
| 54> H -1.4832 2.4361 -2.9446
| 55> H -2.1161 3.2985 1.8975
| 56> H -3.3339 -0.0428 1.5377
| 57> H -4.1577 -4.1033 0.2548
| 58> H -1.7660 -4.4201 -0.2935
| 59> *
| 60>
| 61>                          ****END OF INPUT****

CARTESIAN COORDINATES (ANGSTROEM)
---------------------------------
  C      1.449100   -4.279600    0.724800
  C      0.955800   -3.408600   -0.425200
  N      0.085200   -2.343100    0.082400
  C      0.451100   -1.090800    0.466900
  N      1.689900   -0.693200    0.333800
  S      2.500100    0.800500    0.683000
  O      2.570500    1.025400    2.168200
  O      1.814200    1.959200    0.016100
  C      4.134900    0.681800    0.041600
  C      5.202000    0.312900    0.875100
  C      6.494600    0.201000    0.353300
  C      6.726300    0.450800   -1.001900
  C      5.665100    0.810500   -1.837900
  C      4.371600    0.923300   -1.319300
  N     -0.612100   -0.366700    0.956000
  C     -0.730000    1.010100    1.457900
  C     -1.304400    1.947500    0.419300
  C     -1.117400    1.734500   -0.957900
  C     -1.645100    2.629300   -1.892400
  C     -2.368900    3.757600   -1.471500
  C     -2.915400    4.744000   -2.475500
  F     -2.959500    4.198300   -3.748000
  F     -4.200100    5.119000   -2.123600
  F     -2.107000    5.865300   -2.498300
  C     -2.514500    3.995900   -0.091700
  F     -3.158500    5.102800    0.354900
  C     -1.989600    3.096700    0.840800
  C     -1.657100   -1.222500    0.847100
  C     -3.002100   -1.003000    1.166000
  C     -3.919300   -2.063000    0.977800
  C     -5.386100   -1.859300    1.259400
  F     -6.014100   -1.426100    0.106600
  F     -5.569600   -0.914700    2.255500
  F     -5.969400   -3.044200    1.674400
  C     -3.463100   -3.292700    0.436100
  C     -2.107800   -3.479400    0.116800
  C     -1.233600   -2.414000    0.334100
  H      2.107100   -5.082900    0.331600
  H      2.026500   -3.664700    1.447600
  H      0.586900   -4.745600    1.248200
  H      1.829100   -2.970500   -0.955900
  H      0.406000   -4.034400   -1.159900
  H      5.035500    0.108300    1.924600
  H      7.316100   -0.082100    0.999000
  H      7.726900    0.362400   -1.404500
  H      5.844300    0.999100   -2.888000
  H      3.555900    1.195000   -1.977900
  H     -1.396200    1.002100    2.348100
  H      0.215000    1.401000    1.848700
  H     -0.561900    0.878600   -1.317800
  H     -1.483200    2.436100   -2.944600
  H     -2.116100    3.298500    1.897500
  H     -3.333900   -0.042800    1.537700
  H     -4.157700   -4.103300    0.254800
  H     -1.766000   -4.420100   -0.293500

 Total Charge           Charge          ....    0
 Multiplicity           Mult            ....    1
 Number of Electrons    NEL             ....  278
 Basis Dimension        Dim             ....  558

ORBITAL ENERGIES
----------------

  NO   OCC          E(Eh)            E(eV)
   0   2.0000     -89.091850     -2424.3125
   1   2.0000     -24.719729      -672.6580
   2   2.0000     -24.719112      -672.6412
   3   2.0000     -24.715859      -672.5527
   4   2.0000     -24.714417      -672.5135
   5   2.0000     -24.708047      -672.3401
   6   2.0000     -24.707952      -672.3376
   7   2.0000     -24.706878      -672.3083
   8   2.0000     -19.117475      -520.2129
   9   2.0000     -19.115597      -520.1618
  10   2.0000     -14.409199      -392.0943
  11   2.0000     -14.408236      -392.0680
  12   2.0000     -14.324707      -389.7951
  13   2.0000     -10.435030      -283.9516
  14   2.0000     -10.430714      -283.8341
  15   2.0000     -10.326180      -280.9896
  16   2.0000     -10.284485      -279.8551
  17   2.0000     -10.252745      -278.9914
  18   2.0000     -10.247826      -278.8575
  19   2.0000     -10.244526      -278.7677
  20   2.0000     -10.241667      -278.6899
  21   2.0000     -10.228972      -278.3445
  22   2.0000     -10.217528      -278.0331
  23   2.0000     -10.217239      -278.0252
  24   2.0000     -10.213546      -277.9247
  25   2.0000     -10.212567      -277.8981
  26   2.0000     -10.210601      -277.8446
  27   2.0000     -10.210235      -277.8346
  28   2.0000     -10.209803      -277.8229
  29   2.0000     -10.208865      -277.7973
  30   2.0000     -10.207072      -277.7485
  31   2.0000     -10.205373      -277.7023
  32   2.0000     -10.204177      -277.6698
  33   2.0000     -10.203818      -277.6600
  34   2.0000     -10.200745      -277.5764
  35   2.0000     -10.197010      -277.4747
  36   2.0000     -10.195920      -277.4451
  37   2.0000      -8.126528      -221.1341
  38   2.0000      -6.091751      -165.7650
  39   2.0000      -6.089579      -165.7059
  40   2.0000      -6.089231      -165.6964
  41   2.0000      -1.278659       -34.7941
  42   2.0000      -1.272027       -34.6136
  43   2.0000      -1.220102       -33.2007
  44   2.0000      -1.204708       -32.7818
  45   2.0000      -1.202605       -32.7245
  46   2.0000      -1.198217       -32.6052
  47   2.0000      -1.194369       -32.5004
  48   2.0000      -1.087182       -29.5837
  49   2.0000      -1.072289       -29.1785
  50   2.0000      -0.972692       -26.4683
  51   2.0000      -0.956868       -26.0377
  52   2.0000      -0.907620       -24.6976
  53   2.0000      -0.877168       -23.8690
  54   2.0000      -0.875658       -23.8279
  55   2.0000      -0.863770       -23.5044
  56   2.0000      -0.822654       -22.3855
  57   2.0000      -0.796508       -21.6741
  58   2.0000      -0.787842       -21.4383
  59   2.0000      -0.777223       -21.1493
  60   2.0000      -0.764946       -20.8152
  61   2.0000      -0.764746       -20.8098
  62   2.0000      -0.757988       -20.6259
  63   2.0000      -0.742130       -20.1944
  64   2.0000      -0.710233       -19.3264
  65   2.0000      -0.691135       -18.8067
  66   2.0000      -0.681771       -18.5519
  67   2.0000      -0.664312       -18.0768
  68   2.0000      -0.643081       -17.4991
  69   2.0000      -0.635426       -17.2908
  70   2.0000      -0.631598       -17.1867
  71   2.0000      -0.624839       -17.0027
  72   2.0000      -0.618477       -16.8296
  73   2.0000      -0.607346       -16.5267
  74   2.0000      -0.591372       -16.0921
  75   2.0000      -0.574626       -15.6364
  76   2.0000      -0.569236       -15.4897
  77   2.0000      -0.567020       -15.4294
  78   2.0000      -0.564413       -15.3585
  79   2.0000      -0.563771       -15.3410
  80   2.0000      -0.561450       -15.2778
  81   2.0000      -0.555704       -15.1215
  82   2.0000      -0.540554       -14.7092
  83   2.0000      -0.525509       -14.2998
  84   2.0000      -0.521452       -14.1894
  85   2.0000      -0.511213       -13.9108
  86   2.0000      -0.508031       -13.8242
  87   2.0000      -0.499012       -13.5788
  88   2.0000      -0.485196       -13.2029
  89   2.0000      -0.477884       -13.0039
  90   2.0000      -0.474471       -12.9110
  91   2.0000      -0.470118       -12.7926
  92   2.0000      -0.469962       -12.7883
  93   2.0000      -0.465028       -12.6541
  94   2.0000      -0.464372       -12.6362
  95   2.0000      -0.459145       -12.4940
  96   2.0000      -0.456534       -12.4229
  97   2.0000      -0.453872       -12.3505
  98   2.0000      -0.449435       -12.2297
  99   2.0000      -0.445068       -12.1109
 100   2.0000      -0.440639       -11.9904
 101   2.0000      -0.439691       -11.9646
 102   2.0000      -0.439248       -11.9526
 103   2.0000      -0.432311       -11.7638
 104   2.0000      -0.429784       -11.6950
 105   2.0000      -0.425739       -11.5849
 106   2.0000      -0.423990       -11.5374
 107   2.0000      -0.419063       -11.4033
 108   2.0000      -0.411695       -11.2028
 109   2.0000      -0.410549       -11.1716
 110   2.0000      -0.408072       -11.1042
 111   2.0000      -0.402723       -10.9586
 112   2.0000      -0.398435       -10.8420
 113   2.0000      -0.397068       -10.8048
 114   2.0000      -0.394931       -10.7466
 115   2.0000      -0.389044       -10.5864
 116   2.0000      -0.386418       -10.5150
 117   2.0000      -0.384210       -10.4549
 118   2.0000      -0.381151       -10.3716
 119   2.0000      -0.380406       -10.3514
 120   2.0000      -0.373978       -10.1765
 121   2.0000      -0.370013       -10.0686
 122   2.0000      -0.368676       -10.0322
 123   2.0000      -0.364432        -9.9167
 124   2.0000      -0.359211        -9.7746
 125   2.0000      -0.352294        -9.5864
 126   2.0000      -0.337716        -9.1897
 127   2.0000      -0.332951        -9.0601
 128   2.0000      -0.315497        -8.5851
 129   2.0000      -0.304319        -8.2809
 130   2.0000      -0.286756        -7.8030
 131   2.0000      -0.283875        -7.7246
 132   2.0000      -0.268670        -7.3109
 133   2.0000      -0.267165        -7.2699
 134   2.0000      -0.263823        -7.1790
 135   2.0000      -0.255755        -6.9595
 136   2.0000      -0.254305        -6.9200
 137   2.0000      -0.248936        -6.7739
 138   2.0000      -0.214232        -5.8295
 139   0.0000      -0.044462        -1.2099
 140   0.0000      -0.035651        -0.9701
 141   0.0000      -0.029181        -0.7941
 142   0.0000      -0.019285        -0.5248
 143   0.0000      -0.014208        -0.3866

MULLIKEN ATOMIC CHARGES
-----------------------
   0 C :   -0.445872
   1 C :   -0.159657
   2 N :   -0.470638
   3 C :    0.629338
   4 N :   -0.647766
   5 S :    1.179833
   6 O :   -0.568132
   7 O :   -0.575696
   8 C :   -0.129958
   9 C :   -0.136359
  10 C :   -0.118094
  11 C :   -0.118603
  12 C :   -0.119504
  13 C :   -0.132592
  14 N :   -0.497080
  15 C :   -0.273168
  16 C :    0.185306
  17 C :   -0.134142
  18 C :   -0.154134
  19 C :   -0.114413
  20 C :    0.914441
  21 F :   -0.307081
  22 F :   -0.300612
  23 F :   -0.295380
  24 C :    0.392399
  25 F :   -0.301251
  26 C :   -0.260796
  27 C :    0.295607
  28 C :   -0.226164
  29 C :   -0.033302
  30 C :    0.897040
  31 F :   -0.295615
  32 F :   -0.306394
  33 F :   -0.305905
  34 C :   -0.176520
  35 C :   -0.194584
  36 C :    0.313223
  37 H :    0.156017
  38 H :    0.180694
  39 H :    0.157219
  40 H :    0.197670
  41 H :    0.165080
  42 H :    0.179454
  43 H :    0.145796
  44 H :    0.143884
  45 H :    0.145332
  46 H :    0.171920
  47 H :    0.174166
  48 H :    0.263921
  49 H :    0.140557
  50 H :    0.159593
  51 H :    0.148904
  52 H :    0.164397
  53 H :    0.152743
  54 H :    0.144879
Sum of atomic charges:   -0.0000000

LOEWDIN ATOMIC CHARGES
----------------------
   0 C :   -0.364525
   1 C :   -0.146713
   2 N :    0.018058
   3 C :    0.108729
   4 N :   -0.465552
   5 S :    1.245404
   6 O :   -0.597667
   7 O :   -0.595397
   8 C :   -0.175128
   9 C :   -0.095981
  10 C :   -0.125569
  11 C :   -0.106229
  12 C :   -0.125876
  13 C :   -0.094922
  14 N :    0.004290
  15 C :   -0.148596
  16 C :   -0.003183
  17 C :   -0.121343
  18 C :   -0.102949
  19 C :   -0.099260
  20 C :    0.314312
  21 F :   -0.113574
  22 F :   -0.111687
  23 F :   -0.111647
  24 C :    0.137018
  25 F :   -0.092019
  26 C :   -0.157456
  27 C :    0.008431
  28 C :   -0.136620
  29 C :   -0.076620
  30 C :    0.310299
  31 F :   -0.113676
  32 F :   -0.114565
  33 F :   -0.114047
  34 C :   -0.119249
  35 C :   -0.156939
  36 C :    0.014561
  37 H :    0.133964
  38 H :    0.142303
  39 H :    0.129570
  40 H :    0.154972
  41 H :    0.134809
  42 H :    0.157693
  43 H :    0.140305
  44 H :    0.138426
  45 H :    0.140057
  46 H :    0.154068
  47 H :    0.143244
  48 H :    0.184695
  49 H :    0.140288
  50 H :    0.148200
  51 H :    0.146852
  52 H :    0.150473
  53 H :    0.145148
  54 H :    0.140822

  Mayer bond orders larger than 0.100000
B(  0-C ,  1-C ) :   1.0050 B(  0-C , 37-H ) :   0.9436 B(  0-C , 38-H ) :   0.9421
B(  0-C , 39-H ) :   0.9463 B(  1-C ,  2-N ) :   0.9284 B(  1-C , 40-H ) :   0.9178
B(  1-C , 41-H ) :   0.9281 B(  2-N ,  3-C ) :   1.1012 B(  2-N , 36-C ) :   1.0015
B(  3-C ,  4-N ) :   1.5413 B(  3-C , 14-N ) :   1.0904 B(  4-N ,  5-S ) :   0.9574
B(  5-S ,  6-O ) :   1.5805 B(  5-S ,  7-O ) :   1.5735 B(  5-S ,  8-C ) :   0.8180
B(  8-C ,  9-C ) :   1.4061 B(  8-C , 13-C ) :   1.4007 B(  9-C , 10-C ) :   1.4426
B(  9-C , 42-H ) :   0.9109 B( 10-C , 11-C ) :   1.4492 B( 10-C , 43-H ) :   0.9281
B( 11-C , 12-C ) :   1.4453 B( 11-C , 44-H ) :   0.9280 B( 12-C , 13-C ) :   1.4503
B( 12-C , 45-H ) :   0.9281 B( 13-C , 46-H ) :   0.9138 B( 14-N , 15-C ) :   0.9258
B( 14-N , 27-C ) :   0.9911 B( 15-C , 16-C ) :   0.9528 B( 15-C , 47-H ) :   0.9157
B( 15-C , 48-H ) :   0.8504 B( 16-C , 17-C ) :   1.4348 B( 16-C , 26-C ) :   1.3952
B( 17-C , 18-C ) :   1.4357 B( 17-C , 49-H ) :   0.9166 B( 18-C , 19-C ) :   1.4049
B( 18-C , 50-H ) :   0.9182 B( 19-C , 20-C ) :   0.9655 B( 19-C , 24-C ) :   1.3298
B( 20-C , 21-F ) :   0.9452 B( 20-C , 22-F ) :   0.9603 B( 20-C , 23-F ) :   0.9874
B( 24-C , 25-F ) :   0.9492 B( 24-C , 26-C ) :   1.3820 B( 26-C , 51-H ) :   0.9144
B( 27-C , 28-C ) :   1.3793 B( 27-C , 36-C ) :   1.3302 B( 28-C , 29-C ) :   1.3862
B( 28-C , 52-H ) :   0.9023 B( 29-C , 30-C ) :   0.9845 B( 29-C , 34-C ) :   1.3903
B( 30-C , 31-F ) :   0.9884 B( 30-C , 32-F ) :   0.9437 B( 30-C , 33-F ) :   0.9478
B( 34-C , 35-C ) :   1.4249 B( 34-C , 53-H ) :   0.9201 B( 35-C , 36-C ) :   1.3905
B( 35-C , 54-H ) :   0.9164

FINAL SINGLE POINT ENERGY     -2336.027902593299

DIPOLE MOMENT
-------------

Method             : SCF
Type of density    : Electron Density
Multiplicity       :   1
Irrep              :   0
Energy             : -2336.0279025932991317 Eh
Relativity type    :
Basis              : AO
                                X                 Y                 Z
Electronic contribution:    -53.504249475      33.312109797      -5.393164513
Nuclear contribution   :     55.512730053     -36.252195635       4.785474051
                        -----------------------------------------
Total Dipole Moment    :      2.008480578      -2.940085838      -0.607690462
                        -----------------------------------------
Magnitude (a.u.)       :      3.612116646
Magnitude (Debye)      :      9.181270866

Rotational constants in cm-1:             0.003203             0.002315             0.001504
Rotational constants in MHz :            96.008833            69.406098            45.098675

                             ****ORCA TERMINATED NORMALLY****
TOTAL RUN TIME: 0 days 0 hours 6 minutes 14 seconds 378 msec
