                         Program Version 6.0.0  -   RELEASE  -
|  1> ! B3LYP 6-31G* SP
|  2>
|  3> * xyz 0 1
|  4> C -6.8015 2.0809 -0.1784
|  5> C -5.3538 2.2506 0.3221
|  6> C -4.6717 3.4295 -0.3823
|  7> N -4.5214 1.0233 0.2014
|  8> C -4.7952 0.0522 1.2799
|  9> C -3.7838 -1.0961 1.2129
| 10> N -3.8516 -1.7481 -0.1052
| 11> S -2.7128 -3.0703 -0.1781
| 12> O -2.8301 -3.7563 -1.5111
| 13> O -3.0447 -4.0744 0.8911
| 14> C -1.0522 -2.5140 0.0437
| 15> C -0.4980 -2.4416 1.3283
| 16> C 0.8127 -1.9896 1.5049
| 17> C 1.5930 -1.6191 0.3996
| 18> N 2.9285 -1.1300 0.6110
| 19> C 3.9985 -1.2780 -0.3370
| 20> O 3.9307 -2.1624 -1.2336
| 21> C 5.2291 -0.4651 -0.2103
| 22> C 6.4709 -1.0942 -0.3970
| 23> C 7.6624 -0.3975 -0.1935
| 24> C 7.6408 0.9534 0.1831
| 25> C 8.9220 1.6998 0.4607
| 26> F 9.1536 1.7126 1.8234
| 27> F 9.9983 1.1006 -0.1723
| 28> F 8.8255 3.0038 0.0065
| 29> C 6.4032 1.5890 0.3722
| 30> C 5.1944 0.9044 0.1537
| 31> N 3.9537 1.6249 0.2512
| 32> O 3.8331 2.5613 1.0683
| 33> O 2.9636 1.4284 -0.6836
| 34> C 1.0268 -1.6747 -0.8867
| 35> C -0.2846 -2.1257 -1.0621
| 36> C -3.5655 -0.7770 -1.1738
| 37> C -4.5846 0.3636 -1.1205
| 38> H -7.2866 1.2069 0.3024
| 39> H -6.8355 1.9572 -1.2815
| 40> H -7.3951 2.9835 0.0818
| 41> H -5.4147 2.5412 1.3958
| 42> H -4.6916 3.3093 -1.4853
| 43> H -5.1919 4.3774 -0.1270
| 44> H -3.6156 3.5107 -0.0483
| 45> H -5.8245 -0.3603 1.1928
| 46> H -4.6945 0.5411 2.2736
| 47> H -2.7646 -0.6938 1.4069
| 48> H -4.0310 -1.8303 2.0099
| 49> H -1.0828 -2.7255 2.1942
| 50> H 1.2245 -1.9342 2.5049
| 51> H 3.1570 -0.7089 1.5403
| 52> H 6.5200 -2.1425 -0.6671
| 53> H 8.6009 -0.9233 -0.3178
| 54> H 6.3791 2.6314 0.6658
| 55> H 1.5851 -1.3455 -1.7530
| 56> H -0.7059 -2.1574 -2.0588
| 57> H -2.5409 -0.3554 -1.0676
| 58> H -3.6427 -1.2735 -2.1653
| 59> H -4.3405 1.0842 -1.9287
| 60> H -5.5975 -0.0565 -1.3100
| 61> *
| 62>
| 63>                          ****END OF INPUT****

CARTESIAN COORDINATES (ANGSTROEM)
---------------------------------
  C     -6.801500    2.080900   -0.178400
  C     -5.353800    2.250600    0.322100
  C     -4.671700    3.429500   -0.382300
  N     -4.521400    1.023300    0.201400
  C     -4.795200    0.052200    1.279900
  C     -3.783800   -1.096100    1.212900
  N     -3.851600   -1.748100   -0.105200
  S     -2.712800   -3.070300   -0.178100
  O     -2.830100   -3.756300   -1.511100
  O     -3.044700   -4.074400    0.891100
  C     -1.052200   -2.514000    0.043700
  C     -0.498000   -2.441600    1.328300
  C      0.812700   -1.989600    1.504900
  C      1.593000   -1.619100    0.399600
  N      2.928500   -1.130000    0.611000
  C      3.998500   -1.278000   -0.337000
  O      3.930700   -2.162400   -1.233600
  C      5.229100   -0.465100   -0.210300
  C      6.470900   -1.094200   -0.397000
  C      7.662400   -0.397500   -0.193500
  C      7.640800    0.953400    0.183100
  C      8.922000    1.699800    0.460700
  F      9.153600    1.712600    1.823400
  F      9.998300    1.100600   -0.172300
  F      8.825500    3.003800    0.006500
  C      6.403200    1.589000    0.372200
  C      5.194400    0.904400    0.153700
  N      3.953700    1.624900    0.251200
  O      3.833100    2.561300    1.068300
  O      2.963600    1.428400   -0.683600
  C      1.026800   -1.674700   -0.886700
  C     -0.284600   -2.125700   -1.062100
  C     -3.565500   -0.777000   -1.173800
  C     -4.584600    0.363600   -1.120500
  H     -7.286600    1.206900    0.302400
  H     -6.835500    1.957200   -1.281500
  H     -7.395100    2.983500    0.081800
  H     -5.414700    2.541200    1.395800
  H     -4.691600    3.309300   -1.485300
  H     -5.191900    4.377400   -0.127000
  H     -3.615600    3.510700   -0.048300
  H     -5.824500   -0.360300    1.192800
  H     -4.694500    0.541100    2.273600
  H     -2.764600   -0.693800    1.406900
  H     -4.031000   -1.830300    2.009900
  H     -1.082800   -2.725500    2.194200
  H      1.224500   -1.934200    2.504900
  H      3.157000   -0.708900    1.540300
  H      6.520000   -2.142500   -0.667100
  H      8.600900   -0.923300   -0.317800
  H      6.379100    2.631400    0.665800
  H      1.585100   -1.345500   -1.753000
  H     -0.705900   -2.157400   -2.058800
  H     -2.540900   -0.355400   -1.067600
  H     -3.642700   -1.273500   -2.165300
  H     -4.340500    1.084200   -1.928700
  H     -5.597500   -0.056500   -1.310000

 Total Charge           Charge          ....    0
 Multiplicity           Mult            ....    1
 Number of Electrons    NEL             ....  260
 Basis Dimension        Dim             ....  526

ORBITAL ENERGIES
----------------

  NO   OCC          E(Eh)            E(eV)
   0   2.0000     -89.077951     -2423.9343
   1   2.0000     -24.748996      -673.4544
   2   2.0000     -24.746668      -673.3911
   3   2.0000     -24.744702      -673.3376
   4   2.0000     -19.219324      -522.9844
   5   2.0000     -19.193975      -522.2946
   6   2.0000     -19.149642      -521.0883
   7   2.0000     -19.111772      -520.0578
   8   2.0000     -19.111547      -520.0516
   9   2.0000     -14.586836      -396.9280
  10   2.0000     -14.397505      -391.7760
  11   2.0000     -14.368671      -390.9914
  12   2.0000     -14.321627      -389.7113
  13   2.0000     -10.467795      -284.8432
  14   2.0000     -10.332391      -281.1586
  15   2.0000     -10.299937      -280.2755
  16   2.0000     -10.267928      -279.4045
  17   2.0000     -10.263490      -279.2838
  18   2.0000     -10.260780      -279.2100
  19   2.0000     -10.259901      -279.1861
  20   2.0000     -10.250997      -278.9438
  21   2.0000     -10.247099      -278.8377
  22   2.0000     -10.225477      -278.2494
  23   2.0000     -10.219313      -278.0816
  24   2.0000     -10.218691      -278.0647
  25   2.0000     -10.215107      -277.9672
  26   2.0000     -10.212421      -277.8941
  27   2.0000     -10.212327      -277.8916
  28   2.0000     -10.211998      -277.8826
  29   2.0000     -10.211937      -277.8809
  30   2.0000     -10.210794      -277.8498
  31   2.0000     -10.204433      -277.6767
  32   2.0000     -10.170575      -276.7554
  33   2.0000     -10.168130      -276.6889
  34   2.0000      -8.115486      -220.8336
  35   2.0000      -6.079894      -165.4423
  36   2.0000      -6.078471      -165.4036
  37   2.0000      -6.078305      -165.3991
  38   2.0000      -1.307639       -35.5827
  39   2.0000      -1.232856       -33.5477
  40   2.0000      -1.231508       -33.5110
  41   2.0000      -1.206367       -32.8269
  42   2.0000      -1.070386       -29.1267
  43   2.0000      -1.049365       -28.5547
  44   2.0000      -1.012782       -27.5592
  45   2.0000      -0.950979       -25.8775
  46   2.0000      -0.948232       -25.8027
  47   2.0000      -0.946510       -25.7558
  48   2.0000      -0.931987       -25.3607
  49   2.0000      -0.904957       -24.6251
  50   2.0000      -0.873182       -23.7605
  51   2.0000      -0.859306       -23.3829
  52   2.0000      -0.829749       -22.5786
  53   2.0000      -0.784638       -21.3511
  54   2.0000      -0.773895       -21.0588
  55   2.0000      -0.771815       -21.0022
  56   2.0000      -0.769312       -20.9340
  57   2.0000      -0.751853       -20.4590
  58   2.0000      -0.744371       -20.2554
  59   2.0000      -0.704511       -19.1707
  60   2.0000      -0.681762       -18.5517
  61   2.0000      -0.680087       -18.5061
  62   2.0000      -0.659048       -17.9336
  63   2.0000      -0.649460       -17.6727
  64   2.0000      -0.646642       -17.5960
  65   2.0000      -0.640481       -17.4284
  66   2.0000      -0.617672       -16.8077
  67   2.0000      -0.600014       -16.3272
  68   2.0000      -0.598249       -16.2792
  69   2.0000      -0.596170       -16.2226
  70   2.0000      -0.591801       -16.1037
  71   2.0000      -0.582637       -15.8544
  72   2.0000      -0.566476       -15.4146
  73   2.0000      -0.558912       -15.2088
  74   2.0000      -0.548758       -14.9325
  75   2.0000      -0.548020       -14.9124
  76   2.0000      -0.540327       -14.7031
  77   2.0000      -0.531646       -14.4668
  78   2.0000      -0.527296       -14.3485
  79   2.0000      -0.495914       -13.4945
  80   2.0000      -0.490523       -13.3478
  81   2.0000      -0.488399       -13.2900
  82   2.0000      -0.481897       -13.1131
  83   2.0000      -0.476773       -12.9736
  84   2.0000      -0.473786       -12.8924
  85   2.0000      -0.471086       -12.8189
  86   2.0000      -0.470379       -12.7997
  87   2.0000      -0.466670       -12.6987
  88   2.0000      -0.465145       -12.6572
  89   2.0000      -0.462551       -12.5867
  90   2.0000      -0.453002       -12.3268
  91   2.0000      -0.450668       -12.2633
  92   2.0000      -0.445522       -12.1233
  93   2.0000      -0.441301       -12.0084
  94   2.0000      -0.439797       -11.9675
  95   2.0000      -0.436145       -11.8681
  96   2.0000      -0.432202       -11.7608
  97   2.0000      -0.429759       -11.6943
  98   2.0000      -0.425552       -11.5798
  99   2.0000      -0.420388       -11.4393
 100   2.0000      -0.412357       -11.2208
 101   2.0000      -0.409022       -11.1301
 102   2.0000      -0.407333       -11.0841
 103   2.0000      -0.401822       -10.9341
 104   2.0000      -0.399298       -10.8654
 105   2.0000      -0.393349       -10.7036
 106   2.0000      -0.388839       -10.5808
 107   2.0000      -0.386139       -10.5074
 108   2.0000      -0.378101       -10.2887
 109   2.0000      -0.371252       -10.1023
 110   2.0000      -0.362328        -9.8594
 111   2.0000      -0.356030        -9.6881
 112   2.0000      -0.345029        -9.3887
 113   2.0000      -0.337328        -9.1792
 114   2.0000      -0.336020        -9.1436
 115   2.0000      -0.331454        -9.0193
 116   2.0000      -0.325163        -8.8481
 117   2.0000      -0.323509        -8.8031
 118   2.0000      -0.314404        -8.5554
 119   2.0000      -0.310495        -8.4490
 120   2.0000      -0.308004        -8.3812
 121   2.0000      -0.295058        -8.0289
 122   2.0000      -0.286601        -7.7988
 123   2.0000      -0.282708        -7.6929
 124   2.0000      -0.279218        -7.5979
 125   2.0000      -0.268848        -7.3157
 126   2.0000      -0.266433        -7.2500
 127   2.0000      -0.256434        -6.9779
 128   2.0000      -0.243647        -6.6300
 129   2.0000      -0.214383        -5.8337
 130   0.0000      -0.138407        -3.7663
 131   0.0000      -0.093110        -2.5337
 132   0.0000      -0.055761        -1.5173
 133   0.0000      -0.044172        -1.2020
 134   0.0000      -0.024431        -0.6648

MULLIKEN ATOMIC CHARGES
-----------------------
   0 C :   -0.453169
   1 C :    0.055745
   2 C :   -0.436811
   3 N :   -0.383438
   4 C :   -0.133191
   5 C :   -0.179163
   6 N :   -0.480383
   7 S :    1.225510
   8 O :   -0.556882
   9 O :   -0.559159
  10 C :   -0.154948
  11 C :   -0.141735
  12 C :   -0.173894
  13 C :    0.357478
  14 N :   -0.701224
  15 C :    0.509172
  16 O :   -0.443862
  17 C :    0.079524
  18 C :   -0.155925
  19 C :   -0.143682
  20 C :   -0.011550
  21 C :    0.912727
  22 F :   -0.289142
  23 F :   -0.298611
  24 F :   -0.296158
  25 C :   -0.169215
  26 C :    0.246796
  27 N :    0.252228
  28 O :   -0.319189
  29 O :   -0.365664
  30 C :   -0.122464
  31 C :   -0.150973
  32 C :   -0.180220
  33 C :   -0.140522
  34 H :    0.147726
  35 H :    0.144824
  36 H :    0.142008
  37 H :    0.124646
  38 H :    0.136760
  39 H :    0.138337
  40 H :    0.152818
  41 H :    0.133840
  42 H :    0.145254
  43 H :    0.143324
  44 H :    0.183693
  45 H :    0.176682
  46 H :    0.139418
  47 H :    0.337097
  48 H :    0.193906
  49 H :    0.182165
  50 H :    0.201203
  51 H :    0.175882
  52 H :    0.180639
  53 H :    0.146848
  54 H :    0.185212
  55 H :    0.150469
  56 H :    0.139242
Sum of atomic charges:    0.0000000

LOEWDIN ATOMIC CHARGES
----------------------
   0 C :   -0.370578
   1 C :   -0.064792
   2 C :   -0.358115
   3 N :   -0.186124
   4 C :   -0.155823
   5 C :   -0.177637
   6 N :   -0.288720
   7 S :    1.250925
   8 O :   -0.576749
   9 O :   -0.578676
  10 C :   -0.205497
  11 C :   -0.100404
  12 C :   -0.144549
  13 C :    0.060127
  14 N :   -0.199766
  15 C :    0.150535
  16 O :   -0.245786
  17 C :   -0.011941
  18 C :   -0.084082
  19 C :   -0.086012
  20 C :   -0.053255
  21 C :    0.315588
  22 F :   -0.106085
  23 F :   -0.105943
  24 F :   -0.106356
  25 C :   -0.081017
  26 C :    0.002337
  27 N :    0.281738
  28 O :   -0.182244
  29 O :   -0.274282
  30 C :   -0.117064
  31 C :   -0.098332
  32 C :   -0.176814
  33 C :   -0.157113
  34 H :    0.124032
  35 H :    0.123426
  36 H :    0.126833
  37 H :    0.118036
  38 H :    0.118736
  39 H :    0.124369
  40 H :    0.129756
  41 H :    0.106638
  42 H :    0.128212
  43 H :    0.114872
  44 H :    0.146490
  45 H :    0.156555
  46 H :    0.137963
  47 H :    0.260563
  48 H :    0.166881
  49 H :    0.158667
  50 H :    0.169354
  51 H :    0.157824
  52 H :    0.158386
  53 H :    0.116458
  54 H :    0.147275
  55 H :    0.130520
  56 H :    0.110658

  Mayer bond orders larger than 0.100000
B(  0-C ,  1-C ) :   0.9872 B(  0-C , 34-H ) :   0.9433 B(  0-C , 35-H ) :   0.9439
B(  0-C , 36-H ) :   0.9446 B(  1-C ,  2-C ) :   1.0082 B(  1-C ,  3-N ) :   0.9624
B(  1-C , 37-H ) :   0.9333 B(  2-C , 38-H ) :   0.9451 B(  2-C , 39-H ) :   0.9460
B(  2-C , 40-H ) :   0.9465 B(  3-N ,  4-C ) :   0.9774 B(  3-N , 33-C ) :   0.9705
B(  4-C ,  5-C ) :   0.9945 B(  4-C , 41-H ) :   0.9071 B(  4-C , 42-H ) :   0.9306
B(  5-C ,  6-N ) :   0.9411 B(  5-C , 43-H ) :   0.9086 B(  5-C , 44-H ) :   0.9190
B(  6-N ,  7-S ) :   0.7877 B(  6-N , 32-C ) :   0.9399 B(  7-S ,  8-O ) :   1.6294
B(  7-S ,  9-O ) :   1.6272 B(  7-S , 10-C ) :   0.8086 B( 10-C , 11-C ) :   1.3874
B( 10-C , 31-C ) :   1.3746 B( 11-C , 12-C ) :   1.4468 B( 11-C , 45-H ) :   0.9101
B( 12-C , 13-C ) :   1.3914 B( 12-C , 46-H ) :   0.9227 B( 13-C , 14-N ) :   0.8837
B( 13-C , 30-C ) :   1.4083 B( 14-N , 15-C ) :   1.0197 B( 14-N , 47-H ) :   0.8218
B( 15-C , 16-O ) :   1.8282 B( 15-C , 17-C ) :   0.9522 B( 17-C , 18-C ) :   1.4203
B( 17-C , 26-C ) :   1.3335 B( 18-C , 19-C ) :   1.3998 B( 18-C , 48-H ) :   0.9070
B( 19-C , 20-C ) :   1.4017 B( 19-C , 49-H ) :   0.9134 B( 20-C , 21-C ) :   0.9708
B( 20-C , 25-C ) :   1.3953 B( 21-C , 22-F ) :   0.9907 B( 21-C , 23-F ) :   0.9507
B( 21-C , 24-F ) :   0.9581 B( 25-C , 26-C ) :   1.3681 B( 25-C , 50-H ) :   0.8963
B( 26-C , 27-N ) :   0.7582 B( 27-N , 28-O ) :   1.5162 B( 27-N , 29-O ) :   1.4076
B( 28-O , 29-O ) :   0.3173 B( 30-C , 31-C ) :   1.4416 B( 30-C , 51-H ) :   0.9070
B( 31-C , 52-H ) :   0.9100 B( 32-C , 33-C ) :   0.9944 B( 32-C , 53-H ) :   0.9083
B( 32-C , 54-H ) :   0.9188 B( 33-C , 55-H ) :   0.9274 B( 33-C , 56-H ) :   0.9075

FINAL SINGLE POINT ENERGY     -2105.705794059792

DIPOLE MOMENT
-------------

Method             : SCF
Type of density    : Electron Density
Multiplicity       :   1
Irrep              :   0
Energy             : -2105.7057940597915149 Eh
Relativity type    :
Basis              : AO
                                X                 Y                 Z
Electronic contribution:     98.999868483      -4.567832890       2.752578871
Nuclear contribution   :    -96.911773885       6.647867517      -1.514025247
                        -----------------------------------------
Total Dipole Moment    :      2.088094598       2.080034626       1.238553623
                        -----------------------------------------
Magnitude (a.u.)       :      3.196982667
Magnitude (Debye)      :      8.126084150

Rotational constants in cm-1:             0.007422             0.001251             0.001122
Rotational constants in MHz :           222.493031            37.517841            33.643955

                             ****ORCA TERMINATED NORMALLY****
TOTAL RUN TIME: 0 days 0 hours 6 minutes 29 seconds 93 msec
