                         Program Version 6.0.0  -   RELEASE  -
|  1> ! B3LYP def2-TZVP SP
|  2>
|  3> * xyz 0 1
|  4> O -7.2089 -1.5934 1.7945
|  5> C -6.1671 -2.1887 2.1848
|  6> O -6.2391 -3.0469 3.2816
|  7> C -4.8826 -1.9867 1.4798
|  8> C -4.8098 -1.1613 0.3434
|  9> C -3.5980 -0.9887 -0.3306
| 10> C -2.4405 -1.6336 0.1226
| 11> S -0.9074 -1.4174 -0.7161
| 12> O -1.1429 -0.9031 -2.1095
| 13> O -0.2093 -2.7457 -0.8209
| 14> N 0.0840 -0.2843 0.1588
| 15> C 1.1611 -0.8044 1.0111
| 16> C 2.3326 -1.3024 0.1967
| 17> C 2.7063 -0.6860 -1.0109
| 18> C 3.8062 -1.1543 -1.7359
| 19> C 4.5674 -2.2370 -1.2533
| 20> O 5.6786 -2.7512 -1.9415
| 21> C 6.1579 -2.2822 -3.1999
| 22> F 6.5450 -0.9582 -3.0990
| 23> F 7.2521 -3.0392 -3.5728
| 24> F 5.1743 -2.4146 -4.1642
| 25> C 4.2109 -2.8302 -0.0375
| 26> C 3.1075 -2.3660 0.6845
| 27> C -0.2342 1.1218 0.0960
| 28> C 0.7463 2.1087 0.2855
| 29> C 0.3941 3.4622 0.2102
| 30> C 1.3648 4.4587 0.3991
| 31> C 1.0115 5.8071 0.3225
| 32> C -0.3101 6.1721 0.0583
| 33> C -1.2867 5.1916 -0.1344
| 34> C -0.9464 3.8268 -0.0616
| 35> C -1.8959 2.8044 -0.2544
| 36> Br -3.7400 3.1574 -0.6395
| 37> N -1.5110 1.5042 -0.1734
| 38> C -2.5030 -2.4461 1.2609
| 39> C -3.7159 -2.6254 1.9331
| 40> H -7.1154 -3.1991 3.7654
| 41> H -5.6897 -0.6524 -0.0289
| 42> H -3.5651 -0.3504 -1.2041
| 43> H 0.7488 -1.6343 1.6263
| 44> H 1.5127 -0.0376 1.7326
| 45> H 2.1443 0.1508 -1.4037
| 46> H 4.0552 -0.6645 -2.6668
| 47> H 4.7939 -3.6566 0.3511
| 48> H 2.8569 -2.8401 1.6265
| 49> H 1.7772 1.8334 0.4683
| 50> H 2.3950 4.1947 0.6061
| 51> H 1.7633 6.5714 0.4696
| 52> H -0.5782 7.2191 -0.0002
| 53> H -2.2992 5.5113 -0.3401
| 54> H -1.6133 -2.9465 1.6248
| 55> H -3.7383 -3.2671 2.8053
| 56> *
| 57>
| 58>                          ****END OF INPUT****

CARTESIAN COORDINATES (ANGSTROEM)
---------------------------------
  O     -7.208900   -1.593400    1.794500
  C     -6.167100   -2.188700    2.184800
  O     -6.239100   -3.046900    3.281600
  C     -4.882600   -1.986700    1.479800
  C     -4.809800   -1.161300    0.343400
  C     -3.598000   -0.988700   -0.330600
  C     -2.440500   -1.633600    0.122600
  S     -0.907400   -1.417400   -0.716100
  O     -1.142900   -0.903100   -2.109500
  O     -0.209300   -2.745700   -0.820900
  N      0.084000   -0.284300    0.158800
  C      1.161100   -0.804400    1.011100
  C      2.332600   -1.302400    0.196700
  C      2.706300   -0.686000   -1.010900
  C      3.806200   -1.154300   -1.735900
  C      4.567400   -2.237000   -1.253300
  O      5.678600   -2.751200   -1.941500
  C      6.157900   -2.282200   -3.199900
  F      6.545000   -0.958200   -3.099000
  F      7.252100   -3.039200   -3.572800
  F      5.174300   -2.414600   -4.164200
  C      4.210900   -2.830200   -0.037500
  C      3.107500   -2.366000    0.684500
  C     -0.234200    1.121800    0.096000
  C      0.746300    2.108700    0.285500
  C      0.394100    3.462200    0.210200
  C      1.364800    4.458700    0.399100
  C      1.011500    5.807100    0.322500
  C     -0.310100    6.172100    0.058300
  C     -1.286700    5.191600   -0.134400
  C     -0.946400    3.826800   -0.061600
  C     -1.895900    2.804400   -0.254400
  Br    -3.740000    3.157400   -0.639500
  N     -1.511000    1.504200   -0.173400
  C     -2.503000   -2.446100    1.260900
  C     -3.715900   -2.625400    1.933100
  H     -7.115400   -3.199100    3.765400
  H     -5.689700   -0.652400   -0.028900
  H     -3.565100   -0.350400   -1.204100
  H      0.748800   -1.634300    1.626300
  H      1.512700   -0.037600    1.732600
  H      2.144300    0.150800   -1.403700
  H      4.055200   -0.664500   -2.666800
  H      4.793900   -3.656600    0.351100
  H      2.856900   -2.840100    1.626500
  H      1.777200    1.833400    0.468300
  H      2.395000    4.194700    0.606100
  H      1.763300    6.571400    0.469600
  H     -0.578200    7.219100   -0.000200
  H     -2.299200    5.511300   -0.340100
  H     -1.613300   -2.946500    1.624800
  H     -3.738300   -3.267100    2.805300

 Total Charge           Charge          ....    0
 Multiplicity           Mult            ....    1
 Number of Electrons    NEL             ....  292
 Basis Dimension        Dim             .... 1235

ORBITAL ENERGIES
----------------

  NO   OCC          E(Eh)            E(eV)
   0   2.0000    -482.875758    -13139.7174
   1   2.0000     -89.071164     -2423.7496
   2   2.0000     -62.522897     -1701.3345
   3   2.0000     -56.338523     -1533.0491
   4   2.0000     -56.335915     -1532.9782
   5   2.0000     -56.335729     -1532.9731
   6   2.0000     -24.736123      -673.1041
   7   2.0000     -24.734055      -673.0479
   8   2.0000     -24.732067      -672.9938
   9   2.0000     -19.201170      -522.4904
  10   2.0000     -19.187081      -522.1070
  11   2.0000     -19.121821      -520.3312
  12   2.0000     -19.120848      -520.3047
  13   2.0000     -19.113318      -520.0998
  14   2.0000     -14.387535      -391.5047
  15   2.0000     -14.343546      -390.3077
  16   2.0000     -10.500031      -285.7204
  17   2.0000     -10.330430      -281.1053
  18   2.0000     -10.288074      -279.9527
  19   2.0000     -10.284226      -279.8480
  20   2.0000     -10.261611      -279.2326
  21   2.0000     -10.246886      -278.8319
  22   2.0000     -10.236290      -278.5436
  23   2.0000     -10.226429      -278.2753
  24   2.0000     -10.219008      -278.0733
  25   2.0000     -10.215797      -277.9860
  26   2.0000     -10.214987      -277.9639
  27   2.0000     -10.211998      -277.8826
  28   2.0000     -10.210357      -277.8379
  29   2.0000     -10.209079      -277.8032
  30   2.0000     -10.204665      -277.6830
  31   2.0000     -10.202264      -277.6177
  32   2.0000     -10.201452      -277.5956
  33   2.0000     -10.200703      -277.5752
  34   2.0000     -10.198441      -277.5137
  35   2.0000     -10.197597      -277.4907
  36   2.0000     -10.193000      -277.3656
  37   2.0000     -10.192252      -277.3453
  38   2.0000     -10.191244      -277.3178
  39   2.0000     -10.190703      -277.3031
  40   2.0000      -8.713662      -237.1108
  41   2.0000      -8.115201      -220.8258
  42   2.0000      -6.543285      -178.0518
  43   2.0000      -6.532390      -177.7554
  44   2.0000      -6.531572      -177.7331
  45   2.0000      -6.079651      -165.4357
  46   2.0000      -6.076906      -165.3610
  47   2.0000      -6.076521      -165.3505
  48   2.0000      -2.657895       -72.3250
  49   2.0000      -2.654963       -72.2452
  50   2.0000      -2.654335       -72.2281
  51   2.0000      -2.645333       -71.9832
  52   2.0000      -2.645322       -71.9829
  53   2.0000      -1.315869       -35.8066
  54   2.0000      -1.238021       -33.6883
  55   2.0000      -1.236672       -33.6515
  56   2.0000      -1.089938       -29.6587
  57   2.0000      -1.089815       -29.6554
  58   2.0000      -1.088718       -29.6255
  59   2.0000      -1.003250       -27.2998
  60   2.0000      -0.987839       -26.8805
  61   2.0000      -0.970738       -26.4151
  62   2.0000      -0.941089       -25.6083
  63   2.0000      -0.894373       -24.3371
  64   2.0000      -0.884755       -24.0754
  65   2.0000      -0.871034       -23.7021
  66   2.0000      -0.834563       -22.7096
  67   2.0000      -0.812889       -22.1198
  68   2.0000      -0.803965       -21.8770
  69   2.0000      -0.792544       -21.5662
  70   2.0000      -0.779648       -21.2153
  71   2.0000      -0.778412       -21.1817
  72   2.0000      -0.764457       -20.8019
  73   2.0000      -0.750590       -20.4246
  74   2.0000      -0.741146       -20.1676
  75   2.0000      -0.712421       -19.3860
  76   2.0000      -0.694233       -18.8910
  77   2.0000      -0.668425       -18.1888
  78   2.0000      -0.665053       -18.0970
  79   2.0000      -0.644642       -17.5416
  80   2.0000      -0.642719       -17.4893
  81   2.0000      -0.636750       -17.3268
  82   2.0000      -0.625888       -17.0313
  83   2.0000      -0.621438       -16.9102
  84   2.0000      -0.610571       -16.6145
  85   2.0000      -0.607418       -16.5287
  86   2.0000      -0.600513       -16.3408
  87   2.0000      -0.581600       -15.8261
  88   2.0000      -0.573269       -15.5994
  89   2.0000      -0.554796       -15.0968
  90   2.0000      -0.550239       -14.9728
  91   2.0000      -0.530921       -14.4471
  92   2.0000      -0.522817       -14.2266
  93   2.0000      -0.513169       -13.9640
  94   2.0000      -0.502207       -13.6657
  95   2.0000      -0.499422       -13.5900
  96   2.0000      -0.489557       -13.3215
  97   2.0000      -0.488471       -13.2920
  98   2.0000      -0.486923       -13.2498
  99   2.0000      -0.479043       -13.0354
 100   2.0000      -0.475937       -12.9509
 101   2.0000      -0.473188       -12.8761
 102   2.0000      -0.469682       -12.7807
 103   2.0000      -0.469198       -12.7675
 104   2.0000      -0.463125       -12.6023
 105   2.0000      -0.461122       -12.5478
 106   2.0000      -0.457725       -12.4553
 107   2.0000      -0.452751       -12.3200
 108   2.0000      -0.451549       -12.2873
 109   2.0000      -0.449997       -12.2450
 110   2.0000      -0.446811       -12.1583
 111   2.0000      -0.444698       -12.1008
 112   2.0000      -0.437610       -11.9080
 113   2.0000      -0.435707       -11.8562
 114   2.0000      -0.433911       -11.8073
 115   2.0000      -0.432024       -11.7560
 116   2.0000      -0.425187       -11.5699
 117   2.0000      -0.422914       -11.5081
 118   2.0000      -0.417348       -11.3566
 119   2.0000      -0.404867       -11.0170
 120   2.0000      -0.399138       -10.8611
 121   2.0000      -0.393974       -10.7206
 122   2.0000      -0.390271       -10.6198
 123   2.0000      -0.388531       -10.5725
 124   2.0000      -0.379857       -10.3364
 125   2.0000      -0.375011       -10.2046
 126   2.0000      -0.372954       -10.1486
 127   2.0000      -0.359375        -9.7791
 128   2.0000      -0.356231        -9.6935
 129   2.0000      -0.354324        -9.6417
 130   2.0000      -0.345202        -9.3934
 131   2.0000      -0.334387        -9.0991
 132   2.0000      -0.322245        -8.7687
 133   2.0000      -0.314528        -8.5587
 134   2.0000      -0.310656        -8.4534
 135   2.0000      -0.306358        -8.3364
 136   2.0000      -0.299957        -8.1622
 137   2.0000      -0.296467        -8.0673
 138   2.0000      -0.287780        -7.8309
 139   2.0000      -0.287015        -7.8101
 140   2.0000      -0.284684        -7.7466
 141   2.0000      -0.279049        -7.5933
 142   2.0000      -0.275998        -7.5103
 143   2.0000      -0.270126        -7.3505
 144   2.0000      -0.248241        -6.7550
 145   2.0000      -0.232203        -6.3186
 146   0.0000      -0.094902        -2.5824
 147   0.0000      -0.086321        -2.3489
 148   0.0000      -0.047087        -1.2813
 149   0.0000      -0.042309        -1.1513
 150   0.0000      -0.030520        -0.8305

MULLIKEN ATOMIC CHARGES
-----------------------
   0 O :   -0.353043
   1 C :    0.348749
   2 O :   -0.416947
   3 C :    0.073367
   4 C :   -0.148264
   5 C :   -0.057779
   6 C :    0.057859
   7 S :    0.813437
   8 O :   -0.475135
   9 O :   -0.467312
  10 N :   -0.129266
  11 C :   -0.167304
  12 C :    0.175058
  13 C :   -0.172236
  14 C :   -0.184100
  15 C :    0.271434
  16 O :   -0.266436
  17 C :    0.589069
  18 F :   -0.175272
  19 F :   -0.157343
  20 F :   -0.170541
  21 C :   -0.164864
  22 C :   -0.216839
  23 C :    0.249649
  24 C :   -0.248619
  25 C :    0.128706
  26 C :   -0.209625
  27 C :   -0.091698
  28 C :   -0.102073
  29 C :   -0.155105
  30 C :    0.009234
  31 C :    0.113347
  32 Br:   -0.037144
  33 N :   -0.282715
  34 C :   -0.137862
  35 C :   -0.169099
  36 H :    0.345698
  37 H :    0.149727
  38 H :    0.156730
  39 H :    0.131367
  40 H :    0.137524
  41 H :    0.156353
  42 H :    0.124768
  43 H :    0.118363
  44 H :    0.103877
  45 H :    0.147047
  46 H :    0.110198
  47 H :    0.119032
  48 H :    0.118911
  49 H :    0.131065
  50 H :    0.135516
  51 H :    0.140535
Sum of atomic charges:   -0.0000000

LOEWDIN ATOMIC CHARGES
----------------------
   0 O :    0.045507
   1 C :   -0.362514
   2 O :    0.034532
   3 C :   -0.113817
   4 C :   -0.054376
   5 C :   -0.092145
   6 C :   -0.263086
   7 S :    0.828018
   8 O :   -0.306654
   9 O :   -0.296268
  10 N :    0.046814
  11 C :   -0.236575
  12 C :   -0.153783
  13 C :   -0.100439
  14 C :   -0.113996
  15 C :   -0.202899
  16 O :    0.257236
  17 C :   -0.616387
  18 F :    0.153409
  19 F :    0.164334
  20 F :    0.156389
  21 C :   -0.104948
  22 C :   -0.101372
  23 C :   -0.265545
  24 C :   -0.093588
  25 C :   -0.094894
  26 C :   -0.087864
  27 C :   -0.120436
  28 C :   -0.130602
  29 C :   -0.087318
  30 C :   -0.120050
  31 C :   -0.380719
  32 Br:    0.368146
  33 N :    0.150829
  34 C :   -0.111122
  35 C :   -0.074350
  36 H :    0.220853
  37 H :    0.161027
  38 H :    0.159070
  39 H :    0.145072
  40 H :    0.152564
  41 H :    0.152465
  42 H :    0.148063
  43 H :    0.150324
  44 H :    0.146439
  45 H :    0.151974
  46 H :    0.148739
  47 H :    0.145614
  48 H :    0.145160
  49 H :    0.146583
  50 H :    0.150651
  51 H :    0.155936

  Mayer bond orders larger than 0.100000
B(  0-O ,  1-C ) :   2.0105 B(  1-C ,  2-O ) :   1.2261 B(  1-C ,  3-C ) :   1.0120
B(  2-O ,  3-C ) :  -0.1037 B(  2-O , 36-H ) :   0.8375 B(  3-C ,  4-C ) :   1.3687
B(  3-C , 35-C ) :   1.3450 B(  4-C ,  5-C ) :   1.3579 B(  4-C , 37-H ) :   0.9652
B(  5-C ,  6-C ) :   1.3543 B(  5-C , 38-H ) :   0.9485 B(  6-C ,  7-S ) :   0.9004
B(  6-C , 34-C ) :   1.3504 B(  7-S ,  8-O ) :   1.8104 B(  7-S ,  9-O ) :   1.8033
B(  7-S , 10-N ) :   0.9218 B( 10-N , 11-C ) :   0.8979 B( 10-N , 23-C ) :   1.0600
B( 11-C , 12-C ) :   0.9216 B( 11-C , 39-H ) :   0.9702 B( 11-C , 40-H ) :   0.9308
B( 12-C , 13-C ) :   1.3706 B( 12-C , 22-C ) :   1.3768 B( 13-C , 14-C ) :   1.4486
B( 13-C , 41-H ) :   0.9254 B( 14-C , 15-C ) :   1.3393 B( 14-C , 42-H ) :   0.9437
B( 15-C , 16-O ) :   0.9711 B( 15-C , 21-C ) :   1.3959 B( 16-O , 17-C ) :   1.1292
B( 17-C , 18-F ) :   1.1004 B( 17-C , 19-F ) :   1.1576 B( 17-C , 20-F ) :   1.1082
B( 21-C , 22-C ) :   1.4297 B( 21-C , 43-H ) :   0.9770 B( 22-C , 44-H ) :   0.9719
B( 23-C , 24-C ) :   1.4391 B( 23-C , 33-N ) :   1.2829 B( 24-C , 25-C ) :   1.2707
B( 24-C , 45-H ) :   0.9271 B( 25-C , 26-C ) :   1.2395 B( 25-C , 30-C ) :   1.1860
B( 26-C , 27-C ) :   1.5079 B( 26-C , 46-H ) :   0.9825 B( 27-C , 28-C ) :   1.3075
B( 27-C , 47-H ) :   0.9690 B( 28-C , 29-C ) :   1.5016 B( 28-C , 48-H ) :   0.9678
B( 29-C , 30-C ) :   1.2797 B( 29-C , 49-H ) :   0.9522 B( 30-C , 31-C ) :   1.2327
B( 31-C , 32-Br) :   1.1135 B( 31-C , 33-N ) :   1.5836 B( 34-C , 35-C ) :   1.3853
B( 34-C , 50-H ) :   0.9529 B( 35-C , 51-H ) :   0.9652

FINAL SINGLE POINT ENERGY     -4681.260156727450

DIPOLE MOMENT
-------------

Method             : SCF
Type of density    : Electron Density
Multiplicity       :   1
Irrep              :   0
Energy             : -4681.2601567274496119 Eh
Relativity type    :
Basis              : AO
                                X                 Y                 Z
Electronic contribution:    -15.130772591      19.237795288     -23.541969249
Nuclear contribution   :     15.415851856     -17.804193280      26.071635935
                        -----------------------------------------
Total Dipole Moment    :      0.285079265       1.433602008       2.529666686
                        -----------------------------------------
Magnitude (a.u.)       :      2.921591766
Magnitude (Debye)      :      7.426096107

Rotational constants in cm-1:             0.003614             0.001607             0.001215
Rotational constants in MHz :           108.335873            48.190437            36.423265

                             ****ORCA TERMINATED NORMALLY****
TOTAL RUN TIME: 0 days 0 hours 20 minutes 45 seconds 404 msec
