                         Program Version 6.0.0  -   RELEASE  -
|  1> ! B3LYP 6-31G* SP
|  2>
|  3> * xyz 0 1
|  4> C 1.4413 0.2355 2.1850
|  5> C 0.9488 1.4415 1.4177
|  6> C 0.0642 1.2354 0.3278
|  7> N -0.5065 -0.0537 0.0578
|  8> C -0.2347 -0.7185 -1.2178
|  9> C 1.1818 -1.2211 -1.2391
| 10> C 1.4868 -2.4914 -0.7284
| 11> C 2.8115 -2.9359 -0.6838
| 12> C 3.8548 -2.1067 -1.1404
| 13> O 5.2031 -2.4992 -1.1143
| 14> C 5.6882 -3.7459 -0.6200
| 15> F 5.1594 -4.7894 -1.3587
| 16> F 7.0646 -3.7691 -0.7379
| 17> F 5.3526 -3.8934 0.7142
| 18> C 3.5457 -0.8358 -1.6401
| 19> C 2.2213 -0.3915 -1.6853
| 20> S -1.7078 -0.7071 1.1297
| 21> O -1.9102 0.2092 2.3042
| 22> O -1.2390 -2.0453 1.6293
| 23> C -3.2326 -0.8666 0.2659
| 24> C -3.6999 0.1950 -0.5174
| 25> C -4.9015 0.0759 -1.2212
| 26> C -5.6541 -1.1106 -1.1507
| 27> C -6.9242 -1.2449 -1.8981
| 28> O -7.3596 -0.2877 -2.5941
| 29> O -7.6500 -2.4328 -1.8420
| 30> C -5.1809 -2.1711 -0.3583
| 31> C -3.9790 -2.0487 0.3453
| 32> N -0.2374 2.2578 -0.5099
| 33> C 0.2561 3.5034 -0.3402
| 34> C 1.0767 3.7942 0.7516
| 35> C 1.5618 5.1000 0.9093
| 36> C 2.3541 5.4272 2.0014
| 37> C 2.6439 4.4669 2.9632
| 38> C 2.1703 3.1542 2.8397
| 39> Cl 2.4833 2.1311 4.2427
| 40> C 1.4053 2.7723 1.6900
| 41> H 0.9084 0.1554 3.1541
| 42> H 2.5396 0.2932 2.3277
| 43> H 1.2811 -0.7115 1.6347
| 44> H -0.9334 -1.5702 -1.3680
| 45> H -0.4109 -0.0125 -2.0584
| 46> H 0.6989 -3.1349 -0.3563
| 47> H 3.0102 -3.9218 -0.2880
| 48> H 4.3384 -0.1854 -1.9886
| 49> H 2.0072 0.6025 -2.0590
| 50> H -3.1314 1.1140 -0.5863
| 51> H -5.2386 0.9104 -1.8227
| 52> H -8.5203 -2.5355 -2.3508
| 53> H -5.7376 -3.0969 -0.2825
| 54> H -3.6332 -2.8780 0.9482
| 55> H -0.0114 4.2735 -1.0535
| 56> H 1.3241 5.8715 0.1861
| 57> H 2.7243 6.4379 2.1174
| 58> H 3.2265 4.7553 3.8297
| 59> *
| 60>
| 61>                          ****END OF INPUT****

CARTESIAN COORDINATES (ANGSTROEM)
---------------------------------
  C      1.441300    0.235500    2.185000
  C      0.948800    1.441500    1.417700
  C      0.064200    1.235400    0.327800
  N     -0.506500   -0.053700    0.057800
  C     -0.234700   -0.718500   -1.217800
  C      1.181800   -1.221100   -1.239100
  C      1.486800   -2.491400   -0.728400
  C      2.811500   -2.935900   -0.683800
  C      3.854800   -2.106700   -1.140400
  O      5.203100   -2.499200   -1.114300
  C      5.688200   -3.745900   -0.620000
  F      5.159400   -4.789400   -1.358700
  F      7.064600   -3.769100   -0.737900
  F      5.352600   -3.893400    0.714200
  C      3.545700   -0.835800   -1.640100
  C      2.221300   -0.391500   -1.685300
  S     -1.707800   -0.707100    1.129700
  O     -1.910200    0.209200    2.304200
  O     -1.239000   -2.045300    1.629300
  C     -3.232600   -0.866600    0.265900
  C     -3.699900    0.195000   -0.517400
  C     -4.901500    0.075900   -1.221200
  C     -5.654100   -1.110600   -1.150700
  C     -6.924200   -1.244900   -1.898100
  O     -7.359600   -0.287700   -2.594100
  O     -7.650000   -2.432800   -1.842000
  C     -5.180900   -2.171100   -0.358300
  C     -3.979000   -2.048700    0.345300
  N     -0.237400    2.257800   -0.509900
  C      0.256100    3.503400   -0.340200
  C      1.076700    3.794200    0.751600
  C      1.561800    5.100000    0.909300
  C      2.354100    5.427200    2.001400
  C      2.643900    4.466900    2.963200
  C      2.170300    3.154200    2.839700
  Cl     2.483300    2.131100    4.242700
  C      1.405300    2.772300    1.690000
  H      0.908400    0.155400    3.154100
  H      2.539600    0.293200    2.327700
  H      1.281100   -0.711500    1.634700
  H     -0.933400   -1.570200   -1.368000
  H     -0.410900   -0.012500   -2.058400
  H      0.698900   -3.134900   -0.356300
  H      3.010200   -3.921800   -0.288000
  H      4.338400   -0.185400   -1.988600
  H      2.007200    0.602500   -2.059000
  H     -3.131400    1.114000   -0.586300
  H     -5.238600    0.910400   -1.822700
  H     -8.520300   -2.535500   -2.350800
  H     -5.737600   -3.096900   -0.282500
  H     -3.633200   -2.878000    0.948200
  H     -0.011400    4.273500   -1.053500
  H      1.324100    5.871500    0.186100
  H      2.724300    6.437900    2.117400
  H      3.226500    4.755300    3.829700

 Total Charge           Charge          ....    0
 Multiplicity           Mult            ....    1
 Number of Electrons    NEL             ....  282
 Basis Dimension        Dim             ....  562

ORBITAL ENERGIES
----------------

  NO   OCC          E(Eh)            E(eV)
   0   2.0000    -101.531937     -2762.8245
   1   2.0000     -89.100889     -2424.5584
   2   2.0000     -24.739794      -673.2040
   3   2.0000     -24.737506      -673.1417
   4   2.0000     -24.736999      -673.1280
   5   2.0000     -19.211654      -522.7757
   6   2.0000     -19.197422      -522.3884
   7   2.0000     -19.139450      -520.8109
   8   2.0000     -19.129309      -520.5350
   9   2.0000     -19.129274      -520.5340
  10   2.0000     -14.375702      -391.1827
  11   2.0000     -14.340293      -390.2192
  12   2.0000     -10.502480      -285.7870
  13   2.0000     -10.336758      -281.2775
  14   2.0000     -10.268177      -279.4113
  15   2.0000     -10.263627      -279.2875
  16   2.0000     -10.261428      -279.2276
  17   2.0000     -10.244713      -278.7728
  18   2.0000     -10.235704      -278.5277
  19   2.0000     -10.233355      -278.4638
  20   2.0000     -10.231949      -278.4255
  21   2.0000     -10.225149      -278.2405
  22   2.0000     -10.221751      -278.1480
  23   2.0000     -10.221280      -278.1352
  24   2.0000     -10.218871      -278.0696
  25   2.0000     -10.218713      -278.0653
  26   2.0000     -10.216757      -278.0121
  27   2.0000     -10.211517      -277.8695
  28   2.0000     -10.207397      -277.7574
  29   2.0000     -10.203801      -277.6596
  30   2.0000     -10.203273      -277.6452
  31   2.0000     -10.197142      -277.4783
  32   2.0000     -10.196725      -277.4670
  33   2.0000     -10.196262      -277.4544
  34   2.0000     -10.195038      -277.4211
  35   2.0000     -10.193475      -277.3786
  36   2.0000     -10.164957      -276.6025
  37   2.0000      -9.463509      -257.5152
  38   2.0000      -8.136679      -221.4103
  39   2.0000      -7.226768      -196.6504
  40   2.0000      -7.217196      -196.3899
  41   2.0000      -7.216502      -196.3710
  42   2.0000      -6.101815      -166.0388
  43   2.0000      -6.099592      -165.9783
  44   2.0000      -6.099312      -165.9707
  45   2.0000      -1.302386       -35.4397
  46   2.0000      -1.223138       -33.2833
  47   2.0000      -1.222713       -33.2717
  48   2.0000      -1.087022       -29.5794
  49   2.0000      -1.081838       -29.4383
  50   2.0000      -1.081431       -29.4272
  51   2.0000      -0.996296       -27.1106
  52   2.0000      -0.969219       -26.3738
  53   2.0000      -0.965639       -26.2764
  54   2.0000      -0.921750       -25.0821
  55   2.0000      -0.894059       -24.3286
  56   2.0000      -0.891699       -24.2644
  57   2.0000      -0.863817       -23.5057
  58   2.0000      -0.845833       -23.0163
  59   2.0000      -0.810732       -22.0611
  60   2.0000      -0.806291       -21.9403
  61   2.0000      -0.788383       -21.4530
  62   2.0000      -0.777971       -21.1697
  63   2.0000      -0.774668       -21.0798
  64   2.0000      -0.757760       -20.6197
  65   2.0000      -0.740140       -20.1402
  66   2.0000      -0.728214       -19.8157
  67   2.0000      -0.711915       -19.3722
  68   2.0000      -0.693571       -18.8730
  69   2.0000      -0.679382       -18.4869
  70   2.0000      -0.656537       -17.8653
  71   2.0000      -0.644912       -17.5489
  72   2.0000      -0.641883       -17.4665
  73   2.0000      -0.632676       -17.2160
  74   2.0000      -0.625267       -17.0144
  75   2.0000      -0.615934       -16.7604
  76   2.0000      -0.598515       -16.2864
  77   2.0000      -0.594476       -16.1765
  78   2.0000      -0.592629       -16.1262
  79   2.0000      -0.590218       -16.0607
  80   2.0000      -0.572767       -15.5858
  81   2.0000      -0.563564       -15.3354
  82   2.0000      -0.544236       -14.8094
  83   2.0000      -0.536918       -14.6103
  84   2.0000      -0.522536       -14.2189
  85   2.0000      -0.506318       -13.7776
  86   2.0000      -0.499856       -13.6018
  87   2.0000      -0.494365       -13.4524
  88   2.0000      -0.489278       -13.3139
  89   2.0000      -0.483467       -13.1558
  90   2.0000      -0.477298       -12.9879
  91   2.0000      -0.471722       -12.8362
  92   2.0000      -0.469577       -12.7779
  93   2.0000      -0.468297       -12.7430
  94   2.0000      -0.461634       -12.5617
  95   2.0000      -0.460149       -12.5213
  96   2.0000      -0.457421       -12.4471
  97   2.0000      -0.452733       -12.3195
  98   2.0000      -0.449241       -12.2245
  99   2.0000      -0.447702       -12.1826
 100   2.0000      -0.443823       -12.0770
 101   2.0000      -0.443695       -12.0736
 102   2.0000      -0.438710       -11.9379
 103   2.0000      -0.433964       -11.8087
 104   2.0000      -0.432759       -11.7760
 105   2.0000      -0.430210       -11.7066
 106   2.0000      -0.427652       -11.6370
 107   2.0000      -0.418062       -11.3760
 108   2.0000      -0.414775       -11.2866
 109   2.0000      -0.411602       -11.2002
 110   2.0000      -0.409075       -11.1315
 111   2.0000      -0.405427       -11.0322
 112   2.0000      -0.396516       -10.7897
 113   2.0000      -0.393355       -10.7037
 114   2.0000      -0.387523       -10.5450
 115   2.0000      -0.386154       -10.5078
 116   2.0000      -0.383880       -10.4459
 117   2.0000      -0.381774       -10.3886
 118   2.0000      -0.375809       -10.2263
 119   2.0000      -0.371423       -10.1069
 120   2.0000      -0.369302       -10.0492
 121   2.0000      -0.362870        -9.8742
 122   2.0000      -0.347441        -9.4543
 123   2.0000      -0.346335        -9.4243
 124   2.0000      -0.337415        -9.1815
 125   2.0000      -0.327047        -8.8994
 126   2.0000      -0.322703        -8.7812
 127   2.0000      -0.310664        -8.4536
 128   2.0000      -0.307468        -8.3666
 129   2.0000      -0.301993        -8.2177
 130   2.0000      -0.289115        -7.8672
 131   2.0000      -0.285235        -7.7616
 132   2.0000      -0.281734        -7.6664
 133   2.0000      -0.278637        -7.5821
 134   2.0000      -0.275908        -7.5079
 135   2.0000      -0.271335        -7.3834
 136   2.0000      -0.262039        -7.1305
 137   2.0000      -0.260517        -7.0890
 138   2.0000      -0.255432        -6.9506
 139   2.0000      -0.238621        -6.4932
 140   2.0000      -0.221282        -6.0214
 141   0.0000      -0.085206        -2.3186
 142   0.0000      -0.067710        -1.8425
 143   0.0000      -0.041457        -1.1281
 144   0.0000      -0.031962        -0.8697
 145   0.0000      -0.014041        -0.3821

MULLIKEN ATOMIC CHARGES
-----------------------
   0 C :   -0.546494
   1 C :    0.111369
   2 C :    0.333958
   3 N :   -0.614913
   4 C :   -0.251633
   5 C :    0.163046
   6 C :   -0.166884
   7 C :   -0.189854
   8 C :    0.353984
   9 O :   -0.546033
  10 C :    1.086361
  11 F :   -0.291403
  12 F :   -0.279439
  13 F :   -0.290168
  14 C :   -0.172927
  15 C :   -0.166497
  16 S :    1.215586
  17 O :   -0.533138
  18 O :   -0.549567
  19 C :   -0.128624
  20 C :   -0.150790
  21 C :   -0.140863
  22 C :    0.083008
  23 C :    0.528769
  24 O :   -0.444024
  25 O :   -0.623742
  26 C :   -0.146601
  27 C :   -0.146720
  28 N :   -0.405732
  29 C :   -0.057679
  30 C :    0.144957
  31 C :   -0.205132
  32 C :   -0.115734
  33 C :   -0.122606
  34 C :   -0.146901
  35 Cl:    0.014018
  36 C :    0.115587
  37 H :    0.201342
  38 H :    0.163345
  39 H :    0.189489
  40 H :    0.170373
  41 H :    0.177614
  42 H :    0.160531
  43 H :    0.156117
  44 H :    0.147879
  45 H :    0.145771
  46 H :    0.190666
  47 H :    0.181375
  48 H :    0.434597
  49 H :    0.174493
  50 H :    0.189119
  51 H :    0.154793
  52 H :    0.141898
  53 H :    0.144356
  54 H :    0.159697
Sum of atomic charges:   -0.0000000

LOEWDIN ATOMIC CHARGES
----------------------
   0 C :   -0.367501
   1 C :    0.011645
   2 C :    0.029569
   3 N :   -0.277719
   4 C :   -0.148276
   5 C :   -0.040039
   6 C :   -0.113840
   7 C :   -0.157347
   8 C :    0.087865
   9 O :   -0.160327
  10 C :    0.359817
  11 F :   -0.105023
  12 F :   -0.087869
  13 F :   -0.103986
  14 C :   -0.141926
  15 C :   -0.122858
  16 S :    1.261668
  17 O :   -0.564529
  18 O :   -0.578605
  19 C :   -0.174415
  20 C :   -0.106009
  21 C :   -0.085263
  22 C :   -0.039010
  23 C :    0.180378
  24 O :   -0.260245
  25 O :   -0.334800
  26 C :   -0.098592
  27 C :   -0.102195
  28 N :   -0.137160
  29 C :   -0.066330
  30 C :   -0.023479
  31 C :   -0.114334
  32 C :   -0.123345
  33 C :   -0.123452
  34 C :   -0.074370
  35 Cl:    0.056841
  36 C :   -0.009990
  37 H :    0.157911
  38 H :    0.136969
  39 H :    0.147975
  40 H :    0.141646
  41 H :    0.137764
  42 H :    0.146813
  43 H :    0.143708
  44 H :    0.144794
  45 H :    0.140614
  46 H :    0.161063
  47 H :    0.160774
  48 H :    0.350150
  49 H :    0.155632
  50 H :    0.162650
  51 H :    0.138597
  52 H :    0.138678
  53 H :    0.140458
  54 H :    0.148855

  Mayer bond orders larger than 0.100000
B(  0-C ,  1-C ) :   1.0152 B(  0-C , 37-H ) :   0.9103 B(  0-C , 38-H ) :   0.9292
B(  0-C , 39-H ) :   0.9128 B(  1-C ,  2-C ) :   1.4282 B(  1-C , 29-C ) :   0.1003
B(  1-C , 36-C ) :   1.2624 B(  2-C ,  3-N ) :   0.9012 B(  2-C , 28-N ) :   1.2768
B(  3-N ,  4-C ) :   0.9197 B(  3-N , 16-S ) :   0.7912 B(  4-C ,  5-C ) :   0.9542
B(  4-C , 40-H ) :   0.9217 B(  4-C , 41-H ) :   0.9165 B(  5-C ,  6-C ) :   1.4280
B(  5-C , 15-C ) :   1.4370 B(  6-C ,  7-C ) :   1.4339 B(  6-C , 42-H ) :   0.9139
B(  7-C ,  8-C ) :   1.3880 B(  7-C , 43-H ) :   0.9091 B(  8-C ,  9-O ) :   0.8248
B(  8-C , 14-C ) :   1.4212 B(  9-O , 10-C ) :   0.9897 B( 10-C , 11-F ) :   0.9686
B( 10-C , 12-F ) :   1.0075 B( 10-C , 13-F ) :   0.9699 B( 14-C , 15-C ) :   1.4315
B( 14-C , 44-H ) :   0.9184 B( 15-C , 45-H ) :   0.9189 B( 16-S , 17-O ) :   1.6636
B( 16-S , 18-O ) :   1.6250 B( 16-S , 19-C ) :   0.8093 B( 19-C , 20-C ) :   1.3729
B( 19-C , 27-C ) :   1.4046 B( 20-C , 21-C ) :   1.4334 B( 20-C , 46-H ) :   0.9023
B( 21-C , 22-C ) :   1.3994 B( 21-C , 47-H ) :   0.9095 B( 22-C , 23-C ) :   1.0078
B( 22-C , 26-C ) :   1.3858 B( 23-C , 24-O ) :   1.8628 B( 23-C , 25-O ) :   1.0251
B( 25-O , 48-H ) :   0.7415 B( 26-C , 27-C ) :   1.4129 B( 26-C , 49-H ) :   0.9144
B( 27-C , 50-H ) :   0.9083 B( 28-N , 29-C ) :   1.4954 B( 29-C , 30-C ) :   1.2384
B( 29-C , 51-H ) :   0.9260 B( 30-C , 31-C ) :   1.2863 B( 30-C , 36-C ) :   1.2855
B( 31-C , 32-C ) :   1.5075 B( 31-C , 52-H ) :   0.9226 B( 32-C , 33-C ) :   1.3596
B( 32-C , 53-H ) :   0.9268 B( 33-C , 34-C ) :   1.4743 B( 33-C , 54-H ) :   0.9216
B( 34-C , 35-Cl) :   1.0380 B( 34-C , 36-C ) :   1.2228

FINAL SINGLE POINT ENERGY     -2605.841338579306

DIPOLE MOMENT
-------------

Method             : SCF
Type of density    : Electron Density
Multiplicity       :   1
Irrep              :   0
Energy             : -2605.8413385793055568 Eh
Relativity type    :
Basis              : AO
                                X                 Y                 Z
Electronic contribution:     28.246835700     -17.185253592       6.540917360
Nuclear contribution   :    -28.581351448      17.953116716      -7.821560286
                        -----------------------------------------
Total Dipole Moment    :     -0.334515748       0.767863124      -1.280642926
                        -----------------------------------------
Magnitude (a.u.)       :      1.530215954
Magnitude (Debye)      :      3.889499853

Rotational constants in cm-1:             0.003211             0.001849             0.001340
Rotational constants in MHz :            96.256502            55.424649            40.184065

                             ****ORCA TERMINATED NORMALLY****
TOTAL RUN TIME: 0 days 0 hours 10 minutes 51 seconds 800 msec
