                         Program Version 6.0.0  -   RELEASE  -
|  1> ! B3LYP 6-31G* SP
|  2>
|  3> * xyz 0 1
|  4> F -0.5667 -1.7341 -1.7883
|  5> C -1.5655 -1.9146 -0.8480
|  6> F -1.0743 -2.6684 0.2010
|  7> F -2.5885 -2.6227 -1.4556
|  8> C -2.0581 -0.5779 -0.3250
|  9> C -3.4367 -0.3919 -0.0967
| 10> C -3.9264 0.8300 0.3682
| 11> C -3.0513 1.8833 0.6244
| 12> C -1.6803 1.7140 0.4337
| 13> C -1.1672 0.4876 -0.0199
| 14> C 0.2978 0.3579 -0.1584
| 15> C 0.9843 1.1142 -1.1452
| 16> C 2.3816 1.0117 -1.2845
| 17> C 3.0534 0.1544 -0.4180
| 18> N 4.3679 -0.1054 -0.3516
| 19> N 4.5734 -0.9772 0.6303
| 20> C 3.3785 -1.2767 1.1964
| 21> C 2.4002 -0.5640 0.5388
| 22> C 1.0215 -0.4905 0.7099
| 23> H -4.1435 -1.1906 -0.2819
| 24> H -4.9888 0.9602 0.5295
| 25> H -3.4349 2.8301 0.9822
| 26> H -1.0123 2.5376 0.6567
| 27> H 0.4341 1.7733 -1.8053
| 28> H 2.9128 1.5805 -2.0365
| 29> H 5.1188 0.2975 -0.9548
| 30> H 3.2409 -1.9609 2.0230
| 31> H 0.5292 -1.0572 1.4901
| 32> *
| 33>
| 34>                          ****END OF INPUT****

CARTESIAN COORDINATES (ANGSTROEM)
---------------------------------
  F     -0.566700   -1.734100   -1.788300
  C     -1.565500   -1.914600   -0.848000
  F     -1.074300   -2.668400    0.201000
  F     -2.588500   -2.622700   -1.455600
  C     -2.058100   -0.577900   -0.325000
  C     -3.436700   -0.391900   -0.096700
  C     -3.926400    0.830000    0.368200
  C     -3.051300    1.883300    0.624400
  C     -1.680300    1.714000    0.433700
  C     -1.167200    0.487600   -0.019900
  C      0.297800    0.357900   -0.158400
  C      0.984300    1.114200   -1.145200
  C      2.381600    1.011700   -1.284500
  C      3.053400    0.154400   -0.418000
  N      4.367900   -0.105400   -0.351600
  N      4.573400   -0.977200    0.630300
  C      3.378500   -1.276700    1.196400
  C      2.400200   -0.564000    0.538800
  C      1.021500   -0.490500    0.709900
  H     -4.143500   -1.190600   -0.281900
  H     -4.988800    0.960200    0.529500
  H     -3.434900    2.830100    0.982200
  H     -1.012300    2.537600    0.656700
  H      0.434100    1.773300   -1.805300
  H      2.912800    1.580500   -2.036500
  H      5.118800    0.297500   -0.954800
  H      3.240900   -1.960900    2.023000
  H      0.529200   -1.057200    1.490100

 Total Charge           Charge          ....    0
 Multiplicity           Mult            ....    1
 Number of Electrons    NEL             ....  134
 Basis Dimension        Dim             ....  284

ORBITAL ENERGIES
----------------

  NO   OCC          E(Eh)            E(eV)
   0   2.0000     -24.714981      -672.5288
   1   2.0000     -24.712280      -672.4553
   2   2.0000     -24.709162      -672.3705
   3   2.0000     -14.401606      -391.8876
   4   2.0000     -14.348294      -390.4369
   5   2.0000     -10.429329      -283.7965
   6   2.0000     -10.211034      -277.8564
   7   2.0000     -10.210560      -277.8435
   8   2.0000     -10.207759      -277.7672
   9   2.0000     -10.197800      -277.4962
  10   2.0000     -10.194602      -277.4092
  11   2.0000     -10.193692      -277.3845
  12   2.0000     -10.192002      -277.3385
  13   2.0000     -10.191707      -277.3304
  14   2.0000     -10.191489      -277.3245
  15   2.0000     -10.188382      -277.2400
  16   2.0000     -10.187192      -277.2076
  17   2.0000     -10.184596      -277.1370
  18   2.0000     -10.171190      -276.7721
  19   2.0000      -1.273507       -34.6539
  20   2.0000      -1.199279       -32.6341
  21   2.0000      -1.196292       -32.5528
  22   2.0000      -1.053514       -28.6676
  23   2.0000      -0.874394       -23.7935
  24   2.0000      -0.851238       -23.1634
  25   2.0000      -0.822047       -22.3690
  26   2.0000      -0.787239       -21.4219
  27   2.0000      -0.775508       -21.1027
  28   2.0000      -0.744416       -20.2566
  29   2.0000      -0.728846       -19.8329
  30   2.0000      -0.689066       -18.7504
  31   2.0000      -0.642691       -17.4885
  32   2.0000      -0.621579       -16.9140
  33   2.0000      -0.618232       -16.8230
  34   2.0000      -0.611053       -16.6276
  35   2.0000      -0.587066       -15.9749
  36   2.0000      -0.564473       -15.3601
  37   2.0000      -0.559970       -15.2376
  38   2.0000      -0.548554       -14.9269
  39   2.0000      -0.544910       -14.8277
  40   2.0000      -0.506201       -13.7744
  41   2.0000      -0.475932       -12.9508
  42   2.0000      -0.467070       -12.7096
  43   2.0000      -0.462286       -12.5794
  44   2.0000      -0.455829       -12.4037
  45   2.0000      -0.449875       -12.2417
  46   2.0000      -0.446969       -12.1627
  47   2.0000      -0.445146       -12.1130
  48   2.0000      -0.438581       -11.9344
  49   2.0000      -0.434880       -11.8337
  50   2.0000      -0.418591       -11.3905
  51   2.0000      -0.413172       -11.2430
  52   2.0000      -0.405860       -11.0440
  53   2.0000      -0.398708       -10.8494
  54   2.0000      -0.391249       -10.6464
  55   2.0000      -0.383275       -10.4295
  56   2.0000      -0.369667       -10.0591
  57   2.0000      -0.357669        -9.7327
  58   2.0000      -0.350146        -9.5280
  59   2.0000      -0.343654        -9.3513
  60   2.0000      -0.335898        -9.1402
  61   2.0000      -0.289482        -7.8772
  62   2.0000      -0.275688        -7.5019
  63   2.0000      -0.262281        -7.1370
  64   2.0000      -0.258965        -7.0468
  65   2.0000      -0.233389        -6.3508
  66   2.0000      -0.211744        -5.7619
  67   0.0000      -0.028547        -0.7768
  68   0.0000      -0.026055        -0.7090
  69   0.0000      -0.009065        -0.2467
  70   0.0000       0.027509         0.7486
  71   0.0000       0.060429         1.6443

MULLIKEN ATOMIC CHARGES
-----------------------
   0 F :   -0.302408
   1 C :    0.918343
   2 F :   -0.300404
   3 F :   -0.306950
   4 C :   -0.049028
   5 C :   -0.178068
   6 C :   -0.118957
   7 C :   -0.121222
   8 C :   -0.156016
   9 C :    0.025792
  10 C :    0.025421
  11 C :   -0.171781
  12 C :   -0.168471
  13 C :    0.359333
  14 N :   -0.509494
  15 N :   -0.230604
  16 C :   -0.051108
  17 C :    0.092506
  18 C :   -0.222407
  19 H :    0.151885
  20 H :    0.136394
  21 H :    0.136258
  22 H :    0.142580
  23 H :    0.133057
  24 H :    0.125694
  25 H :    0.349004
  26 H :    0.149912
  27 H :    0.140737
Sum of atomic charges:   -0.0000000

LOEWDIN ATOMIC CHARGES
----------------------
   0 F :   -0.107818
   1 C :    0.312916
   2 F :   -0.113016
   3 F :   -0.113133
   4 C :   -0.070422
   5 C :   -0.113705
   6 C :   -0.130664
   7 C :   -0.115605
   8 C :   -0.123401
   9 C :    0.004373
  10 C :   -0.032758
  11 C :   -0.126113
  12 C :   -0.147848
  13 C :   -0.000865
  14 N :   -0.075498
  15 N :   -0.119445
  16 C :   -0.126244
  17 C :   -0.061080
  18 C :   -0.115281
  19 H :    0.142910
  20 H :    0.135887
  21 H :    0.135275
  22 H :    0.139720
  23 H :    0.135562
  24 H :    0.131844
  25 H :    0.272676
  26 H :    0.141836
  27 H :    0.139898

  Mayer bond orders larger than 0.100000
B(  0-F ,  1-C ) :   0.9414 B(  1-C ,  2-F ) :   0.9561 B(  1-C ,  3-F ) :   0.9418
B(  1-C ,  4-C ) :   0.9733 B(  4-C ,  5-C ) :   1.3898 B(  4-C ,  9-C ) :   1.4027
B(  5-C ,  6-C ) :   1.4369 B(  5-C , 19-H ) :   0.9196 B(  6-C ,  7-C ) :   1.4497
B(  6-C , 20-H ) :   0.9296 B(  7-C ,  8-C ) :   1.4293 B(  7-C , 21-H ) :   0.9282
B(  8-C ,  9-C ) :   1.4213 B(  8-C , 22-H ) :   0.9232 B(  9-C , 10-C ) :   0.9748
B( 10-C , 11-C ) :   1.3379 B( 10-C , 18-C ) :   1.4532 B( 11-C , 12-C ) :   1.4827
B( 11-C , 23-H ) :   0.9254 B( 12-C , 13-C ) :   1.3320 B( 12-C , 18-C ) :   0.1080
B( 12-C , 24-H ) :   0.9233 B( 13-C , 14-N ) :   0.9347 B( 13-C , 17-C ) :   1.3332
B( 14-N , 15-N ) :   1.2181 B( 14-N , 25-H ) :   0.8323 B( 15-N , 16-C ) :   1.5045
B( 16-C , 17-C ) :   1.2573 B( 16-C , 26-H ) :   0.9333 B( 17-C , 18-C ) :   1.2985
B( 18-C , 27-H ) :   0.9166

FINAL SINGLE POINT ENERGY      -947.397404778118

DIPOLE MOMENT
-------------

Method             : SCF
Type of density    : Electron Density
Multiplicity       :   1
Irrep              :   0
Energy             :  -947.3974047781175614 Eh
Relativity type    :
Basis              : AO
                                X                 Y                 Z
Electronic contribution:     -2.955596297     -13.137166556      -4.807868378
Nuclear contribution   :      2.640754320      14.399877236       4.650301523
                        -----------------------------------------
Total Dipole Moment    :     -0.314841977       1.262710680      -0.157566855
                        -----------------------------------------
Magnitude (a.u.)       :      1.310874153
Magnitude (Debye)      :      3.331977300

Rotational constants in cm-1:             0.024091             0.008517             0.007250
Rotational constants in MHz :           722.221127           255.341425           217.343302

                             ****ORCA TERMINATED NORMALLY****
TOTAL RUN TIME: 0 days 0 hours 2 minutes 2 seconds 846 msec
