                         Program Version 6.0.0  -   RELEASE  -
|  1> ! B3LYP 6-31G* SP
|  2>
|  3> * xyz 0 1
|  4> C -2.2395 -1.2029 -1.7844
|  5> C -2.1086 -1.8763 -0.4342
|  6> C -1.1734 -1.4105 0.5221
|  7> N -0.3102 -0.3022 0.2433
|  8> C 0.8744 -0.4776 -0.6008
|  9> C 2.1341 -0.3861 0.2198
| 10> C 2.3891 -1.3262 1.2273
| 11> C 3.5443 -1.2259 2.0054
| 12> C 4.4597 -0.1955 1.7790
| 13> C 4.2410 0.7410 0.7526
| 14> C 5.2377 1.8582 0.5231
| 15> F 4.8621 2.6330 -0.5642
| 16> F 5.2515 2.6793 1.6439
| 17> C 6.6305 1.2706 0.2117
| 18> C 7.7654 2.2885 0.2638
| 19> C 7.6571 1.2172 1.3400
| 20> C 3.0665 0.6391 -0.0198
| 21> S -0.7195 1.2495 0.9055
| 22> O 0.4852 2.1538 0.9077
| 23> O -1.1833 1.0823 2.3278
| 24> C -2.0066 1.9625 -0.0606
| 25> C -3.3347 1.5569 0.1347
| 26> C -4.3602 2.1035 -0.6426
| 27> C -4.0700 3.0688 -1.6259
| 28> C -5.1486 3.6559 -2.4516
| 29> O -6.3299 3.2335 -2.3515
| 30> O -4.8664 4.6874 -3.3458
| 31> C -2.7360 3.4673 -1.8173
| 32> C -1.7136 2.9141 -1.0435
| 33> N -1.1075 -1.9882 1.7519
| 34> C -1.8974 -3.0278 2.1125
| 35> C -2.8306 -3.5455 1.2094
| 36> C -3.6509 -4.6234 1.5798
| 37> C -4.5820 -5.1379 0.6754
| 38> C -4.7025 -4.5829 -0.6004
| 39> C -3.8955 -3.5073 -0.9807
| 40> C -2.9440 -2.9697 -0.0834
| 41> H -2.0145 -1.9324 -2.5909
| 42> H -3.2740 -0.8186 -1.9110
| 43> H -1.5566 -0.3403 -1.9107
| 44> H 0.8485 -1.4689 -1.1035
| 45> H 0.8622 0.2893 -1.4050
| 46> H 1.6890 -2.1312 1.4153
| 47> H 3.7280 -1.9471 2.7894
| 48> H 5.3421 -0.1317 2.4033
| 49> H 6.7407 0.5205 -0.6032
| 50> H 8.5821 2.1086 -0.4659
| 51> H 7.5109 3.3071 0.6255
| 52> H 8.3980 0.3967 1.2394
| 53> H 7.3304 1.5952 2.3338
| 54> H 2.8646 1.3583 -0.8025
| 55> H -3.5722 0.8089 0.8821
| 56> H -5.3790 1.7755 -0.4702
| 57> H -5.5916 5.0825 -3.9310
| 58> H -2.4816 4.2049 -2.5680
| 59> H -0.6926 3.2285 -1.2117
| 60> H -1.7939 -3.4459 3.1078
| 61> H -3.5712 -5.0658 2.5675
| 62> H -5.2112 -5.9710 0.9612
| 63> H -5.4217 -4.9905 -1.3022
| 64> H -4.0243 -3.1092 -1.9796
| 65> *
| 66>
| 67>                          ****END OF INPUT****

CARTESIAN COORDINATES (ANGSTROEM)
---------------------------------
  C     -2.239500   -1.202900   -1.784400
  C     -2.108600   -1.876300   -0.434200
  C     -1.173400   -1.410500    0.522100
  N     -0.310200   -0.302200    0.243300
  C      0.874400   -0.477600   -0.600800
  C      2.134100   -0.386100    0.219800
  C      2.389100   -1.326200    1.227300
  C      3.544300   -1.225900    2.005400
  C      4.459700   -0.195500    1.779000
  C      4.241000    0.741000    0.752600
  C      5.237700    1.858200    0.523100
  F      4.862100    2.633000   -0.564200
  F      5.251500    2.679300    1.643900
  C      6.630500    1.270600    0.211700
  C      7.765400    2.288500    0.263800
  C      7.657100    1.217200    1.340000
  C      3.066500    0.639100   -0.019800
  S     -0.719500    1.249500    0.905500
  O      0.485200    2.153800    0.907700
  O     -1.183300    1.082300    2.327800
  C     -2.006600    1.962500   -0.060600
  C     -3.334700    1.556900    0.134700
  C     -4.360200    2.103500   -0.642600
  C     -4.070000    3.068800   -1.625900
  C     -5.148600    3.655900   -2.451600
  O     -6.329900    3.233500   -2.351500
  O     -4.866400    4.687400   -3.345800
  C     -2.736000    3.467300   -1.817300
  C     -1.713600    2.914100   -1.043500
  N     -1.107500   -1.988200    1.751900
  C     -1.897400   -3.027800    2.112500
  C     -2.830600   -3.545500    1.209400
  C     -3.650900   -4.623400    1.579800
  C     -4.582000   -5.137900    0.675400
  C     -4.702500   -4.582900   -0.600400
  C     -3.895500   -3.507300   -0.980700
  C     -2.944000   -2.969700   -0.083400
  H     -2.014500   -1.932400   -2.590900
  H     -3.274000   -0.818600   -1.911000
  H     -1.556600   -0.340300   -1.910700
  H      0.848500   -1.468900   -1.103500
  H      0.862200    0.289300   -1.405000
  H      1.689000   -2.131200    1.415300
  H      3.728000   -1.947100    2.789400
  H      5.342100   -0.131700    2.403300
  H      6.740700    0.520500   -0.603200
  H      8.582100    2.108600   -0.465900
  H      7.510900    3.307100    0.625500
  H      8.398000    0.396700    1.239400
  H      7.330400    1.595200    2.333800
  H      2.864600    1.358300   -0.802500
  H     -3.572200    0.808900    0.882100
  H     -5.379000    1.775500   -0.470200
  H     -5.591600    5.082500   -3.931000
  H     -2.481600    4.204900   -2.568000
  H     -0.692600    3.228500   -1.211700
  H     -1.793900   -3.445900    3.107800
  H     -3.571200   -5.065800    2.567500
  H     -5.211200   -5.971000    0.961200
  H     -5.421700   -4.990500   -1.302200
  H     -4.024300   -3.109200   -1.979600

 Total Charge           Charge          ....    0
 Multiplicity           Mult            ....    1
 Number of Electrons    NEL             ....  272
 Basis Dimension        Dim             ....  570

ORBITAL ENERGIES
----------------

  NO   OCC          E(Eh)            E(eV)
   0   2.0000     -89.094184     -2424.3760
   1   2.0000     -24.682002      -671.6314
   2   2.0000     -24.676358      -671.4778
   3   2.0000     -19.196652      -522.3675
   4   2.0000     -19.139126      -520.8021
   5   2.0000     -19.123306      -520.3716
   6   2.0000     -19.118786      -520.2486
   7   2.0000     -14.367906      -390.9706
   8   2.0000     -14.331234      -389.9727
   9   2.0000     -10.336262      -281.2640
  10   2.0000     -10.334324      -281.2112
  11   2.0000     -10.262361      -279.2530
  12   2.0000     -10.241265      -278.6790
  13   2.0000     -10.233068      -278.4559
  14   2.0000     -10.232428      -278.4385
  15   2.0000     -10.226993      -278.2906
  16   2.0000     -10.220348      -278.1098
  17   2.0000     -10.219293      -278.0811
  18   2.0000     -10.218389      -278.0565
  19   2.0000     -10.217491      -278.0321
  20   2.0000     -10.215737      -277.9843
  21   2.0000     -10.211945      -277.8811
  22   2.0000     -10.204669      -277.6832
  23   2.0000     -10.202919      -277.6355
  24   2.0000     -10.202195      -277.6158
  25   2.0000     -10.201315      -277.5919
  26   2.0000     -10.200295      -277.5641
  27   2.0000     -10.193734      -277.3856
  28   2.0000     -10.192692      -277.3572
  29   2.0000     -10.183635      -277.1108
  30   2.0000     -10.183145      -277.0975
  31   2.0000     -10.182441      -277.0783
  32   2.0000     -10.178205      -276.9630
  33   2.0000     -10.175655      -276.8936
  34   2.0000     -10.175209      -276.8815
  35   2.0000     -10.173339      -276.8306
  36   2.0000     -10.172250      -276.8010
  37   2.0000      -8.129591      -221.2174
  38   2.0000      -6.094705      -165.8454
  39   2.0000      -6.092670      -165.7900
  40   2.0000      -6.092190      -165.7769
  41   2.0000      -1.216941       -33.1147
  42   2.0000      -1.164246       -31.6808
  43   2.0000      -1.081758       -29.4361
  44   2.0000      -1.077443       -29.3187
  45   2.0000      -0.996873       -27.1263
  46   2.0000      -0.962678       -26.1958
  47   2.0000      -0.955190       -25.9920
  48   2.0000      -0.914268       -24.8785
  49   2.0000      -0.890304       -24.2264
  50   2.0000      -0.867962       -23.6184
  51   2.0000      -0.853218       -23.2172
  52   2.0000      -0.842993       -22.9390
  53   2.0000      -0.812805       -22.1175
  54   2.0000      -0.806865       -21.9559
  55   2.0000      -0.781689       -21.2708
  56   2.0000      -0.776806       -21.1380
  57   2.0000      -0.769684       -20.9442
  58   2.0000      -0.749875       -20.4051
  59   2.0000      -0.744685       -20.2639
  60   2.0000      -0.715536       -19.4707
  61   2.0000      -0.707282       -19.2461
  62   2.0000      -0.684003       -18.6127
  63   2.0000      -0.675424       -18.3792
  64   2.0000      -0.654219       -17.8022
  65   2.0000      -0.648317       -17.6416
  66   2.0000      -0.638538       -17.3755
  67   2.0000      -0.620085       -16.8734
  68   2.0000      -0.601404       -16.3650
  69   2.0000      -0.599606       -16.3161
  70   2.0000      -0.595833       -16.2134
  71   2.0000      -0.586979       -15.9725
  72   2.0000      -0.581570       -15.8253
  73   2.0000      -0.569163       -15.4877
  74   2.0000      -0.560574       -15.2540
  75   2.0000      -0.543745       -14.7961
  76   2.0000      -0.534869       -14.5545
  77   2.0000      -0.523923       -14.2567
  78   2.0000      -0.519469       -14.1355
  79   2.0000      -0.509870       -13.8743
  80   2.0000      -0.506947       -13.7947
  81   2.0000      -0.500448       -13.6179
  82   2.0000      -0.489761       -13.3271
  83   2.0000      -0.483138       -13.1469
  84   2.0000      -0.478995       -13.0341
  85   2.0000      -0.473816       -12.8932
  86   2.0000      -0.471521       -12.8307
  87   2.0000      -0.463044       -12.6001
  88   2.0000      -0.459378       -12.5003
  89   2.0000      -0.455278       -12.3887
  90   2.0000      -0.452549       -12.3145
  91   2.0000      -0.448881       -12.2147
  92   2.0000      -0.444750       -12.1023
  93   2.0000      -0.442244       -12.0341
  94   2.0000      -0.440853       -11.9962
  95   2.0000      -0.437229       -11.8976
  96   2.0000      -0.432891       -11.7796
  97   2.0000      -0.420253       -11.4357
  98   2.0000      -0.416028       -11.3207
  99   2.0000      -0.413864       -11.2618
 100   2.0000      -0.412506       -11.2249
 101   2.0000      -0.407354       -11.0847
 102   2.0000      -0.404940       -11.0190
 103   2.0000      -0.396079       -10.7778
 104   2.0000      -0.393839       -10.7169
 105   2.0000      -0.392052       -10.6683
 106   2.0000      -0.387500       -10.5444
 107   2.0000      -0.385748       -10.4967
 108   2.0000      -0.383682       -10.4405
 109   2.0000      -0.374035       -10.1780
 110   2.0000      -0.372523       -10.1369
 111   2.0000      -0.368619       -10.0306
 112   2.0000      -0.361288        -9.8312
 113   2.0000      -0.359547        -9.7838
 114   2.0000      -0.357762        -9.7352
 115   2.0000      -0.351866        -9.5748
 116   2.0000      -0.344511        -9.3746
 117   2.0000      -0.338557        -9.2126
 118   2.0000      -0.322694        -8.7810
 119   2.0000      -0.320991        -8.7346
 120   2.0000      -0.318512        -8.6672
 121   2.0000      -0.304725        -8.2920
 122   2.0000      -0.295585        -8.0433
 123   2.0000      -0.289834        -7.8868
 124   2.0000      -0.287809        -7.8317
 125   2.0000      -0.286470        -7.7952
 126   2.0000      -0.279302        -7.6002
 127   2.0000      -0.278846        -7.5878
 128   2.0000      -0.275773        -7.5042
 129   2.0000      -0.274149        -7.4600
 130   2.0000      -0.262928        -7.1546
 131   2.0000      -0.254935        -6.9371
 132   2.0000      -0.248546        -6.7633
 133   2.0000      -0.236284        -6.4296
 134   2.0000      -0.232656        -6.3309
 135   2.0000      -0.224595        -6.1116
 136   0.0000      -0.083133        -2.2622
 137   0.0000      -0.065175        -1.7735
 138   0.0000      -0.036757        -1.0002
 139   0.0000      -0.029457        -0.8016
 140   0.0000      -0.003883        -0.1057

MULLIKEN ATOMIC CHARGES
-----------------------
   0 C :   -0.541956
   1 C :    0.100938
   2 C :    0.279697
   3 N :   -0.598615
   4 C :   -0.246534
   5 C :    0.181827
   6 C :   -0.149001
   7 C :   -0.130947
   8 C :   -0.155831
   9 C :    0.029003
  10 C :    0.683333
  11 F :   -0.340424
  12 F :   -0.332823
  13 C :   -0.184998
  14 C :   -0.317391
  15 C :   -0.309066
  16 C :   -0.192062
  17 S :    1.209924
  18 O :   -0.537649
  19 O :   -0.523790
  20 C :   -0.120797
  21 C :   -0.146635
  22 C :   -0.144768
  23 C :    0.081763
  24 C :    0.526830
  25 O :   -0.443653
  26 O :   -0.624124
  27 C :   -0.145656
  28 C :   -0.152959
  29 N :   -0.351423
  30 C :   -0.056234
  31 C :    0.135426
  32 C :   -0.201312
  33 C :   -0.127298
  34 C :   -0.120028
  35 C :   -0.200227
  36 C :    0.120337
  37 H :    0.162363
  38 H :    0.169435
  39 H :    0.169071
  40 H :    0.174297
  41 H :    0.155722
  42 H :    0.139947
  43 H :    0.129636
  44 H :    0.137687
  45 H :    0.159880
  46 H :    0.147804
  47 H :    0.169279
  48 H :    0.148025
  49 H :    0.169026
  50 H :    0.137461
  51 H :    0.186612
  52 H :    0.179889
  53 H :    0.434028
  54 H :    0.173618
  55 H :    0.185435
  56 H :    0.157560
  57 H :    0.143006
  58 H :    0.138332
  59 H :    0.139760
  60 H :    0.139250
Sum of atomic charges:    0.0000000

LOEWDIN ATOMIC CHARGES
----------------------
   0 C :   -0.361968
   1 C :   -0.021112
   2 C :    0.019645
   3 N :   -0.282696
   4 C :   -0.141873
   5 C :   -0.031334
   6 C :   -0.114705
   7 C :   -0.126548
   8 C :   -0.118024
   9 C :   -0.049189
  10 C :    0.240591
  11 F :   -0.135562
  12 F :   -0.132688
  13 C :   -0.163009
  14 C :   -0.253336
  15 C :   -0.254120
  16 C :   -0.111232
  17 S :    1.269087
  18 O :   -0.563333
  19 O :   -0.553698
  20 C :   -0.173873
  21 C :   -0.104906
  22 C :   -0.089461
  23 C :   -0.040599
  24 C :    0.179171
  25 O :   -0.259537
  26 O :   -0.335806
  27 C :   -0.099228
  28 C :   -0.108057
  29 N :   -0.110073
  30 C :   -0.057383
  31 C :   -0.029170
  32 C :   -0.110409
  33 C :   -0.125349
  34 C :   -0.116297
  35 C :   -0.125696
  36 C :   -0.009017
  37 H :    0.136896
  38 H :    0.140807
  39 H :    0.138556
  40 H :    0.144589
  41 H :    0.126831
  42 H :    0.137930
  43 H :    0.132823
  44 H :    0.137399
  45 H :    0.143864
  46 H :    0.132009
  47 H :    0.141796
  48 H :    0.132555
  49 H :    0.141006
  50 H :    0.137775
  51 H :    0.160263
  52 H :    0.159792
  53 H :    0.349537
  54 H :    0.155087
  55 H :    0.160015
  56 H :    0.139786
  57 H :    0.138841
  58 H :    0.136538
  59 H :    0.137380
  60 H :    0.138717

  Mayer bond orders larger than 0.100000
B(  0-C ,  1-C ) :   1.0000 B(  0-C , 37-H ) :   0.9268 B(  0-C , 38-H ) :   0.9245
B(  0-C , 39-H ) :   0.9306 B(  1-C ,  2-C ) :   1.4289 B(  1-C , 30-C ) :   0.1012
B(  1-C , 36-C ) :   1.2604 B(  2-C ,  3-N ) :   0.8935 B(  2-C , 29-N ) :   1.2896
B(  3-N ,  4-C ) :   0.9135 B(  3-N , 17-S ) :   0.8031 B(  4-C ,  5-C ) :   0.9565
B(  4-C , 40-H ) :   0.9198 B(  4-C , 41-H ) :   0.9263 B(  5-C ,  6-C ) :   1.4313
B(  5-C , 16-C ) :   1.4065 B(  6-C ,  7-C ) :   1.4418 B(  6-C , 42-H ) :   0.9135
B(  7-C ,  8-C ) :   1.4380 B(  7-C , 43-H ) :   0.9299 B(  8-C ,  9-C ) :   1.4104
B(  8-C , 44-H ) :   0.9195 B(  9-C , 10-C ) :   0.9764 B(  9-C , 16-C ) :   1.4110
B( 10-C , 11-F ) :   0.8777 B( 10-C , 12-F ) :   0.8926 B( 10-C , 13-C ) :   0.9956
B( 13-C , 14-C ) :   0.9326 B( 13-C , 15-C ) :   0.9297 B( 13-C , 45-H ) :   0.9274
B( 14-C , 15-C ) :   0.9649 B( 14-C , 46-H ) :   0.9458 B( 14-C , 47-H ) :   0.9375
B( 15-C , 48-H ) :   0.9422 B( 15-C , 49-H ) :   0.9347 B( 16-C , 50-H ) :   0.9106
B( 17-S , 18-O ) :   1.6199 B( 17-S , 19-O ) :   1.6672 B( 17-S , 20-C ) :   0.8108
B( 20-C , 21-C ) :   1.3749 B( 20-C , 28-C ) :   1.3993 B( 21-C , 22-C ) :   1.4244
B( 21-C , 51-H ) :   0.9089 B( 22-C , 23-C ) :   1.3958 B( 22-C , 52-H ) :   0.9102
B( 23-C , 24-C ) :   1.0075 B( 23-C , 27-C ) :   1.3880 B( 24-C , 25-O ) :   1.8650
B( 24-C , 26-O ) :   1.0241 B( 26-O , 53-H ) :   0.7419 B( 27-C , 28-C ) :   1.4112
B( 27-C , 54-H ) :   0.9146 B( 28-C , 55-H ) :   0.9087 B( 29-N , 30-C ) :   1.4990
B( 30-C , 31-C ) :   1.2281 B( 30-C , 56-H ) :   0.9255 B( 31-C , 32-C ) :   1.2841
B( 31-C , 36-C ) :   1.2910 B( 32-C , 33-C ) :   1.5117 B( 32-C , 35-C ) :   0.1059
B( 32-C , 57-H ) :   0.9227 B( 33-C , 34-C ) :   1.3526 B( 33-C , 58-H ) :   0.9289
B( 34-C , 35-C ) :   1.5088 B( 34-C , 59-H ) :   0.9286 B( 35-C , 36-C ) :   1.2944
B( 35-C , 60-H ) :   0.9166

FINAL SINGLE POINT ENERGY     -2088.528333723014

DIPOLE MOMENT
-------------

Method             : SCF
Type of density    : Electron Density
Multiplicity       :   1
Irrep              :   0
Energy             : -2088.5283337230139296 Eh
Relativity type    :
Basis              : AO
                                X                 Y                 Z
Electronic contribution:     -4.008691386      16.103732212       4.993309502
Nuclear contribution   :      3.025889229     -18.025119873      -7.239387162
                        -----------------------------------------
Total Dipole Moment    :     -0.982802157      -1.921387660      -2.246077660
                        -----------------------------------------
Magnitude (a.u.)       :      3.114882899
Magnitude (Debye)      :      7.917403123

Rotational constants in cm-1:             0.004154             0.001900             0.001408
Rotational constants in MHz :           124.527378            56.959153            42.206735

                             ****ORCA TERMINATED NORMALLY****
TOTAL RUN TIME: 0 days 0 hours 12 minutes 18 seconds 5 msec
