                         Program Version 6.0.0  -   RELEASE  -
|  1> ! B3LYP 6-31G* SP
|  2>
|  3> * xyz 0 1
|  4> O 2.2771 0.7574 -2.0361
|  5> C 1.8348 0.7116 -0.8566
|  6> N 2.4196 -0.2081 0.0810
|  7> C 3.0438 -1.4428 -0.3059
|  8> C 3.5718 -2.2966 0.6731
|  9> C 4.1659 -3.4999 0.2895
| 10> C 4.2287 -3.8440 -1.0610
| 11> C 3.6869 -2.9760 -2.0101
| 12> N 3.1087 -1.8093 -1.6157
| 13> N 0.7496 1.5848 -0.4625
| 14> C 0.3539 2.6770 -1.3640
| 15> C -0.0548 3.9046 -0.5610
| 16> C -1.1152 3.5549 0.4396
| 17> C -2.0263 4.5408 0.8556
| 18> C -2.9578 4.2657 1.8566
| 19> C -2.9789 3.0114 2.4647
| 20> C -2.0685 2.0279 2.0704
| 21> C -1.1372 2.2798 1.0437
| 22> C -0.1287 1.2018 0.6673
| 23> C -0.8276 -0.1076 0.3499
| 24> C -0.5048 -1.2720 1.0652
| 25> C -1.1111 -2.4884 0.7491
| 26> C -2.0391 -2.5707 -0.3043
| 27> C -2.7286 -3.8755 -0.6249
| 28> F -2.9867 -3.9677 -1.9813
| 29> F -3.9258 -3.9403 0.0654
| 30> F -1.9403 -4.9522 -0.2613
| 31> C -2.3847 -1.3996 -0.9989
| 32> C -1.7780 -0.1826 -0.6826
| 33> H 2.3764 0.0209 1.0998
| 34> H 3.5213 -2.0303 1.7226
| 35> H 4.5809 -4.1628 1.0378
| 36> H 4.6924 -4.7739 -1.3699
| 37> H 3.7257 -3.2274 -3.0591
| 38> H 1.1965 2.9731 -2.0270
| 39> H -0.4889 2.3435 -2.0076
| 40> H 0.8303 4.3072 -0.0203
| 41> H -0.4238 4.6850 -1.2629
| 42> H -2.0051 5.5283 0.4127
| 43> H -3.6597 5.0297 2.1714
| 44> H -3.6954 2.8036 3.2498
| 45> H -2.0892 1.0664 2.5677
| 46> H 0.5018 1.0846 1.5734
| 47> H 0.2193 -1.2406 1.8697
| 48> H -0.8502 -3.3670 1.3248
| 49> H -3.1231 -1.4280 -1.7907
| 50> H -2.0558 0.7035 -1.2376
| 51> *
| 52>
| 53>                          ****END OF INPUT****

CARTESIAN COORDINATES (ANGSTROEM)
---------------------------------
  O      2.277100    0.757400   -2.036100
  C      1.834800    0.711600   -0.856600
  N      2.419600   -0.208100    0.081000
  C      3.043800   -1.442800   -0.305900
  C      3.571800   -2.296600    0.673100
  C      4.165900   -3.499900    0.289500
  C      4.228700   -3.844000   -1.061000
  C      3.686900   -2.976000   -2.010100
  N      3.108700   -1.809300   -1.615700
  N      0.749600    1.584800   -0.462500
  C      0.353900    2.677000   -1.364000
  C     -0.054800    3.904600   -0.561000
  C     -1.115200    3.554900    0.439600
  C     -2.026300    4.540800    0.855600
  C     -2.957800    4.265700    1.856600
  C     -2.978900    3.011400    2.464700
  C     -2.068500    2.027900    2.070400
  C     -1.137200    2.279800    1.043700
  C     -0.128700    1.201800    0.667300
  C     -0.827600   -0.107600    0.349900
  C     -0.504800   -1.272000    1.065200
  C     -1.111100   -2.488400    0.749100
  C     -2.039100   -2.570700   -0.304300
  C     -2.728600   -3.875500   -0.624900
  F     -2.986700   -3.967700   -1.981300
  F     -3.925800   -3.940300    0.065400
  F     -1.940300   -4.952200   -0.261300
  C     -2.384700   -1.399600   -0.998900
  C     -1.778000   -0.182600   -0.682600
  H      2.376400    0.020900    1.099800
  H      3.521300   -2.030300    1.722600
  H      4.580900   -4.162800    1.037800
  H      4.692400   -4.773900   -1.369900
  H      3.725700   -3.227400   -3.059100
  H      1.196500    2.973100   -2.027000
  H     -0.488900    2.343500   -2.007600
  H      0.830300    4.307200   -0.020300
  H     -0.423800    4.685000   -1.262900
  H     -2.005100    5.528300    0.412700
  H     -3.659700    5.029700    2.171400
  H     -3.695400    2.803600    3.249800
  H     -2.089200    1.066400    2.567700
  H      0.501800    1.084600    1.573400
  H      0.219300   -1.240600    1.869700
  H     -0.850200   -3.367000    1.324800
  H     -3.123100   -1.428000   -1.790700
  H     -2.055800    0.703500   -1.237600

 Total Charge           Charge          ....    0
 Multiplicity           Mult            ....    1
 Number of Electrons    NEL             ....  206
 Basis Dimension        Dim             ....  442

ORBITAL ENERGIES
----------------

  NO   OCC          E(Eh)            E(eV)
   0   2.0000     -24.715304      -672.5376
   1   2.0000     -24.713661      -672.4929
   2   2.0000     -24.710812      -672.4154
   3   2.0000     -19.096999      -519.6558
   4   2.0000     -14.372479      -391.0950
   5   2.0000     -14.358059      -390.7026
   6   2.0000     -14.312862      -389.4728
   7   2.0000     -10.429738      -283.8076
   8   2.0000     -10.312355      -280.6134
   9   2.0000     -10.264817      -279.3199
  10   2.0000     -10.244906      -278.7781
  11   2.0000     -10.216155      -277.9957
  12   2.0000     -10.212529      -277.8970
  13   2.0000     -10.209813      -277.8231
  14   2.0000     -10.205906      -277.7168
  15   2.0000     -10.202760      -277.6312
  16   2.0000     -10.200473      -277.5690
  17   2.0000     -10.199595      -277.5451
  18   2.0000     -10.197607      -277.4910
  19   2.0000     -10.197028      -277.4752
  20   2.0000     -10.196742      -277.4675
  21   2.0000     -10.195279      -277.4276
  22   2.0000     -10.190425      -277.2956
  23   2.0000     -10.190146      -277.2880
  24   2.0000     -10.189823      -277.2792
  25   2.0000     -10.187020      -277.2029
  26   2.0000     -10.186576      -277.1908
  27   2.0000     -10.185959      -277.1740
  28   2.0000     -10.179173      -276.9894
  29   2.0000      -1.274361       -34.6771
  30   2.0000      -1.200092       -32.6562
  31   2.0000      -1.198255       -32.6062
  32   2.0000      -1.014930       -27.6177
  33   2.0000      -0.940253       -25.5856
  34   2.0000      -0.929791       -25.3009
  35   2.0000      -0.887862       -24.1599
  36   2.0000      -0.869316       -23.6553
  37   2.0000      -0.858054       -23.3488
  38   2.0000      -0.806042       -21.9335
  39   2.0000      -0.790696       -21.5159
  40   2.0000      -0.784744       -21.3540
  41   2.0000      -0.762475       -20.7480
  42   2.0000      -0.758232       -20.6326
  43   2.0000      -0.750397       -20.4193
  44   2.0000      -0.733861       -19.9694
  45   2.0000      -0.698847       -19.0166
  46   2.0000      -0.667489       -18.1633
  47   2.0000      -0.651651       -17.7323
  48   2.0000      -0.631809       -17.1924
  49   2.0000      -0.624664       -16.9980
  50   2.0000      -0.620630       -16.8882
  51   2.0000      -0.615567       -16.7504
  52   2.0000      -0.596958       -16.2441
  53   2.0000      -0.579874       -15.7792
  54   2.0000      -0.565166       -15.3790
  55   2.0000      -0.562580       -15.3086
  56   2.0000      -0.558313       -15.1925
  57   2.0000      -0.549891       -14.9633
  58   2.0000      -0.540573       -14.7097
  59   2.0000      -0.522400       -14.2152
  60   2.0000      -0.511768       -13.9259
  61   2.0000      -0.498708       -13.5705
  62   2.0000      -0.486897       -13.2492
  63   2.0000      -0.476942       -12.9782
  64   2.0000      -0.472139       -12.8475
  65   2.0000      -0.465002       -12.6533
  66   2.0000      -0.461012       -12.5448
  67   2.0000      -0.456300       -12.4166
  68   2.0000      -0.447157       -12.1678
  69   2.0000      -0.443417       -12.0660
  70   2.0000      -0.442935       -12.0529
  71   2.0000      -0.439890       -11.9700
  72   2.0000      -0.436396       -11.8749
  73   2.0000      -0.434777       -11.8309
  74   2.0000      -0.418609       -11.3909
  75   2.0000      -0.417982       -11.3739
  76   2.0000      -0.415154       -11.2969
  77   2.0000      -0.405961       -11.0468
  78   2.0000      -0.404015       -10.9938
  79   2.0000      -0.397443       -10.8150
  80   2.0000      -0.395802       -10.7703
  81   2.0000      -0.392968       -10.6932
  82   2.0000      -0.392561       -10.6821
  83   2.0000      -0.385504       -10.4901
  84   2.0000      -0.382029       -10.3955
  85   2.0000      -0.372951       -10.1485
  86   2.0000      -0.369204       -10.0466
  87   2.0000      -0.362954        -9.8765
  88   2.0000      -0.358236        -9.7481
  89   2.0000      -0.357218        -9.7204
  90   2.0000      -0.348651        -9.4873
  91   2.0000      -0.337486        -9.1834
  92   2.0000      -0.328774        -8.9464
  93   2.0000      -0.302806        -8.2398
  94   2.0000      -0.272125        -7.4049
  95   2.0000      -0.271918        -7.3993
  96   2.0000      -0.262355        -7.1390
  97   2.0000      -0.259058        -7.0493
  98   2.0000      -0.247030        -6.7220
  99   2.0000      -0.244139        -6.6434
 100   2.0000      -0.226811        -6.1718
 101   2.0000      -0.221171        -6.0184
 102   2.0000      -0.218664        -5.9502
 103   0.0000      -0.028949        -0.7877
 104   0.0000      -0.016834        -0.4581
 105   0.0000      -0.016562        -0.4507
 106   0.0000      -0.013892        -0.3780
 107   0.0000      -0.002481        -0.0675

MULLIKEN ATOMIC CHARGES
-----------------------
   0 O :   -0.450403
   1 C :    0.692712
   2 N :   -0.699497
   3 C :    0.484367
   4 C :   -0.198428
   5 C :   -0.094829
   6 C :   -0.147475
   7 C :    0.021175
   8 N :   -0.383303
   9 N :   -0.458396
  10 C :   -0.129067
  11 C :   -0.345641
  12 C :    0.105562
  13 C :   -0.184343
  14 C :   -0.121062
  15 C :   -0.129979
  16 C :   -0.173872
  17 C :    0.091497
  18 C :   -0.125700
  19 C :    0.202981
  20 C :   -0.181107
  21 C :   -0.157252
  22 C :   -0.013746
  23 C :    0.894398
  24 F :   -0.304429
  25 F :   -0.298996
  26 F :   -0.305339
  27 C :   -0.156798
  28 C :   -0.163303
  29 H :    0.328762
  30 H :    0.116829
  31 H :    0.138836
  32 H :    0.128543
  33 H :    0.151375
  34 H :    0.184349
  35 H :    0.146844
  36 H :    0.161247
  37 H :    0.147691
  38 H :    0.126635
  39 H :    0.129564
  40 H :    0.131497
  41 H :    0.131814
  42 H :    0.139675
  43 H :    0.117702
  44 H :    0.150293
  45 H :    0.154063
  46 H :    0.144554
Sum of atomic charges:    0.0000000

LOEWDIN ATOMIC CHARGES
----------------------
   0 O :   -0.269917
   1 C :    0.169340
   2 N :   -0.218918
   3 C :    0.086582
   4 C :   -0.172396
   5 C :   -0.101833
   6 C :   -0.164754
   7 C :   -0.056431
   8 N :   -0.128395
   9 N :   -0.119837
  10 C :   -0.142069
  11 C :   -0.228398
  12 C :   -0.024960
  13 C :   -0.131479
  14 C :   -0.125991
  15 C :   -0.131004
  16 C :   -0.124733
  17 C :   -0.028276
  18 C :   -0.043246
  19 C :   -0.008055
  20 C :   -0.134989
  21 C :   -0.111261
  22 C :   -0.068902
  23 C :    0.310067
  24 F :   -0.113190
  25 F :   -0.116511
  26 F :   -0.112755
  27 C :   -0.106902
  28 C :   -0.115226
  29 H :    0.253031
  30 H :    0.125854
  31 H :    0.136995
  32 H :    0.132745
  33 H :    0.136850
  34 H :    0.150445
  35 H :    0.116825
  36 H :    0.136631
  37 H :    0.132804
  38 H :    0.131736
  39 H :    0.132247
  40 H :    0.133411
  41 H :    0.134691
  42 H :    0.125594
  43 H :    0.127061
  44 H :    0.142974
  45 H :    0.144499
  46 H :    0.140045

  Mayer bond orders larger than 0.100000
B(  0-O ,  1-C ) :   1.8386 B(  1-C ,  2-N ) :   0.9622 B(  1-C ,  9-N ) :   1.0336
B(  2-N ,  3-C ) :   0.9301 B(  2-N , 29-H ) :   0.8208 B(  3-C ,  4-C ) :   1.3590
B(  3-C ,  8-N ) :   1.4102 B(  4-C ,  5-C ) :   1.4780 B(  4-C , 30-H ) :   0.9200
B(  5-C ,  6-C ) :   1.4429 B(  5-C , 31-H ) :   0.9289 B(  6-C ,  7-C ) :   1.4177
B(  6-C , 32-H ) :   0.9264 B(  7-C ,  8-N ) :   1.4272 B(  7-C , 33-H ) :   0.9292
B(  9-N , 10-C ) :   0.9307 B(  9-N , 18-C ) :   0.9277 B( 10-C , 11-C ) :   0.9844
B( 10-C , 34-H ) :   0.9179 B( 10-C , 35-H ) :   0.9247 B( 11-C , 12-C ) :   0.9868
B( 11-C , 36-H ) :   0.9197 B( 11-C , 37-H ) :   0.9292 B( 12-C , 13-C ) :   1.4043
B( 12-C , 17-C ) :   1.4442 B( 13-C , 14-C ) :   1.4521 B( 13-C , 38-H ) :   0.9250
B( 14-C , 15-C ) :   1.4371 B( 14-C , 39-H ) :   0.9292 B( 15-C , 16-C ) :   1.4512
B( 15-C , 40-H ) :   0.9296 B( 16-C , 17-C ) :   1.3936 B( 16-C , 41-H ) :   0.9203
B( 17-C , 18-C ) :   0.9653 B( 18-C , 19-C ) :   0.9348 B( 18-C , 42-H ) :   0.9098
B( 19-C , 20-C ) :   1.4108 B( 19-C , 28-C ) :   1.4124 B( 20-C , 21-C ) :   1.4181
B( 20-C , 43-H ) :   0.9243 B( 21-C , 22-C ) :   1.4204 B( 21-C , 44-H ) :   0.9194
B( 22-C , 23-C ) :   0.9791 B( 22-C , 27-C ) :   1.4004 B( 23-C , 24-F ) :   0.9509
B( 23-C , 25-F ) :   0.9833 B( 23-C , 26-F ) :   0.9477 B( 27-C , 28-C ) :   1.4389
B( 27-C , 45-H ) :   0.9198 B( 28-C , 46-H ) :   0.9163

FINAL SINGLE POINT ENERGY     -1387.393666252645

DIPOLE MOMENT
-------------

Method             : SCF
Type of density    : Electron Density
Multiplicity       :   1
Irrep              :   0
Energy             : -1387.3936662526452892 Eh
Relativity type    :
Basis              : AO
                                X                 Y                 Z
Electronic contribution:    -14.064724579     -27.952837953      -6.051539191
Nuclear contribution   :     14.028269147      28.760640037       7.836215912
                        -----------------------------------------
Total Dipole Moment    :     -0.036455432       0.807802084       1.784676721
                        -----------------------------------------
Magnitude (a.u.)       :      1.959322384
Magnitude (Debye)      :      4.980201717

Rotational constants in cm-1:             0.006040             0.004269             0.002862
Rotational constants in MHz :           181.063877           127.971966            85.800306

                             ****ORCA TERMINATED NORMALLY****
TOTAL RUN TIME: 0 days 0 hours 6 minutes 4 seconds 968 msec
