                         Program Version 6.0.0  -   RELEASE  -
|  1> ! B3LYP 6-31G* SP
|  2>
|  3> * xyz 0 1
|  4> C -2.4676 -1.5551 3.0711
|  5> N -3.0729 -1.1655 1.7821
|  6> C -2.4471 -1.4976 0.6123
|  7> O -1.3649 -2.1408 0.6643
|  8> C -3.0030 -1.1249 -0.6358
|  9> C -2.4130 -1.4641 -1.9032
| 10> C -1.1097 -2.2276 -2.0724
| 11> C 0.0801 -1.3634 -1.7623
| 12> O 0.9634 -1.7940 -0.9721
| 13> N 0.2350 -0.0869 -2.4035
| 14> C 1.2589 0.8544 -2.0598
| 15> N 2.1615 0.6664 -1.0739
| 16> C 3.0145 1.7215 -0.9472
| 17> C 4.0978 1.7204 0.0723
| 18> C 4.8225 2.8883 0.3785
| 19> C 5.8359 2.8620 1.3379
| 20> C 6.1385 1.6767 2.0074
| 21> C 5.4295 0.5038 1.7310
| 22> O 5.7716 -0.6587 2.4416
| 23> C 5.1390 -1.9295 2.3016
| 24> F 5.7326 -2.8244 3.1710
| 25> F 5.2904 -2.3979 1.0082
| 26> F 3.7951 -1.8295 2.6140
| 27> C 4.4081 0.5310 0.7608
| 28> C 2.7785 2.7625 -1.8530
| 29> S 1.4691 2.3341 -2.8202
| 30> C -3.0448 -1.0494 -3.0866
| 31> C -4.2261 -0.3292 -3.0528
| 32> C -4.8065 0.0058 -1.8394
| 33> C -4.2142 -0.3736 -0.6110
| 34> N -4.7885 -0.0173 0.5918
| 35> C -6.0293 0.7889 0.6224
| 36> C -4.2107 -0.4071 1.7734
| 37> O -4.7304 -0.0611 2.8729
| 38> H -3.2406 -1.7068 3.8546
| 39> H -1.7601 -0.7663 3.4040
| 40> H -1.9250 -2.5211 2.9910
| 41> H -0.9934 -2.5893 -3.1171
| 42> H -1.1149 -3.1533 -1.4604
| 43> H -0.4387 0.1825 -3.1547
| 44> H 4.6058 3.8288 -0.1064
| 45> H 6.3864 3.7656 1.5664
| 46> H 6.9259 1.6697 2.7501
| 47> H 3.8566 -0.3703 0.5341
| 48> H 3.3362 3.6828 -1.9487
| 49> H -2.6163 -1.2811 -4.0543
| 50> H -4.6960 -0.0223 -3.9789
| 51> H -5.7268 0.5690 -1.8854
| 52> H -6.8547 0.2301 0.1316
| 53> H -5.8643 1.7582 0.1046
| 54> H -6.3732 1.0336 1.6481
| 55> *
| 56>
| 57>                          ****END OF INPUT****

CARTESIAN COORDINATES (ANGSTROEM)
---------------------------------
  C     -2.467600   -1.555100    3.071100
  N     -3.072900   -1.165500    1.782100
  C     -2.447100   -1.497600    0.612300
  O     -1.364900   -2.140800    0.664300
  C     -3.003000   -1.124900   -0.635800
  C     -2.413000   -1.464100   -1.903200
  C     -1.109700   -2.227600   -2.072400
  C      0.080100   -1.363400   -1.762300
  O      0.963400   -1.794000   -0.972100
  N      0.235000   -0.086900   -2.403500
  C      1.258900    0.854400   -2.059800
  N      2.161500    0.666400   -1.073900
  C      3.014500    1.721500   -0.947200
  C      4.097800    1.720400    0.072300
  C      4.822500    2.888300    0.378500
  C      5.835900    2.862000    1.337900
  C      6.138500    1.676700    2.007400
  C      5.429500    0.503800    1.731000
  O      5.771600   -0.658700    2.441600
  C      5.139000   -1.929500    2.301600
  F      5.732600   -2.824400    3.171000
  F      5.290400   -2.397900    1.008200
  F      3.795100   -1.829500    2.614000
  C      4.408100    0.531000    0.760800
  C      2.778500    2.762500   -1.853000
  S      1.469100    2.334100   -2.820200
  C     -3.044800   -1.049400   -3.086600
  C     -4.226100   -0.329200   -3.052800
  C     -4.806500    0.005800   -1.839400
  C     -4.214200   -0.373600   -0.611000
  N     -4.788500   -0.017300    0.591800
  C     -6.029300    0.788900    0.622400
  C     -4.210700   -0.407100    1.773400
  O     -4.730400   -0.061100    2.872900
  H     -3.240600   -1.706800    3.854600
  H     -1.760100   -0.766300    3.404000
  H     -1.925000   -2.521100    2.991000
  H     -0.993400   -2.589300   -3.117100
  H     -1.114900   -3.153300   -1.460400
  H     -0.438700    0.182500   -3.154700
  H      4.605800    3.828800   -0.106400
  H      6.386400    3.765600    1.566400
  H      6.925900    1.669700    2.750100
  H      3.856600   -0.370300    0.534100
  H      3.336200    3.682800   -1.948700
  H     -2.616300   -1.281100   -4.054300
  H     -4.696000   -0.022300   -3.978900
  H     -5.726800    0.569000   -1.885400
  H     -6.854700    0.230100    0.131600
  H     -5.864300    1.758200    0.104600
  H     -6.373200    1.033600    1.648100

 Total Charge           Charge          ....    0
 Multiplicity           Mult            ....    1
 Number of Electrons    NEL             ....  252
 Basis Dimension        Dim             ....  514

ORBITAL ENERGIES
----------------

  NO   OCC          E(Eh)            E(eV)
   0   2.0000     -88.903506     -2419.1874
   1   2.0000     -24.725765      -672.8223
   2   2.0000     -24.720262      -672.6725
   3   2.0000     -24.719131      -672.6418
   4   2.0000     -19.197576      -522.3926
   5   2.0000     -19.109638      -519.9997
   6   2.0000     -19.108712      -519.9745
   7   2.0000     -19.106402      -519.9116
   8   2.0000     -14.405521      -391.9942
   9   2.0000     -14.394831      -391.7033
  10   2.0000     -14.388028      -391.5181
  11   2.0000     -14.319335      -389.6489
  12   2.0000     -10.486589      -285.3546
  13   2.0000     -10.326017      -280.9852
  14   2.0000     -10.293757      -280.1074
  15   2.0000     -10.291764      -280.0531
  16   2.0000     -10.285666      -279.8872
  17   2.0000     -10.264282      -279.3053
  18   2.0000     -10.254435      -279.0374
  19   2.0000     -10.236466      -278.5484
  20   2.0000     -10.229837      -278.3680
  21   2.0000     -10.221544      -278.1423
  22   2.0000     -10.217807      -278.0407
  23   2.0000     -10.214348      -277.9466
  24   2.0000     -10.211985      -277.8822
  25   2.0000     -10.206840      -277.7422
  26   2.0000     -10.205016      -277.6926
  27   2.0000     -10.201491      -277.5967
  28   2.0000     -10.201375      -277.5935
  29   2.0000     -10.197695      -277.4934
  30   2.0000     -10.185581      -277.1637
  31   2.0000     -10.183615      -277.1103
  32   2.0000     -10.180745      -277.0321
  33   2.0000     -10.178258      -276.9645
  34   2.0000      -7.981267      -217.1813
  35   2.0000      -5.944338      -161.7537
  36   2.0000      -5.940272      -161.6430
  37   2.0000      -5.938067      -161.5830
  38   2.0000      -1.286036       -34.9948
  39   2.0000      -1.207503       -32.8578
  40   2.0000      -1.205277       -32.7973
  41   2.0000      -1.068648       -29.0794
  42   2.0000      -1.066924       -29.0325
  43   2.0000      -1.021165       -27.7873
  44   2.0000      -1.010188       -27.4886
  45   2.0000      -0.972819       -26.4718
  46   2.0000      -0.968308       -26.3490
  47   2.0000      -0.938149       -25.5283
  48   2.0000      -0.909359       -24.7449
  49   2.0000      -0.875717       -23.8295
  50   2.0000      -0.852536       -23.1987
  51   2.0000      -0.808522       -22.0010
  52   2.0000      -0.802310       -21.8320
  53   2.0000      -0.791831       -21.5468
  54   2.0000      -0.773900       -21.0589
  55   2.0000      -0.750309       -20.4170
  56   2.0000      -0.747388       -20.3375
  57   2.0000      -0.731995       -19.9186
  58   2.0000      -0.717975       -19.5371
  59   2.0000      -0.706685       -19.2299
  60   2.0000      -0.686922       -18.6921
  61   2.0000      -0.657470       -17.8907
  62   2.0000      -0.656333       -17.8597
  63   2.0000      -0.630769       -17.1641
  64   2.0000      -0.623806       -16.9746
  65   2.0000      -0.615129       -16.7385
  66   2.0000      -0.603318       -16.4171
  67   2.0000      -0.594961       -16.1897
  68   2.0000      -0.577421       -15.7124
  69   2.0000      -0.577179       -15.7058
  70   2.0000      -0.574291       -15.6273
  71   2.0000      -0.561473       -15.2785
  72   2.0000      -0.552196       -15.0260
  73   2.0000      -0.533931       -14.5290
  74   2.0000      -0.520581       -14.1657
  75   2.0000      -0.509237       -13.8571
  76   2.0000      -0.504293       -13.7225
  77   2.0000      -0.501766       -13.6538
  78   2.0000      -0.492295       -13.3960
  79   2.0000      -0.480696       -13.0804
  80   2.0000      -0.471655       -12.8344
  81   2.0000      -0.467198       -12.7131
  82   2.0000      -0.461727       -12.5642
  83   2.0000      -0.460925       -12.5424
  84   2.0000      -0.452945       -12.3253
  85   2.0000      -0.452326       -12.3084
  86   2.0000      -0.448826       -12.2132
  87   2.0000      -0.447691       -12.1823
  88   2.0000      -0.442045       -12.0287
  89   2.0000      -0.435741       -11.8571
  90   2.0000      -0.431102       -11.7309
  91   2.0000      -0.428304       -11.6548
  92   2.0000      -0.427412       -11.6305
  93   2.0000      -0.421268       -11.4633
  94   2.0000      -0.418957       -11.4004
  95   2.0000      -0.413058       -11.2399
  96   2.0000      -0.410093       -11.1592
  97   2.0000      -0.402820       -10.9613
  98   2.0000      -0.401525       -10.9261
  99   2.0000      -0.398015       -10.8305
 100   2.0000      -0.394891       -10.7455
 101   2.0000      -0.391769       -10.6606
 102   2.0000      -0.386498       -10.5171
 103   2.0000      -0.384700       -10.4682
 104   2.0000      -0.377448       -10.2709
 105   2.0000      -0.374752       -10.1975
 106   2.0000      -0.373211       -10.1556
 107   2.0000      -0.372916       -10.1476
 108   2.0000      -0.363585        -9.8936
 109   2.0000      -0.361461        -9.8359
 110   2.0000      -0.354670        -9.6511
 111   2.0000      -0.339948        -9.2504
 112   2.0000      -0.335792        -9.1374
 113   2.0000      -0.320556        -8.7228
 114   2.0000      -0.298984        -8.1358
 115   2.0000      -0.288169        -7.8415
 116   2.0000      -0.275929        -7.5084
 117   2.0000      -0.271840        -7.3972
 118   2.0000      -0.267814        -7.2876
 119   2.0000      -0.262925        -7.1546
 120   2.0000      -0.247799        -6.7429
 121   2.0000      -0.243716        -6.6319
 122   2.0000      -0.236449        -6.4341
 123   2.0000      -0.233111        -6.3433
 124   2.0000      -0.222725        -6.0606
 125   2.0000      -0.205485        -5.5915
 126   0.0000      -0.061869        -1.6835
 127   0.0000      -0.034073        -0.9272
 128   0.0000      -0.026957        -0.7335
 129   0.0000      -0.010853        -0.2953
 130   0.0000       0.005457         0.1485

MULLIKEN ATOMIC CHARGES
-----------------------
   0 C :   -0.314470
   1 N :   -0.464361
   2 C :    0.499742
   3 O :   -0.469846
   4 C :    0.010040
   5 C :    0.095636
   6 C :   -0.421320
   7 C :    0.586150
   8 O :   -0.410151
   9 N :   -0.665408
  10 C :    0.257712
  11 N :   -0.373795
  12 C :    0.223332
  13 C :    0.121128
  14 C :   -0.184751
  15 C :   -0.128085
  16 C :   -0.166993
  17 C :    0.359792
  18 O :   -0.551765
  19 C :    1.088843
  20 F :   -0.283097
  21 F :   -0.289299
  22 F :   -0.285941
  23 C :   -0.251031
  24 C :   -0.398129
  25 S :    0.239712
  26 C :   -0.215905
  27 C :   -0.104569
  28 C :   -0.198484
  29 C :    0.320686
  30 N :   -0.511551
  31 C :   -0.336219
  32 C :    0.672198
  33 O :   -0.508946
  34 H :    0.192674
  35 H :    0.183327
  36 H :    0.198438
  37 H :    0.161145
  38 H :    0.220177
  39 H :    0.338585
  40 H :    0.120816
  41 H :    0.135162
  42 H :    0.141838
  43 H :    0.198884
  44 H :    0.180585
  45 H :    0.132170
  46 H :    0.143993
  47 H :    0.142949
  48 H :    0.171539
  49 H :    0.171154
  50 H :    0.225710
Sum of atomic charges:   -0.0000000

LOEWDIN ATOMIC CHARGES
----------------------
   0 C :   -0.258250
   1 N :   -0.020391
   2 C :    0.110296
   3 O :   -0.264809
   4 C :   -0.071375
   5 C :    0.028909
   6 C :   -0.237339
   7 C :    0.155246
   8 O :   -0.222006
   9 N :   -0.212535
  10 C :   -0.079242
  11 N :   -0.150574
  12 C :   -0.000049
  13 C :   -0.010172
  14 C :   -0.136360
  15 C :   -0.122522
  16 C :   -0.144228
  17 C :    0.087657
  18 O :   -0.162483
  19 C :    0.360250
  20 F :   -0.090861
  21 F :   -0.102973
  22 F :   -0.100047
  23 C :   -0.144181
  24 C :   -0.349821
  25 S :    0.380398
  26 C :   -0.164748
  27 C :   -0.102123
  28 C :   -0.165410
  29 C :    0.055390
  30 N :   -0.027608
  31 C :   -0.265244
  32 C :    0.136992
  33 O :   -0.317657
  34 H :    0.151257
  35 H :    0.143856
  36 H :    0.154252
  37 H :    0.139339
  38 H :    0.175059
  39 H :    0.261912
  40 H :    0.129034
  41 H :    0.136300
  42 H :    0.142100
  43 H :    0.163225
  44 H :    0.159473
  45 H :    0.132262
  46 H :    0.140023
  47 H :    0.141198
  48 H :    0.134797
  49 H :    0.134929
  50 H :    0.168850

  Mayer bond orders larger than 0.100000
B(  0-C ,  1-N ) :   0.9151 B(  0-C , 34-H ) :   0.9262 B(  0-C , 35-H ) :   0.9395
B(  0-C , 36-H ) :   0.9232 B(  1-N ,  2-C ) :   0.9913 B(  1-N , 32-C ) :   1.0460
B(  2-C ,  3-O ) :   1.7711 B(  2-C ,  4-C ) :   1.0513 B(  4-C ,  5-C ) :   1.3665
B(  4-C , 29-C ) :   1.2883 B(  5-C ,  6-C ) :   0.9774 B(  5-C , 26-C ) :   1.4192
B(  6-C ,  7-C ) :   0.9540 B(  6-C , 37-H ) :   0.9134 B(  6-C , 38-H ) :   0.8951
B(  7-C ,  8-O ) :   1.8974 B(  7-C ,  9-N ) :   0.9660 B(  9-N , 10-C ) :   0.9577
B(  9-N , 39-H ) :   0.8133 B( 10-C , 11-N ) :   1.5121 B( 10-C , 24-C ) :   0.1080
B( 10-C , 25-S ) :   1.1356 B( 11-N , 12-C ) :   1.2619 B( 12-C , 13-C ) :   1.0520
B( 12-C , 24-C ) :   1.5144 B( 13-C , 14-C ) :   1.4032 B( 13-C , 23-C ) :   1.3892
B( 14-C , 15-C ) :   1.4441 B( 14-C , 40-H ) :   0.9209 B( 15-C , 16-C ) :   1.4407
B( 15-C , 41-H ) :   0.9287 B( 16-C , 17-C ) :   1.4188 B( 16-C , 42-H ) :   0.9196
B( 17-C , 18-O ) :   0.8181 B( 17-C , 23-C ) :   1.3584 B( 18-O , 19-C ) :   0.9850
B( 19-C , 20-F ) :   1.0033 B( 19-C , 21-F ) :   0.9696 B( 19-C , 22-F ) :   0.9748
B( 23-C , 43-H ) :   0.8820 B( 24-C , 25-S ) :   1.1106 B( 24-C , 44-H ) :   0.9016
B( 26-C , 27-C ) :   1.4024 B( 26-C , 45-H ) :   0.9243 B( 27-C , 28-C ) :   1.4741
B( 27-C , 46-H ) :   0.9258 B( 28-C , 29-C ) :   1.3400 B( 28-C , 47-H ) :   0.9140
B( 29-C , 30-N ) :   0.9756 B( 30-N , 31-C ) :   0.9346 B( 30-N , 32-C ) :   1.0384
B( 31-C , 48-H ) :   0.9323 B( 31-C , 49-H ) :   0.9319 B( 31-C , 50-H ) :   0.9133
B( 32-C , 33-O ) :   1.7862

FINAL SINGLE POINT ENERGY     -2065.233127597257

DIPOLE MOMENT
-------------

Method             : SCF
Type of density    : Electron Density
Multiplicity       :   1
Irrep              :   0
Energy             : -2065.2331275972574076 Eh
Relativity type    :
Basis              : AO
                                X                 Y                 Z
Electronic contribution:     35.306383686     -11.626192881       7.544334035
Nuclear contribution   :    -37.518057611      13.180458299      -9.739041172
                        -----------------------------------------
Total Dipole Moment    :     -2.211673925       1.554265417      -2.194707137
                        -----------------------------------------
Magnitude (a.u.)       :      3.481950884
Magnitude (Debye)      :      8.850415793

Rotational constants in cm-1:             0.005431             0.001976             0.001727
Rotational constants in MHz :           162.828139            59.225276            51.760911

                             ****ORCA TERMINATED NORMALLY****
TOTAL RUN TIME: 0 days 0 hours 9 minutes 19 seconds 461 msec
