                         Program Version 6.0.0  -   RELEASE  -
|  1> ! B3LYP 6-31G* SP
|  2>
|  3> * xyz 0 1
|  4> C 6.1196 0.1373 0.2421
|  5> N 4.7420 -0.3073 0.1009
|  6> N 4.3782 -1.5670 -0.0612
|  7> N 3.0568 -1.6286 -0.0839
|  8> C 2.6425 -0.3549 0.0827
|  9> C 1.2234 0.0404 0.1289
| 10> S -0.0504 -1.0504 -0.0134
| 11> C -1.2476 0.1251 0.1346
| 12> C -2.7086 -0.1154 0.1010
| 13> C -3.6050 0.9609 0.2369
| 14> C -4.9856 0.7416 0.2061
| 15> C -5.4866 -0.5511 0.0399
| 16> C -4.6077 -1.6282 -0.0960
| 17> F -5.0955 -2.8830 -0.2573
| 18> C -3.2256 -1.4144 -0.0660
| 19> N -0.6959 1.3498 0.2923
| 20> C 0.6641 1.3170 0.2906
| 21> O 1.3934 2.4953 0.4410
| 22> N 3.6890 0.4834 0.2095
| 23> H 6.7919 -0.5172 -0.3518
| 24> H 6.2202 1.1811 -0.1236
| 25> H 6.4155 0.0935 1.3109
| 26> H -3.2405 1.9722 0.3668
| 27> H -5.6677 1.5755 0.3114
| 28> H -6.5560 -0.7171 0.0166
| 29> H -2.5662 -2.2657 -0.1735
| 30> H 2.4022 2.5273 0.4424
| 31> *
| 32>
| 33>                          ****END OF INPUT****

CARTESIAN COORDINATES (ANGSTROEM)
---------------------------------
  C      6.119600    0.137300    0.242100
  N      4.742000   -0.307300    0.100900
  N      4.378200   -1.567000   -0.061200
  N      3.056800   -1.628600   -0.083900
  C      2.642500   -0.354900    0.082700
  C      1.223400    0.040400    0.128900
  S     -0.050400   -1.050400   -0.013400
  C     -1.247600    0.125100    0.134600
  C     -2.708600   -0.115400    0.101000
  C     -3.605000    0.960900    0.236900
  C     -4.985600    0.741600    0.206100
  C     -5.486600   -0.551100    0.039900
  C     -4.607700   -1.628200   -0.096000
  F     -5.095500   -2.883000   -0.257300
  C     -3.225600   -1.414400   -0.066000
  N     -0.695900    1.349800    0.292300
  C      0.664100    1.317000    0.290600
  O      1.393400    2.495300    0.441000
  N      3.689000    0.483400    0.209500
  H      6.791900   -0.517200   -0.351800
  H      6.220200    1.181100   -0.123600
  H      6.415500    0.093500    1.310900
  H     -3.240500    1.972200    0.366800
  H     -5.667700    1.575500    0.311400
  H     -6.556000   -0.717100    0.016600
  H     -2.566200   -2.265700   -0.173500
  H      2.402200    2.527300    0.442400

 Total Charge           Charge          ....    0
 Multiplicity           Mult            ....    1
 Number of Electrons    NEL             ....  142
 Basis Dimension        Dim             ....  286

ORBITAL ENERGIES
----------------

  NO   OCC          E(Eh)            E(eV)
   0   2.0000     -88.903220     -2419.1796
   1   2.0000     -24.701685      -672.1670
   2   2.0000     -19.171927      -521.6947
   3   2.0000     -14.473150      -393.8344
   4   2.0000     -14.408700      -392.0807
   5   2.0000     -14.383435      -391.3932
   6   2.0000     -14.368981      -390.9999
   7   2.0000     -14.334584      -390.0639
   8   2.0000     -10.289419      -279.9893
   9   2.0000     -10.275290      -279.6049
  10   2.0000     -10.267472      -279.3921
  11   2.0000     -10.260266      -279.1960
  12   2.0000     -10.259519      -279.1757
  13   2.0000     -10.224679      -278.2276
  14   2.0000     -10.218371      -278.0560
  15   2.0000     -10.199209      -277.5346
  16   2.0000     -10.196357      -277.4570
  17   2.0000     -10.194878      -277.4167
  18   2.0000     -10.190411      -277.2952
  19   2.0000      -7.980033      -217.1477
  20   2.0000      -5.942947      -161.7158
  21   2.0000      -5.939002      -161.6085
  22   2.0000      -5.937125      -161.5574
  23   2.0000      -1.214984       -33.0614
  24   2.0000      -1.158389       -31.5214
  25   2.0000      -1.041395       -28.3378
  26   2.0000      -0.964163       -26.2362
  27   2.0000      -0.958974       -26.0950
  28   2.0000      -0.906550       -24.6685
  29   2.0000      -0.866544       -23.5799
  30   2.0000      -0.819416       -22.2974
  31   2.0000      -0.787827       -21.4379
  32   2.0000      -0.771186       -20.9850
  33   2.0000      -0.752510       -20.4768
  34   2.0000      -0.731176       -19.8963
  35   2.0000      -0.675468       -18.3804
  36   2.0000      -0.641669       -17.4607
  37   2.0000      -0.632766       -17.2184
  38   2.0000      -0.621823       -16.9207
  39   2.0000      -0.601114       -16.3571
  40   2.0000      -0.574018       -15.6198
  41   2.0000      -0.543889       -14.8000
  42   2.0000      -0.530947       -14.4478
  43   2.0000      -0.528837       -14.3904
  44   2.0000      -0.524961       -14.2849
  45   2.0000      -0.498410       -13.5624
  46   2.0000      -0.488768       -13.3001
  47   2.0000      -0.460643       -12.5347
  48   2.0000      -0.458069       -12.4647
  49   2.0000      -0.452710       -12.3189
  50   2.0000      -0.450417       -12.2565
  51   2.0000      -0.443586       -12.0706
  52   2.0000      -0.434337       -11.8189
  53   2.0000      -0.431697       -11.7471
  54   2.0000      -0.408919       -11.1273
  55   2.0000      -0.394552       -10.7363
  56   2.0000      -0.391876       -10.6635
  57   2.0000      -0.375849       -10.2274
  58   2.0000      -0.374947       -10.2028
  59   2.0000      -0.354167        -9.6374
  60   2.0000      -0.348340        -9.4788
  61   2.0000      -0.340585        -9.2678
  62   2.0000      -0.329089        -8.9550
  63   2.0000      -0.322832        -8.7847
  64   2.0000      -0.313619        -8.5340
  65   2.0000      -0.298450        -8.1212
  66   2.0000      -0.277268        -7.5448
  67   2.0000      -0.273345        -7.4381
  68   2.0000      -0.266519        -7.2523
  69   2.0000      -0.248499        -6.7620
  70   2.0000      -0.211662        -5.7596
  71   0.0000      -0.064932        -1.7669
  72   0.0000      -0.032973        -0.8972
  73   0.0000      -0.005478        -0.1491
  74   0.0000       0.003522         0.0958
  75   0.0000       0.032910         0.8955

MULLIKEN ATOMIC CHARGES
-----------------------
   0 C :   -0.317265
   1 N :   -0.018688
   2 N :   -0.059092
   3 N :   -0.317499
   4 C :    0.429139
   5 C :   -0.244566
   6 S :    0.301131
   7 C :   -0.015596
   8 C :    0.156322
   9 C :   -0.160665
  10 C :   -0.116962
  11 C :   -0.200693
  12 C :    0.411746
  13 F :   -0.315876
  14 C :   -0.280415
  15 N :   -0.403802
  16 C :    0.493253
  17 O :   -0.654472
  18 N :   -0.359574
  19 H :    0.206845
  20 H :    0.199870
  21 H :    0.199252
  22 H :    0.168776
  23 H :    0.145918
  24 H :    0.147875
  25 H :    0.162172
  26 H :    0.442864
Sum of atomic charges:   -0.0000000

LOEWDIN ATOMIC CHARGES
----------------------
   0 C :   -0.266033
   1 N :    0.091104
   2 N :   -0.065431
   3 N :   -0.119891
   4 C :    0.000299
   5 C :   -0.265563
   6 S :    0.426533
   7 C :   -0.115091
   8 C :   -0.020459
   9 C :   -0.113465
  10 C :   -0.117017
  11 C :   -0.151014
  12 C :    0.119250
  13 F :   -0.101790
  14 C :   -0.153589
  15 N :   -0.160188
  16 C :    0.102052
  17 O :   -0.336063
  18 N :   -0.158550
  19 H :    0.160659
  20 H :    0.156925
  21 H :    0.152044
  22 H :    0.153063
  23 H :    0.140561
  24 H :    0.144895
  25 H :    0.150893
  26 H :    0.345867

  Mayer bond orders larger than 0.100000
B(  0-C ,  1-N ) :   0.9047 B(  0-C , 19-H ) :   0.9294 B(  0-C , 20-H ) :   0.9312
B(  0-C , 21-H ) :   0.9266 B(  1-N ,  2-N ) :   1.2491 B(  1-N , 18-N ) :   1.2224
B(  2-N ,  3-N ) :   1.4310 B(  2-N , 18-N ) :   0.1323 B(  3-N ,  4-C ) :   1.2858
B(  4-C ,  5-C ) :   1.0564 B(  4-C , 18-N ) :   1.3614 B(  5-C ,  6-S ) :   1.0827
B(  5-C ,  7-C ) :   0.1217 B(  5-C , 16-C ) :   1.3783 B(  6-S ,  7-C ) :   1.1527
B(  7-C ,  8-C ) :   1.0249 B(  7-C , 15-N ) :   1.4327 B(  8-C ,  9-C ) :   1.4098
B(  8-C , 14-C ) :   1.3571 B(  9-C , 10-C ) :   1.4336 B(  9-C , 22-H ) :   0.9101
B( 10-C , 11-C ) :   1.4226 B( 10-C , 23-H ) :   0.9287 B( 11-C , 12-C ) :   1.3881
B( 11-C , 24-H ) :   0.9204 B( 12-C , 13-F ) :   0.9144 B( 12-C , 14-C ) :   1.3926
B( 14-C , 25-H ) :   0.9066 B( 15-N , 16-C ) :   1.3205 B( 16-C , 17-O ) :   1.0124
B( 17-O , 26-H ) :   0.7188

FINAL SINGLE POINT ENERGY     -1270.379502374782

DIPOLE MOMENT
-------------

Method             : SCF
Type of density    : Electron Density
Multiplicity       :   1
Irrep              :   0
Energy             : -1270.3795023747823052 Eh
Relativity type    :
Basis              : AO
                                X                 Y                 Z
Electronic contribution:     -8.046254151      -7.435455976      -1.200780900
Nuclear contribution   :      9.403656628       8.170173754       1.327514493
                        -----------------------------------------
Total Dipole Moment    :      1.357402478       0.734717778       0.126733592
                        -----------------------------------------
Magnitude (a.u.)       :      1.548681085
Magnitude (Debye)      :      3.936434485

Rotational constants in cm-1:             0.035111             0.004761             0.004196
Rotational constants in MHz :          1052.593126           142.735492           125.800485

                             ****ORCA TERMINATED NORMALLY****
TOTAL RUN TIME: 0 days 0 hours 3 minutes 5 seconds 368 msec
