                         Program Version 6.0.0  -   RELEASE  -
|  1> ! B3LYP 6-31G* SP
|  2>
|  3> * xyz 0 1
|  4> O 1.7150 0.9181 -1.2273
|  5> C 1.2519 -0.0757 -0.6032
|  6> N 1.9419 -1.3334 -0.6393
|  7> C 3.2373 -1.4982 -1.2944
|  8> C 4.3184 -0.8369 -0.4838
|  9> C 4.9138 0.3574 -0.9233
| 10> C 5.9017 0.9770 -0.1514
| 11> C 6.2987 0.4120 1.0642
| 12> F 7.2560 1.0149 1.8115
| 13> C 5.7066 -0.7731 1.5103
| 14> C 4.7183 -1.3955 0.7414
| 15> C -0.0590 0.0434 0.1267
| 16> C -1.2374 -0.1656 -0.8565
| 17> C -2.5135 0.2175 -0.1794
| 18> C -2.5694 1.0036 0.9526
| 19> N -3.8472 1.2419 1.3246
| 20> C -4.6035 0.6249 0.3944
| 21> C -5.9953 0.5922 0.3231
| 22> C -6.5830 -0.1068 -0.7479
| 23> C -5.7765 -0.7498 -1.7142
| 24> C -4.3736 -0.7026 -1.6191
| 25> C -3.8213 -0.0061 -0.5462
| 26> C -1.3370 1.4336 1.6898
| 27> N -0.1498 1.3536 0.8143
| 28> H 1.5041 -2.1685 -0.1888
| 29> H 3.4678 -2.5819 -1.3854
| 30> H 3.1920 -1.0875 -2.3267
| 31> H 4.6131 0.8097 -1.8601
| 32> H 6.3576 1.8963 -0.4957
| 33> H 6.0111 -1.2093 2.4530
| 34> H 4.2626 -2.3103 1.1000
| 35> H -0.0963 -0.7616 0.8959
| 36> H -1.2840 -1.2297 -1.1738
| 37> H -1.1099 0.4751 -1.7560
| 38> H -4.1755 1.7881 2.1520
| 39> H -6.6057 1.0902 1.0653
| 40> H -7.6610 -0.1507 -0.8328
| 41> H -6.2413 -1.2828 -2.5335
| 42> H -3.7476 -1.1922 -2.3539
| 43> H -1.4647 2.4772 2.0491
| 44> H -1.1924 0.7774 2.5744
| 45> H -0.2230 2.1143 0.0968
| 46> *
| 47>
| 48>                          ****END OF INPUT****

CARTESIAN COORDINATES (ANGSTROEM)
---------------------------------
  O      1.715000    0.918100   -1.227300
  C      1.251900   -0.075700   -0.603200
  N      1.941900   -1.333400   -0.639300
  C      3.237300   -1.498200   -1.294400
  C      4.318400   -0.836900   -0.483800
  C      4.913800    0.357400   -0.923300
  C      5.901700    0.977000   -0.151400
  C      6.298700    0.412000    1.064200
  F      7.256000    1.014900    1.811500
  C      5.706600   -0.773100    1.510300
  C      4.718300   -1.395500    0.741400
  C     -0.059000    0.043400    0.126700
  C     -1.237400   -0.165600   -0.856500
  C     -2.513500    0.217500   -0.179400
  C     -2.569400    1.003600    0.952600
  N     -3.847200    1.241900    1.324600
  C     -4.603500    0.624900    0.394400
  C     -5.995300    0.592200    0.323100
  C     -6.583000   -0.106800   -0.747900
  C     -5.776500   -0.749800   -1.714200
  C     -4.373600   -0.702600   -1.619100
  C     -3.821300   -0.006100   -0.546200
  C     -1.337000    1.433600    1.689800
  N     -0.149800    1.353600    0.814300
  H      1.504100   -2.168500   -0.188800
  H      3.467800   -2.581900   -1.385400
  H      3.192000   -1.087500   -2.326700
  H      4.613100    0.809700   -1.860100
  H      6.357600    1.896300   -0.495700
  H      6.011100   -1.209300    2.453000
  H      4.262600   -2.310300    1.100000
  H     -0.096300   -0.761600    0.895900
  H     -1.284000   -1.229700   -1.173800
  H     -1.109900    0.475100   -1.756000
  H     -4.175500    1.788100    2.152000
  H     -6.605700    1.090200    1.065300
  H     -7.661000   -0.150700   -0.832800
  H     -6.241300   -1.282800   -2.533500
  H     -3.747600   -1.192200   -2.353900
  H     -1.464700    2.477200    2.049100
  H     -1.192400    0.777400    2.574400
  H     -0.223000    2.114300    0.096800

 Total Charge           Charge          ....    0
 Multiplicity           Mult            ....    1
 Number of Electrons    NEL             ....  170
 Basis Dimension        Dim             ....  372

ORBITAL ENERGIES
----------------

  NO   OCC          E(Eh)            E(eV)
   0   2.0000     -24.690350      -671.8586
   1   2.0000     -19.107230      -519.9342
   2   2.0000     -14.373115      -391.1124
   3   2.0000     -14.357627      -390.6909
   4   2.0000     -14.316923      -389.5833
   5   2.0000     -10.283849      -279.8377
   6   2.0000     -10.260396      -279.1996
   7   2.0000     -10.223216      -278.1878
   8   2.0000     -10.222808      -278.1768
   9   2.0000     -10.215204      -277.9698
  10   2.0000     -10.202420      -277.6220
  11   2.0000     -10.198523      -277.5159
  12   2.0000     -10.186245      -277.1818
  13   2.0000     -10.185163      -277.1524
  14   2.0000     -10.184893      -277.1450
  15   2.0000     -10.183314      -277.1021
  16   2.0000     -10.181102      -277.0419
  17   2.0000     -10.180080      -277.0141
  18   2.0000     -10.172379      -276.8045
  19   2.0000     -10.168273      -276.6928
  20   2.0000     -10.167299      -276.6663
  21   2.0000     -10.165766      -276.6245
  22   2.0000     -10.158270      -276.4206
  23   2.0000     -10.156575      -276.3745
  24   2.0000      -1.203442       -32.7473
  25   2.0000      -1.007260       -27.4089
  26   2.0000      -0.994050       -27.0495
  27   2.0000      -0.906111       -24.6565
  28   2.0000      -0.904639       -24.6165
  29   2.0000      -0.848853       -23.0985
  30   2.0000      -0.832835       -22.6626
  31   2.0000      -0.793770       -21.5996
  32   2.0000      -0.770519       -20.9669
  33   2.0000      -0.752435       -20.4748
  34   2.0000      -0.745342       -20.2818
  35   2.0000      -0.730627       -19.8814
  36   2.0000      -0.717484       -19.5237
  37   2.0000      -0.685214       -18.6456
  38   2.0000      -0.661009       -17.9870
  39   2.0000      -0.639481       -17.4012
  40   2.0000      -0.614630       -16.7249
  41   2.0000      -0.600853       -16.3500
  42   2.0000      -0.589347       -16.0370
  43   2.0000      -0.575794       -15.6682
  44   2.0000      -0.561727       -15.2854
  45   2.0000      -0.555542       -15.1171
  46   2.0000      -0.532267       -14.4837
  47   2.0000      -0.530961       -14.4482
  48   2.0000      -0.519678       -14.1411
  49   2.0000      -0.483735       -13.1631
  50   2.0000      -0.483004       -13.1432
  51   2.0000      -0.480244       -13.0681
  52   2.0000      -0.469874       -12.7859
  53   2.0000      -0.458303       -12.4711
  54   2.0000      -0.446753       -12.1568
  55   2.0000      -0.445207       -12.1147
  56   2.0000      -0.442298       -12.0355
  57   2.0000      -0.439029       -11.9466
  58   2.0000      -0.437086       -11.8937
  59   2.0000      -0.425161       -11.5692
  60   2.0000      -0.423573       -11.5260
  61   2.0000      -0.417650       -11.3648
  62   2.0000      -0.409086       -11.1318
  63   2.0000      -0.402437       -10.9509
  64   2.0000      -0.398896       -10.8545
  65   2.0000      -0.389282       -10.5929
  66   2.0000      -0.383527       -10.4363
  67   2.0000      -0.374670       -10.1953
  68   2.0000      -0.365330        -9.9411
  69   2.0000      -0.363326        -9.8866
  70   2.0000      -0.359448        -9.7811
  71   2.0000      -0.345836        -9.4107
  72   2.0000      -0.341890        -9.3033
  73   2.0000      -0.335533        -9.1303
  74   2.0000      -0.333903        -9.0860
  75   2.0000      -0.324628        -8.8336
  76   2.0000      -0.320726        -8.7274
  77   2.0000      -0.265578        -7.2267
  78   2.0000      -0.253665        -6.9026
  79   2.0000      -0.250465        -6.8155
  80   2.0000      -0.242996        -6.6123
  81   2.0000      -0.226530        -6.1642
  82   2.0000      -0.222446        -6.0531
  83   2.0000      -0.213686        -5.8147
  84   2.0000      -0.185784        -5.0554
  85   0.0000      -0.001692        -0.0460
  86   0.0000      -0.001341        -0.0365
  87   0.0000       0.005113         0.1391
  88   0.0000       0.016041         0.4365
  89   0.0000       0.037462         1.0194

MULLIKEN ATOMIC CHARGES
-----------------------
   0 O :   -0.494130
   1 C :    0.595384
   2 N :   -0.602618
   3 C :   -0.226176
   4 C :    0.169860
   5 C :   -0.136847
   6 C :   -0.211120
   7 C :    0.408689
   8 F :   -0.320704
   9 C :   -0.208870
  10 C :   -0.153350
  11 C :   -0.066872
  12 C :   -0.344019
  13 C :    0.045816
  14 C :    0.235032
  15 N :   -0.687624
  16 C :    0.307100
  17 C :   -0.196622
  18 C :   -0.143235
  19 C :   -0.150431
  20 C :   -0.202908
  21 C :    0.099468
  22 C :   -0.221901
  23 N :   -0.512898
  24 H :    0.319201
  25 H :    0.150495
  26 H :    0.170872
  27 H :    0.149592
  28 H :    0.142616
  29 H :    0.138787
  30 H :    0.119024
  31 H :    0.131555
  32 H :    0.133407
  33 H :    0.162786
  34 H :    0.330120
  35 H :    0.112129
  36 H :    0.116985
  37 H :    0.115743
  38 H :    0.118560
  39 H :    0.143068
  40 H :    0.154898
  41 H :    0.309138
Sum of atomic charges:   -0.0000000

LOEWDIN ATOMIC CHARGES
----------------------
   0 O :   -0.293777
   1 C :    0.152670
   2 N :   -0.241292
   3 C :   -0.149443
   4 C :   -0.035161
   5 C :   -0.108716
   6 C :   -0.157069
   7 C :    0.114838
   8 F :   -0.106804
   9 C :   -0.159839
  10 C :   -0.122350
  11 C :   -0.081232
  12 C :   -0.222232
  13 C :   -0.091356
  14 C :   -0.024870
  15 N :   -0.118653
  16 C :    0.008741
  17 C :   -0.155971
  18 C :   -0.146469
  19 C :   -0.146214
  20 C :   -0.139510
  21 C :   -0.042718
  22 C :   -0.166397
  23 N :   -0.286130
  24 H :    0.247346
  25 H :    0.131454
  26 H :    0.137490
  27 H :    0.143422
  28 H :    0.142426
  29 H :    0.140357
  30 H :    0.128124
  31 H :    0.122910
  32 H :    0.124238
  33 H :    0.136404
  34 H :    0.266376
  35 H :    0.125113
  36 H :    0.127479
  37 H :    0.126038
  38 H :    0.129108
  39 H :    0.126663
  40 H :    0.127284
  41 H :    0.237722

  Mayer bond orders larger than 0.100000
B(  0-O ,  1-C ) :   1.8223 B(  1-C ,  2-N ) :   1.0599 B(  1-C , 11-C ) :   0.9271
B(  2-N ,  3-C ) :   0.9376 B(  2-N , 24-H ) :   0.8330 B(  3-C ,  4-C ) :   0.9568
B(  3-C , 25-H ) :   0.9353 B(  3-C , 26-H ) :   0.9240 B(  4-C ,  5-C ) :   1.4503
B(  4-C , 10-C ) :   1.4198 B(  5-C ,  6-C ) :   1.4137 B(  5-C , 27-H ) :   0.9180
B(  6-C ,  7-C ) :   1.3963 B(  6-C , 28-H ) :   0.9212 B(  7-C ,  8-F ) :   0.9153
B(  7-C ,  9-C ) :   1.3904 B(  9-C , 10-C ) :   1.4308 B(  9-C , 29-H ) :   0.9217
B( 10-C , 30-H ) :   0.9279 B( 11-C , 12-C ) :   0.9644 B( 11-C , 23-N ) :   0.9989
B( 11-C , 31-H ) :   0.9173 B( 12-C , 13-C ) :   0.9874 B( 12-C , 32-H ) :   0.9185
B( 12-C , 33-H ) :   0.9152 B( 13-C , 14-C ) :   1.5468 B( 13-C , 21-C ) :   1.2735
B( 14-C , 15-N ) :   1.0353 B( 14-C , 22-C ) :   0.9468 B( 15-N , 16-C ) :   0.9984
B( 15-N , 34-H ) :   0.8385 B( 16-C , 17-C ) :   1.3614 B( 16-C , 21-C ) :   1.3054
B( 17-C , 18-C ) :   1.4696 B( 17-C , 20-C ) :   0.1016 B( 17-C , 35-H ) :   0.9239
B( 18-C , 19-C ) :   1.3881 B( 18-C , 36-H ) :   0.9324 B( 19-C , 20-C ) :   1.4606
B( 19-C , 37-H ) :   0.9324 B( 20-C , 21-C ) :   1.3501 B( 20-C , 38-H ) :   0.9255
B( 22-C , 23-N ) :   1.0179 B( 22-C , 39-H ) :   0.9325 B( 22-C , 40-H ) :   0.9221
B( 23-N , 41-H ) :   0.8327

FINAL SINGLE POINT ENERGY     -1073.514832561453

DIPOLE MOMENT
-------------

Method             : SCF
Type of density    : Electron Density
Multiplicity       :   1
Irrep              :   0
Energy             : -1073.5148325614525220 Eh
Relativity type    :
Basis              : AO
                                X                 Y                 Z
Electronic contribution:     14.967432815       4.499160489       4.988151005
Nuclear contribution   :    -15.863424738      -5.350540809      -4.320521434
                        -----------------------------------------
Total Dipole Moment    :     -0.895991923      -0.851380320       0.667629571
                        -----------------------------------------
Magnitude (a.u.)       :      1.404770166
Magnitude (Debye)      :      3.570642000

Rotational constants in cm-1:             0.025840             0.002719             0.002572
Rotational constants in MHz :           774.655015            81.517991            77.117890

                             ****ORCA TERMINATED NORMALLY****
TOTAL RUN TIME: 0 days 0 hours 5 minutes 5 seconds 133 msec
