                         Program Version 6.0.0  -   RELEASE  -
|  1> ! B3LYP 6-31G* SP
|  2>
|  3> * xyz 0 1
|  4> O 2.5933 0.4113 2.4696
|  5> C 2.1787 0.2582 1.2892
|  6> C 0.7639 -0.1063 1.0700
|  7> S -0.2168 0.4932 -0.1598
|  8> C -1.6051 -0.2906 0.3864
|  9> C -2.9432 -0.2244 -0.2447
| 10> C -3.1571 0.5338 -1.4115
| 11> C -4.4254 0.5878 -1.9979
| 12> C -5.4917 -0.1117 -1.4291
| 13> C -5.2924 -0.8677 -0.2716
| 14> F -6.3284 -1.5467 0.2799
| 15> C -4.0258 -0.9252 0.3190
| 16> N -1.3416 -1.0029 1.5058
| 17> C -0.0407 -0.9055 1.8905
| 18> O 0.4208 -1.5882 3.0143
| 19> N 3.0891 0.4619 0.1930
| 20> C 4.4489 0.8884 0.3608
| 21> C 5.0134 0.8055 -1.0418
| 22> O 4.1157 0.0757 -1.8518
| 23> C 2.8791 0.0300 -1.1742
| 24> H -2.3490 1.0853 -1.8737
| 25> H -4.5813 1.1731 -2.8950
| 26> H -6.4719 -0.0674 -1.8861
| 27> H -3.8938 -1.5174 1.2160
| 28> H 1.3961 -1.5951 3.2822
| 29> H 4.9849 0.1939 1.0442
| 30> H 4.4854 1.9286 0.7509
| 31> H 5.1368 1.8256 -1.4663
| 32> H 6.0029 0.3007 -1.0341
| 33> H 2.1623 0.7079 -1.6823
| 34> H 2.4928 -1.0114 -1.1903
| 35> *
| 36>
| 37>                          ****END OF INPUT****

CARTESIAN COORDINATES (ANGSTROEM)
---------------------------------
  O      2.593300    0.411300    2.469600
  C      2.178700    0.258200    1.289200
  C      0.763900   -0.106300    1.070000
  S     -0.216800    0.493200   -0.159800
  C     -1.605100   -0.290600    0.386400
  C     -2.943200   -0.224400   -0.244700
  C     -3.157100    0.533800   -1.411500
  C     -4.425400    0.587800   -1.997900
  C     -5.491700   -0.111700   -1.429100
  C     -5.292400   -0.867700   -0.271600
  F     -6.328400   -1.546700    0.279900
  C     -4.025800   -0.925200    0.319000
  N     -1.341600   -1.002900    1.505800
  C     -0.040700   -0.905500    1.890500
  O      0.420800   -1.588200    3.014300
  N      3.089100    0.461900    0.193000
  C      4.448900    0.888400    0.360800
  C      5.013400    0.805500   -1.041800
  O      4.115700    0.075700   -1.851800
  C      2.879100    0.030000   -1.174200
  H     -2.349000    1.085300   -1.873700
  H     -4.581300    1.173100   -2.895000
  H     -6.471900   -0.067400   -1.886100
  H     -3.893800   -1.517400    1.216000
  H      1.396100   -1.595100    3.282200
  H      4.984900    0.193900    1.044200
  H      4.485400    1.928600    0.750900
  H      5.136800    1.825600   -1.466300
  H      6.002900    0.300700   -1.034100
  H      2.162300    0.707900   -1.682300
  H      2.492800   -1.011400   -1.190300

 Total Charge           Charge          ....    0
 Multiplicity           Mult            ....    1
 Number of Electrons    NEL             ....  152
 Basis Dimension        Dim             ....  306

ORBITAL ENERGIES
----------------

  NO   OCC          E(Eh)            E(eV)
   0   2.0000     -88.911792     -2419.4129
   1   2.0000     -24.705272      -672.2646
   2   2.0000     -19.174829      -521.7736
   3   2.0000     -19.164384      -521.4894
   4   2.0000     -19.124540      -520.4052
   5   2.0000     -14.370421      -391.0390
   6   2.0000     -14.341813      -390.2606
   7   2.0000     -10.312438      -280.6157
   8   2.0000     -10.296527      -280.1827
   9   2.0000     -10.279011      -279.7061
  10   2.0000     -10.274592      -279.5859
  11   2.0000     -10.270402      -279.4718
  12   2.0000     -10.242907      -278.7237
  13   2.0000     -10.227230      -278.2971
  14   2.0000     -10.225497      -278.2499
  15   2.0000     -10.225045      -278.2376
  16   2.0000     -10.204300      -277.6731
  17   2.0000     -10.202925      -277.6357
  18   2.0000     -10.201040      -277.5844
  19   2.0000     -10.199976      -277.5555
  20   2.0000      -7.989039      -217.3928
  21   2.0000      -5.951923      -161.9600
  22   2.0000      -5.947955      -161.8521
  23   2.0000      -5.946185      -161.8039
  24   2.0000      -1.217899       -33.1407
  25   2.0000      -1.075911       -29.2770
  26   2.0000      -1.046073       -28.4651
  27   2.0000      -1.023556       -27.8524
  28   2.0000      -0.970173       -26.3997
  29   2.0000      -0.927629       -25.2421
  30   2.0000      -0.872902       -23.7529
  31   2.0000      -0.827474       -22.5167
  32   2.0000      -0.793334       -21.5877
  33   2.0000      -0.780358       -21.2346
  34   2.0000      -0.759322       -20.6622
  35   2.0000      -0.737867       -20.0784
  36   2.0000      -0.689802       -18.7705
  37   2.0000      -0.650413       -17.6986
  38   2.0000      -0.639647       -17.4057
  39   2.0000      -0.630723       -17.1628
  40   2.0000      -0.612782       -16.6747
  41   2.0000      -0.586896       -15.9703
  42   2.0000      -0.580737       -15.8027
  43   2.0000      -0.545922       -14.8553
  44   2.0000      -0.532622       -14.4934
  45   2.0000      -0.525430       -14.2977
  46   2.0000      -0.511063       -13.9067
  47   2.0000      -0.504654       -13.7323
  48   2.0000      -0.479967       -13.0606
  49   2.0000      -0.469322       -12.7709
  50   2.0000      -0.461213       -12.5502
  51   2.0000      -0.458149       -12.4669
  52   2.0000      -0.451630       -12.2895
  53   2.0000      -0.447840       -12.1863
  54   2.0000      -0.443218       -12.0606
  55   2.0000      -0.440060       -11.9746
  56   2.0000      -0.425373       -11.5750
  57   2.0000      -0.423404       -11.5214
  58   2.0000      -0.413678       -11.2568
  59   2.0000      -0.401665       -10.9299
  60   2.0000      -0.398739       -10.8502
  61   2.0000      -0.385347       -10.4858
  62   2.0000      -0.381728       -10.3874
  63   2.0000      -0.370537       -10.0828
  64   2.0000      -0.357214        -9.7203
  65   2.0000      -0.353515        -9.6196
  66   2.0000      -0.350800        -9.5458
  67   2.0000      -0.343744        -9.3537
  68   2.0000      -0.298507        -8.1228
  69   2.0000      -0.283941        -7.7264
  70   2.0000      -0.271788        -7.3957
  71   2.0000      -0.269684        -7.3385
  72   2.0000      -0.265552        -7.2261
  73   2.0000      -0.256178        -6.9710
  74   2.0000      -0.243875        -6.6362
  75   2.0000      -0.222242        -6.0475
  76   0.0000      -0.073661        -2.0044
  77   0.0000      -0.018509        -0.5036
  78   0.0000      -0.009664        -0.2630
  79   0.0000       0.022068         0.6005
  80   0.0000       0.030585         0.8323

MULLIKEN ATOMIC CHARGES
-----------------------
   0 O :   -0.484709
   1 C :    0.510169
   2 C :   -0.287128
   3 S :    0.280471
   4 C :   -0.015091
   5 C :    0.155368
   6 C :   -0.196278
   7 C :   -0.121334
   8 C :   -0.198785
   9 C :    0.420451
  10 F :   -0.313980
  11 C :   -0.243990
  12 N :   -0.398666
  13 C :    0.516817
  14 O :   -0.638598
  15 N :   -0.470167
  16 C :   -0.129343
  17 C :   -0.040683
  18 O :   -0.475265
  19 C :    0.130426
  20 H :    0.148981
  21 H :    0.146343
  22 H :    0.150552
  23 H :    0.182905
  24 H :    0.440780
  25 H :    0.166893
  26 H :    0.168690
  27 H :    0.139387
  28 H :    0.152884
  29 H :    0.147655
  30 H :    0.155246
Sum of atomic charges:   -0.0000000

LOEWDIN ATOMIC CHARGES
----------------------
   0 O :   -0.290867
   1 C :    0.135868
   2 C :   -0.292716
   3 S :    0.399388
   4 C :   -0.108032
   5 C :   -0.022029
   6 C :   -0.132329
   7 C :   -0.117430
   8 C :   -0.148060
   9 C :    0.120863
  10 F :   -0.099366
  11 C :   -0.132214
  12 N :   -0.155682
  13 C :    0.116609
  14 O :   -0.326477
  15 N :   -0.114922
  16 C :   -0.159827
  17 C :   -0.095175
  18 O :   -0.225216
  19 C :   -0.029653
  20 H :    0.140603
  21 H :    0.140734
  22 H :    0.146121
  23 H :    0.163506
  24 H :    0.351188
  25 H :    0.131133
  26 H :    0.135450
  27 H :    0.112035
  28 H :    0.125805
  29 H :    0.109584
  30 H :    0.121108

  Mayer bond orders larger than 0.100000
B(  0-O ,  1-C ) :   1.7827 B(  1-C ,  2-C ) :   0.9766 B(  1-C , 15-N ) :   1.0616
B(  2-C ,  3-S ) :   1.0674 B(  2-C ,  4-C ) :   0.1192 B(  2-C , 13-C ) :   1.3872
B(  3-S ,  4-C ) :   1.1535 B(  4-C ,  5-C ) :   1.0272 B(  4-C , 12-N ) :   1.4356
B(  5-C ,  6-C ) :   1.3920 B(  5-C , 11-C ) :   1.3758 B(  6-C ,  7-C ) :   1.4480
B(  6-C , 20-H ) :   0.9158 B(  7-C ,  8-C ) :   1.4270 B(  7-C , 21-H ) :   0.9280
B(  8-C ,  9-C ) :   1.3853 B(  8-C , 22-H ) :   0.9200 B(  9-C , 10-F ) :   0.9139
B(  9-C , 11-C ) :   1.3724 B( 11-C , 23-H ) :   0.9013 B( 12-N , 13-C ) :   1.3183
B( 13-C , 14-O ) :   1.0345 B( 14-O , 24-H ) :   0.7288 B( 15-N , 16-C ) :   0.9456
B( 15-N , 19-C ) :   0.9257 B( 16-C , 17-C ) :   0.9759 B( 16-C , 25-H ) :   0.9282
B( 16-C , 26-H ) :   0.9301 B( 17-C , 18-O ) :   0.9357 B( 17-C , 27-H ) :   0.9302
B( 17-C , 28-H ) :   0.9377 B( 18-O , 19-C ) :   0.9510 B( 19-C , 29-H ) :   0.9091
B( 19-C , 30-H ) :   0.9204

FINAL SINGLE POINT ENERGY     -1334.575663815660

DIPOLE MOMENT
-------------

Method             : SCF
Type of density    : Electron Density
Multiplicity       :   1
Irrep              :   0
Energy             : -1334.5756638156601639 Eh
Relativity type    :
Basis              : AO
                                X                 Y                 Z
Electronic contribution:    -17.965505634      -4.883561813       5.779738421
Nuclear contribution   :     18.601956357       5.505682125      -7.147520811
                        -----------------------------------------
Total Dipole Moment    :      0.636450723       0.622120312      -1.367782390
                        -----------------------------------------
Magnitude (a.u.)       :      1.631849218
Magnitude (Debye)      :      4.147831079

Rotational constants in cm-1:             0.024361             0.004583             0.003991
Rotational constants in MHz :           730.327856           137.389438           119.652685

                             ****ORCA TERMINATED NORMALLY****
TOTAL RUN TIME: 0 days 0 hours 3 minutes 33 seconds 325 msec
