                         Program Version 6.0.0  -   RELEASE  -
|  1> ! B3LYP 6-31G* SP
|  2>
|  3> * xyz 0 1
|  4> O 6.2777 0.8334 2.3768
|  5> C 6.0464 0.5292 1.1753
|  6> O 7.0265 0.7597 0.2133
|  7> C 4.7481 -0.0660 0.7896
|  8> C 4.4905 -0.4002 -0.5512
|  9> C 3.2624 -0.9573 -0.9190
| 10> C 2.2779 -1.1957 0.0469
| 11> S 0.7118 -1.8380 -0.4383
| 12> O 0.9260 -2.9323 -1.4467
| 13> O -0.0102 -2.4048 0.7522
| 14> N -0.2290 -0.5580 -1.1370
| 15> C -1.3298 -0.8724 -2.0490
| 16> C -2.5524 -1.2695 -1.2682
| 17> C -2.8109 -2.6200 -0.9919
| 18> C -3.9225 -2.9838 -0.2267
| 19> C -4.8008 -2.0031 0.2657
| 20> C -5.9695 -2.3934 1.1350
| 21> F -5.5582 -2.4455 2.4538
| 22> F -6.9959 -1.4718 1.0189
| 23> F -6.4589 -3.6345 0.7657
| 24> C -4.5181 -0.6488 0.0173
| 25> C -3.4064 -0.2859 -0.7481
| 26> C -0.1271 0.7496 -0.5628
| 27> N -0.4640 0.9335 0.7421
| 28> C -0.3637 2.1442 1.3498
| 29> C 0.1204 3.2543 0.6406
| 30> C 0.1899 4.6118 1.2920
| 31> F 0.4572 4.4899 2.6445
| 32> F -1.0213 5.2574 1.1283
| 33> F 1.1908 5.3784 0.7205
| 34> C 0.4578 3.0876 -0.7117
| 35> C 0.3486 1.8330 -1.3167
| 36> Cl 0.8579 1.6328 -2.9874
| 37> C 2.5242 -0.8579 1.3834
| 38> C 3.7510 -0.2998 1.7539
| 39> H 7.9175 1.1698 0.4664
| 40> H 5.2346 -0.2265 -1.3181
| 41> H 3.0755 -1.1935 -1.9593
| 42> H -1.5638 0.0076 -2.6865
| 43> H -1.0267 -1.6877 -2.7400
| 44> H -2.1455 -3.3914 -1.3595
| 45> H -4.0920 -4.0320 -0.0145
| 46> H -5.1534 0.1301 0.4198
| 47> H -3.2051 0.7633 -0.9267
| 48> H -0.6616 2.2377 2.3859
| 49> H 0.8133 3.9278 -1.2952
| 50> H 1.7646 -1.0145 2.1383
| 51> H 3.9161 -0.0467 2.7936
| 52> *
| 53>
| 54>                          ****END OF INPUT****

CARTESIAN COORDINATES (ANGSTROEM)
---------------------------------
  O      6.277700    0.833400    2.376800
  C      6.046400    0.529200    1.175300
  O      7.026500    0.759700    0.213300
  C      4.748100   -0.066000    0.789600
  C      4.490500   -0.400200   -0.551200
  C      3.262400   -0.957300   -0.919000
  C      2.277900   -1.195700    0.046900
  S      0.711800   -1.838000   -0.438300
  O      0.926000   -2.932300   -1.446700
  O     -0.010200   -2.404800    0.752200
  N     -0.229000   -0.558000   -1.137000
  C     -1.329800   -0.872400   -2.049000
  C     -2.552400   -1.269500   -1.268200
  C     -2.810900   -2.620000   -0.991900
  C     -3.922500   -2.983800   -0.226700
  C     -4.800800   -2.003100    0.265700
  C     -5.969500   -2.393400    1.135000
  F     -5.558200   -2.445500    2.453800
  F     -6.995900   -1.471800    1.018900
  F     -6.458900   -3.634500    0.765700
  C     -4.518100   -0.648800    0.017300
  C     -3.406400   -0.285900   -0.748100
  C     -0.127100    0.749600   -0.562800
  N     -0.464000    0.933500    0.742100
  C     -0.363700    2.144200    1.349800
  C      0.120400    3.254300    0.640600
  C      0.189900    4.611800    1.292000
  F      0.457200    4.489900    2.644500
  F     -1.021300    5.257400    1.128300
  F      1.190800    5.378400    0.720500
  C      0.457800    3.087600   -0.711700
  C      0.348600    1.833000   -1.316700
  Cl     0.857900    1.632800   -2.987400
  C      2.524200   -0.857900    1.383400
  C      3.751000   -0.299800    1.753900
  H      7.917500    1.169800    0.466400
  H      5.234600   -0.226500   -1.318100
  H      3.075500   -1.193500   -1.959300
  H     -1.563800    0.007600   -2.686500
  H     -1.026700   -1.687700   -2.740000
  H     -2.145500   -3.391400   -1.359500
  H     -4.092000   -4.032000   -0.014500
  H     -5.153400    0.130100    0.419800
  H     -3.205100    0.763300   -0.926700
  H     -0.661600    2.237700    2.385900
  H      0.813300    3.927800   -1.295200
  H      1.764600   -1.014500    2.138300
  H      3.916100   -0.046700    2.793600

 Total Charge           Charge          ....    0
 Multiplicity           Mult            ....    1
 Number of Electrons    NEL             ....  272
 Basis Dimension        Dim             ....  524

ORBITAL ENERGIES
----------------

  NO   OCC          E(Eh)            E(eV)
   0   2.0000    -101.564664     -2763.7150
   1   2.0000     -89.109178     -2424.7840
   2   2.0000     -24.743044      -673.2925
   3   2.0000     -24.742721      -673.2837
   4   2.0000     -24.739117      -673.1856
   5   2.0000     -24.712663      -672.4658
   6   2.0000     -24.711828      -672.4430
   7   2.0000     -24.707493      -672.3251
   8   2.0000     -19.203148      -522.5442
   9   2.0000     -19.145543      -520.9767
  10   2.0000     -19.138513      -520.7854
  11   2.0000     -19.127625      -520.4891
  12   2.0000     -14.389787      -391.5660
  13   2.0000     -14.373176      -391.1140
  14   2.0000     -10.461652      -284.6760
  15   2.0000     -10.426909      -283.7306
  16   2.0000     -10.342841      -281.4430
  17   2.0000     -10.307933      -280.4931
  18   2.0000     -10.292505      -280.0733
  19   2.0000     -10.266151      -279.3562
  20   2.0000     -10.252529      -278.9855
  21   2.0000     -10.252460      -278.9836
  22   2.0000     -10.251788      -278.9653
  23   2.0000     -10.244836      -278.7762
  24   2.0000     -10.241396      -278.6825
  25   2.0000     -10.230199      -278.3779
  26   2.0000     -10.228432      -278.3298
  27   2.0000     -10.225783      -278.2577
  28   2.0000     -10.225078      -278.2385
  29   2.0000     -10.206754      -277.7399
  30   2.0000     -10.201235      -277.5897
  31   2.0000     -10.197274      -277.4819
  32   2.0000     -10.194813      -277.4150
  33   2.0000     -10.194401      -277.4038
  34   2.0000     -10.189695      -277.2757
  35   2.0000      -9.495876      -258.3959
  36   2.0000      -8.145139      -221.6405
  37   2.0000      -7.259184      -197.5324
  38   2.0000      -7.249514      -197.2693
  39   2.0000      -7.248957      -197.2541
  40   2.0000      -6.110467      -166.2743
  41   2.0000      -6.108089      -166.2095
  42   2.0000      -6.107483      -166.1930
  43   2.0000      -1.302617       -35.4460
  44   2.0000      -1.271648       -34.6033
  45   2.0000      -1.227938       -33.4139
  46   2.0000      -1.226502       -33.3748
  47   2.0000      -1.197655       -32.5898
  48   2.0000      -1.195458       -32.5301
  49   2.0000      -1.093586       -29.7580
  50   2.0000      -1.087920       -29.6038
  51   2.0000      -1.002277       -27.2733
  52   2.0000      -0.999276       -27.1917
  53   2.0000      -0.969964       -26.3941
  54   2.0000      -0.941279       -25.6135
  55   2.0000      -0.905109       -24.6293
  56   2.0000      -0.899497       -24.4766
  57   2.0000      -0.867068       -23.5941
  58   2.0000      -0.848504       -23.0890
  59   2.0000      -0.818011       -22.2592
  60   2.0000      -0.800085       -21.7714
  61   2.0000      -0.786455       -21.4005
  62   2.0000      -0.784759       -21.3544
  63   2.0000      -0.753824       -20.5126
  64   2.0000      -0.739903       -20.1338
  65   2.0000      -0.734282       -19.9808
  66   2.0000      -0.704697       -19.1758
  67   2.0000      -0.681788       -18.5524
  68   2.0000      -0.672625       -18.3030
  69   2.0000      -0.661368       -17.9967
  70   2.0000      -0.647478       -17.6188
  71   2.0000      -0.634117       -17.2552
  72   2.0000      -0.621996       -16.9254
  73   2.0000      -0.611705       -16.6453
  74   2.0000      -0.599680       -16.3181
  75   2.0000      -0.594581       -16.1794
  76   2.0000      -0.593306       -16.1447
  77   2.0000      -0.583313       -15.8728
  78   2.0000      -0.577665       -15.7191
  79   2.0000      -0.562299       -15.3009
  80   2.0000      -0.559655       -15.2290
  81   2.0000      -0.553929       -15.0732
  82   2.0000      -0.551937       -15.0190
  83   2.0000      -0.541728       -14.7412
  84   2.0000      -0.520270       -14.1573
  85   2.0000      -0.501692       -13.6517
  86   2.0000      -0.493874       -13.4390
  87   2.0000      -0.491080       -13.3630
  88   2.0000      -0.485859       -13.2209
  89   2.0000      -0.480135       -13.0651
  90   2.0000      -0.475799       -12.9472
  91   2.0000      -0.471515       -12.8306
  92   2.0000      -0.469329       -12.7711
  93   2.0000      -0.468672       -12.7532
  94   2.0000      -0.462443       -12.5837
  95   2.0000      -0.457866       -12.4592
  96   2.0000      -0.456334       -12.4175
  97   2.0000      -0.450554       -12.2602
  98   2.0000      -0.449636       -12.2352
  99   2.0000      -0.446188       -12.1414
 100   2.0000      -0.440863       -11.9965
 101   2.0000      -0.439178       -11.9506
 102   2.0000      -0.438458       -11.9310
 103   2.0000      -0.435778       -11.8581
 104   2.0000      -0.434925       -11.8349
 105   2.0000      -0.430248       -11.7076
 106   2.0000      -0.421450       -11.4683
 107   2.0000      -0.419959       -11.4277
 108   2.0000      -0.412899       -11.2355
 109   2.0000      -0.411882       -11.2079
 110   2.0000      -0.406006       -11.0480
 111   2.0000      -0.402103       -10.9418
 112   2.0000      -0.400460       -10.8971
 113   2.0000      -0.396322       -10.7845
 114   2.0000      -0.392222       -10.6729
 115   2.0000      -0.390363       -10.6223
 116   2.0000      -0.379599       -10.3294
 117   2.0000      -0.376110       -10.2345
 118   2.0000      -0.367078        -9.9887
 119   2.0000      -0.356686        -9.7059
 120   2.0000      -0.352398        -9.5892
 121   2.0000      -0.348039        -9.4706
 122   2.0000      -0.341699        -9.2981
 123   2.0000      -0.329083        -8.9548
 124   2.0000      -0.323778        -8.8105
 125   2.0000      -0.316362        -8.6086
 126   2.0000      -0.310680        -8.4540
 127   2.0000      -0.296095        -8.0571
 128   2.0000      -0.292180        -7.9506
 129   2.0000      -0.288385        -7.8474
 130   2.0000      -0.287098        -7.8123
 131   2.0000      -0.284639        -7.7454
 132   2.0000      -0.281568        -7.6619
 133   2.0000      -0.262037        -7.1304
 134   2.0000      -0.256216        -6.9720
 135   2.0000      -0.250110        -6.8058
 136   0.0000      -0.093713        -2.5500
 137   0.0000      -0.078779        -2.1437
 138   0.0000      -0.065983        -1.7955
 139   0.0000      -0.037941        -1.0324
 140   0.0000      -0.026180        -0.7124

MULLIKEN ATOMIC CHARGES
-----------------------
   0 O :   -0.440247
   1 C :    0.530024
   2 O :   -0.622914
   3 C :    0.084897
   4 C :   -0.147930
   5 C :   -0.136401
   6 C :   -0.154665
   7 S :    1.227005
   8 O :   -0.544871
   9 O :   -0.526827
  10 N :   -0.583494
  11 C :   -0.274767
  12 C :    0.185046
  13 C :   -0.151714
  14 C :   -0.157878
  15 C :   -0.013842
  16 C :    0.893796
  17 F :   -0.295594
  18 F :   -0.307542
  19 F :   -0.306126
  20 C :   -0.159577
  21 C :   -0.159922
  22 C :    0.366284
  23 N :   -0.347922
  24 C :   -0.008741
  25 C :   -0.026749
  26 C :    0.907221
  27 F :   -0.298352
  28 F :   -0.289765
  29 F :   -0.299962
  30 C :   -0.131709
  31 C :   -0.096228
  32 Cl:    0.030554
  33 C :   -0.136298
  34 C :   -0.141489
  35 H :    0.436293
  36 H :    0.176295
  37 H :    0.185905
  38 H :    0.178236
  39 H :    0.201374
  40 H :    0.163551
  41 H :    0.155450
  42 H :    0.148401
  43 H :    0.125185
  44 H :    0.189268
  45 H :    0.191541
  46 H :    0.200562
  47 H :    0.184640
Sum of atomic charges:    0.0000000

LOEWDIN ATOMIC CHARGES
----------------------
   0 O :   -0.256391
   1 C :    0.180132
   2 O :   -0.333491
   3 C :   -0.034132
   4 C :   -0.099599
   5 C :   -0.096573
   6 C :   -0.178188
   7 S :    1.267924
   8 O :   -0.572679
   9 O :   -0.563452
  10 N :   -0.274432
  11 C :   -0.145824
  12 C :   -0.023972
  13 C :   -0.112214
  14 C :   -0.105232
  15 C :   -0.067822
  16 C :    0.310007
  17 F :   -0.113241
  18 F :   -0.115424
  19 F :   -0.114265
  20 C :   -0.111641
  21 C :   -0.126165
  22 C :    0.046952
  23 N :   -0.103544
  24 C :   -0.046638
  25 C :   -0.076048
  26 C :    0.313132
  27 F :   -0.106422
  28 F :   -0.107431
  29 F :   -0.108721
  30 C :   -0.090393
  31 C :   -0.098558
  32 Cl:    0.064846
  33 C :   -0.095326
  34 C :   -0.086734
  35 H :    0.351276
  36 H :    0.156406
  37 H :    0.160045
  38 H :    0.143568
  39 H :    0.155158
  40 H :    0.147642
  41 H :    0.145392
  42 H :    0.141776
  43 H :    0.130366
  44 H :    0.155211
  45 H :    0.164180
  46 H :    0.168171
  47 H :    0.162368

  Mayer bond orders larger than 0.100000
B(  0-O ,  1-C ) :   1.8653 B(  1-C ,  2-O ) :   1.0274 B(  1-C ,  3-C ) :   1.0057
B(  2-O , 35-H ) :   0.7405 B(  3-C ,  4-C ) :   1.3836 B(  3-C , 34-C ) :   1.4030
B(  4-C ,  5-C ) :   1.4217 B(  4-C , 36-H ) :   0.9140 B(  5-C ,  6-C ) :   1.3893
B(  5-C , 37-H ) :   0.9102 B(  6-C ,  7-S ) :   0.8135 B(  6-C , 33-C ) :   1.3908
B(  7-S ,  8-O ) :   1.6181 B(  7-S ,  9-O ) :   1.6611 B(  7-S , 10-N ) :   0.7912
B( 10-N , 11-C ) :   0.9251 B( 10-N , 22-C ) :   0.9699 B( 11-C , 12-C ) :   0.9370
B( 11-C , 38-H ) :   0.9197 B( 11-C , 39-H ) :   0.9144 B( 12-C , 13-C ) :   1.4367
B( 12-C , 21-C ) :   1.4248 B( 13-C , 14-C ) :   1.4298 B( 13-C , 40-H ) :   0.9140
B( 14-C , 15-C ) :   1.4103 B( 14-C , 41-H ) :   0.9194 B( 15-C , 16-C ) :   0.9798
B( 15-C , 20-C ) :   1.4125 B( 16-C , 17-F ) :   0.9879 B( 16-C , 18-F ) :   0.9458
B( 16-C , 19-F ) :   0.9480 B( 20-C , 21-C ) :   1.4335 B( 20-C , 42-H ) :   0.9204
B( 21-C , 43-H ) :   0.9248 B( 22-C , 23-N ) :   1.3853 B( 22-C , 31-C ) :   1.3322
B( 23-N , 24-C ) :   1.4059 B( 24-C , 25-C ) :   1.3566 B( 24-C , 44-H ) :   0.9162
B( 25-C , 26-C ) :   0.9719 B( 25-C , 30-C ) :   1.4089 B( 26-C , 27-F ) :   0.9529
B( 26-C , 28-F ) :   0.9909 B( 26-C , 29-F ) :   0.9517 B( 30-C , 31-C ) :   1.3939
B( 30-C , 45-H ) :   0.9068 B( 31-C , 32-Cl) :   1.0518 B( 33-C , 34-C ) :   1.4146
B( 33-C , 46-H ) :   0.9037 B( 34-C , 47-H ) :   0.9088

FINAL SINGLE POINT ENERGY     -2674.741210709959

DIPOLE MOMENT
-------------

Method             : SCF
Type of density    : Electron Density
Multiplicity       :   1
Irrep              :   0
Energy             : -2674.7412107099585228 Eh
Relativity type    :
Basis              : AO
                                X                 Y                 Z
Electronic contribution:    -19.961810652      15.023068052       7.236871657
Nuclear contribution   :     21.556971597     -13.121060597      -8.603924322
                        -----------------------------------------
Total Dipole Moment    :      1.595160944       1.902007455      -1.367052665
                        -----------------------------------------
Magnitude (a.u.)       :      2.833902572
Magnitude (Debye)      :      7.203207889

Rotational constants in cm-1:             0.004439             0.001960             0.001640
Rotational constants in MHz :           133.067526            58.760005            49.156682

                             ****ORCA TERMINATED NORMALLY****
TOTAL RUN TIME: 0 days 0 hours 6 minutes 23 seconds 389 msec
