                         Program Version 6.0.0  -   RELEASE  -
|  1> ! B3LYP 6-31G* SP
|  2>
|  3> * xyz 0 1
|  4> C -4.9008 1.3550 -0.0194
|  5> C -4.8302 -0.1567 0.1974
|  6> C -3.4317 -0.6171 0.6409
|  7> C -2.3801 -0.4838 -0.4342
|  8> O -2.7238 -0.4485 -1.6473
|  9> C -0.9403 -0.4462 -0.1074
| 10> S 0.2696 -0.0189 -1.1969
| 11> C 1.5230 -0.2393 -0.0904
| 12> C 2.9643 -0.0316 -0.3603
| 13> C 3.9126 -0.2555 0.6552
| 14> C 5.2750 -0.0614 0.4080
| 15> C 5.7061 0.3573 -0.8525
| 16> C 4.7752 0.5832 -1.8691
| 17> F 5.1951 0.9899 -3.0926
| 18> C 3.4110 0.3906 -1.6271
| 19> N 1.0385 -0.6452 1.1058
| 20> C -0.3170 -0.7650 1.1020
| 21> O -1.0072 -1.1962 2.2298
| 22> H -4.2156 1.6681 -0.8347
| 23> H -5.9360 1.6404 -0.3016
| 24> H -4.6278 1.8918 0.9139
| 25> H -5.1359 -0.6853 -0.7315
| 26> H -5.5596 -0.4301 0.9903
| 27> H -3.4881 -1.6854 0.9405
| 28> H -3.1351 -0.0251 1.5331
| 29> H 3.6026 -0.5804 1.6405
| 30> H 5.9973 -0.2360 1.1950
| 31> H 6.7616 0.5066 -1.0403
| 32> H 2.7104 0.5725 -2.4314
| 33> H -0.5132 -1.4230 3.0843
| 34> *
| 35>
| 36>                          ****END OF INPUT****

CARTESIAN COORDINATES (ANGSTROEM)
---------------------------------
  C     -4.900800    1.355000   -0.019400
  C     -4.830200   -0.156700    0.197400
  C     -3.431700   -0.617100    0.640900
  C     -2.380100   -0.483800   -0.434200
  O     -2.723800   -0.448500   -1.647300
  C     -0.940300   -0.446200   -0.107400
  S      0.269600   -0.018900   -1.196900
  C      1.523000   -0.239300   -0.090400
  C      2.964300   -0.031600   -0.360300
  C      3.912600   -0.255500    0.655200
  C      5.275000   -0.061400    0.408000
  C      5.706100    0.357300   -0.852500
  C      4.775200    0.583200   -1.869100
  F      5.195100    0.989900   -3.092600
  C      3.411000    0.390600   -1.627100
  N      1.038500   -0.645200    1.105800
  C     -0.317000   -0.765000    1.102000
  O     -1.007200   -1.196200    2.229800
  H     -4.215600    1.668100   -0.834700
  H     -5.936000    1.640400   -0.301600
  H     -4.627800    1.891800    0.913900
  H     -5.135900   -0.685300   -0.731500
  H     -5.559600   -0.430100    0.990300
  H     -3.488100   -1.685400    0.940500
  H     -3.135100   -0.025100    1.533100
  H      3.602600   -0.580400    1.640500
  H      5.997300   -0.236000    1.195000
  H      6.761600    0.506600   -1.040300
  H      2.710400    0.572500   -2.431400
  H     -0.513200   -1.423000    3.084300

 Total Charge           Charge          ....    0
 Multiplicity           Mult            ....    1
 Number of Electrons    NEL             ....  138
 Basis Dimension        Dim             ....  280

ORBITAL ENERGIES
----------------

  NO   OCC          E(Eh)            E(eV)
   0   2.0000     -88.908993     -2419.3367
   1   2.0000     -24.708426      -672.3505
   2   2.0000     -19.191807      -522.2356
   3   2.0000     -19.122433      -520.3479
   4   2.0000     -14.343434      -390.3047
   5   2.0000     -10.297507      -280.2094
   6   2.0000     -10.282941      -279.8131
   7   2.0000     -10.273069      -279.5444
   8   2.0000     -10.270196      -279.4662
   9   2.0000     -10.226162      -278.2680
  10   2.0000     -10.219660      -278.0911
  11   2.0000     -10.207142      -277.7504
  12   2.0000     -10.204164      -277.6694
  13   2.0000     -10.202840      -277.6334
  14   2.0000     -10.199383      -277.5393
  15   2.0000     -10.180109      -277.0148
  16   2.0000     -10.169538      -276.7272
  17   2.0000     -10.158151      -276.4173
  18   2.0000      -7.985618      -217.2997
  19   2.0000      -5.948581      -161.8691
  20   2.0000      -5.944514      -161.7584
  21   2.0000      -5.942748      -161.7104
  22   2.0000      -1.221397       -33.2359
  23   2.0000      -1.060803       -28.8659
  24   2.0000      -1.009018       -27.4568
  25   2.0000      -0.970825       -26.4175
  26   2.0000      -0.874590       -23.7988
  27   2.0000      -0.821733       -22.3605
  28   2.0000      -0.795844       -21.6560
  29   2.0000      -0.781936       -21.2776
  30   2.0000      -0.760394       -20.6914
  31   2.0000      -0.742622       -20.2078
  32   2.0000      -0.697056       -18.9679
  33   2.0000      -0.653035       -17.7700
  34   2.0000      -0.634954       -17.2780
  35   2.0000      -0.620253       -16.8780
  36   2.0000      -0.596393       -16.2287
  37   2.0000      -0.578067       -15.7300
  38   2.0000      -0.550135       -14.9699
  39   2.0000      -0.544492       -14.8164
  40   2.0000      -0.514970       -14.0130
  41   2.0000      -0.504948       -13.7403
  42   2.0000      -0.489338       -13.3156
  43   2.0000      -0.474882       -12.9222
  44   2.0000      -0.464796       -12.6477
  45   2.0000      -0.459903       -12.5146
  46   2.0000      -0.458597       -12.4791
  47   2.0000      -0.443616       -12.0714
  48   2.0000      -0.441033       -12.0011
  49   2.0000      -0.422563       -11.4985
  50   2.0000      -0.409704       -11.1486
  51   2.0000      -0.398933       -10.8555
  52   2.0000      -0.392137       -10.6706
  53   2.0000      -0.388461       -10.5706
  54   2.0000      -0.384144       -10.4531
  55   2.0000      -0.382870       -10.4184
  56   2.0000      -0.365423        -9.9437
  57   2.0000      -0.363649        -9.8954
  58   2.0000      -0.360301        -9.8043
  59   2.0000      -0.351427        -9.5628
  60   2.0000      -0.328662        -8.9434
  61   2.0000      -0.324538        -8.8311
  62   2.0000      -0.320324        -8.7165
  63   2.0000      -0.292641        -7.9632
  64   2.0000      -0.289644        -7.8816
  65   2.0000      -0.276452        -7.5227
  66   2.0000      -0.256710        -6.9854
  67   2.0000      -0.240979        -6.5574
  68   2.0000      -0.225915        -6.1475
  69   0.0000      -0.077989        -2.1222
  70   0.0000      -0.019691        -0.5358
  71   0.0000      -0.013333        -0.3628
  72   0.0000       0.018245         0.4965
  73   0.0000       0.033844         0.9209

MULLIKEN ATOMIC CHARGES
-----------------------
   0 C :   -0.441723
   1 C :   -0.237118
   2 C :   -0.339248
   3 C :    0.414321
   4 O :   -0.455552
   5 C :   -0.248639
   6 S :    0.314707
   7 C :   -0.017362
   8 C :    0.156157
   9 C :   -0.159045
  10 C :   -0.116371
  11 C :   -0.198962
  12 C :    0.413522
  13 F :   -0.313935
  14 C :   -0.278235
  15 N :   -0.429296
  16 C :    0.490378
  17 O :   -0.646706
  18 H :    0.161613
  19 H :    0.139524
  20 H :    0.129943
  21 H :    0.155291
  22 H :    0.124239
  23 H :    0.170851
  24 H :    0.156104
  25 H :    0.160406
  26 H :    0.147202
  27 H :    0.151319
  28 H :    0.166227
  29 H :    0.430387
Sum of atomic charges:    0.0000000

LOEWDIN ATOMIC CHARGES
----------------------
   0 C :   -0.361788
   1 C :   -0.227528
   2 C :   -0.250435
   3 C :    0.134215
   4 O :   -0.249462
   5 C :   -0.268913
   6 S :    0.441940
   7 C :   -0.107699
   8 C :   -0.022731
   9 C :   -0.113681
  10 C :   -0.116629
  11 C :   -0.147488
  12 C :    0.120861
  13 F :   -0.099980
  14 C :   -0.150159
  15 N :   -0.189044
  16 C :    0.096813
  17 O :   -0.329260
  18 H :    0.130114
  19 H :    0.123267
  20 H :    0.115246
  21 H :    0.130783
  22 H :    0.117107
  23 H :    0.149828
  24 H :    0.137277
  25 H :    0.149331
  26 H :    0.141152
  27 H :    0.146513
  28 H :    0.152824
  29 H :    0.347527

  Mayer bond orders larger than 0.100000
B(  0-C ,  1-C ) :   1.0214 B(  0-C , 18-H ) :   0.9438 B(  0-C , 19-H ) :   0.9542
B(  0-C , 20-H ) :   0.9515 B(  1-C ,  2-C ) :   0.9949 B(  1-C , 21-H ) :   0.9321
B(  1-C , 22-H ) :   0.9397 B(  2-C ,  3-C ) :   0.9828 B(  2-C , 23-H ) :   0.9157
B(  2-C , 24-H ) :   0.9195 B(  3-C ,  4-O ) :   1.8077 B(  3-C ,  5-C ) :   1.0149
B(  5-C ,  6-S ) :   1.0785 B(  5-C ,  7-C ) :   0.1116 B(  5-C , 16-C ) :   1.4033
B(  6-S ,  7-C ) :   1.1792 B(  7-C ,  8-C ) :   1.0241 B(  7-C , 15-N ) :   1.4297
B(  8-C ,  9-C ) :   1.4078 B(  8-C , 14-C ) :   1.3563 B(  9-C , 10-C ) :   1.4342
B(  9-C , 25-H ) :   0.9122 B( 10-C , 11-C ) :   1.4232 B( 10-C , 26-H ) :   0.9284
B( 11-C , 12-C ) :   1.3870 B( 11-C , 27-H ) :   0.9197 B( 12-C , 13-F ) :   0.9164
B( 12-C , 14-C ) :   1.3928 B( 14-C , 28-H ) :   0.9061 B( 15-N , 16-C ) :   1.3028
B( 16-C , 17-O ) :   0.9752 B( 17-O , 29-H ) :   0.7511

FINAL SINGLE POINT ENERGY     -1205.290769117530

DIPOLE MOMENT
-------------

Method             : SCF
Type of density    : Electron Density
Multiplicity       :   1
Irrep              :   0
Energy             : -1205.2907691175303171 Eh
Relativity type    :
Basis              : AO
                                X                 Y                 Z
Electronic contribution:     25.454702940      -1.187225099      -9.729676904
Nuclear contribution   :    -24.503895486       0.988539695      11.292567834
                        -----------------------------------------
Total Dipole Moment    :      0.950807454      -0.198685404       1.562890930
                        -----------------------------------------
Magnitude (a.u.)       :      1.840146397
Magnitude (Debye)      :      4.677280432

Rotational constants in cm-1:             0.033256             0.005290             0.004708
Rotational constants in MHz :           996.992937           158.603735           141.136324

                             ****ORCA TERMINATED NORMALLY****
TOTAL RUN TIME: 0 days 0 hours 1 minutes 57 seconds 860 msec
