                         Program Version 6.0.0  -   RELEASE  -
|  1> ! B3LYP 6-31G* SP
|  2>
|  3> * xyz 0 1
|  4> O -0.6729 0.9057 1.7033
|  5> C -1.2018 0.2058 0.7971
|  6> N -0.6331 -1.0668 0.4519
|  7> C 0.6827 -1.5129 0.9144
|  8> C 1.8385 -0.8242 0.1347
|  9> C 1.6523 -1.0203 -1.4037
| 10> C 1.5333 -2.4712 -1.8048
| 11> C 0.3186 -2.9794 -2.2970
| 12> C 0.2142 -4.3244 -2.6639
| 13> C 1.3208 -5.1701 -2.5487
| 14> C 2.5339 -4.6715 -2.0674
| 15> C 2.6426 -3.3275 -1.6979
| 16> N 1.9409 0.6057 0.5598
| 17> C 2.5145 1.5302 -0.4497
| 18> C 2.7664 2.9201 0.1467
| 19> C 3.8376 2.8740 1.2780
| 20> O 3.5059 3.8145 2.2745
| 21> C 5.2270 3.2724 0.7242
| 22> F 6.1807 3.1802 1.7243
| 23> F 5.6006 2.4476 -0.3230
| 24> F 5.2006 4.5797 0.2694
| 25> C 3.9187 1.4518 1.9066
| 26> C 2.5503 0.7505 1.9165
| 27> C -2.4926 0.6622 0.1334
| 28> C -3.6681 -0.1517 0.7112
| 29> C -3.7927 -0.2742 2.1143
| 30> C -4.8544 -0.9795 2.6856
| 31> C -5.8262 -1.5633 1.8719
| 32> Cl -7.1603 -2.4464 2.5921
| 33> C -5.7408 -1.4314 0.4851
| 34> C -4.6810 -0.7259 -0.0932
| 35> C -2.7609 2.1626 0.3430
| 36> C -3.5980 2.5975 -0.8514
| 37> C -3.2065 1.6743 -2.0014
| 38> C -2.3333 0.5728 -1.4005
| 39> H -1.2110 -1.7358 -0.1042
| 40> H 0.7582 -2.6133 0.7758
| 41> H 0.7653 -1.3443 2.0078
| 42> H 2.7863 -1.3436 0.4044
| 43> H 0.7648 -0.4513 -1.7517
| 44> H 2.5291 -0.6178 -1.9520
| 45> H -0.5461 -2.3361 -2.3999
| 46> H -0.7237 -4.7107 -3.0406
| 47> H 1.2383 -6.2107 -2.8345
| 48> H 3.3917 -5.3258 -1.9813
| 49> H 3.5902 -2.9536 -1.3304
| 50> H 1.7957 1.6559 -1.2870
| 51> H 3.4687 1.1285 -0.8542
| 52> H 3.0630 3.6196 -0.6646
| 53> H 1.7984 3.2964 0.5459
| 54> H 2.6453 3.5433 2.6878
| 55> H 4.3058 1.5186 2.9471
| 56> H 4.6237 0.8052 1.3393
| 57> H 1.8516 1.3305 2.5537
| 58> H 2.6857 -0.2277 2.4262
| 59> H -3.0663 0.1825 2.7743
| 60> H -4.9225 -1.0657 3.7629
| 61> H -6.5015 -1.8701 -0.1488
| 62> H -4.6781 -0.6357 -1.1675
| 63> H -1.8060 2.7366 0.3221
| 64> H -3.2806 2.3829 1.3018
| 65> H -4.6764 2.4661 -0.6151
| 66> H -3.4102 3.6636 -1.1041
| 67> H -4.1130 1.2439 -2.4782
| 68> H -2.6380 2.2376 -2.7735
| 69> H -1.2797 0.7960 -1.6835
| 70> H -2.5656 -0.4316 -1.8133
| 71> *
| 72>
| 73>                          ****END OF INPUT****

CARTESIAN COORDINATES (ANGSTROEM)
---------------------------------
  O     -0.672900    0.905700    1.703300
  C     -1.201800    0.205800    0.797100
  N     -0.633100   -1.066800    0.451900
  C      0.682700   -1.512900    0.914400
  C      1.838500   -0.824200    0.134700
  C      1.652300   -1.020300   -1.403700
  C      1.533300   -2.471200   -1.804800
  C      0.318600   -2.979400   -2.297000
  C      0.214200   -4.324400   -2.663900
  C      1.320800   -5.170100   -2.548700
  C      2.533900   -4.671500   -2.067400
  C      2.642600   -3.327500   -1.697900
  N      1.940900    0.605700    0.559800
  C      2.514500    1.530200   -0.449700
  C      2.766400    2.920100    0.146700
  C      3.837600    2.874000    1.278000
  O      3.505900    3.814500    2.274500
  C      5.227000    3.272400    0.724200
  F      6.180700    3.180200    1.724300
  F      5.600600    2.447600   -0.323000
  F      5.200600    4.579700    0.269400
  C      3.918700    1.451800    1.906600
  C      2.550300    0.750500    1.916500
  C     -2.492600    0.662200    0.133400
  C     -3.668100   -0.151700    0.711200
  C     -3.792700   -0.274200    2.114300
  C     -4.854400   -0.979500    2.685600
  C     -5.826200   -1.563300    1.871900
  Cl    -7.160300   -2.446400    2.592100
  C     -5.740800   -1.431400    0.485100
  C     -4.681000   -0.725900   -0.093200
  C     -2.760900    2.162600    0.343000
  C     -3.598000    2.597500   -0.851400
  C     -3.206500    1.674300   -2.001400
  C     -2.333300    0.572800   -1.400500
  H     -1.211000   -1.735800   -0.104200
  H      0.758200   -2.613300    0.775800
  H      0.765300   -1.344300    2.007800
  H      2.786300   -1.343600    0.404400
  H      0.764800   -0.451300   -1.751700
  H      2.529100   -0.617800   -1.952000
  H     -0.546100   -2.336100   -2.399900
  H     -0.723700   -4.710700   -3.040600
  H      1.238300   -6.210700   -2.834500
  H      3.391700   -5.325800   -1.981300
  H      3.590200   -2.953600   -1.330400
  H      1.795700    1.655900   -1.287000
  H      3.468700    1.128500   -0.854200
  H      3.063000    3.619600   -0.664600
  H      1.798400    3.296400    0.545900
  H      2.645300    3.543300    2.687800
  H      4.305800    1.518600    2.947100
  H      4.623700    0.805200    1.339300
  H      1.851600    1.330500    2.553700
  H      2.685700   -0.227700    2.426200
  H     -3.066300    0.182500    2.774300
  H     -4.922500   -1.065700    3.762900
  H     -6.501500   -1.870100   -0.148800
  H     -4.678100   -0.635700   -1.167500
  H     -1.806000    2.736600    0.322100
  H     -3.280600    2.382900    1.301800
  H     -4.676400    2.466100   -0.615100
  H     -3.410200    3.663600   -1.104100
  H     -4.113000    1.243900   -2.478200
  H     -2.638000    2.237600   -2.773500
  H     -1.279700    0.796000   -1.683500
  H     -2.565600   -0.431600   -1.813300

 Total Charge           Charge          ....    0
 Multiplicity           Mult            ....    1
 Number of Electrons    NEL             ....  268
 Basis Dimension        Dim             ....  558

ORBITAL ENERGIES
----------------

  NO   OCC          E(Eh)            E(eV)
   0   2.0000    -101.527569     -2762.7056
   1   2.0000     -24.720421      -672.6769
   2   2.0000     -24.709367      -672.3761
   3   2.0000     -24.709217      -672.3720
   4   2.0000     -19.145805      -520.9838
   5   2.0000     -19.106502      -519.9144
   6   2.0000     -14.351358      -390.5203
   7   2.0000     -14.311686      -389.4408
   8   2.0000     -10.423860      -283.6476
   9   2.0000     -10.284481      -279.8550
  10   2.0000     -10.258201      -279.1398
  11   2.0000     -10.246621      -278.8247
  12   2.0000     -10.218356      -278.0556
  13   2.0000     -10.215094      -277.9668
  14   2.0000     -10.208277      -277.7813
  15   2.0000     -10.207641      -277.7640
  16   2.0000     -10.204335      -277.6741
  17   2.0000     -10.203921      -277.6628
  18   2.0000     -10.198858      -277.5250
  19   2.0000     -10.198153      -277.5059
  20   2.0000     -10.197434      -277.4863
  21   2.0000     -10.197201      -277.4799
  22   2.0000     -10.193318      -277.3743
  23   2.0000     -10.188610      -277.2462
  24   2.0000     -10.188111      -277.2326
  25   2.0000     -10.187912      -277.2272
  26   2.0000     -10.187854      -277.2256
  27   2.0000     -10.187601      -277.2187
  28   2.0000     -10.186400      -277.1860
  29   2.0000     -10.185717      -277.1675
  30   2.0000     -10.185181      -277.1529
  31   2.0000     -10.184268      -277.1280
  32   2.0000     -10.178646      -276.9750
  33   2.0000     -10.174544      -276.8634
  34   2.0000     -10.173042      -276.8225
  35   2.0000      -9.459534      -257.4070
  36   2.0000      -7.222513      -196.5346
  37   2.0000      -7.213157      -196.2800
  38   2.0000      -7.212845      -196.2715
  39   2.0000      -1.272940       -34.6385
  40   2.0000      -1.201075       -32.6829
  41   2.0000      -1.193808       -32.4852
  42   2.0000      -1.029966       -28.0268
  43   2.0000      -1.005762       -27.3682
  44   2.0000      -0.914150       -24.8753
  45   2.0000      -0.893097       -24.3024
  46   2.0000      -0.889123       -24.1943
  47   2.0000      -0.860041       -23.4029
  48   2.0000      -0.857650       -23.3378
  49   2.0000      -0.827005       -22.5040
  50   2.0000      -0.803668       -21.8689
  51   2.0000      -0.779053       -21.1991
  52   2.0000      -0.760811       -20.7027
  53   2.0000      -0.756361       -20.5816
  54   2.0000      -0.753889       -20.5144
  55   2.0000      -0.748245       -20.3608
  56   2.0000      -0.736041       -20.0287
  57   2.0000      -0.716936       -19.5088
  58   2.0000      -0.708423       -19.2772
  59   2.0000      -0.696647       -18.9567
  60   2.0000      -0.681666       -18.5491
  61   2.0000      -0.636734       -17.3264
  62   2.0000      -0.635388       -17.2898
  63   2.0000      -0.622709       -16.9448
  64   2.0000      -0.613015       -16.6810
  65   2.0000      -0.608672       -16.5628
  66   2.0000      -0.603731       -16.4284
  67   2.0000      -0.587446       -15.9852
  68   2.0000      -0.576642       -15.6912
  69   2.0000      -0.565503       -15.3881
  70   2.0000      -0.560877       -15.2622
  71   2.0000      -0.559323       -15.2199
  72   2.0000      -0.551261       -15.0006
  73   2.0000      -0.548169       -14.9164
  74   2.0000      -0.527512       -14.3543
  75   2.0000      -0.520707       -14.1692
  76   2.0000      -0.515131       -14.0174
  77   2.0000      -0.506549       -13.7839
  78   2.0000      -0.501778       -13.6541
  79   2.0000      -0.486181       -13.2296
  80   2.0000      -0.477106       -12.9827
  81   2.0000      -0.474277       -12.9057
  82   2.0000      -0.469549       -12.7771
  83   2.0000      -0.467087       -12.7101
  84   2.0000      -0.465935       -12.6787
  85   2.0000      -0.461250       -12.5513
  86   2.0000      -0.456602       -12.4248
  87   2.0000      -0.447373       -12.1736
  88   2.0000      -0.442190       -12.0326
  89   2.0000      -0.439748       -11.9662
  90   2.0000      -0.435927       -11.8622
  91   2.0000      -0.434232       -11.8161
  92   2.0000      -0.429038       -11.6747
  93   2.0000      -0.423506       -11.5242
  94   2.0000      -0.418788       -11.3958
  95   2.0000      -0.417022       -11.3477
  96   2.0000      -0.413827       -11.2608
  97   2.0000      -0.410877       -11.1805
  98   2.0000      -0.406714       -11.0673
  99   2.0000      -0.402714       -10.9584
 100   2.0000      -0.398579       -10.8459
 101   2.0000      -0.393289       -10.7019
 102   2.0000      -0.392113       -10.6699
 103   2.0000      -0.388463       -10.5706
 104   2.0000      -0.384681       -10.4677
 105   2.0000      -0.381791       -10.3891
 106   2.0000      -0.379073       -10.3151
 107   2.0000      -0.373164       -10.1543
 108   2.0000      -0.369726       -10.0608
 109   2.0000      -0.366688        -9.9781
 110   2.0000      -0.362633        -9.8677
 111   2.0000      -0.358678        -9.7601
 112   2.0000      -0.353375        -9.6158
 113   2.0000      -0.349733        -9.5167
 114   2.0000      -0.346870        -9.4388
 115   2.0000      -0.343587        -9.3495
 116   2.0000      -0.341407        -9.2902
 117   2.0000      -0.340094        -9.2544
 118   2.0000      -0.336972        -9.1695
 119   2.0000      -0.333366        -9.0713
 120   2.0000      -0.328590        -8.9414
 121   2.0000      -0.324092        -8.8190
 122   2.0000      -0.323047        -8.7905
 123   2.0000      -0.313188        -8.5223
 124   2.0000      -0.311756        -8.4833
 125   2.0000      -0.310948        -8.4613
 126   2.0000      -0.268319        -7.3013
 127   2.0000      -0.261896        -7.1265
 128   2.0000      -0.255223        -6.9450
 129   2.0000      -0.250328        -6.8118
 130   2.0000      -0.246013        -6.6943
 131   2.0000      -0.239179        -6.5084
 132   2.0000      -0.234454        -6.3798
 133   2.0000      -0.193011        -5.2521
 134   0.0000      -0.017901        -0.4871
 135   0.0000      -0.016142        -0.4392
 136   0.0000      -0.008475        -0.2306
 137   0.0000      -0.005509        -0.1499
 138   0.0000       0.018324         0.4986

MULLIKEN ATOMIC CHARGES
-----------------------
   0 O :   -0.486948
   1 C :    0.563232
   2 N :   -0.611377
   3 C :   -0.131535
   4 C :    0.060612
   5 C :   -0.385300
   6 C :    0.159938
   7 C :   -0.196598
   8 C :   -0.126120
   9 C :   -0.126115
  10 C :   -0.127851
  11 C :   -0.171978
  12 N :   -0.370370
  13 C :   -0.124649
  14 C :   -0.336832
  15 C :    0.250534
  16 O :   -0.656031
  17 C :    0.931027
  18 F :   -0.306005
  19 F :   -0.304957
  20 F :   -0.304912
  21 C :   -0.330333
  22 C :   -0.150920
  23 C :   -0.044137
  24 C :    0.113211
  25 C :   -0.165317
  26 C :   -0.131422
  27 C :   -0.063705
  28 Cl:   -0.022260
  29 C :   -0.132703
  30 C :   -0.180632
  31 C :   -0.261177
  32 C :   -0.267858
  33 C :   -0.267591
  34 C :   -0.315890
  35 H :    0.325866
  36 H :    0.152756
  37 H :    0.165545
  38 H :    0.103784
  39 H :    0.156195
  40 H :    0.156689
  41 H :    0.122531
  42 H :    0.128617
  43 H :    0.129321
  44 H :    0.131336
  45 H :    0.128218
  46 H :    0.137160
  47 H :    0.119669
  48 H :    0.160837
  49 H :    0.159042
  50 H :    0.407617
  51 H :    0.160865
  52 H :    0.147875
  53 H :    0.145133
  54 H :    0.138818
  55 H :    0.166247
  56 H :    0.153856
  57 H :    0.150181
  58 H :    0.135808
  59 H :    0.149990
  60 H :    0.148369
  61 H :    0.140001
  62 H :    0.138502
  63 H :    0.136080
  64 H :    0.137897
  65 H :    0.156264
  66 H :    0.131901
Sum of atomic charges:    0.0000000

LOEWDIN ATOMIC CHARGES
----------------------
   0 O :   -0.287610
   1 C :    0.153475
   2 N :   -0.239808
   3 C :   -0.159556
   4 C :   -0.052211
   5 C :   -0.228305
   6 C :   -0.015336
   7 C :   -0.147776
   8 C :   -0.127583
   9 C :   -0.133971
  10 C :   -0.124219
  11 C :   -0.136895
  12 N :   -0.180354
  13 C :   -0.160506
  14 C :   -0.239920
  15 C :    0.026464
  16 O :   -0.375908
  17 C :    0.308695
  18 F :   -0.111284
  19 F :   -0.114162
  20 F :   -0.110278
  21 C :   -0.253629
  22 C :   -0.157395
  23 C :   -0.049504
  24 C :   -0.008163
  25 C :   -0.121418
  26 C :   -0.131034
  27 C :   -0.089767
  28 Cl:    0.032907
  29 C :   -0.134492
  30 C :   -0.138237
  31 C :   -0.208128
  32 C :   -0.235361
  33 C :   -0.235263
  34 C :   -0.227233
  35 H :    0.248859
  36 H :    0.133106
  37 H :    0.133635
  38 H :    0.098428
  39 H :    0.127958
  40 H :    0.135354
  41 H :    0.125875
  42 H :    0.131375
  43 H :    0.131995
  44 H :    0.132645
  45 H :    0.130661
  46 H :    0.120692
  47 H :    0.097945
  48 H :    0.137364
  49 H :    0.135990
  50 H :    0.321020
  51 H :    0.138265
  52 H :    0.127339
  53 H :    0.115399
  54 H :    0.123563
  55 H :    0.149868
  56 H :    0.145322
  57 H :    0.143458
  58 H :    0.137087
  59 H :    0.129715
  60 H :    0.129543
  61 H :    0.121656
  62 H :    0.124079
  63 H :    0.118527
  64 H :    0.122687
  65 H :    0.128174
  66 H :    0.116181

  Mayer bond orders larger than 0.100000
B(  0-O ,  1-C ) :   1.7650 B(  1-C ,  2-N ) :   1.0690 B(  1-C , 23-C ) :   0.9395
B(  2-N ,  3-C ) :   0.9483 B(  2-N , 35-H ) :   0.8202 B(  3-C ,  4-C ) :   0.9624
B(  3-C , 36-H ) :   0.9248 B(  3-C , 37-H ) :   0.9203 B(  4-C ,  5-C ) :   0.9751
B(  4-C , 12-N ) :   0.9622 B(  4-C , 38-H ) :   0.9023 B(  5-C ,  6-C ) :   0.9747
B(  5-C , 39-H ) :   0.9152 B(  5-C , 40-H ) :   0.9207 B(  6-C ,  7-C ) :   1.4363
B(  6-C , 11-C ) :   1.4197 B(  7-C ,  8-C ) :   1.4332 B(  7-C , 41-H ) :   0.9194
B(  8-C ,  9-C ) :   1.4587 B(  8-C , 42-H ) :   0.9293 B(  9-C , 10-C ) :   1.4500
B(  9-C , 43-H ) :   0.9302 B( 10-C , 11-C ) :   1.4427 B( 10-C , 44-H ) :   0.9294
B( 11-C , 45-H ) :   0.9242 B( 12-N , 13-C ) :   0.9754 B( 12-N , 22-C ) :   0.9693
B( 13-C , 14-C ) :   0.9898 B( 13-C , 46-H ) :   0.9279 B( 13-C , 47-H ) :   0.9071
B( 14-C , 15-C ) :   0.9520 B( 14-C , 48-H ) :   0.9271 B( 14-C , 49-H ) :   0.9256
B( 15-C , 16-O ) :   0.9047 B( 15-C , 17-C ) :   0.9301 B( 15-C , 21-C ) :   0.9601
B( 16-O , 50-H ) :   0.7680 B( 17-C , 18-F ) :   0.9607 B( 17-C , 19-F ) :   0.9423
B( 17-C , 20-F ) :   0.9624 B( 21-C , 22-C ) :   0.9842 B( 21-C , 51-H ) :   0.9248
B( 21-C , 52-H ) :   0.9207 B( 22-C , 53-H ) :   0.9193 B( 22-C , 54-H ) :   0.9262
B( 23-C , 24-C ) :   0.9725 B( 23-C , 31-C ) :   0.9680 B( 23-C , 34-C ) :   0.9652
B( 24-C , 25-C ) :   1.4074 B( 24-C , 30-C ) :   1.4292 B( 25-C , 26-C ) :   1.4412
B( 25-C , 55-H ) :   0.9062 B( 26-C , 27-C ) :   1.4102 B( 26-C , 56-H ) :   0.9235
B( 27-C , 28-Cl) :   1.0106 B( 27-C , 29-C ) :   1.4264 B( 29-C , 30-C ) :   1.4278
B( 29-C , 57-H ) :   0.9232 B( 30-C , 58-H ) :   0.9140 B( 31-C , 32-C ) :   0.9931
B( 31-C , 59-H ) :   0.9323 B( 31-C , 60-H ) :   0.9369 B( 32-C , 33-C ) :   0.9958
B( 32-C , 61-H ) :   0.9453 B( 32-C , 62-H ) :   0.9499 B( 33-C , 34-C ) :   0.9889
B( 33-C , 63-H ) :   0.9465 B( 33-C , 64-H ) :   0.9513 B( 34-C , 65-H ) :   0.9326
B( 34-C , 66-H ) :   0.9290

FINAL SINGLE POINT ENERGY     -2066.763661435994

DIPOLE MOMENT
-------------

Method             : SCF
Type of density    : Electron Density
Multiplicity       :   1
Irrep              :   0
Energy             : -2066.7636614359944360 Eh
Relativity type    :
Basis              : AO
                                X                 Y                 Z
Electronic contribution:      8.749775975       8.406960004      17.749734430
Nuclear contribution   :     -9.308167403      -9.629885526     -18.761965233
                        -----------------------------------------
Total Dipole Moment    :     -0.558391428      -1.222925523      -1.012230803
                        -----------------------------------------
Magnitude (a.u.)       :      1.682842541
Magnitude (Debye)      :      4.277445806

Rotational constants in cm-1:             0.004608             0.001811             0.001486
Rotational constants in MHz :           138.139058            54.286539            44.558275

                             ****ORCA TERMINATED NORMALLY****
TOTAL RUN TIME: 0 days 0 hours 11 minutes 34 seconds 756 msec
