                         Program Version 6.0.0  -   RELEASE  -
|  1> ! B3LYP 6-31G* SP
|  2>
|  3> * xyz 0 1
|  4> C -2.2213 0.0439 4.1559
|  5> C -2.6447 0.1364 2.7266
|  6> O -3.2322 1.1986 2.2081
|  7> C -3.4483 0.9477 0.9376
|  8> C -3.0061 -0.2942 0.6021
|  9> C -2.4852 -0.8534 1.7556
| 10> C -1.7945 -2.1788 1.9102
| 11> C -0.3969 -2.0975 1.3736
| 12> O 0.4345 -1.3330 1.9343
| 13> N -0.0103 -2.8903 0.2404
| 14> C 1.1900 -2.6632 -0.5076
| 15> N 2.0323 -1.6314 -0.2906
| 16> C 3.0723 -1.6208 -1.1712
| 17> C 4.1134 -0.5591 -1.1237
| 18> C 5.3060 -0.6639 -1.8640
| 19> C 6.2665 0.3473 -1.8064
| 20> C 6.0589 1.4749 -1.0099
| 21> F 7.0100 2.4432 -0.9726
| 22> C 4.8803 1.6023 -0.2547
| 23> C 4.6715 2.8289 0.6028
| 24> F 3.4621 2.7884 1.2754
| 25> F 4.6910 3.9584 -0.1956
| 26> F 5.6889 2.9179 1.5362
| 27> C 3.9145 0.5792 -0.3172
| 28> C 3.0432 -2.6623 -2.1065
| 29> S 1.6796 -3.6023 -1.8079
| 30> C -3.1296 -0.7479 -0.7049
| 31> O -2.7361 -1.9051 -1.0175
| 32> N -3.6953 0.0892 -1.6396
| 33> C -3.8679 -0.3724 -3.0272
| 34> C -4.1682 1.3352 -1.2637
| 35> O -4.7394 2.0742 -2.1155
| 36> N -4.0272 1.7803 0.0319
| 37> C -4.5239 3.1025 0.4333
| 38> H -2.4275 1.0026 4.6771
| 39> H -2.7849 -0.7692 4.6592
| 40> H -1.1338 -0.1709 4.2125
| 41> H -2.3755 -2.9612 1.3797
| 42> H -1.7562 -2.4700 2.9809
| 43> H -0.6510 -3.6480 -0.0862
| 44> H 5.5123 -1.5272 -2.4798
| 45> H 7.1793 0.2540 -2.3804
| 46> H 3.0008 0.6713 0.2553
| 47> H 3.7449 -2.8385 -2.9091
| 48> H -4.8645 -0.8491 -3.1396
| 49> H -3.0806 -1.1011 -3.3130
| 50> H -3.7858 0.4735 -3.7428
| 51> H -5.6340 3.1052 0.4146
| 52> H -4.1874 3.3767 1.4558
| 53> H -4.1440 3.8792 -0.2643
| 54> *
| 55>
| 56>                          ****END OF INPUT****

CARTESIAN COORDINATES (ANGSTROEM)
---------------------------------
  C     -2.221300    0.043900    4.155900
  C     -2.644700    0.136400    2.726600
  O     -3.232200    1.198600    2.208100
  C     -3.448300    0.947700    0.937600
  C     -3.006100   -0.294200    0.602100
  C     -2.485200   -0.853400    1.755600
  C     -1.794500   -2.178800    1.910200
  C     -0.396900   -2.097500    1.373600
  O      0.434500   -1.333000    1.934300
  N     -0.010300   -2.890300    0.240400
  C      1.190000   -2.663200   -0.507600
  N      2.032300   -1.631400   -0.290600
  C      3.072300   -1.620800   -1.171200
  C      4.113400   -0.559100   -1.123700
  C      5.306000   -0.663900   -1.864000
  C      6.266500    0.347300   -1.806400
  C      6.058900    1.474900   -1.009900
  F      7.010000    2.443200   -0.972600
  C      4.880300    1.602300   -0.254700
  C      4.671500    2.828900    0.602800
  F      3.462100    2.788400    1.275400
  F      4.691000    3.958400   -0.195600
  F      5.688900    2.917900    1.536200
  C      3.914500    0.579200   -0.317200
  C      3.043200   -2.662300   -2.106500
  S      1.679600   -3.602300   -1.807900
  C     -3.129600   -0.747900   -0.704900
  O     -2.736100   -1.905100   -1.017500
  N     -3.695300    0.089200   -1.639600
  C     -3.867900   -0.372400   -3.027200
  C     -4.168200    1.335200   -1.263700
  O     -4.739400    2.074200   -2.115500
  N     -4.027200    1.780300    0.031900
  C     -4.523900    3.102500    0.433300
  H     -2.427500    1.002600    4.677100
  H     -2.784900   -0.769200    4.659200
  H     -1.133800   -0.170900    4.212500
  H     -2.375500   -2.961200    1.379700
  H     -1.756200   -2.470000    2.980900
  H     -0.651000   -3.648000   -0.086200
  H      5.512300   -1.527200   -2.479800
  H      7.179300    0.254000   -2.380400
  H      3.000800    0.671300    0.255300
  H      3.744900   -2.838500   -2.909100
  H     -4.864500   -0.849100   -3.139600
  H     -3.080600   -1.101100   -3.313000
  H     -3.785800    0.473500   -3.742800
  H     -5.634000    3.105200    0.414600
  H     -4.187400    3.376700    1.455800
  H     -4.144000    3.879200   -0.264300

 Total Charge           Charge          ....    0
 Multiplicity           Mult            ....    1
 Number of Electrons    NEL             ....  254
 Basis Dimension        Dim             ....  512

ORBITAL ENERGIES
----------------

  NO   OCC          E(Eh)            E(eV)
   0   2.0000     -88.906011     -2419.2555
   1   2.0000     -24.712602      -672.4641
   2   2.0000     -24.706390      -672.2950
   3   2.0000     -24.705793      -672.2788
   4   2.0000     -24.705489      -672.2705
   5   2.0000     -19.250407      -523.8302
   6   2.0000     -19.116997      -520.1999
   7   2.0000     -19.114489      -520.1317
   8   2.0000     -19.109427      -519.9939
   9   2.0000     -14.413913      -392.2225
  10   2.0000     -14.397253      -391.7692
  11   2.0000     -14.388426      -391.5290
  12   2.0000     -14.323916      -389.7736
  13   2.0000     -10.428545      -283.7751
  14   2.0000     -10.331021      -281.1214
  15   2.0000     -10.301076      -280.3065
  16   2.0000     -10.297876      -280.2195
  17   2.0000     -10.290660      -280.0231
  18   2.0000     -10.288160      -279.9551
  19   2.0000     -10.281506      -279.7740
  20   2.0000     -10.249665      -278.9076
  21   2.0000     -10.239711      -278.6367
  22   2.0000     -10.226887      -278.2877
  23   2.0000     -10.220123      -278.1037
  24   2.0000     -10.212482      -277.8958
  25   2.0000     -10.209196      -277.8063
  26   2.0000     -10.208097      -277.7764
  27   2.0000     -10.206505      -277.7331
  28   2.0000     -10.202808      -277.6325
  29   2.0000     -10.198434      -277.5135
  30   2.0000     -10.198361      -277.5115
  31   2.0000     -10.197842      -277.4974
  32   2.0000     -10.196012      -277.4476
  33   2.0000     -10.186459      -277.1876
  34   2.0000      -7.983706      -217.2477
  35   2.0000      -5.946775      -161.8200
  36   2.0000      -5.942690      -161.7088
  37   2.0000      -5.940511      -161.6495
  38   2.0000      -1.269580       -34.5470
  39   2.0000      -1.218071       -33.1454
  40   2.0000      -1.195269       -32.5249
  41   2.0000      -1.192462       -32.4486
  42   2.0000      -1.180104       -32.1123
  43   2.0000      -1.068383       -29.0722
  44   2.0000      -1.020813       -27.7777
  45   2.0000      -1.018764       -27.7220
  46   2.0000      -0.975843       -26.5540
  47   2.0000      -0.973414       -26.4879
  48   2.0000      -0.939707       -25.5707
  49   2.0000      -0.911329       -24.7985
  50   2.0000      -0.871168       -23.7057
  51   2.0000      -0.851966       -23.1832
  52   2.0000      -0.812246       -22.1023
  53   2.0000      -0.805662       -21.9232
  54   2.0000      -0.791035       -21.5252
  55   2.0000      -0.773293       -21.0424
  56   2.0000      -0.765287       -20.8245
  57   2.0000      -0.745043       -20.2736
  58   2.0000      -0.724280       -19.7087
  59   2.0000      -0.719755       -19.5855
  60   2.0000      -0.707399       -19.2493
  61   2.0000      -0.690284       -18.7836
  62   2.0000      -0.663975       -18.0677
  63   2.0000      -0.638215       -17.3667
  64   2.0000      -0.629125       -17.1193
  65   2.0000      -0.627769       -17.0825
  66   2.0000      -0.612557       -16.6685
  67   2.0000      -0.608202       -16.5500
  68   2.0000      -0.595921       -16.2158
  69   2.0000      -0.577293       -15.7089
  70   2.0000      -0.564353       -15.3568
  71   2.0000      -0.559584       -15.2271
  72   2.0000      -0.559045       -15.2124
  73   2.0000      -0.543116       -14.7789
  74   2.0000      -0.533957       -14.5297
  75   2.0000      -0.528335       -14.3767
  76   2.0000      -0.522534       -14.2189
  77   2.0000      -0.514810       -14.0087
  78   2.0000      -0.506833       -13.7916
  79   2.0000      -0.492624       -13.4050
  80   2.0000      -0.483432       -13.1549
  81   2.0000      -0.482248       -13.1226
  82   2.0000      -0.474884       -12.9223
  83   2.0000      -0.472241       -12.8503
  84   2.0000      -0.463295       -12.6069
  85   2.0000      -0.460402       -12.5282
  86   2.0000      -0.449541       -12.2326
  87   2.0000      -0.447976       -12.1900
  88   2.0000      -0.446099       -12.1390
  89   2.0000      -0.439096       -11.9484
  90   2.0000      -0.436894       -11.8885
  91   2.0000      -0.434652       -11.8275
  92   2.0000      -0.434123       -11.8131
  93   2.0000      -0.427642       -11.6367
  94   2.0000      -0.421572       -11.4716
  95   2.0000      -0.419465       -11.4142
  96   2.0000      -0.416090       -11.3224
  97   2.0000      -0.413791       -11.2598
  98   2.0000      -0.407196       -11.0804
  99   2.0000      -0.406588       -11.0638
 100   2.0000      -0.403450       -10.9784
 101   2.0000      -0.402068       -10.9408
 102   2.0000      -0.400139       -10.8883
 103   2.0000      -0.395140       -10.7523
 104   2.0000      -0.392376       -10.6771
 105   2.0000      -0.387643       -10.5483
 106   2.0000      -0.387050       -10.5322
 107   2.0000      -0.382698       -10.4137
 108   2.0000      -0.381434       -10.3793
 109   2.0000      -0.375284       -10.2120
 110   2.0000      -0.364265        -9.9121
 111   2.0000      -0.360156        -9.8003
 112   2.0000      -0.355337        -9.6692
 113   2.0000      -0.345536        -9.4025
 114   2.0000      -0.326089        -8.8733
 115   2.0000      -0.307757        -8.3745
 116   2.0000      -0.292945        -7.9714
 117   2.0000      -0.283675        -7.7192
 118   2.0000      -0.277863        -7.5610
 119   2.0000      -0.277016        -7.5380
 120   2.0000      -0.267249        -7.2722
 121   2.0000      -0.266430        -7.2499
 122   2.0000      -0.252488        -6.8705
 123   2.0000      -0.248092        -6.7509
 124   2.0000      -0.236821        -6.4442
 125   2.0000      -0.209793        -5.7088
 126   2.0000      -0.203905        -5.5485
 127   0.0000      -0.040966        -1.1147
 128   0.0000      -0.025269        -0.6876
 129   0.0000      -0.019686        -0.5357
 130   0.0000      -0.019579        -0.5328
 131   0.0000      -0.001438        -0.0391

MULLIKEN ATOMIC CHARGES
-----------------------
   0 C :   -0.542071
   1 C :    0.266148
   2 O :   -0.405597
   3 C :    0.487468
   4 C :    0.034258
   5 C :    0.039356
   6 C :   -0.433087
   7 C :    0.581549
   8 O :   -0.439371
   9 N :   -0.647439
  10 C :    0.261604
  11 N :   -0.383471
  12 C :    0.224894
  13 C :    0.113949
  14 C :   -0.160067
  15 C :   -0.212123
  16 C :    0.386422
  17 F :   -0.302483
  18 C :   -0.115232
  19 C :    0.921242
  20 F :   -0.302825
  21 F :   -0.300688
  22 F :   -0.299890
  23 C :   -0.204347
  24 C :   -0.401099
  25 S :    0.257647
  26 C :    0.513136
  27 O :   -0.527626
  28 N :   -0.483761
  29 C :   -0.314143
  30 C :    0.676677
  31 O :   -0.506343
  32 N :   -0.502659
  33 C :   -0.327658
  34 H :    0.165700
  35 H :    0.169297
  36 H :    0.207522
  37 H :    0.169261
  38 H :    0.174777
  39 H :    0.356373
  40 H :    0.137711
  41 H :    0.151538
  42 H :    0.199149
  43 H :    0.179404
  44 H :    0.175767
  45 H :    0.194335
  46 H :    0.194027
  47 H :    0.188006
  48 H :    0.185037
  49 H :    0.199725
Sum of atomic charges:   -0.0000000

LOEWDIN ATOMIC CHARGES
----------------------
   0 C :   -0.365592
   1 C :    0.029559
   2 O :   -0.000312
   3 C :    0.093932
   4 C :   -0.109881
   5 C :   -0.039444
   6 C :   -0.237383
   7 C :    0.160459
   8 O :   -0.252769
   9 N :   -0.197190
  10 C :   -0.075709
  11 N :   -0.156930
  12 C :   -0.003392
  13 C :   -0.022223
  14 C :   -0.106478
  15 C :   -0.154078
  16 C :    0.131976
  17 F :   -0.095020
  18 C :   -0.097165
  19 C :    0.315453
  20 F :   -0.108913
  21 F :   -0.113473
  22 F :   -0.112753
  23 C :   -0.092457
  24 C :   -0.350824
  25 S :    0.393888
  26 C :    0.112273
  27 O :   -0.320641
  28 N :   -0.027946
  29 C :   -0.259645
  30 C :    0.143265
  31 O :   -0.314481
  32 N :   -0.022216
  33 C :   -0.258912
  34 H :    0.143797
  35 H :    0.141986
  36 H :    0.161034
  37 H :    0.143543
  38 H :    0.152363
  39 H :    0.273459
  40 H :    0.137112
  41 H :    0.147798
  42 H :    0.167303
  43 H :    0.158661
  44 H :    0.139138
  45 H :    0.152434
  46 H :    0.151805
  47 H :    0.144582
  48 H :    0.146567
  49 H :    0.153440

  Mayer bond orders larger than 0.100000
B(  0-C ,  1-C ) :   1.0300 B(  0-C , 34-H ) :   0.9375 B(  0-C , 35-H ) :   0.9320
B(  0-C , 36-H ) :   0.9171 B(  1-C ,  2-O ) :   0.9869 B(  1-C ,  5-C ) :   1.5518
B(  2-O ,  3-C ) :   1.0711 B(  3-C ,  4-C ) :   1.3657 B(  3-C , 32-N ) :   0.9738
B(  4-C ,  5-C ) :   1.2878 B(  4-C , 26-C ) :   1.0906 B(  5-C ,  6-C ) :   1.0161
B(  6-C ,  7-C ) :   0.9424 B(  6-C , 37-H ) :   0.9080 B(  6-C , 38-H ) :   0.9113
B(  7-C ,  8-O ) :   1.8851 B(  7-C ,  9-N ) :   0.9949 B(  9-N , 10-C ) :   0.9600
B(  9-N , 39-H ) :   0.8115 B( 10-C , 11-N ) :   1.5054 B( 10-C , 24-C ) :   0.1059
B( 10-C , 25-S ) :   1.1422 B( 11-N , 12-C ) :   1.2680 B( 12-C , 13-C ) :   1.0523
B( 12-C , 24-C ) :   1.5113 B( 13-C , 14-C ) :   1.4052 B( 13-C , 23-C ) :   1.3798
B( 14-C , 15-C ) :   1.4217 B( 14-C , 40-H ) :   0.9195 B( 15-C , 16-C ) :   1.3836
B( 15-C , 41-H ) :   0.9185 B( 16-C , 17-F ) :   0.9529 B( 16-C , 18-C ) :   1.3256
B( 18-C , 19-C ) :   0.9649 B( 18-C , 23-C ) :   1.3755 B( 19-C , 20-F ) :   0.9487
B( 19-C , 21-F ) :   0.9698 B( 19-C , 22-F ) :   0.9705 B( 23-C , 42-H ) :   0.8938
B( 24-C , 25-S ) :   1.1151 B( 24-C , 43-H ) :   0.9025 B( 26-C , 27-O ) :   1.7504
B( 26-C , 28-N ) :   0.9711 B( 28-N , 29-C ) :   0.9195 B( 28-N , 30-C ) :   1.0411
B( 29-C , 44-H ) :   0.9410 B( 29-C , 45-H ) :   0.9239 B( 29-C , 46-H ) :   0.9273
B( 30-C , 31-O ) :   1.7910 B( 30-C , 32-N ) :   1.0500 B( 32-N , 33-C ) :   0.9258
B( 33-C , 47-H ) :   0.9337 B( 33-C , 48-H ) :   0.9297 B( 33-C , 49-H ) :   0.9293

FINAL SINGLE POINT ENERGY     -2126.343699717117

DIPOLE MOMENT
-------------

Method             : SCF
Type of density    : Electron Density
Multiplicity       :   1
Irrep              :   0
Energy             : -2126.3436997171165785 Eh
Relativity type    :
Basis              : AO
                                X                 Y                 Z
Electronic contribution:     41.755169911      14.207611742      -0.957135677
Nuclear contribution   :    -43.147565023     -15.544537630       1.064072022
                        -----------------------------------------
Total Dipole Moment    :     -1.392395113      -1.336925888       0.106936345
                        -----------------------------------------
Magnitude (a.u.)       :      1.933279691
Magnitude (Debye)      :      4.914006451

Rotational constants in cm-1:             0.004879             0.002005             0.001765
Rotational constants in MHz :           146.257358            60.104595            52.916567

                             ****ORCA TERMINATED NORMALLY****
TOTAL RUN TIME: 0 days 0 hours 7 minutes 57 seconds 273 msec
