                         Program Version 6.0.0  -   RELEASE  -
|  1> ! B3LYP 6-31G* SP
|  2>
|  3> * xyz 0 1
|  4> C 0.3430 -0.7143 2.2718
|  5> C -0.6504 -1.5540 1.4736
|  6> N -1.3513 -0.7271 0.4748
|  7> C -0.5933 -0.0864 -0.5775
|  8> O -0.8619 1.0991 -0.9125
|  9> C 0.4971 -0.7997 -1.2779
| 10> C 0.3067 -2.1332 -1.6760
| 11> C 1.3226 -2.8265 -2.3353
| 12> C 2.5341 -2.1939 -2.6115
| 13> C 2.7345 -0.8654 -2.2307
| 14> C 1.7200 -0.1537 -1.5589
| 15> O 1.8930 1.1808 -1.1496
| 16> C 3.1313 1.8915 -1.1363
| 17> C 4.0371 1.3469 -0.0653
| 18> C 3.6149 1.3478 1.2743
| 19> C 4.4423 0.8285 2.2744
| 20> C 5.6989 0.3129 1.9455
| 21> C 6.1305 0.3178 0.6162
| 22> C 5.3049 0.8346 -0.3874
| 23> C -2.8026 -0.4890 0.6223
| 24> C -3.5409 -0.6210 -0.7245
| 25> C -5.0675 -0.4948 -0.5503
| 26> C -5.4816 0.4214 0.6212
| 27> C -4.4333 1.5093 0.9219
| 28> N -4.2720 2.3935 -0.2360
| 29> C -3.0759 0.8719 1.3139
| 30> H -0.1762 0.1498 2.7383
| 31> H 0.7992 -1.3346 3.0719
| 32> H 1.1529 -0.3427 1.6109
| 33> H -0.1167 -2.3911 0.9794
| 34> H -1.3664 -2.0102 2.1903
| 35> H -0.6334 -2.6350 -1.4814
| 36> H 1.1682 -3.8544 -2.6369
| 37> H 3.3190 -2.7327 -3.1265
| 38> H 3.6803 -0.4030 -2.4698
| 39> H 3.6032 1.8664 -2.1419
| 40> H 2.9204 2.9573 -0.9073
| 41> H 2.6442 1.7470 1.5416
| 42> H 4.1093 0.8261 3.3043
| 43> H 6.3388 -0.0886 2.7206
| 44> H 7.1052 -0.0793 0.3631
| 45> H 5.6538 0.8319 -1.4124
| 46> H -3.2368 -1.2791 1.2762
| 47> H -3.1975 0.1677 -1.4268
| 48> H -3.3041 -1.6043 -1.1863
| 49> H -5.5032 -1.5039 -0.3833
| 50> H -5.5019 -0.1025 -1.4957
| 51> H -5.6201 -0.1976 1.5351
| 52> H -6.4639 0.8912 0.3968
| 53> H -4.7975 2.1155 1.7828
| 54> H -5.1970 2.8346 -0.4465
| 55> H -3.6370 3.1795 0.0342
| 56> H -3.0684 0.7025 2.4133
| 57> H -2.2547 1.5927 1.1188
| 58> *
| 59>
| 60>                          ****END OF INPUT****

CARTESIAN COORDINATES (ANGSTROEM)
---------------------------------
  C      0.343000   -0.714300    2.271800
  C     -0.650400   -1.554000    1.473600
  N     -1.351300   -0.727100    0.474800
  C     -0.593300   -0.086400   -0.577500
  O     -0.861900    1.099100   -0.912500
  C      0.497100   -0.799700   -1.277900
  C      0.306700   -2.133200   -1.676000
  C      1.322600   -2.826500   -2.335300
  C      2.534100   -2.193900   -2.611500
  C      2.734500   -0.865400   -2.230700
  C      1.720000   -0.153700   -1.558900
  O      1.893000    1.180800   -1.149600
  C      3.131300    1.891500   -1.136300
  C      4.037100    1.346900   -0.065300
  C      3.614900    1.347800    1.274300
  C      4.442300    0.828500    2.274400
  C      5.698900    0.312900    1.945500
  C      6.130500    0.317800    0.616200
  C      5.304900    0.834600   -0.387400
  C     -2.802600   -0.489000    0.622300
  C     -3.540900   -0.621000   -0.724500
  C     -5.067500   -0.494800   -0.550300
  C     -5.481600    0.421400    0.621200
  C     -4.433300    1.509300    0.921900
  N     -4.272000    2.393500   -0.236000
  C     -3.075900    0.871900    1.313900
  H     -0.176200    0.149800    2.738300
  H      0.799200   -1.334600    3.071900
  H      1.152900   -0.342700    1.610900
  H     -0.116700   -2.391100    0.979400
  H     -1.366400   -2.010200    2.190300
  H     -0.633400   -2.635000   -1.481400
  H      1.168200   -3.854400   -2.636900
  H      3.319000   -2.732700   -3.126500
  H      3.680300   -0.403000   -2.469800
  H      3.603200    1.866400   -2.141900
  H      2.920400    2.957300   -0.907300
  H      2.644200    1.747000    1.541600
  H      4.109300    0.826100    3.304300
  H      6.338800   -0.088600    2.720600
  H      7.105200   -0.079300    0.363100
  H      5.653800    0.831900   -1.412400
  H     -3.236800   -1.279100    1.276200
  H     -3.197500    0.167700   -1.426800
  H     -3.304100   -1.604300   -1.186300
  H     -5.503200   -1.503900   -0.383300
  H     -5.501900   -0.102500   -1.495700
  H     -5.620100   -0.197600    1.535100
  H     -6.463900    0.891200    0.396800
  H     -4.797500    2.115500    1.782800
  H     -5.197000    2.834600   -0.446500
  H     -3.637000    3.179500    0.034200
  H     -3.068400    0.702500    2.413300
  H     -2.254700    1.592700    1.118800

 Total Charge           Charge          ....    0
 Multiplicity           Mult            ....    1
 Number of Electrons    NEL             ....  190
 Basis Dimension        Dim             ....  420

ORBITAL ENERGIES
----------------

  NO   OCC          E(Eh)            E(eV)
   0   2.0000     -19.158941      -521.3413
   1   2.0000     -19.094140      -519.5780
   2   2.0000     -14.327038      -389.8585
   3   2.0000     -14.289682      -388.8420
   4   2.0000     -10.270440      -279.4729
   5   2.0000     -10.250878      -278.9406
   6   2.0000     -10.238442      -278.6022
   7   2.0000     -10.205070      -277.6941
   8   2.0000     -10.204492      -277.6784
   9   2.0000     -10.191321      -277.3199
  10   2.0000     -10.189884      -277.2808
  11   2.0000     -10.189143      -277.2607
  12   2.0000     -10.185774      -277.1690
  13   2.0000     -10.185549      -277.1629
  14   2.0000     -10.184549      -277.1357
  15   2.0000     -10.183237      -277.1000
  16   2.0000     -10.182895      -277.0907
  17   2.0000     -10.182202      -277.0718
  18   2.0000     -10.181489      -277.0524
  19   2.0000     -10.181087      -277.0415
  20   2.0000     -10.176030      -276.9038
  21   2.0000     -10.163825      -276.5717
  22   2.0000     -10.162118      -276.5253
  23   2.0000     -10.159701      -276.4595
  24   2.0000     -10.154787      -276.3258
  25   2.0000     -10.151328      -276.2317
  26   2.0000      -1.039158       -28.2769
  27   2.0000      -0.991890       -26.9907
  28   2.0000      -0.897641       -24.4260
  29   2.0000      -0.865203       -23.5434
  30   2.0000      -0.854125       -23.2419
  31   2.0000      -0.846954       -23.0468
  32   2.0000      -0.786560       -21.4034
  33   2.0000      -0.773234       -21.0408
  34   2.0000      -0.754615       -20.5341
  35   2.0000      -0.743294       -20.2261
  36   2.0000      -0.739688       -20.1279
  37   2.0000      -0.736478       -20.0406
  38   2.0000      -0.709442       -19.3049
  39   2.0000      -0.696444       -18.9512
  40   2.0000      -0.679297       -18.4846
  41   2.0000      -0.635206       -17.2848
  42   2.0000      -0.609712       -16.5911
  43   2.0000      -0.606167       -16.4947
  44   2.0000      -0.605460       -16.4754
  45   2.0000      -0.595783       -16.2121
  46   2.0000      -0.585929       -15.9439
  47   2.0000      -0.575485       -15.6597
  48   2.0000      -0.541147       -14.7254
  49   2.0000      -0.520397       -14.1607
  50   2.0000      -0.510541       -13.8925
  51   2.0000      -0.500745       -13.6260
  52   2.0000      -0.481869       -13.1123
  53   2.0000      -0.476577       -12.9683
  54   2.0000      -0.475650       -12.9431
  55   2.0000      -0.469367       -12.7721
  56   2.0000      -0.466590       -12.6966
  57   2.0000      -0.460796       -12.5389
  58   2.0000      -0.455134       -12.3848
  59   2.0000      -0.443650       -12.0723
  60   2.0000      -0.436384       -11.8746
  61   2.0000      -0.432788       -11.7768
  62   2.0000      -0.428802       -11.6683
  63   2.0000      -0.420473       -11.4416
  64   2.0000      -0.415299       -11.3008
  65   2.0000      -0.411771       -11.2049
  66   2.0000      -0.407999       -11.1022
  67   2.0000      -0.398594       -10.8463
  68   2.0000      -0.391911       -10.6644
  69   2.0000      -0.383298       -10.4301
  70   2.0000      -0.374970       -10.2035
  71   2.0000      -0.368541       -10.0285
  72   2.0000      -0.363371        -9.8878
  73   2.0000      -0.360328        -9.8050
  74   2.0000      -0.358796        -9.7633
  75   2.0000      -0.355970        -9.6864
  76   2.0000      -0.352241        -9.5850
  77   2.0000      -0.348666        -9.4877
  78   2.0000      -0.347052        -9.4438
  79   2.0000      -0.344154        -9.3649
  80   2.0000      -0.340914        -9.2767
  81   2.0000      -0.329540        -8.9672
  82   2.0000      -0.324451        -8.8288
  83   2.0000      -0.308615        -8.3978
  84   2.0000      -0.305993        -8.3265
  85   2.0000      -0.301479        -8.2037
  86   2.0000      -0.290632        -7.9085
  87   2.0000      -0.286587        -7.7984
  88   2.0000      -0.251495        -6.8435
  89   2.0000      -0.247515        -6.7352
  90   2.0000      -0.242896        -6.6095
  91   2.0000      -0.225507        -6.1364
  92   2.0000      -0.217546        -5.9197
  93   2.0000      -0.212767        -5.7897
  94   2.0000      -0.200333        -5.4513
  95   0.0000      -0.028257        -0.7689
  96   0.0000      -0.006879        -0.1872
  97   0.0000      -0.000914        -0.0249
  98   0.0000       0.009340         0.2542
  99   0.0000       0.046132         1.2553

MULLIKEN ATOMIC CHARGES
-----------------------
   0 C :   -0.441210
   1 C :   -0.139396
   2 N :   -0.429431
   3 C :    0.457280
   4 O :   -0.450466
   5 C :    0.023626
   6 C :   -0.161780
   7 C :   -0.138347
   8 C :   -0.115957
   9 C :   -0.191084
  10 C :    0.351459
  11 O :   -0.498782
  12 C :   -0.107918
  13 C :    0.125998
  14 C :   -0.160946
  15 C :   -0.127657
  16 C :   -0.123818
  17 C :   -0.125957
  18 C :   -0.173707
  19 C :    0.045122
  20 C :   -0.274723
  21 C :   -0.252894
  22 C :   -0.269171
  23 C :    0.030571
  24 N :   -0.696178
  25 C :   -0.256937
  26 H :    0.148476
  27 H :    0.131071
  28 H :    0.164730
  29 H :    0.144205
  30 H :    0.140688
  31 H :    0.145980
  32 H :    0.125749
  33 H :    0.132061
  34 H :    0.132810
  35 H :    0.137273
  36 H :    0.169430
  37 H :    0.147040
  38 H :    0.131336
  39 H :    0.128531
  40 H :    0.128447
  41 H :    0.124226
  42 H :    0.122445
  43 H :    0.191351
  44 H :    0.114560
  45 H :    0.117812
  46 H :    0.137352
  47 H :    0.124435
  48 H :    0.121115
  49 H :    0.091126
  50 H :    0.279244
  51 H :    0.293691
  52 H :    0.110064
  53 H :    0.167056
Sum of atomic charges:   -0.0000000

LOEWDIN ATOMIC CHARGES
----------------------
   0 C :   -0.371638
   1 C :   -0.157759
   2 N :   -0.115835
   3 C :    0.148056
   4 O :   -0.254668
   5 C :   -0.067808
   6 C :   -0.110659
   7 C :   -0.150440
   8 C :   -0.113517
   9 C :   -0.166965
  10 C :    0.115683
  11 O :   -0.166728
  12 C :   -0.081525
  13 C :   -0.040228
  14 C :   -0.123280
  15 C :   -0.126020
  16 C :   -0.128673
  17 C :   -0.128050
  18 C :   -0.134520
  19 C :   -0.043778
  20 C :   -0.240659
  21 C :   -0.228484
  22 C :   -0.231815
  23 C :   -0.077116
  24 N :   -0.464141
  25 C :   -0.236842
  26 H :    0.125673
  27 H :    0.120380
  28 H :    0.132133
  29 H :    0.119041
  30 H :    0.122833
  31 H :    0.140413
  32 H :    0.130852
  33 H :    0.133713
  34 H :    0.135969
  35 H :    0.114745
  36 H :    0.140725
  37 H :    0.139473
  38 H :    0.132704
  39 H :    0.131533
  40 H :    0.131385
  41 H :    0.127963
  42 H :    0.116694
  43 H :    0.146586
  44 H :    0.111635
  45 H :    0.111511
  46 H :    0.123670
  47 H :    0.115596
  48 H :    0.115599
  49 H :    0.089780
  50 H :    0.214601
  51 H :    0.223301
  52 H :    0.109871
  53 H :    0.139033

  Mayer bond orders larger than 0.100000
B(  0-C ,  1-C ) :   1.0078 B(  0-C , 26-H ) :   0.9483 B(  0-C , 27-H ) :   0.9444
B(  0-C , 28-H ) :   0.9355 B(  1-C ,  2-N ) :   0.9580 B(  1-C , 29-H ) :   0.9242
B(  1-C , 30-H ) :   0.9384 B(  2-N ,  3-C ) :   1.0448 B(  2-N , 19-C ) :   0.9272
B(  3-C ,  4-O ) :   1.8016 B(  3-C ,  5-C ) :   0.9496 B(  5-C ,  6-C ) :   1.4146
B(  5-C , 10-C ) :   1.3444 B(  6-C ,  7-C ) :   1.4367 B(  6-C , 31-H ) :   0.9171
B(  7-C ,  8-C ) :   1.4458 B(  7-C , 32-H ) :   0.9298 B(  8-C ,  9-C ) :   1.4446
B(  8-C , 33-H ) :   0.9296 B(  9-C , 10-C ) :   1.3562 B(  9-C , 34-H ) :   0.9140
B( 10-C , 11-O ) :   0.9354 B( 11-O , 12-C ) :   0.9095 B( 12-C , 13-C ) :   0.9632
B( 12-C , 35-H ) :   0.9196 B( 12-C , 36-H ) :   0.9254 B( 13-C , 14-C ) :   1.4211
B( 13-C , 18-C ) :   1.4377 B( 14-C , 15-C ) :   1.4447 B( 14-C , 37-H ) :   0.9203
B( 15-C , 16-C ) :   1.4448 B( 15-C , 38-H ) :   0.9297 B( 16-C , 17-C ) :   1.4613
B( 16-C , 39-H ) :   0.9304 B( 17-C , 18-C ) :   1.4361 B( 17-C , 40-H ) :   0.9295
B( 18-C , 41-H ) :   0.9229 B( 19-C , 20-C ) :   1.0144 B( 19-C , 25-C ) :   0.9747
B( 19-C , 42-H ) :   0.9298 B( 20-C , 21-C ) :   0.9966 B( 20-C , 43-H ) :   0.9126
B( 20-C , 44-H ) :   0.9369 B( 21-C , 22-C ) :   0.9962 B( 21-C , 45-H ) :   0.9473
B( 21-C , 46-H ) :   0.9465 B( 22-C , 23-C ) :   1.0046 B( 22-C , 47-H ) :   0.9431
B( 22-C , 48-H ) :   0.9417 B( 23-C , 24-N ) :   0.9821 B( 23-C , 25-C ) :   0.9798
B( 23-C , 49-H ) :   0.9348 B( 24-N , 50-H ) :   0.8637 B( 24-N , 51-H ) :   0.8597
B( 25-C , 52-H ) :   0.9376 B( 25-C , 53-H ) :   0.9233

FINAL SINGLE POINT ENERGY     -1114.395356520265

DIPOLE MOMENT
-------------

Method             : SCF
Type of density    : Electron Density
Multiplicity       :   1
Irrep              :   0
Energy             : -1114.3953565202646132 Eh
Relativity type    :
Basis              : AO
                                X                 Y                 Z
Electronic contribution:     20.540069775       1.552824687      -9.932810698
Nuclear contribution   :    -19.859823735      -2.110203165      10.665692600
                        -----------------------------------------
Total Dipole Moment    :      0.680246040      -0.557378478       0.732881902
                        -----------------------------------------
Magnitude (a.u.)       :      1.144780033
Magnitude (Debye)      :      2.909799599

Rotational constants in cm-1:             0.012509             0.003663             0.003348
Rotational constants in MHz :           375.013345           109.803791           100.378364

                             ****ORCA TERMINATED NORMALLY****
TOTAL RUN TIME: 0 days 0 hours 2 minutes 30 seconds 685 msec
