                         Program Version 6.0.0  -   RELEASE  -
|  1> ! B3LYP 6-31G* SP
|  2>
|  3> * xyz 0 1
|  4> O 2.5770 -1.9299 0.8290
|  5> C 1.7262 -1.6281 -0.0522
|  6> N 2.1199 -0.7914 -1.1471
|  7> C 2.7788 0.4760 -0.9745
|  8> C 2.8143 1.1242 0.2766
|  9> C 3.3967 2.3890 0.4000
| 10> C 3.9482 3.0192 -0.7182
| 11> F 4.5089 4.2476 -0.5965
| 12> C 3.9128 2.3870 -1.9638
| 13> C 3.3264 1.1242 -2.0928
| 14> N 0.3644 -2.0996 0.0571
| 15> C 0.0411 -3.1193 1.0667
| 16> C -1.0462 -4.0523 0.5511
| 17> C -2.2397 -3.2694 0.1081
| 18> N -3.4760 -3.8317 0.2033
| 19> C -4.5909 -3.1993 -0.2460
| 20> C -4.4865 -1.9478 -0.8508
| 21> C -3.2311 -1.3537 -0.9791
| 22> C -2.0856 -1.9995 -0.4808
| 23> C -0.7121 -1.3659 -0.6509
| 24> C -0.7282 0.0845 -0.2000
| 25> C -0.5181 1.1165 -1.1295
| 26> C -0.4528 2.4469 -0.7083
| 27> C -0.5883 2.7708 0.6518
| 28> C -0.5393 4.2101 1.0982
| 29> F -0.1265 4.3023 2.4162
| 30> F -1.7990 4.7664 0.9804
| 31> F 0.3479 4.9301 0.3168
| 32> C -0.8538 1.7438 1.5735
| 33> C -0.9166 0.4128 1.1525
| 34> H 1.8316 -1.0796 -2.1091
| 35> H 2.3661 0.6730 1.1515
| 36> H 3.4110 2.8842 1.3625
| 37> H 4.3337 2.8776 -2.8320
| 38> H 3.2930 0.6522 -3.0668
| 39> H 0.9336 -3.7374 1.3060
| 40> H -0.2958 -2.6240 2.0023
| 41> H -0.6583 -4.6375 -0.3104
| 42> H -1.3335 -4.7606 1.3583
| 43> H -5.5570 -3.6757 -0.1469
| 44> H -5.3696 -1.4463 -1.2251
| 45> H -3.1523 -0.3905 -1.4673
| 46> H -0.4955 -1.4185 -1.7402
| 47> H -0.3832 0.8910 -2.1800
| 48> H -0.2856 3.2225 -1.4452
| 49> H -1.0055 1.9686 2.6217
| 50> H -1.1043 -0.3623 1.8834
| 51> *
| 52>
| 53>                          ****END OF INPUT****

CARTESIAN COORDINATES (ANGSTROEM)
---------------------------------
  O      2.577000   -1.929900    0.829000
  C      1.726200   -1.628100   -0.052200
  N      2.119900   -0.791400   -1.147100
  C      2.778800    0.476000   -0.974500
  C      2.814300    1.124200    0.276600
  C      3.396700    2.389000    0.400000
  C      3.948200    3.019200   -0.718200
  F      4.508900    4.247600   -0.596500
  C      3.912800    2.387000   -1.963800
  C      3.326400    1.124200   -2.092800
  N      0.364400   -2.099600    0.057100
  C      0.041100   -3.119300    1.066700
  C     -1.046200   -4.052300    0.551100
  C     -2.239700   -3.269400    0.108100
  N     -3.476000   -3.831700    0.203300
  C     -4.590900   -3.199300   -0.246000
  C     -4.486500   -1.947800   -0.850800
  C     -3.231100   -1.353700   -0.979100
  C     -2.085600   -1.999500   -0.480800
  C     -0.712100   -1.365900   -0.650900
  C     -0.728200    0.084500   -0.200000
  C     -0.518100    1.116500   -1.129500
  C     -0.452800    2.446900   -0.708300
  C     -0.588300    2.770800    0.651800
  C     -0.539300    4.210100    1.098200
  F     -0.126500    4.302300    2.416200
  F     -1.799000    4.766400    0.980400
  F      0.347900    4.930100    0.316800
  C     -0.853800    1.743800    1.573500
  C     -0.916600    0.412800    1.152500
  H      1.831600   -1.079600   -2.109100
  H      2.366100    0.673000    1.151500
  H      3.411000    2.884200    1.362500
  H      4.333700    2.877600   -2.832000
  H      3.293000    0.652200   -3.066800
  H      0.933600   -3.737400    1.306000
  H     -0.295800   -2.624000    2.002300
  H     -0.658300   -4.637500   -0.310400
  H     -1.333500   -4.760600    1.358300
  H     -5.557000   -3.675700   -0.146900
  H     -5.369600   -1.446300   -1.225100
  H     -3.152300   -0.390500   -1.467300
  H     -0.495500   -1.418500   -1.740200
  H     -0.383200    0.891000   -2.180000
  H     -0.285600    3.222500   -1.445200
  H     -1.005500    1.968600    2.621700
  H     -1.104300   -0.362300    1.883400

 Total Charge           Charge          ....    0
 Multiplicity           Mult            ....    1
 Number of Electrons    NEL             ....  214
 Basis Dimension        Dim             ....  454

ORBITAL ENERGIES
----------------

  NO   OCC          E(Eh)            E(eV)
   0   2.0000     -24.719444      -672.6503
   1   2.0000     -24.717806      -672.6057
   2   2.0000     -24.715620      -672.5462
   3   2.0000     -24.688228      -671.8008
   4   2.0000     -19.114849      -520.1415
   5   2.0000     -14.370793      -391.0492
   6   2.0000     -14.366311      -390.9272
   7   2.0000     -14.331286      -389.9741
   8   2.0000     -10.434323      -283.9324
   9   2.0000     -10.323246      -280.9098
  10   2.0000     -10.258098      -279.1370
  11   2.0000     -10.254564      -279.0409
  12   2.0000     -10.235425      -278.5201
  13   2.0000     -10.234640      -278.4987
  14   2.0000     -10.226245      -278.2703
  15   2.0000     -10.225583      -278.2523
  16   2.0000     -10.215737      -277.9843
  17   2.0000     -10.214714      -277.9565
  18   2.0000     -10.213803      -277.9317
  19   2.0000     -10.210452      -277.8405
  20   2.0000     -10.206918      -277.7444
  21   2.0000     -10.206467      -277.7321
  22   2.0000     -10.203851      -277.6609
  23   2.0000     -10.203163      -277.6422
  24   2.0000     -10.198969      -277.5281
  25   2.0000     -10.194650      -277.4105
  26   2.0000     -10.190862      -277.3075
  27   2.0000     -10.188398      -277.2404
  28   2.0000     -10.185810      -277.1700
  29   2.0000     -10.185070      -277.1498
  30   2.0000      -1.278646       -34.7937
  31   2.0000      -1.204126       -32.7659
  32   2.0000      -1.202943       -32.7337
  33   2.0000      -1.202042       -32.7092
  34   2.0000      -1.027541       -27.9608
  35   2.0000      -0.947975       -25.7957
  36   2.0000      -0.929689       -25.2981
  37   2.0000      -0.918701       -24.9991
  38   2.0000      -0.876658       -23.8551
  39   2.0000      -0.844549       -22.9814
  40   2.0000      -0.824058       -22.4238
  41   2.0000      -0.802233       -21.8299
  42   2.0000      -0.793943       -21.6043
  43   2.0000      -0.765093       -20.8192
  44   2.0000      -0.761345       -20.7173
  45   2.0000      -0.751520       -20.4499
  46   2.0000      -0.735833       -20.0230
  47   2.0000      -0.708861       -19.2891
  48   2.0000      -0.678939       -18.4749
  49   2.0000      -0.662669       -18.0321
  50   2.0000      -0.636030       -17.3073
  51   2.0000      -0.629106       -17.1188
  52   2.0000      -0.627677       -17.0800
  53   2.0000      -0.617087       -16.7918
  54   2.0000      -0.606040       -16.4912
  55   2.0000      -0.592164       -16.1136
  56   2.0000      -0.569870       -15.5069
  57   2.0000      -0.567090       -15.4313
  58   2.0000      -0.564167       -15.3518
  59   2.0000      -0.559214       -15.2170
  60   2.0000      -0.544132       -14.8066
  61   2.0000      -0.535877       -14.5820
  62   2.0000      -0.523041       -14.2327
  63   2.0000      -0.518084       -14.0978
  64   2.0000      -0.506985       -13.7958
  65   2.0000      -0.488660       -13.2971
  66   2.0000      -0.484164       -13.1748
  67   2.0000      -0.478325       -13.0159
  68   2.0000      -0.471798       -12.8383
  69   2.0000      -0.467949       -12.7335
  70   2.0000      -0.455315       -12.3897
  71   2.0000      -0.449010       -12.2182
  72   2.0000      -0.447878       -12.1874
  73   2.0000      -0.447326       -12.1723
  74   2.0000      -0.445343       -12.1184
  75   2.0000      -0.442564       -12.0428
  76   2.0000      -0.439848       -11.9689
  77   2.0000      -0.428451       -11.6587
  78   2.0000      -0.421299       -11.4641
  79   2.0000      -0.420184       -11.4338
  80   2.0000      -0.417011       -11.3475
  81   2.0000      -0.413555       -11.2534
  82   2.0000      -0.409656       -11.1473
  83   2.0000      -0.408056       -11.1038
  84   2.0000      -0.401274       -10.9192
  85   2.0000      -0.399242       -10.8639
  86   2.0000      -0.397299       -10.8110
  87   2.0000      -0.389549       -10.6002
  88   2.0000      -0.385304       -10.4846
  89   2.0000      -0.379326       -10.3220
  90   2.0000      -0.375966       -10.2306
  91   2.0000      -0.370483       -10.0813
  92   2.0000      -0.362449        -9.8627
  93   2.0000      -0.361276        -9.8308
  94   2.0000      -0.355120        -9.6633
  95   2.0000      -0.350988        -9.5509
  96   2.0000      -0.340144        -9.2558
  97   2.0000      -0.299292        -8.1442
  98   2.0000      -0.290625        -7.9083
  99   2.0000      -0.270537        -7.3617
 100   2.0000      -0.268032        -7.2935
 101   2.0000      -0.262764        -7.1502
 102   2.0000      -0.258859        -7.0439
 103   2.0000      -0.252209        -6.8630
 104   2.0000      -0.248573        -6.7640
 105   2.0000      -0.239754        -6.5240
 106   2.0000      -0.206173        -5.6102
 107   0.0000      -0.037789        -1.0283
 108   0.0000      -0.036218        -0.9855
 109   0.0000      -0.025480        -0.6934
 110   0.0000      -0.013707        -0.3730
 111   0.0000      -0.007709        -0.2098

MULLIKEN ATOMIC CHARGES
-----------------------
   0 O :   -0.466749
   1 C :    0.661514
   2 N :   -0.718087
   3 C :    0.354624
   4 C :   -0.146432
   5 C :   -0.217581
   6 C :    0.405949
   7 F :   -0.322344
   8 C :   -0.211244
   9 C :   -0.183760
  10 N :   -0.448406
  11 C :   -0.136777
  12 C :   -0.328486
  13 C :    0.200970
  14 N :   -0.411320
  15 C :    0.015034
  16 C :   -0.140982
  17 C :   -0.136929
  18 C :    0.096458
  19 C :   -0.104483
  20 C :    0.182823
  21 C :   -0.182713
  22 C :   -0.149430
  23 C :   -0.012978
  24 C :    0.896205
  25 F :   -0.305795
  26 F :   -0.297556
  27 F :   -0.302850
  28 C :   -0.162116
  29 C :   -0.170599
  30 H :    0.324879
  31 H :    0.158440
  32 H :    0.149586
  33 H :    0.142733
  34 H :    0.125615
  35 H :    0.187466
  36 H :    0.151519
  37 H :    0.166250
  38 H :    0.169785
  39 H :    0.151363
  40 H :    0.137642
  41 H :    0.145496
  42 H :    0.148309
  43 H :    0.127869
  44 H :    0.155802
  45 H :    0.156114
  46 H :    0.145172
Sum of atomic charges:    0.0000000

LOEWDIN ATOMIC CHARGES
----------------------
   0 O :   -0.282747
   1 C :    0.160760
   2 N :   -0.232196
   3 C :    0.042729
   4 C :   -0.132886
   5 C :   -0.148451
   6 C :    0.100999
   7 F :   -0.108566
   8 C :   -0.154019
   9 C :   -0.154299
  10 N :   -0.113781
  11 C :   -0.143710
  12 C :   -0.231710
  13 C :    0.020359
  14 N :   -0.136834
  15 C :   -0.066071
  16 C :   -0.146391
  17 C :   -0.100911
  18 C :   -0.039723
  19 C :   -0.042106
  20 C :   -0.011660
  21 C :   -0.131137
  22 C :   -0.104663
  23 C :   -0.068121
  24 C :    0.310030
  25 F :   -0.113444
  26 F :   -0.114314
  27 F :   -0.111664
  28 C :   -0.110861
  29 C :   -0.122379
  30 H :    0.253658
  31 H :    0.148294
  32 H :    0.146093
  33 H :    0.143011
  34 H :    0.130836
  35 H :    0.151542
  36 H :    0.118526
  37 H :    0.141518
  38 H :    0.147284
  39 H :    0.136104
  40 H :    0.137603
  41 H :    0.140871
  42 H :    0.130069
  43 H :    0.131546
  44 H :    0.145587
  45 H :    0.145382
  46 H :    0.139845

  Mayer bond orders larger than 0.100000
B(  0-O ,  1-C ) :   1.8197 B(  1-C ,  2-N ) :   0.9803 B(  1-C , 10-N ) :   1.0640
B(  2-N ,  3-C ) :   0.8901 B(  2-N , 30-H ) :   0.8260 B(  3-C ,  4-C ) :   1.4098
B(  3-C ,  9-C ) :   1.3994 B(  4-C ,  5-C ) :   1.4300 B(  4-C , 31-H ) :   0.9062
B(  5-C ,  6-C ) :   1.3847 B(  5-C , 32-H ) :   0.9200 B(  6-C ,  7-F ) :   0.9117
B(  6-C ,  8-C ) :   1.3987 B(  8-C ,  9-C ) :   1.4291 B(  8-C , 33-H ) :   0.9209
B(  9-C , 34-H ) :   0.9250 B( 10-N , 11-C ) :   0.9246 B( 10-N , 19-C ) :   0.9133
B( 11-C , 12-C ) :   0.9787 B( 11-C , 35-H ) :   0.9192 B( 11-C , 36-H ) :   0.9241
B( 12-C , 13-C ) :   1.0003 B( 12-C , 37-H ) :   0.9206 B( 12-C , 38-H ) :   0.9227
B( 13-C , 14-N ) :   1.3749 B( 13-C , 18-C ) :   1.3909 B( 14-N , 15-C ) :   1.4357
B( 15-C , 16-C ) :   1.4119 B( 15-C , 39-H ) :   0.9298 B( 16-C , 17-C ) :   1.4503
B( 16-C , 40-H ) :   0.9244 B( 17-C , 18-C ) :   1.4105 B( 17-C , 41-H ) :   0.9169
B( 18-C , 19-C ) :   0.9593 B( 19-C , 20-C ) :   0.9431 B( 19-C , 42-H ) :   0.9095
B( 20-C , 21-C ) :   1.4086 B( 20-C , 29-C ) :   1.4137 B( 21-C , 22-C ) :   1.4182
B( 21-C , 43-H ) :   0.9243 B( 22-C , 23-C ) :   1.4164 B( 22-C , 44-H ) :   0.9184
B( 23-C , 24-C ) :   0.9793 B( 23-C , 28-C ) :   1.4031 B( 24-C , 25-F ) :   0.9470
B( 24-C , 26-F ) :   0.9846 B( 24-C , 27-F ) :   0.9517 B( 28-C , 29-C ) :   1.4319
B( 28-C , 45-H ) :   0.9192 B( 29-C , 46-H ) :   0.9171

FINAL SINGLE POINT ENERGY     -1486.593316776337

DIPOLE MOMENT
-------------

Method             : SCF
Type of density    : Electron Density
Multiplicity       :   1
Irrep              :   0
Energy             : -1486.5933167763369056 Eh
Relativity type    :
Basis              : AO
                                X                 Y                 Z
Electronic contribution:      6.462124213      33.264816632       6.194094035
Nuclear contribution   :     -7.919440189     -33.964623530      -7.569928392
                        -----------------------------------------
Total Dipole Moment    :     -1.457315976      -0.699806898      -1.375834356
                        -----------------------------------------
Magnitude (a.u.)       :      2.122832948
Magnitude (Debye)      :      5.395812541

Rotational constants in cm-1:             0.007676             0.003659             0.002808
Rotational constants in MHz :           230.110572           109.682123            84.181770

                             ****ORCA TERMINATED NORMALLY****
TOTAL RUN TIME: 0 days 0 hours 8 minutes 45 seconds 344 msec
