                         Program Version 6.0.0  -   RELEASE  -
|  1> ! B3LYP def2-TZVP SP
|  2>
|  3> * xyz 0 1
|  4> O -4.9341 1.3467 2.7522
|  5> C -4.4967 1.0958 1.5969
|  6> C -3.4049 1.9484 1.0126
|  7> C -2.5172 1.1369 0.0308
|  8> C -1.6224 0.1212 0.8118
|  9> C -0.1775 0.5993 0.9908
| 10> N 0.4216 0.9022 -0.3173
| 11> C 1.8192 0.6515 -0.5627
| 12> O 2.2424 0.5915 -1.7499
| 13> N 2.7421 0.5227 0.5321
| 14> C 4.0463 -0.0721 0.4150
| 15> C 4.2936 -1.1261 -0.4816
| 16> C 5.5640 -1.7043 -0.5606
| 17> C 6.6121 -1.2366 0.2501
| 18> C 7.9685 -1.8936 0.1995
| 19> F 7.9966 -2.9491 1.0917
| 20> F 8.9616 -0.9905 0.5376
| 21> F 8.2332 -2.3709 -1.0725
| 22> C 6.3498 -0.2161 1.1796
| 23> C 5.0791 0.3610 1.2585
| 24> C -0.4134 1.4631 -1.3897
| 25> C -1.6672 2.1251 -0.8099
| 26> O -3.3541 0.4018 -0.8739
| 27> C -4.5078 -0.2784 -0.4617
| 28> C -5.0830 -1.2512 -1.2911
| 29> Br -4.3102 -1.6580 -2.9928
| 30> C -6.2215 -1.9451 -0.8667
| 31> C -6.7898 -1.6667 0.3795
| 32> C -6.2293 -0.6866 1.2037
| 33> C -5.0902 0.0185 0.7823
| 34> H -2.7804 2.3770 1.8275
| 35> H -3.8899 2.7914 0.4736
| 36> H -1.5861 -0.8405 0.2528
| 37> H -2.0504 -0.1164 1.8099
| 38> H -0.1510 1.5064 1.6321
| 39> H 0.3887 -0.2107 1.5002
| 40> H 2.4917 0.9787 1.4384
| 41> H 3.5006 -1.5237 -1.1009
| 42> H 5.7244 -2.5244 -1.2494
| 43> H 7.1265 0.1335 1.8483
| 44> H 4.8995 1.1511 1.9769
| 45> H 0.1582 2.2364 -1.9484
| 46> H -0.6997 0.6558 -2.0980
| 47> H -2.2800 2.5442 -1.6380
| 48> H -1.3378 2.9821 -0.1801
| 49> H -6.6646 -2.7022 -1.5008
| 50> H -7.6699 -2.2065 0.7041
| 51> H -6.6908 -0.4729 2.1596
| 52> *
| 53>
| 54>                          ****END OF INPUT****

CARTESIAN COORDINATES (ANGSTROEM)
---------------------------------
  O     -4.934100    1.346700    2.752200
  C     -4.496700    1.095800    1.596900
  C     -3.404900    1.948400    1.012600
  C     -2.517200    1.136900    0.030800
  C     -1.622400    0.121200    0.811800
  C     -0.177500    0.599300    0.990800
  N      0.421600    0.902200   -0.317300
  C      1.819200    0.651500   -0.562700
  O      2.242400    0.591500   -1.749900
  N      2.742100    0.522700    0.532100
  C      4.046300   -0.072100    0.415000
  C      4.293600   -1.126100   -0.481600
  C      5.564000   -1.704300   -0.560600
  C      6.612100   -1.236600    0.250100
  C      7.968500   -1.893600    0.199500
  F      7.996600   -2.949100    1.091700
  F      8.961600   -0.990500    0.537600
  F      8.233200   -2.370900   -1.072500
  C      6.349800   -0.216100    1.179600
  C      5.079100    0.361000    1.258500
  C     -0.413400    1.463100   -1.389700
  C     -1.667200    2.125100   -0.809900
  O     -3.354100    0.401800   -0.873900
  C     -4.507800   -0.278400   -0.461700
  C     -5.083000   -1.251200   -1.291100
  Br    -4.310200   -1.658000   -2.992800
  C     -6.221500   -1.945100   -0.866700
  C     -6.789800   -1.666700    0.379500
  C     -6.229300   -0.686600    1.203700
  C     -5.090200    0.018500    0.782300
  H     -2.780400    2.377000    1.827500
  H     -3.889900    2.791400    0.473600
  H     -1.586100   -0.840500    0.252800
  H     -2.050400   -0.116400    1.809900
  H     -0.151000    1.506400    1.632100
  H      0.388700   -0.210700    1.500200
  H      2.491700    0.978700    1.438400
  H      3.500600   -1.523700   -1.100900
  H      5.724400   -2.524400   -1.249400
  H      7.126500    0.133500    1.848300
  H      4.899500    1.151100    1.976900
  H      0.158200    2.236400   -1.948400
  H     -0.699700    0.655800   -2.098000
  H     -2.280000    2.544200   -1.638000
  H     -1.337800    2.982100   -0.180100
  H     -6.664600   -2.702200   -1.500800
  H     -7.669900   -2.206500    0.704100
  H     -6.690800   -0.472900    2.159600

 Total Charge           Charge          ....    0
 Multiplicity           Mult            ....    1
 Number of Electrons    NEL             ....  244
 Basis Dimension        Dim             .... 1055

ORBITAL ENERGIES
----------------

  NO   OCC          E(Eh)            E(eV)
   0   2.0000    -482.869342    -13139.5428
   1   2.0000     -62.516488     -1701.1601
   2   2.0000     -56.332128     -1532.8751
   3   2.0000     -56.329455     -1532.8024
   4   2.0000     -56.329400     -1532.8009
   5   2.0000     -24.710456      -672.4057
   6   2.0000     -24.710004      -672.3934
   7   2.0000     -24.708793      -672.3604
   8   2.0000     -19.180198      -521.9197
   9   2.0000     -19.124824      -520.4129
  10   2.0000     -19.095005      -519.6015
  11   2.0000     -14.371630      -391.0719
  12   2.0000     -14.359320      -390.7370
  13   2.0000     -10.427466      -283.7458
  14   2.0000     -10.319133      -280.7979
  15   2.0000     -10.280723      -279.7527
  16   2.0000     -10.278560      -279.6938
  17   2.0000     -10.275207      -279.6026
  18   2.0000     -10.252355      -278.9808
  19   2.0000     -10.243146      -278.7302
  20   2.0000     -10.238292      -278.5981
  21   2.0000     -10.223411      -278.1931
  22   2.0000     -10.213912      -277.9347
  23   2.0000     -10.210726      -277.8480
  24   2.0000     -10.206457      -277.7318
  25   2.0000     -10.206245      -277.7260
  26   2.0000     -10.204783      -277.6863
  27   2.0000     -10.204697      -277.6839
  28   2.0000     -10.203278      -277.6453
  29   2.0000     -10.199797      -277.5506
  30   2.0000     -10.198282      -277.5094
  31   2.0000     -10.195484      -277.4332
  32   2.0000     -10.193973      -277.3921
  33   2.0000     -10.188315      -277.2381
  34   2.0000      -8.707247      -236.9362
  35   2.0000      -6.537069      -177.8827
  36   2.0000      -6.525756      -177.5749
  37   2.0000      -6.525146      -177.5582
  38   2.0000      -2.651615       -72.1541
  39   2.0000      -2.648527       -72.0701
  40   2.0000      -2.648055       -72.0573
  41   2.0000      -2.638734       -71.8036
  42   2.0000      -2.638727       -71.8034
  43   2.0000      -1.288235       -35.0547
  44   2.0000      -1.214102       -33.0374
  45   2.0000      -1.213803       -33.0293
  46   2.0000      -1.085730       -29.5442
  47   2.0000      -1.035182       -28.1687
  48   2.0000      -1.031534       -28.0695
  49   2.0000      -0.942726       -25.6529
  50   2.0000      -0.933694       -25.4071
  51   2.0000      -0.894644       -24.3445
  52   2.0000      -0.867226       -23.5984
  53   2.0000      -0.839924       -22.8555
  54   2.0000      -0.822835       -22.3905
  55   2.0000      -0.794147       -21.6098
  56   2.0000      -0.786913       -21.4130
  57   2.0000      -0.782459       -21.2918
  58   2.0000      -0.764511       -20.8034
  59   2.0000      -0.755012       -20.5449
  60   2.0000      -0.746244       -20.3063
  61   2.0000      -0.704440       -19.1688
  62   2.0000      -0.675943       -18.3933
  63   2.0000      -0.672899       -18.3105
  64   2.0000      -0.663194       -18.0464
  65   2.0000      -0.640452       -17.4276
  66   2.0000      -0.633591       -17.2409
  67   2.0000      -0.616567       -16.7777
  68   2.0000      -0.597533       -16.2597
  69   2.0000      -0.581858       -15.8332
  70   2.0000      -0.580967       -15.8089
  71   2.0000      -0.572041       -15.5660
  72   2.0000      -0.566759       -15.4223
  73   2.0000      -0.562507       -15.3066
  74   2.0000      -0.557143       -15.1606
  75   2.0000      -0.541195       -14.7267
  76   2.0000      -0.530946       -14.4478
  77   2.0000      -0.518101       -14.0982
  78   2.0000      -0.512826       -13.9547
  79   2.0000      -0.495238       -13.4761
  80   2.0000      -0.484066       -13.1721
  81   2.0000      -0.480438       -13.0734
  82   2.0000      -0.473228       -12.8772
  83   2.0000      -0.469763       -12.7829
  84   2.0000      -0.460770       -12.5382
  85   2.0000      -0.459403       -12.5010
  86   2.0000      -0.457350       -12.4451
  87   2.0000      -0.454985       -12.3808
  88   2.0000      -0.449590       -12.2340
  89   2.0000      -0.442583       -12.0433
  90   2.0000      -0.439430       -11.9575
  91   2.0000      -0.436813       -11.8863
  92   2.0000      -0.434989       -11.8367
  93   2.0000      -0.431668       -11.7463
  94   2.0000      -0.430399       -11.7118
  95   2.0000      -0.425506       -11.5786
  96   2.0000      -0.419446       -11.4137
  97   2.0000      -0.416823       -11.3423
  98   2.0000      -0.412291       -11.2190
  99   2.0000      -0.410158       -11.1610
 100   2.0000      -0.402564       -10.9543
 101   2.0000      -0.398018       -10.8306
 102   2.0000      -0.393589       -10.7101
 103   2.0000      -0.388671       -10.5763
 104   2.0000      -0.384998       -10.4763
 105   2.0000      -0.375099       -10.2069
 106   2.0000      -0.373250       -10.1567
 107   2.0000      -0.371549       -10.1103
 108   2.0000      -0.367101        -9.9893
 109   2.0000      -0.362878        -9.8744
 110   2.0000      -0.341638        -9.2965
 111   2.0000      -0.333774        -9.0824
 112   2.0000      -0.326416        -8.8822
 113   2.0000      -0.317235        -8.6324
 114   2.0000      -0.301015        -8.1910
 115   2.0000      -0.278742        -7.5850
 116   2.0000      -0.273008        -7.4289
 117   2.0000      -0.268393        -7.3033
 118   2.0000      -0.266597        -7.2545
 119   2.0000      -0.252686        -6.8759
 120   2.0000      -0.250253        -6.8097
 121   2.0000      -0.239666        -6.5216
 122   0.0000      -0.090215        -2.4549
 123   0.0000      -0.039996        -1.0883
 124   0.0000      -0.034043        -0.9264
 125   0.0000      -0.028718        -0.7814
 126   0.0000      -0.020064        -0.5460

MULLIKEN ATOMIC CHARGES
-----------------------
   0 O :   -0.333531
   1 C :    0.151106
   2 C :   -0.160185
   3 C :    0.326443
   4 C :   -0.275826
   5 C :   -0.202369
   6 N :   -0.094793
   7 C :    0.330858
   8 O :   -0.411113
   9 N :   -0.341988
  10 C :    0.320107
  11 C :   -0.180999
  12 C :   -0.166380
  13 C :    0.057694
  14 C :    0.514821
  15 F :   -0.183755
  16 F :   -0.189695
  17 F :   -0.188132
  18 C :   -0.173412
  19 C :   -0.213908
  20 C :   -0.144681
  21 C :   -0.184117
  22 O :   -0.302457
  23 C :    0.238303
  24 C :   -0.063259
  25 Br:   -0.052552
  26 C :   -0.116511
  27 C :   -0.090813
  28 C :   -0.184587
  29 C :    0.005566
  30 H :    0.113534
  31 H :    0.121184
  32 H :    0.120234
  33 H :    0.126792
  34 H :    0.091707
  35 H :    0.138455
  36 H :    0.228786
  37 H :    0.128536
  38 H :    0.132545
  39 H :    0.129133
  40 H :    0.109080
  41 H :    0.125352
  42 H :    0.119112
  43 H :    0.120756
  44 H :    0.102623
  45 H :    0.135935
  46 H :    0.121812
  47 H :    0.144593
Sum of atomic charges:    0.0000000

LOEWDIN ATOMIC CHARGES
----------------------
   0 O :    0.077911
   1 C :   -0.254236
   2 C :   -0.169922
   3 C :   -0.306853
   4 C :   -0.201438
   5 C :   -0.266694
   6 N :    0.160362
   7 C :   -0.411471
   8 O :    0.013910
   9 N :    0.125476
  10 C :   -0.165305
  11 C :   -0.091882
  12 C :   -0.085735
  13 C :   -0.135627
  14 C :   -0.516562
  15 F :    0.152592
  16 F :    0.152602
  17 F :    0.153914
  18 C :   -0.091046
  19 C :   -0.118237
  20 C :   -0.241336
  21 C :   -0.204905
  22 O :    0.280893
  23 C :   -0.172789
  24 C :   -0.344039
  25 Br:    0.348385
  26 C :   -0.119005
  27 C :   -0.135764
  28 C :   -0.063360
  29 C :   -0.109127
  30 H :    0.159817
  31 H :    0.163893
  32 H :    0.154490
  33 H :    0.150808
  34 H :    0.124317
  35 H :    0.142884
  36 H :    0.195865
  37 H :    0.154211
  38 H :    0.153184
  39 H :    0.152090
  40 H :    0.143043
  41 H :    0.145977
  42 H :    0.140425
  43 H :    0.153641
  44 H :    0.149595
  45 H :    0.151007
  46 H :    0.146717
  47 H :    0.157326

  Mayer bond orders larger than 0.100000
B(  0-O ,  1-C ) :   2.0865 B(  0-O , 29-C ) :  -0.1469 B(  1-C ,  2-C ) :   1.0356
B(  1-C , 29-C ) :   0.9477 B(  2-C ,  3-C ) :   0.8992 B(  2-C , 30-H ) :   0.9374
B(  2-C , 31-H ) :   0.9314 B(  3-C ,  4-C ) :   0.9349 B(  3-C , 21-C ) :   0.9090
B(  3-C , 22-O ) :   0.8708 B(  4-C ,  5-C ) :   1.0127 B(  4-C , 32-H ) :   0.9570
B(  4-C , 33-H ) :   0.9554 B(  5-C ,  6-N ) :   0.9640 B(  5-C , 34-H ) :   0.9433
B(  5-C , 35-H ) :   0.9503 B(  6-N ,  7-C ) :   1.1785 B(  6-N , 20-C ) :   0.9429
B(  7-C ,  8-O ) :   1.9100 B(  7-C ,  9-N ) :   1.0878 B(  9-N , 10-C ) :   0.9204
B(  9-N , 36-H ) :   0.9040 B( 10-C , 11-C ) :   1.3879 B( 10-C , 19-C ) :   1.3409
B( 11-C , 12-C ) :   1.4328 B( 11-C , 37-H ) :   0.9587 B( 12-C , 13-C ) :   1.3480
B( 12-C , 38-H ) :   0.9613 B( 13-C , 14-C ) :   1.0099 B( 13-C , 18-C ) :   1.3671
B( 14-C , 15-F ) :   1.1233 B( 14-C , 16-F ) :   1.1076 B( 14-C , 17-F ) :   1.1100
B( 18-C , 19-C ) :   1.4547 B( 18-C , 39-H ) :   0.9615 B( 19-C , 40-H ) :   0.9681
B( 20-C , 21-C ) :   0.9981 B( 20-C , 41-H ) :   0.9570 B( 20-C , 42-H ) :   0.9662
B( 21-C , 43-H ) :   0.9527 B( 21-C , 44-H ) :   0.9539 B( 22-O , 23-C ) :   1.1403
B( 23-C , 24-C ) :   1.3002 B( 23-C , 29-C ) :   1.2828 B( 24-C , 25-Br) :   1.1527
B( 24-C , 26-C ) :   1.3588 B( 26-C , 27-C ) :   1.3639 B( 26-C , 45-H ) :   0.9633
B( 27-C , 28-C ) :   1.4166 B( 27-C , 46-H ) :   0.9748 B( 28-C , 29-C ) :   1.3322
B( 28-C , 47-H ) :   0.9555

FINAL SINGLE POINT ENERGY     -4019.615971165353

DIPOLE MOMENT
-------------

Method             : SCF
Type of density    : Electron Density
Multiplicity       :   1
Irrep              :   0
Energy             : -4019.6159711653531303 Eh
Relativity type    :
Basis              : AO
                                X                 Y                 Z
Electronic contribution:     -7.776237317     -29.277842267     -33.662142405
Nuclear contribution   :      5.886382422      29.834260243      34.566521337
                        -----------------------------------------
Total Dipole Moment    :     -1.889854895       0.556417976       0.904378932
                        -----------------------------------------
Magnitude (a.u.)       :      2.167730089
Magnitude (Debye)      :      5.509932005

Rotational constants in cm-1:             0.008764             0.001296             0.001213
Rotational constants in MHz :           262.749978            38.860408            36.355883

                             ****ORCA TERMINATED NORMALLY****
TOTAL RUN TIME: 0 days 0 hours 18 minutes 2 seconds 977 msec
