                         Program Version 6.0.0  -   RELEASE  -
|  1> ! B3LYP 6-31G* SP
|  2>
|  3> * xyz -1 1
|  4> C -2.9488 0.8088 -0.5972
|  5> C -1.9733 1.7919 0.0131
|  6> C -0.6410 1.4064 0.2940
|  7> N -0.1846 0.0736 0.0373
|  8> C 0.2973 -0.3032 -1.2934
|  9> C 1.7769 -0.5480 -1.2645
| 10> C 2.6684 0.5057 -1.0253
| 11> C 4.0405 0.2426 -0.9351
| 12> C 4.9581 1.2723 -0.6797
| 13> C 6.3242 0.9893 -0.5889
| 14> C 6.7825 -0.3243 -0.7481
| 15> C 5.8774 -1.3634 -0.9965
| 16> C 4.5049 -1.0840 -1.0923
| 17> C 3.5778 -2.1036 -1.3432
| 18> N 2.2516 -1.8163 -1.4147
| 19> S -0.1580 -1.0714 1.3427
| 20> O -0.7421 -0.4465 2.5805
| 21> O 1.2589 -1.4746 1.6413
| 22> C -1.1156 -2.4808 0.9053
| 23> C -2.4977 -2.4875 1.1325
| 24> C -3.2679 -3.5941 0.7630
| 25> C -2.6653 -4.7105 0.1555
| 26> C -3.4778 -5.8832 -0.2391
| 27> O -4.7183 -5.9140 -0.0062
| 28> O -2.8835 -6.9687 -0.8729
| 29> C -1.2767 -4.6951 -0.0742
| 30> C -0.5090 -3.5867 0.2968
| 31> N 0.2245 2.2933 0.8486
| 32> C -0.1331 3.5630 1.1581
| 33> C -1.4392 4.0012 0.9253
| 34> C -1.8181 5.3102 1.2628
| 35> C -3.1244 5.7432 1.0378
| 36> C -4.0581 4.8774 0.4751
| 37> C -3.6961 3.5719 0.1294
| 38> C -2.3796 3.1107 0.3483
| 39> H -3.7723 0.6077 0.1210
| 40> H -3.3715 1.2301 -1.5343
| 41> H -2.4851 -0.1637 -0.8541
| 42> H -0.2347 -1.2203 -1.6319
| 43> H 0.0731 0.4988 -2.0331
| 44> H 2.2943 1.5163 -0.9020
| 45> H 4.6204 2.2957 -0.5555
| 46> H 7.0299 1.7847 -0.3960
| 47> H 7.8411 -0.5402 -0.6753
| 48> H 6.2482 -2.3762 -1.1145
| 49> H 3.9039 -3.1311 -1.4730
| 50> H -2.9810 -1.6338 1.5903
| 51> H -4.3353 -3.5734 0.9498
| 52> H -0.7823 -5.5380 -0.5416
| 53> H 0.5567 -3.5909 0.1040
| 54> H 0.6037 4.2250 1.6021
| 55> H -1.1039 5.9968 1.7060
| 56> H -3.4120 6.7529 1.3030
| 57> H -5.0728 5.2186 0.2976
| 58> H -4.4548 2.9353 -0.3028
| 59> *
| 60>
| 61>                          ****END OF INPUT****

CARTESIAN COORDINATES (ANGSTROEM)
---------------------------------
  C     -2.948800    0.808800   -0.597200
  C     -1.973300    1.791900    0.013100
  C     -0.641000    1.406400    0.294000
  N     -0.184600    0.073600    0.037300
  C      0.297300   -0.303200   -1.293400
  C      1.776900   -0.548000   -1.264500
  C      2.668400    0.505700   -1.025300
  C      4.040500    0.242600   -0.935100
  C      4.958100    1.272300   -0.679700
  C      6.324200    0.989300   -0.588900
  C      6.782500   -0.324300   -0.748100
  C      5.877400   -1.363400   -0.996500
  C      4.504900   -1.084000   -1.092300
  C      3.577800   -2.103600   -1.343200
  N      2.251600   -1.816300   -1.414700
  S     -0.158000   -1.071400    1.342700
  O     -0.742100   -0.446500    2.580500
  O      1.258900   -1.474600    1.641300
  C     -1.115600   -2.480800    0.905300
  C     -2.497700   -2.487500    1.132500
  C     -3.267900   -3.594100    0.763000
  C     -2.665300   -4.710500    0.155500
  C     -3.477800   -5.883200   -0.239100
  O     -4.718300   -5.914000   -0.006200
  O     -2.883500   -6.968700   -0.872900
  C     -1.276700   -4.695100   -0.074200
  C     -0.509000   -3.586700    0.296800
  N      0.224500    2.293300    0.848600
  C     -0.133100    3.563000    1.158100
  C     -1.439200    4.001200    0.925300
  C     -1.818100    5.310200    1.262800
  C     -3.124400    5.743200    1.037800
  C     -4.058100    4.877400    0.475100
  C     -3.696100    3.571900    0.129400
  C     -2.379600    3.110700    0.348300
  H     -3.772300    0.607700    0.121000
  H     -3.371500    1.230100   -1.534300
  H     -2.485100   -0.163700   -0.854100
  H     -0.234700   -1.220300   -1.631900
  H      0.073100    0.498800   -2.033100
  H      2.294300    1.516300   -0.902000
  H      4.620400    2.295700   -0.555500
  H      7.029900    1.784700   -0.396000
  H      7.841100   -0.540200   -0.675300
  H      6.248200   -2.376200   -1.114500
  H      3.903900   -3.131100   -1.473000
  H     -2.981000   -1.633800    1.590300
  H     -4.335300   -3.573400    0.949800
  H     -0.782300   -5.538000   -0.541600
  H      0.556700   -3.590900    0.104000
  H      0.603700    4.225000    1.602100
  H     -1.103900    5.996800    1.706000
  H     -3.412000    6.752900    1.303000
  H     -5.072800    5.218600    0.297600
  H     -4.454800    2.935300   -0.302800

 Total Charge           Charge          ....   -1
 Multiplicity           Mult            ....    1
 Number of Electrons    NEL             ....  252
 Basis Dimension        Dim             ....  534

ORBITAL ENERGIES
----------------

  NO   OCC          E(Eh)            E(eV)
   0   2.0000     -88.994402     -2421.6608
   1   2.0000     -19.024412      -517.6806
   2   2.0000     -19.020004      -517.5606
   3   2.0000     -18.902657      -514.3674
   4   2.0000     -18.881934      -513.8036
   5   2.0000     -14.278724      -388.5438
   6   2.0000     -14.262301      -388.0969
   7   2.0000     -14.250900      -387.7867
   8   2.0000     -10.188053      -277.2310
   9   2.0000     -10.158948      -276.4390
  10   2.0000     -10.153916      -276.3021
  11   2.0000     -10.147117      -276.1171
  12   2.0000     -10.146080      -276.0889
  13   2.0000     -10.142898      -276.0023
  14   2.0000     -10.141166      -275.9552
  15   2.0000     -10.139238      -275.9027
  16   2.0000     -10.139110      -275.8992
  17   2.0000     -10.137661      -275.8598
  18   2.0000     -10.137596      -275.8580
  19   2.0000     -10.135809      -275.8094
  20   2.0000     -10.128775      -275.6180
  21   2.0000     -10.128115      -275.6000
  22   2.0000     -10.127323      -275.5785
  23   2.0000     -10.126609      -275.5590
  24   2.0000     -10.124447      -275.5002
  25   2.0000     -10.124273      -275.4955
  26   2.0000     -10.114995      -275.2430
  27   2.0000     -10.112469      -275.1743
  28   2.0000     -10.110450      -275.1193
  29   2.0000     -10.089584      -274.5515
  30   2.0000     -10.088166      -274.5130
  31   2.0000     -10.084582      -274.4154
  32   2.0000     -10.070391      -274.0293
  33   2.0000     -10.069256      -273.9984
  34   2.0000     -10.066470      -273.9226
  35   2.0000      -8.029953      -218.5061
  36   2.0000      -5.995524      -163.1465
  37   2.0000      -5.993006      -163.0780
  38   2.0000      -5.992017      -163.0511
  39   2.0000      -0.980985       -26.6940
  40   2.0000      -0.885896       -24.1064
  41   2.0000      -0.860883       -23.4258
  42   2.0000      -0.856710       -23.3123
  43   2.0000      -0.834288       -22.7021
  44   2.0000      -0.810717       -22.0607
  45   2.0000      -0.801927       -21.8215
  46   2.0000      -0.791404       -21.5352
  47   2.0000      -0.750747       -20.4289
  48   2.0000      -0.742224       -20.1969
  49   2.0000      -0.721283       -19.6271
  50   2.0000      -0.713824       -19.4241
  51   2.0000      -0.704458       -19.1693
  52   2.0000      -0.692728       -18.8501
  53   2.0000      -0.683560       -18.6006
  54   2.0000      -0.673449       -18.3255
  55   2.0000      -0.658625       -17.9221
  56   2.0000      -0.637269       -17.3410
  57   2.0000      -0.634558       -17.2672
  58   2.0000      -0.617342       -16.7987
  59   2.0000      -0.585403       -15.9296
  60   2.0000      -0.581619       -15.8267
  61   2.0000      -0.576377       -15.6840
  62   2.0000      -0.549905       -14.9637
  63   2.0000      -0.540887       -14.7183
  64   2.0000      -0.534499       -14.5444
  65   2.0000      -0.532166       -14.4810
  66   2.0000      -0.496460       -13.5094
  67   2.0000      -0.494921       -13.4675
  68   2.0000      -0.469871       -12.7858
  69   2.0000      -0.457859       -12.4590
  70   2.0000      -0.454311       -12.3624
  71   2.0000      -0.446800       -12.1580
  72   2.0000      -0.436989       -11.8911
  73   2.0000      -0.430152       -11.7050
  74   2.0000      -0.422061       -11.4849
  75   2.0000      -0.413454       -11.2507
  76   2.0000      -0.407819       -11.0973
  77   2.0000      -0.391788       -10.6611
  78   2.0000      -0.391047       -10.6409
  79   2.0000      -0.387932       -10.5562
  80   2.0000      -0.380365       -10.3503
  81   2.0000      -0.371378       -10.1057
  82   2.0000      -0.368036       -10.0148
  83   2.0000      -0.362529        -9.8649
  84   2.0000      -0.359050        -9.7702
  85   2.0000      -0.351094        -9.5538
  86   2.0000      -0.349948        -9.5226
  87   2.0000      -0.340887        -9.2760
  88   2.0000      -0.335222        -9.1219
  89   2.0000      -0.333072        -9.0633
  90   2.0000      -0.332820        -9.0565
  91   2.0000      -0.328552        -8.9404
  92   2.0000      -0.320544        -8.7224
  93   2.0000      -0.318325        -8.6621
  94   2.0000      -0.316031        -8.5996
  95   2.0000      -0.310264        -8.4427
  96   2.0000      -0.305966        -8.3258
  97   2.0000      -0.296995        -8.0816
  98   2.0000      -0.290637        -7.9086
  99   2.0000      -0.287651        -7.8274
 100   2.0000      -0.286067        -7.7843
 101   2.0000      -0.279779        -7.6132
 102   2.0000      -0.274207        -7.4616
 103   2.0000      -0.267257        -7.2724
 104   2.0000      -0.238674        -6.4946
 105   2.0000      -0.231235        -6.2922
 106   2.0000      -0.226921        -6.1748
 107   2.0000      -0.224513        -6.1093
 108   2.0000      -0.221676        -6.0321
 109   2.0000      -0.208617        -5.6768
 110   2.0000      -0.206643        -5.6231
 111   2.0000      -0.198524        -5.4021
 112   2.0000      -0.190965        -5.1964
 113   2.0000      -0.190293        -5.1781
 114   2.0000      -0.181791        -4.9468
 115   2.0000      -0.181558        -4.9404
 116   2.0000      -0.176549        -4.8041
 117   2.0000      -0.172111        -4.6834
 118   2.0000      -0.160408        -4.3649
 119   2.0000      -0.157529        -4.2866
 120   2.0000      -0.145591        -3.9617
 121   2.0000      -0.143187        -3.8963
 122   2.0000      -0.125515        -3.4154
 123   2.0000      -0.056703        -1.5430
 124   2.0000      -0.035166        -0.9569
 125   2.0000      -0.018490        -0.5031
 126   0.0000       0.001235         0.0336
 127   0.0000       0.015109         0.4111
 128   0.0000       0.034105         0.9280
 129   0.0000       0.051966         1.4141
 130   0.0000       0.070065         1.9066

MULLIKEN ATOMIC CHARGES
-----------------------
   0 C :   -0.544517
   1 C :    0.108236
   2 C :    0.316097
   3 N :   -0.610299
   4 C :   -0.235979
   5 C :    0.281393
   6 C :   -0.215688
   7 C :    0.181391
   8 C :   -0.189333
   9 C :   -0.129675
  10 C :   -0.133041
  11 C :   -0.199259
  12 C :    0.134016
  13 C :   -0.040420
  14 N :   -0.401005
  15 S :    1.196707
  16 O :   -0.562081
  17 O :   -0.548654
  18 C :   -0.157402
  19 C :   -0.154200
  20 C :   -0.160050
  21 C :    0.105046
  22 C :    0.411139
  23 O :   -0.555998
  24 O :   -0.658064
  25 C :   -0.154246
  26 C :   -0.155434
  27 N :   -0.366444
  28 C :   -0.058009
  29 C :    0.139932
  30 C :   -0.204263
  31 C :   -0.127885
  32 C :   -0.123783
  33 C :   -0.197548
  34 C :    0.120917
  35 H :    0.173448
  36 H :    0.147530
  37 H :    0.194907
  38 H :    0.186420
  39 H :    0.161866
  40 H :    0.138199
  41 H :    0.126978
  42 H :    0.117521
  43 H :    0.116221
  44 H :    0.127788
  45 H :    0.144865
  46 H :    0.139007
  47 H :    0.142893
  48 H :    0.152132
  49 H :    0.166595
  50 H :    0.140100
  51 H :    0.127396
  52 H :    0.120867
  53 H :    0.125261
  54 H :    0.138409
Sum of atomic charges:   -1.0000000

LOEWDIN ATOMIC CHARGES
----------------------
   0 C :   -0.360173
   1 C :   -0.010120
   2 C :    0.040032
   3 N :   -0.292603
   4 C :   -0.152769
   5 C :    0.012586
   6 C :   -0.118012
   7 C :   -0.000965
   8 C :   -0.119363
   9 C :   -0.131418
  10 C :   -0.139531
  11 C :   -0.115419
  12 C :   -0.030631
  13 C :   -0.055427
  14 N :   -0.128447
  15 S :    1.266652
  16 O :   -0.589814
  17 O :   -0.579784
  18 C :   -0.219332
  19 C :   -0.126260
  20 C :   -0.117505
  21 C :   -0.003505
  22 C :    0.072736
  23 O :   -0.381790
  24 O :   -0.506282
  25 C :   -0.108992
  26 C :   -0.124400
  27 N :   -0.115847
  28 C :   -0.066028
  29 C :   -0.029681
  30 C :   -0.115321
  31 C :   -0.135717
  32 C :   -0.125146
  33 C :   -0.122871
  34 C :   -0.006775
  35 H :    0.143348
  36 H :    0.129724
  37 H :    0.151033
  38 H :    0.143469
  39 H :    0.140350
  40 H :    0.139230
  41 H :    0.132091
  42 H :    0.127157
  43 H :    0.126156
  44 H :    0.131848
  45 H :    0.133453
  46 H :    0.136091
  47 H :    0.144685
  48 H :    0.150221
  49 H :    0.148595
  50 H :    0.131213
  51 H :    0.131604
  52 H :    0.128403
  53 H :    0.130531
  54 H :    0.138724

  Mayer bond orders larger than 0.100000
B(  0-C ,  1-C ) :   0.9998 B(  0-C , 35-H ) :   0.9251 B(  0-C , 36-H ) :   0.9294
B(  0-C , 37-H ) :   0.9226 B(  1-C ,  2-C ) :   1.4333 B(  1-C , 28-C ) :   0.1055
B(  1-C , 34-C ) :   1.2617 B(  2-C ,  3-N ) :   0.9196 B(  2-C , 27-N ) :   1.2814
B(  3-N ,  4-C ) :   0.9424 B(  3-N , 15-S ) :   0.7674 B(  4-C ,  5-C ) :   0.9556
B(  4-C , 38-H ) :   0.9105 B(  4-C , 39-H ) :   0.9260 B(  5-C ,  6-C ) :   1.4503
B(  5-C , 14-N ) :   1.3096 B(  6-C ,  7-C ) :   1.3017 B(  6-C , 13-C ) :   0.1116
B(  6-C , 40-H ) :   0.9044 B(  7-C ,  8-C ) :   1.2891 B(  7-C , 12-C ) :   1.2942
B(  8-C ,  9-C ) :   1.5156 B(  8-C , 11-C ) :   0.1072 B(  8-C , 41-H ) :   0.9249
B(  9-C , 10-C ) :   1.3443 B(  9-C , 42-H ) :   0.9322 B( 10-C , 11-C ) :   1.5168
B( 10-C , 43-H ) :   0.9325 B( 11-C , 12-C ) :   1.2858 B( 11-C , 44-H ) :   0.9246
B( 12-C , 13-C ) :   1.2437 B( 13-C , 14-N ) :   1.4869 B( 13-C , 45-H ) :   0.9283
B( 15-S , 16-O ) :   1.6243 B( 15-S , 17-O ) :   1.6472 B( 15-S , 18-C ) :   0.8432
B( 18-C , 19-C ) :   1.3616 B( 18-C , 26-C ) :   1.3619 B( 19-C , 20-C ) :   1.4162
B( 19-C , 46-H ) :   0.9200 B( 20-C , 21-C ) :   1.3843 B( 20-C , 47-H ) :   0.9079
B( 21-C , 22-C ) :   0.9280 B( 21-C , 25-C ) :   1.4030 B( 22-C , 23-O ) :   1.7027
B( 22-C , 24-O ) :   1.5511 B( 23-O , 24-O ) :   0.1486 B( 25-C , 26-C ) :   1.3997
B( 25-C , 48-H ) :   0.9030 B( 26-C , 49-H ) :   0.9075 B( 27-N , 28-C ) :   1.4955
B( 28-C , 29-C ) :   1.2338 B( 28-C , 50-H ) :   0.9288 B( 29-C , 30-C ) :   1.2843
B( 29-C , 34-C ) :   1.2910 B( 30-C , 31-C ) :   1.5129 B( 30-C , 33-C ) :   0.1072
B( 30-C , 51-H ) :   0.9246 B( 31-C , 32-C ) :   1.3538 B( 31-C , 52-H ) :   0.9316
B( 32-C , 33-C ) :   1.5088 B( 32-C , 53-H ) :   0.9310 B( 33-C , 34-C ) :   1.2945
B( 33-C , 54-H ) :   0.9160

FINAL SINGLE POINT ENERGY     -1903.242627909308

DIPOLE MOMENT
-------------

Method             : SCF
Type of density    : Electron Density
Multiplicity       :   1
Irrep              :   0
Energy             : -1903.2426279093078847 Eh
Relativity type    :
Basis              : AO
                                X                 Y                 Z
Electronic contribution:      1.856714416      -8.312150233       5.456464630
Nuclear contribution   :      2.552342248      18.351504880      -6.440557695
                        -----------------------------------------
Total Dipole Moment    :      4.409056664      10.039354648      -0.984093065
                        -----------------------------------------
Magnitude (a.u.)       :     11.008944617
Magnitude (Debye)      :     27.982513409

Rotational constants in cm-1:             0.003413             0.003091             0.001746
Rotational constants in MHz :           102.306795            92.665752            52.336538

                             ****ORCA TERMINATED NORMALLY****
TOTAL RUN TIME: 0 days 0 hours 11 minutes 37 seconds 114 msec
