                         Program Version 6.0.0  -   RELEASE  -
|  1> ! B3LYP 6-31G* SP
|  2>
|  3> * xyz 0 1
|  4> C 4.9582 -2.5855 1.9626
|  5> O 3.9880 -2.3327 0.9517
|  6> C 3.6123 -1.0531 0.5149
|  7> C 4.1830 0.1207 1.0403
|  8> C 3.7808 1.3714 0.5636
|  9> C 2.8166 1.4623 -0.4423
| 10> C 2.2311 0.3002 -0.9704
| 11> C 1.1597 0.4042 -2.0253
| 12> N -0.0661 0.9788 -1.4495
| 13> C -0.2176 2.4085 -1.4425
| 14> O -0.1176 3.0490 -2.5218
| 15> C -0.4918 3.1364 -0.1926
| 16> C -0.4637 2.6094 1.0941
| 17> C -0.7526 3.5554 2.0855
| 18> C -0.9989 4.8285 1.5883
| 19> S -0.8596 4.7747 -0.0871
| 20> C -1.2401 0.1431 -1.1362
| 21> C -0.8614 -1.0465 -0.2253
| 22> C -2.0817 -1.6924 0.3797
| 23> C -2.7246 -1.0939 1.4764
| 24> C -3.8704 -1.6766 2.0250
| 25> C -4.3846 -2.8574 1.4819
| 26> C -3.7535 -3.4559 0.3885
| 27> C -2.6082 -2.8757 -0.1645
| 28> C -1.9167 -0.2878 -2.4154
| 29> N -2.8857 0.5613 -3.0296
| 30> O -1.6018 -1.3739 -2.9749
| 31> C 2.6341 -0.9533 -0.4823
| 32> H 4.6343 -2.1318 2.9237
| 33> H 5.0606 -3.6823 2.1023
| 34> H 5.9446 -2.1745 1.6570
| 35> H 4.9374 0.0776 1.8140
| 36> H 4.2245 2.2722 0.9695
| 37> H 2.5305 2.4399 -0.8111
| 38> H 0.9501 -0.5942 -2.4648
| 39> H 1.5261 1.0340 -2.8645
| 40> H -0.2335 1.5780 1.3199
| 41> H -0.7775 3.3184 3.1410
| 42> H -1.2389 5.7023 2.1786
| 43> H -1.9743 0.7593 -0.5698
| 44> H -0.2699 -1.7997 -0.7863
| 45> H -0.2089 -0.6866 0.5975
| 46> H -2.3385 -0.1758 1.9026
| 47> H -4.3624 -1.2112 2.8685
| 48> H -5.2726 -3.3073 1.9064
| 49> H -4.1553 -4.3688 -0.0341
| 50> H -2.1333 -3.3492 -1.0153
| 51> H -3.3666 0.2618 -3.9068
| 52> H -3.1407 1.4792 -2.6005
| 53> H 2.1970 -1.8603 -0.8828
| 54> *
| 55>
| 56>                          ****END OF INPUT****

CARTESIAN COORDINATES (ANGSTROEM)
---------------------------------
  C      4.958200   -2.585500    1.962600
  O      3.988000   -2.332700    0.951700
  C      3.612300   -1.053100    0.514900
  C      4.183000    0.120700    1.040300
  C      3.780800    1.371400    0.563600
  C      2.816600    1.462300   -0.442300
  C      2.231100    0.300200   -0.970400
  C      1.159700    0.404200   -2.025300
  N     -0.066100    0.978800   -1.449500
  C     -0.217600    2.408500   -1.442500
  O     -0.117600    3.049000   -2.521800
  C     -0.491800    3.136400   -0.192600
  C     -0.463700    2.609400    1.094100
  C     -0.752600    3.555400    2.085500
  C     -0.998900    4.828500    1.588300
  S     -0.859600    4.774700   -0.087100
  C     -1.240100    0.143100   -1.136200
  C     -0.861400   -1.046500   -0.225300
  C     -2.081700   -1.692400    0.379700
  C     -2.724600   -1.093900    1.476400
  C     -3.870400   -1.676600    2.025000
  C     -4.384600   -2.857400    1.481900
  C     -3.753500   -3.455900    0.388500
  C     -2.608200   -2.875700   -0.164500
  C     -1.916700   -0.287800   -2.415400
  N     -2.885700    0.561300   -3.029600
  O     -1.601800   -1.373900   -2.974900
  C      2.634100   -0.953300   -0.482300
  H      4.634300   -2.131800    2.923700
  H      5.060600   -3.682300    2.102300
  H      5.944600   -2.174500    1.657000
  H      4.937400    0.077600    1.814000
  H      4.224500    2.272200    0.969500
  H      2.530500    2.439900   -0.811100
  H      0.950100   -0.594200   -2.464800
  H      1.526100    1.034000   -2.864500
  H     -0.233500    1.578000    1.319900
  H     -0.777500    3.318400    3.141000
  H     -1.238900    5.702300    2.178600
  H     -1.974300    0.759300   -0.569800
  H     -0.269900   -1.799700   -0.786300
  H     -0.208900   -0.686600    0.597500
  H     -2.338500   -0.175800    1.902600
  H     -4.362400   -1.211200    2.868500
  H     -5.272600   -3.307300    1.906400
  H     -4.155300   -4.368800   -0.034100
  H     -2.133300   -3.349200   -1.015300
  H     -3.366600    0.261800   -3.906800
  H     -3.140700    1.479200   -2.600500
  H      2.197000   -1.860300   -0.882800

 Total Charge           Charge          ....    0
 Multiplicity           Mult            ....    1
 Number of Electrons    NEL             ....  208
 Basis Dimension        Dim             ....  440

ORBITAL ENERGIES
----------------

  NO   OCC          E(Eh)            E(eV)
   0   2.0000     -88.902283     -2419.1541
   1   2.0000     -19.161514      -521.4113
   2   2.0000     -19.124346      -520.3999
   3   2.0000     -19.108919      -519.9801
   4   2.0000     -14.351388      -390.5211
   5   2.0000     -14.343007      -390.2931
   6   2.0000     -10.300851      -280.3004
   7   2.0000     -10.288269      -279.9580
   8   2.0000     -10.243187      -278.7313
   9   2.0000     -10.237400      -278.5738
  10   2.0000     -10.235343      -278.5179
  11   2.0000     -10.222691      -278.1736
  12   2.0000     -10.221523      -278.1418
  13   2.0000     -10.212102      -277.8854
  14   2.0000     -10.198996      -277.5288
  15   2.0000     -10.195754      -277.4406
  16   2.0000     -10.186737      -277.1952
  17   2.0000     -10.184483      -277.1339
  18   2.0000     -10.181703      -277.0582
  19   2.0000     -10.181090      -277.0415
  20   2.0000     -10.177573      -276.9458
  21   2.0000     -10.177254      -276.9372
  22   2.0000     -10.177077      -276.9323
  23   2.0000     -10.176040      -276.9041
  24   2.0000     -10.175108      -276.8788
  25   2.0000     -10.174557      -276.8638
  26   2.0000     -10.171644      -276.7845
  27   2.0000     -10.171227      -276.7732
  28   2.0000      -7.978665      -217.1105
  29   2.0000      -5.941627      -161.6799
  30   2.0000      -5.937481      -161.5671
  31   2.0000      -5.935961      -161.5257
  32   2.0000      -1.039091       -28.2751
  33   2.0000      -1.023440       -27.8492
  34   2.0000      -1.007005       -27.4020
  35   2.0000      -0.920937       -25.0600
  36   2.0000      -0.904204       -24.6047
  37   2.0000      -0.874324       -23.7916
  38   2.0000      -0.847843       -23.0710
  39   2.0000      -0.844678       -22.9849
  40   2.0000      -0.786861       -21.4116
  41   2.0000      -0.765657       -20.8346
  42   2.0000      -0.750922       -20.4336
  43   2.0000      -0.748818       -20.3764
  44   2.0000      -0.748351       -20.3637
  45   2.0000      -0.735477       -20.0133
  46   2.0000      -0.722579       -19.6624
  47   2.0000      -0.685697       -18.6588
  48   2.0000      -0.681503       -18.5446
  49   2.0000      -0.655395       -17.8342
  50   2.0000      -0.618174       -16.8214
  51   2.0000      -0.598512       -16.2863
  52   2.0000      -0.597227       -16.2514
  53   2.0000      -0.584924       -15.9166
  54   2.0000      -0.573806       -15.6140
  55   2.0000      -0.569275       -15.4907
  56   2.0000      -0.557775       -15.1778
  57   2.0000      -0.537738       -14.6326
  58   2.0000      -0.529034       -14.3957
  59   2.0000      -0.520267       -14.1572
  60   2.0000      -0.508831       -13.8460
  61   2.0000      -0.500965       -13.6320
  62   2.0000      -0.490382       -13.3440
  63   2.0000      -0.483627       -13.1602
  64   2.0000      -0.479312       -13.0427
  65   2.0000      -0.464455       -12.6385
  66   2.0000      -0.462735       -12.5916
  67   2.0000      -0.457001       -12.4356
  68   2.0000      -0.448596       -12.2069
  69   2.0000      -0.444552       -12.0969
  70   2.0000      -0.434562       -11.8250
  71   2.0000      -0.429104       -11.6765
  72   2.0000      -0.425604       -11.5813
  73   2.0000      -0.414145       -11.2695
  74   2.0000      -0.410767       -11.1776
  75   2.0000      -0.410101       -11.1594
  76   2.0000      -0.406041       -11.0489
  77   2.0000      -0.404284       -11.0011
  78   2.0000      -0.400173       -10.8893
  79   2.0000      -0.392762       -10.6876
  80   2.0000      -0.388758       -10.5786
  81   2.0000      -0.380897       -10.3647
  82   2.0000      -0.369776       -10.0621
  83   2.0000      -0.367234        -9.9929
  84   2.0000      -0.359564        -9.7842
  85   2.0000      -0.356265        -9.6945
  86   2.0000      -0.352060        -9.5800
  87   2.0000      -0.348509        -9.4834
  88   2.0000      -0.345403        -9.3989
  89   2.0000      -0.343690        -9.3523
  90   2.0000      -0.331206        -9.0126
  91   2.0000      -0.329491        -8.9659
  92   2.0000      -0.311100        -8.4655
  93   2.0000      -0.306474        -8.3396
  94   2.0000      -0.266955        -7.2642
  95   2.0000      -0.263087        -7.1590
  96   2.0000      -0.256892        -6.9904
  97   2.0000      -0.253108        -6.8874
  98   2.0000      -0.247001        -6.7212
  99   2.0000      -0.242379        -6.5955
 100   2.0000      -0.241509        -6.5718
 101   2.0000      -0.237491        -6.4624
 102   2.0000      -0.216990        -5.9046
 103   2.0000      -0.210399        -5.7253
 104   0.0000      -0.064549        -1.7565
 105   0.0000      -0.002243        -0.0610
 106   0.0000       0.001379         0.0375
 107   0.0000       0.007060         0.1921
 108   0.0000       0.011940         0.3249

MULLIKEN ATOMIC CHARGES
-----------------------
   0 C :   -0.192944
   1 O :   -0.513317
   2 C :    0.372040
   3 C :   -0.207461
   4 C :   -0.126049
   5 C :   -0.187750
   6 C :    0.185344
   7 C :   -0.270370
   8 N :   -0.420266
   9 C :    0.488183
  10 O :   -0.446453
  11 C :   -0.207092
  12 C :   -0.098542
  13 C :   -0.117830
  14 C :   -0.333462
  15 S :    0.310808
  16 C :   -0.066832
  17 C :   -0.364152
  18 C :    0.140767
  19 C :   -0.177710
  20 C :   -0.128663
  21 C :   -0.125581
  22 C :   -0.129476
  23 C :   -0.164534
  24 C :    0.608526
  25 N :   -0.762815
  26 O :   -0.491935
  27 C :   -0.235825
  28 H :    0.144119
  29 H :    0.168224
  30 H :    0.145913
  31 H :    0.127475
  32 H :    0.130259
  33 H :    0.136538
  34 H :    0.180862
  35 H :    0.182656
  36 H :    0.164799
  37 H :    0.144171
  38 H :    0.187823
  39 H :    0.148955
  40 H :    0.170914
  41 H :    0.161717
  42 H :    0.116951
  43 H :    0.123319
  44 H :    0.123875
  45 H :    0.127892
  46 H :    0.149747
  47 H :    0.351263
  48 H :    0.337788
  49 H :    0.138132
Sum of atomic charges:    0.0000000

LOEWDIN ATOMIC CHARGES
----------------------
   0 C :   -0.198719
   1 O :   -0.195473
   2 C :    0.089110
   3 C :   -0.179954
   4 C :   -0.120359
   5 C :   -0.152137
   6 C :   -0.021201
   7 C :   -0.147292
   8 N :   -0.116142
   9 C :    0.132362
  10 O :   -0.248639
  11 C :   -0.235707
  12 C :   -0.139609
  13 C :   -0.166052
  14 C :   -0.295760
  15 S :    0.443596
  16 C :   -0.067470
  17 C :   -0.220770
  18 C :   -0.023058
  19 C :   -0.141898
  20 C :   -0.130756
  21 C :   -0.134255
  22 C :   -0.127656
  23 C :   -0.126372
  24 C :    0.142246
  25 N :   -0.391957
  26 O :   -0.298525
  27 C :   -0.156307
  28 H :    0.114773
  29 H :    0.134848
  30 H :    0.115576
  31 H :    0.133087
  32 H :    0.132482
  33 H :    0.134637
  34 H :    0.143471
  35 H :    0.145900
  36 H :    0.147549
  37 H :    0.138398
  38 H :    0.162902
  39 H :    0.134513
  40 H :    0.140824
  41 H :    0.134896
  42 H :    0.124937
  43 H :    0.128919
  44 H :    0.129362
  45 H :    0.131051
  46 H :    0.141829
  47 H :    0.265534
  48 H :    0.253853
  49 H :    0.139414

  Mayer bond orders larger than 0.100000
B(  0-C ,  1-O ) :   0.9225 B(  0-C , 28-H ) :   0.9309 B(  0-C , 29-H ) :   0.9452
B(  0-C , 30-H ) :   0.9305 B(  1-O ,  2-C ) :   0.9147 B(  2-C ,  3-C ) :   1.3771
B(  2-C , 27-C ) :   1.3796 B(  3-C ,  4-C ) :   1.4314 B(  3-C , 31-H ) :   0.9197
B(  4-C ,  5-C ) :   1.4544 B(  4-C , 32-H ) :   0.9293 B(  5-C ,  6-C ) :   1.4162
B(  5-C , 33-H ) :   0.9194 B(  6-C ,  7-C ) :   0.9377 B(  6-C , 27-C ) :   1.4386
B(  7-C ,  8-N ) :   0.9336 B(  7-C , 34-H ) :   0.9158 B(  7-C , 35-H ) :   0.9164
B(  8-N ,  9-C ) :   1.0084 B(  8-N , 16-C ) :   0.9643 B(  9-C , 10-O ) :   1.8162
B(  9-C , 11-C ) :   1.0280 B( 11-C , 12-C ) :   1.4652 B( 11-C , 14-C ) :   0.1241
B( 11-C , 15-S ) :   1.1259 B( 12-C , 13-C ) :   1.3768 B( 12-C , 36-H ) :   0.9096
B( 13-C , 14-C ) :   1.5427 B( 13-C , 37-H ) :   0.9278 B( 14-C , 15-S ) :   1.1866
B( 14-C , 38-H ) :   0.9153 B( 16-C , 17-C ) :   0.9693 B( 16-C , 24-C ) :   0.9098
B( 16-C , 39-H ) :   0.9059 B( 17-C , 18-C ) :   0.9759 B( 17-C , 40-H ) :   0.9131
B( 17-C , 41-H ) :   0.9174 B( 18-C , 19-C ) :   1.4227 B( 18-C , 23-C ) :   1.4463
B( 19-C , 20-C ) :   1.4449 B( 19-C , 42-H ) :   0.9236 B( 20-C , 21-C ) :   1.4528
B( 20-C , 43-H ) :   0.9304 B( 21-C , 22-C ) :   1.4547 B( 21-C , 44-H ) :   0.9311
B( 22-C , 23-C ) :   1.4317 B( 22-C , 45-H ) :   0.9300 B( 23-C , 46-H ) :   0.9163
B( 24-C , 25-N ) :   1.0911 B( 24-C , 26-O ) :   1.8049 B( 25-N , 47-H ) :   0.8227
B( 25-N , 48-H ) :   0.8279 B( 27-C , 49-H ) :   0.9108

FINAL SINGLE POINT ENERGY     -1584.112411817345

DIPOLE MOMENT
-------------

Method             : SCF
Type of density    : Electron Density
Multiplicity       :   1
Irrep              :   0
Energy             : -1584.1124118173445368 Eh
Relativity type    :
Basis              : AO
                                X                 Y                 Z
Electronic contribution:     -4.865705319      15.469023070      -8.653564052
Nuclear contribution   :      4.615813655     -14.900398575      10.533045912
                        -----------------------------------------
Total Dipole Moment    :     -0.249891665       0.568624495       1.879481860
                        -----------------------------------------
Magnitude (a.u.)       :      1.979452380
Magnitude (Debye)      :      5.031368100

Rotational constants in cm-1:             0.005146             0.004680             0.003318
Rotational constants in MHz :           154.266089           140.302196            99.476055

                             ****ORCA TERMINATED NORMALLY****
TOTAL RUN TIME: 0 days 0 hours 4 minutes 36 seconds 853 msec
