                         Program Version 6.0.0  -   RELEASE  -
|  1> ! B3LYP 6-31G* SP
|  2>
|  3> * xyz 0 1
|  4> C -5.8224 0.1546 -0.4964
|  5> C -5.1977 -0.8432 0.4699
|  6> N -3.8503 -0.4193 0.8280
|  7> N -3.5641 0.3801 1.8413
|  8> N -2.2612 0.6109 1.8487
|  9> C -1.7811 -0.0761 0.7918
| 10> C -0.3649 -0.1052 0.4039
| 11> S 0.8767 0.6967 1.2055
| 12> C 2.0733 0.1447 0.1494
| 13> C 3.5163 0.4641 0.2354
| 14> C 4.4181 -0.0580 -0.7069
| 15> C 5.7778 0.2461 -0.6215
| 16> C 6.2305 1.0722 0.4072
| 17> N 5.3511 1.5725 1.3140
| 18> C 4.0217 1.2920 1.2537
| 19> N 1.5406 -0.6463 -0.8116
| 20> C 0.1946 -0.7862 -0.6737
| 21> O -0.5549 -1.5583 -1.5554
| 22> N -2.7651 -0.7219 0.1365
| 23> H -5.2135 0.2209 -1.4231
| 24> H -6.8481 -0.1760 -0.7636
| 25> H -5.8799 1.1584 -0.0242
| 26> H -5.1596 -1.8469 -0.0059
| 27> H -5.8234 -0.9150 1.3857
| 28> H 4.0741 -0.6999 -1.5082
| 29> H 6.4743 -0.1550 -1.3463
| 30> H 7.2815 1.3160 0.4853
| 31> H 3.3664 1.7172 2.0017
| 32> H -0.1108 -2.0390 -2.3283
| 33> *
| 34>
| 35>                          ****END OF INPUT****

CARTESIAN COORDINATES (ANGSTROEM)
---------------------------------
  C     -5.822400    0.154600   -0.496400
  C     -5.197700   -0.843200    0.469900
  N     -3.850300   -0.419300    0.828000
  N     -3.564100    0.380100    1.841300
  N     -2.261200    0.610900    1.848700
  C     -1.781100   -0.076100    0.791800
  C     -0.364900   -0.105200    0.403900
  S      0.876700    0.696700    1.205500
  C      2.073300    0.144700    0.149400
  C      3.516300    0.464100    0.235400
  C      4.418100   -0.058000   -0.706900
  C      5.777800    0.246100   -0.621500
  C      6.230500    1.072200    0.407200
  N      5.351100    1.572500    1.314000
  C      4.021700    1.292000    1.253700
  N      1.540600   -0.646300   -0.811600
  C      0.194600   -0.786200   -0.673700
  O     -0.554900   -1.558300   -1.555400
  N     -2.765100   -0.721900    0.136500
  H     -5.213500    0.220900   -1.423100
  H     -6.848100   -0.176000   -0.763600
  H     -5.879900    1.158400   -0.024200
  H     -5.159600   -1.846900   -0.005900
  H     -5.823400   -0.915000    1.385700
  H      4.074100   -0.699900   -1.508200
  H      6.474300   -0.155000   -1.346300
  H      7.281500    1.316000    0.485300
  H      3.366400    1.717200    2.001700
  H     -0.110800   -2.039000   -2.328300

 Total Charge           Charge          ....    0
 Multiplicity           Mult            ....    1
 Number of Electrons    NEL             ....  142
 Basis Dimension        Dim             ....  290

ORBITAL ENERGIES
----------------

  NO   OCC          E(Eh)            E(eV)
   0   2.0000     -88.907252     -2419.2893
   1   2.0000     -19.176751      -521.8259
   2   2.0000     -14.456388      -393.3783
   3   2.0000     -14.394558      -391.6958
   4   2.0000     -14.365367      -390.9015
   5   2.0000     -14.357864      -390.6974
   6   2.0000     -14.338054      -390.1583
   7   2.0000     -14.331323      -389.9751
   8   2.0000     -10.286564      -279.9116
   9   2.0000     -10.261145      -279.2199
  10   2.0000     -10.253895      -279.0227
  11   2.0000     -10.249268      -278.8968
  12   2.0000     -10.228393      -278.3287
  13   2.0000     -10.225232      -278.2427
  14   2.0000     -10.223290      -278.1899
  15   2.0000     -10.218123      -278.0493
  16   2.0000     -10.205225      -277.6983
  17   2.0000     -10.196574      -277.4629
  18   2.0000     -10.193355      -277.3753
  19   2.0000      -7.983805      -217.2504
  20   2.0000      -5.946813      -161.8210
  21   2.0000      -5.942814      -161.7122
  22   2.0000      -5.940822      -161.6580
  23   2.0000      -1.143752       -31.1231
  24   2.0000      -1.046708       -28.4824
  25   2.0000      -0.965456       -26.2714
  26   2.0000      -0.947123       -25.7725
  27   2.0000      -0.931653       -25.3516
  28   2.0000      -0.893793       -24.3214
  29   2.0000      -0.822688       -22.3865
  30   2.0000      -0.813694       -22.1417
  31   2.0000      -0.789843       -21.4927
  32   2.0000      -0.779795       -21.2193
  33   2.0000      -0.738148       -20.0860
  34   2.0000      -0.686099       -18.6697
  35   2.0000      -0.668635       -18.1945
  36   2.0000      -0.643688       -17.5156
  37   2.0000      -0.634663       -17.2700
  38   2.0000      -0.611292       -16.6341
  39   2.0000      -0.584025       -15.8921
  40   2.0000      -0.582286       -15.8448
  41   2.0000      -0.532768       -14.4973
  42   2.0000      -0.527371       -14.3505
  43   2.0000      -0.521572       -14.1927
  44   2.0000      -0.501878       -13.6568
  45   2.0000      -0.492316       -13.3966
  46   2.0000      -0.479807       -13.0562
  47   2.0000      -0.468215       -12.7408
  48   2.0000      -0.452704       -12.3187
  49   2.0000      -0.444489       -12.0952
  50   2.0000      -0.437357       -11.9011
  51   2.0000      -0.413999       -11.2655
  52   2.0000      -0.402553       -10.9540
  53   2.0000      -0.398787       -10.8516
  54   2.0000      -0.394522       -10.7355
  55   2.0000      -0.389136       -10.5889
  56   2.0000      -0.381277       -10.3751
  57   2.0000      -0.375911       -10.2291
  58   2.0000      -0.371621       -10.1123
  59   2.0000      -0.358043        -9.7429
  60   2.0000      -0.356764        -9.7080
  61   2.0000      -0.325561        -8.8590
  62   2.0000      -0.308546        -8.3960
  63   2.0000      -0.294078        -8.0023
  64   2.0000      -0.287392        -7.8203
  65   2.0000      -0.285821        -7.7776
  66   2.0000      -0.281300        -7.6546
  67   2.0000      -0.273675        -7.4471
  68   2.0000      -0.270323        -7.3559
  69   2.0000      -0.248230        -6.7547
  70   2.0000      -0.211495        -5.7551
  71   0.0000      -0.066284        -1.8037
  72   0.0000      -0.027245        -0.7414
  73   0.0000      -0.018724        -0.5095
  74   0.0000       0.005437         0.1479
  75   0.0000       0.021744         0.5917

MULLIKEN ATOMIC CHARGES
-----------------------
   0 C :   -0.446094
   1 C :   -0.143683
   2 N :   -0.029482
   3 N :   -0.065983
   4 N :   -0.324949
   5 C :    0.409238
   6 C :   -0.220572
   7 S :    0.309674
   8 C :   -0.025962
   9 C :    0.119592
  10 C :   -0.119166
  11 C :   -0.138475
  12 C :    0.024464
  13 N :   -0.371249
  14 C :   -0.036419
  15 N :   -0.429365
  16 C :    0.489406
  17 O :   -0.635071
  18 N :   -0.299437
  19 H :    0.174953
  20 H :    0.156882
  21 H :    0.173929
  22 H :    0.188774
  23 H :    0.188351
  24 H :    0.167361
  25 H :    0.139161
  26 H :    0.153089
  27 H :    0.167265
  28 H :    0.423770
Sum of atomic charges:   -0.0000000

LOEWDIN ATOMIC CHARGES
----------------------
   0 C :   -0.362371
   1 C :   -0.152458
   2 N :    0.097550
   3 N :   -0.075632
   4 N :   -0.126273
   5 C :   -0.005684
   6 C :   -0.243866
   7 S :    0.434410
   8 C :   -0.121484
   9 C :   -0.043028
  10 C :   -0.085440
  11 C :   -0.141057
  12 C :   -0.065200
  13 N :   -0.129934
  14 C :   -0.064788
  15 N :   -0.185622
  16 C :    0.092828
  17 O :   -0.325810
  18 N :   -0.122724
  19 H :    0.139266
  20 H :    0.134728
  21 H :    0.138847
  22 H :    0.150593
  23 H :    0.150037
  24 H :    0.151702
  25 H :    0.138287
  26 H :    0.136651
  27 H :    0.142847
  28 H :    0.343623

  Mayer bond orders larger than 0.100000
B(  0-C ,  1-C ) :   1.0039 B(  0-C , 19-H ) :   0.9436 B(  0-C , 20-H ) :   0.9424
B(  0-C , 21-H ) :   0.9440 B(  1-C ,  2-N ) :   0.8985 B(  1-C , 22-H ) :   0.9265
B(  1-C , 23-H ) :   0.9269 B(  2-N ,  3-N ) :   1.2401 B(  2-N , 18-N ) :   1.2228
B(  3-N ,  4-N ) :   1.4315 B(  3-N , 18-N ) :   0.1306 B(  4-N ,  5-C ) :   1.2863
B(  5-C ,  6-C ) :   1.0419 B(  5-C , 18-N ) :   1.3851 B(  6-C ,  7-S ) :   1.0945
B(  6-C ,  8-C ) :   0.1242 B(  6-C , 16-C ) :   1.4223 B(  7-S ,  8-C ) :   1.1557
B(  8-C ,  9-C ) :   1.0172 B(  8-C , 15-N ) :   1.4408 B(  9-C , 10-C ) :   1.4059
B(  9-C , 14-C ) :   1.3409 B( 10-C , 11-C ) :   1.4420 B( 10-C , 24-H ) :   0.9118
B( 11-C , 12-C ) :   1.4093 B( 11-C , 25-H ) :   0.9244 B( 12-C , 13-N ) :   1.4240
B( 12-C , 26-H ) :   0.9305 B( 13-N , 14-C ) :   1.4367 B( 14-C , 27-H ) :   0.9203
B( 15-N , 16-C ) :   1.2895 B( 16-C , 17-O ) :   0.9968 B( 17-O , 28-H ) :   0.7559

FINAL SINGLE POINT ENERGY     -1226.495132994028

DIPOLE MOMENT
-------------

Method             : SCF
Type of density    : Electron Density
Multiplicity       :   1
Irrep              :   0
Energy             : -1226.4951329940283813 Eh
Relativity type    :
Basis              : AO
                                X                 Y                 Z
Electronic contribution:      9.900973386       1.221238950       5.231674334
Nuclear contribution   :    -10.521442404      -2.224542757      -6.662934484
                        -----------------------------------------
Total Dipole Moment    :     -0.620469018      -1.003303806      -1.431260149
                        -----------------------------------------
Magnitude (a.u.)       :      1.854752260
Magnitude (Debye)      :      4.714405584

Rotational constants in cm-1:             0.042671             0.004637             0.004246
Rotational constants in MHz :          1279.230906           138.999419           127.305886

                             ****ORCA TERMINATED NORMALLY****
TOTAL RUN TIME: 0 days 0 hours 3 minutes 24 seconds 75 msec
