                         Program Version 6.0.0  -   RELEASE  -
|  1> ! B3LYP 6-31G* SP
|  2>
|  3> * xyz -1 1
|  4> C -1.7017 -0.5639 -0.5272
|  5> C -1.7213 -1.7126 0.4560
|  6> C -0.8732 -1.7075 1.5893
|  7> N -0.0037 -0.6029 1.8669
|  8> C 1.4406 -0.7544 1.6780
|  9> C 1.7815 -0.6283 0.2187
| 10> C 1.6775 -1.7375 -0.6346
| 11> N 1.8926 -1.5995 -1.9700
| 12> C 2.2074 -0.3985 -2.5244
| 13> C 2.4117 -0.2920 -3.9048
| 14> C 2.7244 0.9479 -4.4718
| 15> C 2.8333 2.0843 -3.6632
| 16> C 2.6323 1.9876 -2.2826
| 17> C 2.3209 0.7469 -1.7064
| 18> C 2.1097 0.6194 -0.3297
| 19> S -0.6359 0.7759 2.7149
| 20> O -2.1347 0.8055 2.5981
| 21> O -0.2721 0.6774 4.1699
| 22> C 0.0192 2.2579 2.0243
| 23> C 1.1631 2.8488 2.5762
| 24> C 1.7261 3.9829 1.9836
| 25> C 1.1522 4.5424 0.8278
| 26> C 1.7567 5.7284 0.1828
| 27> O 2.7913 6.2620 0.6645
| 28> O 1.1924 6.2694 -0.9667
| 29> C -0.0043 3.9537 0.2883
| 30> C -0.5679 2.8228 0.8853
| 31> N -0.8668 -2.7660 2.4409
| 32> C -1.6628 -3.8477 2.2640
| 33> C -2.5412 -3.9032 1.1794
| 34> C -3.3763 -5.0170 1.0015
| 35> C -4.2569 -5.0681 -0.0793
| 36> C -4.3121 -4.0109 -0.9872
| 37> C -3.4852 -2.8963 -0.8232
| 38> C -2.5819 -2.8244 0.2607
| 39> H -2.6721 -0.0260 -0.4938
| 40> H -0.8961 0.1644 -0.3193
| 41> H -1.5217 -0.9478 -1.5532
| 42> H 1.9898 0.0152 2.2618
| 43> H 1.7728 -1.7415 2.0676
| 44> H 1.4079 -2.7086 -0.2397
| 45> H 2.3263 -1.1656 -4.5391
| 46> H 2.8808 1.0288 -5.5397
| 47> H 3.0732 3.0417 -4.1075
| 48> H 2.7171 2.8769 -1.6690
| 49> H 2.1927 1.4872 0.3104
| 50> H 1.6334 2.4202 3.4518
| 51> H 2.6172 4.4133 2.4230
| 52> H -0.4714 4.3623 -0.5989
| 53> H -1.4561 2.3833 0.4512
| 54> H -1.6124 -4.6607 2.9778
| 55> H -3.3488 -5.8460 1.6989
| 56> H -4.9001 -5.9285 -0.2123
| 57> H -4.9999 -4.0539 -1.8219
| 58> H -3.5679 -2.0976 -1.5475
| 59> *
| 60>
| 61>                          ****END OF INPUT****

CARTESIAN COORDINATES (ANGSTROEM)
---------------------------------
  C     -1.701700   -0.563900   -0.527200
  C     -1.721300   -1.712600    0.456000
  C     -0.873200   -1.707500    1.589300
  N     -0.003700   -0.602900    1.866900
  C      1.440600   -0.754400    1.678000
  C      1.781500   -0.628300    0.218700
  C      1.677500   -1.737500   -0.634600
  N      1.892600   -1.599500   -1.970000
  C      2.207400   -0.398500   -2.524400
  C      2.411700   -0.292000   -3.904800
  C      2.724400    0.947900   -4.471800
  C      2.833300    2.084300   -3.663200
  C      2.632300    1.987600   -2.282600
  C      2.320900    0.746900   -1.706400
  C      2.109700    0.619400   -0.329700
  S     -0.635900    0.775900    2.714900
  O     -2.134700    0.805500    2.598100
  O     -0.272100    0.677400    4.169900
  C      0.019200    2.257900    2.024300
  C      1.163100    2.848800    2.576200
  C      1.726100    3.982900    1.983600
  C      1.152200    4.542400    0.827800
  C      1.756700    5.728400    0.182800
  O      2.791300    6.262000    0.664500
  O      1.192400    6.269400   -0.966700
  C     -0.004300    3.953700    0.288300
  C     -0.567900    2.822800    0.885300
  N     -0.866800   -2.766000    2.440900
  C     -1.662800   -3.847700    2.264000
  C     -2.541200   -3.903200    1.179400
  C     -3.376300   -5.017000    1.001500
  C     -4.256900   -5.068100   -0.079300
  C     -4.312100   -4.010900   -0.987200
  C     -3.485200   -2.896300   -0.823200
  C     -2.581900   -2.824400    0.260700
  H     -2.672100   -0.026000   -0.493800
  H     -0.896100    0.164400   -0.319300
  H     -1.521700   -0.947800   -1.553200
  H      1.989800    0.015200    2.261800
  H      1.772800   -1.741500    2.067600
  H      1.407900   -2.708600   -0.239700
  H      2.326300   -1.165600   -4.539100
  H      2.880800    1.028800   -5.539700
  H      3.073200    3.041700   -4.107500
  H      2.717100    2.876900   -1.669000
  H      2.192700    1.487200    0.310400
  H      1.633400    2.420200    3.451800
  H      2.617200    4.413300    2.423000
  H     -0.471400    4.362300   -0.598900
  H     -1.456100    2.383300    0.451200
  H     -1.612400   -4.660700    2.977800
  H     -3.348800   -5.846000    1.698900
  H     -4.900100   -5.928500   -0.212300
  H     -4.999900   -4.053900   -1.821900
  H     -3.567900   -2.097600   -1.547500

 Total Charge           Charge          ....   -1
 Multiplicity           Mult            ....    1
 Number of Electrons    NEL             ....  252
 Basis Dimension        Dim             ....  534

ORBITAL ENERGIES
----------------

  NO   OCC          E(Eh)            E(eV)
   0   2.0000     -89.001599     -2421.8566
   1   2.0000     -19.031818      -517.8821
   2   2.0000     -19.027432      -517.7627
   3   2.0000     -18.915561      -514.7186
   4   2.0000     -18.895732      -514.1790
   5   2.0000     -14.282005      -388.6331
   6   2.0000     -14.260657      -388.0522
   7   2.0000     -14.247454      -387.6929
   8   2.0000     -10.185051      -277.1493
   9   2.0000     -10.155973      -276.3581
  10   2.0000     -10.153929      -276.3024
  11   2.0000     -10.145063      -276.0612
  12   2.0000     -10.140367      -275.9334
  13   2.0000     -10.138678      -275.8874
  14   2.0000     -10.137434      -275.8536
  15   2.0000     -10.135455      -275.7998
  16   2.0000     -10.135196      -275.7927
  17   2.0000     -10.134370      -275.7702
  18   2.0000     -10.134065      -275.7619
  19   2.0000     -10.131897      -275.7029
  20   2.0000     -10.124363      -275.4979
  21   2.0000     -10.119407      -275.3631
  22   2.0000     -10.118345      -275.3342
  23   2.0000     -10.115499      -275.2567
  24   2.0000     -10.114321      -275.2247
  25   2.0000     -10.109156      -275.0841
  26   2.0000     -10.109126      -275.0833
  27   2.0000     -10.106694      -275.0171
  28   2.0000     -10.104345      -274.9532
  29   2.0000     -10.103119      -274.9199
  30   2.0000     -10.101308      -274.8706
  31   2.0000     -10.101057      -274.8637
  32   2.0000     -10.084870      -274.4233
  33   2.0000     -10.084171      -274.4042
  34   2.0000     -10.082331      -274.3542
  35   2.0000      -8.037406      -218.7089
  36   2.0000      -6.002724      -163.3424
  37   2.0000      -6.000410      -163.2795
  38   2.0000      -5.999717      -163.2606
  39   2.0000      -0.988318       -26.8935
  40   2.0000      -0.885047       -24.0833
  41   2.0000      -0.867054       -23.5937
  42   2.0000      -0.857666       -23.3383
  43   2.0000      -0.835886       -22.7456
  44   2.0000      -0.825290       -22.4573
  45   2.0000      -0.798357       -21.7244
  46   2.0000      -0.768925       -20.9235
  47   2.0000      -0.765500       -20.8303
  48   2.0000      -0.740118       -20.1396
  49   2.0000      -0.732542       -19.9335
  50   2.0000      -0.710284       -19.3278
  51   2.0000      -0.706452       -19.2235
  52   2.0000      -0.689395       -18.7594
  53   2.0000      -0.679109       -18.4795
  54   2.0000      -0.670027       -18.2324
  55   2.0000      -0.661218       -17.9926
  56   2.0000      -0.652659       -17.7597
  57   2.0000      -0.628196       -17.0941
  58   2.0000      -0.616830       -16.7848
  59   2.0000      -0.587848       -15.9961
  60   2.0000      -0.577866       -15.7245
  61   2.0000      -0.572210       -15.5706
  62   2.0000      -0.549079       -14.9412
  63   2.0000      -0.531562       -14.4646
  64   2.0000      -0.527380       -14.3507
  65   2.0000      -0.524906       -14.2834
  66   2.0000      -0.510254       -13.8847
  67   2.0000      -0.502509       -13.6740
  68   2.0000      -0.466529       -12.6949
  69   2.0000      -0.458017       -12.4633
  70   2.0000      -0.448838       -12.2135
  71   2.0000      -0.444239       -12.0884
  72   2.0000      -0.440124       -11.9764
  73   2.0000      -0.434682       -11.8283
  74   2.0000      -0.423973       -11.5369
  75   2.0000      -0.420706       -11.4480
  76   2.0000      -0.405325       -11.0294
  77   2.0000      -0.388905       -10.5826
  78   2.0000      -0.383895       -10.4463
  79   2.0000      -0.376388       -10.2420
  80   2.0000      -0.373490       -10.1632
  81   2.0000      -0.367679       -10.0051
  82   2.0000      -0.363487        -9.8910
  83   2.0000      -0.362698        -9.8695
  84   2.0000      -0.356058        -9.6888
  85   2.0000      -0.352013        -9.5788
  86   2.0000      -0.345023        -9.3886
  87   2.0000      -0.340827        -9.2744
  88   2.0000      -0.333491        -9.0748
  89   2.0000      -0.332059        -9.0358
  90   2.0000      -0.329696        -8.9715
  91   2.0000      -0.327512        -8.9121
  92   2.0000      -0.324750        -8.8369
  93   2.0000      -0.323752        -8.8097
  94   2.0000      -0.316399        -8.6096
  95   2.0000      -0.312063        -8.4917
  96   2.0000      -0.302048        -8.2192
  97   2.0000      -0.297854        -8.1050
  98   2.0000      -0.288140        -7.8407
  99   2.0000      -0.285335        -7.7644
 100   2.0000      -0.283054        -7.7023
 101   2.0000      -0.276494        -7.5238
 102   2.0000      -0.273329        -7.4377
 103   2.0000      -0.259486        -7.0610
 104   2.0000      -0.253143        -6.8884
 105   2.0000      -0.237727        -6.4689
 106   2.0000      -0.234864        -6.3910
 107   2.0000      -0.225078        -6.1247
 108   2.0000      -0.223413        -6.0794
 109   2.0000      -0.218456        -5.9445
 110   2.0000      -0.207680        -5.6513
 111   2.0000      -0.203684        -5.5425
 112   2.0000      -0.200473        -5.4551
 113   2.0000      -0.194928        -5.3043
 114   2.0000      -0.185170        -5.0387
 115   2.0000      -0.180852        -4.9212
 116   2.0000      -0.175801        -4.7838
 117   2.0000      -0.170273        -4.6334
 118   2.0000      -0.165126        -4.4933
 119   2.0000      -0.159672        -4.3449
 120   2.0000      -0.152495        -4.1496
 121   2.0000      -0.143389        -3.9018
 122   2.0000      -0.139183        -3.7873
 123   2.0000      -0.069881        -1.9016
 124   2.0000      -0.048505        -1.3199
 125   2.0000      -0.031737        -0.8636
 126   0.0000       0.005655         0.1539
 127   0.0000       0.018280         0.4974
 128   0.0000       0.034651         0.9429
 129   0.0000       0.055899         1.5211
 130   0.0000       0.064928         1.7668

MULLIKEN ATOMIC CHARGES
-----------------------
   0 C :   -0.545916
   1 C :    0.125699
   2 C :    0.320100
   3 N :   -0.604984
   4 C :   -0.248466
   5 C :    0.138418
   6 C :   -0.034966
   7 N :   -0.445331
   8 C :    0.208652
   9 C :   -0.147837
  10 C :   -0.131516
  11 C :   -0.136685
  12 C :   -0.209744
  13 C :    0.150617
  14 C :   -0.202752
  15 S :    1.190020
  16 O :   -0.569232
  17 O :   -0.546384
  18 C :   -0.155470
  19 C :   -0.162060
  20 C :   -0.161996
  21 C :    0.099524
  22 C :    0.408844
  23 O :   -0.548190
  24 O :   -0.654293
  25 C :   -0.154357
  26 C :   -0.148414
  27 N :   -0.379442
  28 C :   -0.060772
  29 C :    0.140789
  30 C :   -0.204735
  31 C :   -0.128052
  32 C :   -0.123588
  33 C :   -0.192781
  34 C :    0.117717
  35 H :    0.169781
  36 H :    0.187712
  37 H :    0.157616
  38 H :    0.175747
  39 H :    0.167843
  40 H :    0.140874
  41 H :    0.122104
  42 H :    0.117831
  43 H :    0.142845
  44 H :    0.185954
  45 H :    0.172443
  46 H :    0.151043
  47 H :    0.150914
  48 H :    0.157122
  49 H :    0.149786
  50 H :    0.138780
  51 H :    0.125829
  52 H :    0.119292
  53 H :    0.124288
  54 H :    0.139783
Sum of atomic charges:   -1.0000000

LOEWDIN ATOMIC CHARGES
----------------------
   0 C :   -0.362550
   1 C :    0.003353
   2 C :    0.037565
   3 N :   -0.287503
   4 C :   -0.145886
   5 C :   -0.058959
   6 C :   -0.076360
   7 N :   -0.142590
   8 C :    0.010721
   9 C :   -0.128424
  10 C :   -0.128537
  11 C :   -0.128348
  12 C :   -0.107601
  13 C :   -0.029434
  14 C :   -0.089402
  15 S :    1.259689
  16 O :   -0.591159
  17 O :   -0.586255
  18 C :   -0.215939
  19 C :   -0.130538
  20 C :   -0.118605
  21 C :   -0.008285
  22 C :    0.067508
  23 O :   -0.374509
  24 O :   -0.502226
  25 C :   -0.108124
  26 C :   -0.123676
  27 N :   -0.121344
  28 C :   -0.068798
  29 C :   -0.029319
  30 C :   -0.116954
  31 C :   -0.135085
  32 C :   -0.126311
  33 C :   -0.118556
  34 C :   -0.006010
  35 H :    0.141679
  36 H :    0.148069
  37 H :    0.134330
  38 H :    0.144061
  39 H :    0.134990
  40 H :    0.131002
  41 H :    0.134153
  42 H :    0.127295
  43 H :    0.138587
  44 H :    0.156802
  45 H :    0.153664
  46 H :    0.141948
  47 H :    0.148282
  48 H :    0.152456
  49 H :    0.141807
  50 H :    0.130683
  51 H :    0.130991
  52 H :    0.127652
  53 H :    0.130323
  54 H :    0.139674

  Mayer bond orders larger than 0.100000
B(  0-C ,  1-C ) :   1.0060 B(  0-C , 35-H ) :   0.9221 B(  0-C , 36-H ) :   0.9155
B(  0-C , 37-H ) :   0.9252 B(  1-C ,  2-C ) :   1.4249 B(  1-C , 28-C ) :   0.1030
B(  1-C , 34-C ) :   1.2635 B(  2-C ,  3-N ) :   0.9096 B(  2-C , 27-N ) :   1.2847
B(  3-N ,  4-C ) :   0.9279 B(  3-N , 15-S ) :   0.7848 B(  4-C ,  5-C ) :   0.9365
B(  4-C , 38-H ) :   0.9196 B(  4-C , 39-H ) :   0.9201 B(  5-C ,  6-C ) :   1.3006
B(  5-C , 14-C ) :   1.4709 B(  6-C ,  7-N ) :   1.5027 B(  6-C , 40-H ) :   0.9274
B(  7-N ,  8-C ) :   1.2496 B(  8-C ,  9-C ) :   1.3109 B(  8-C , 13-C ) :   1.2527
B(  9-C , 10-C ) :   1.5150 B(  9-C , 12-C ) :   0.1081 B(  9-C , 41-H ) :   0.9207
B( 10-C , 11-C ) :   1.3445 B( 10-C , 42-H ) :   0.9327 B( 11-C , 12-C ) :   1.5181
B( 11-C , 43-H ) :   0.9286 B( 12-C , 13-C ) :   1.2751 B( 12-C , 44-H ) :   0.9078
B( 13-C , 14-C ) :   1.2985 B( 14-C , 45-H ) :   0.8981 B( 15-S , 16-O ) :   1.6084
B( 15-S , 17-O ) :   1.6617 B( 15-S , 18-C ) :   0.8366 B( 18-C , 19-C ) :   1.3660
B( 18-C , 26-C ) :   1.3620 B( 19-C , 20-C ) :   1.3985 B( 19-C , 46-H ) :   0.9181
B( 20-C , 21-C ) :   1.3852 B( 20-C , 47-H ) :   0.9070 B( 21-C , 22-C ) :   0.9252
B( 21-C , 25-C ) :   1.3955 B( 22-C , 23-O ) :   1.7093 B( 22-C , 24-O ) :   1.5475
B( 23-O , 24-O ) :   0.1496 B( 25-C , 26-C ) :   1.4052 B( 25-C , 48-H ) :   0.9008
B( 26-C , 49-H ) :   0.9171 B( 27-N , 28-C ) :   1.5001 B( 28-C , 29-C ) :   1.2362
B( 28-C , 50-H ) :   0.9291 B( 29-C , 30-C ) :   1.2843 B( 29-C , 34-C ) :   1.2905
B( 30-C , 31-C ) :   1.5133 B( 30-C , 33-C ) :   0.1066 B( 30-C , 51-H ) :   0.9249
B( 31-C , 32-C ) :   1.3521 B( 31-C , 52-H ) :   0.9318 B( 32-C , 33-C ) :   1.5100
B( 32-C , 53-H ) :   0.9312 B( 33-C , 34-C ) :   1.2949 B( 33-C , 54-H ) :   0.9152

FINAL SINGLE POINT ENERGY     -1903.254086561833

DIPOLE MOMENT
-------------

Method             : SCF
Type of density    : Electron Density
Multiplicity       :   1
Irrep              :   0
Energy             : -1903.2540865618332191 Eh
Relativity type    :
Basis              : AO
                                X                 Y                 Z
Electronic contribution:      1.694101074       3.720496613      11.526867358
Nuclear contribution   :     -3.656271316     -11.787184682     -12.848168121
                        -----------------------------------------
Total Dipole Moment    :     -1.962170242      -8.066688069      -1.321300763
                        -----------------------------------------
Magnitude (a.u.)       :      8.406390674
Magnitude (Debye)      :     21.367347002

Rotational constants in cm-1:             0.005633             0.002650             0.002110
Rotational constants in MHz :           168.862076            79.445979            63.254049

                             ****ORCA TERMINATED NORMALLY****
TOTAL RUN TIME: 0 days 0 hours 12 minutes 15 seconds 498 msec
