                         Program Version 6.0.0  -   RELEASE  -
|  1> ! B3LYP 6-31G* SP
|  2>
|  3> * xyz 0 1
|  4> N 7.0232 -0.6620 0.0360
|  5> C 6.1861 0.3432 -0.5429
|  6> O 6.6852 1.4684 -0.8146
|  7> C 4.7560 0.0848 -0.8392
|  8> C 4.0868 0.8598 -1.8038
|  9> C 2.7367 0.6312 -2.0870
| 10> C 2.0320 -0.3690 -1.4055
| 11> S 0.3281 -0.6605 -1.7394
| 12> O -0.1997 0.3655 -2.7043
| 13> O 0.1652 -2.0213 -2.3580
| 14> N -0.5703 -0.5627 -0.2564
| 15> C -0.8817 -1.7701 0.5121
| 16> C -2.3460 -2.0941 0.4013
| 17> C -2.8159 -2.9036 -0.6447
| 18> C -4.1825 -3.1756 -0.7642
| 19> C -5.0887 -2.6349 0.1527
| 20> C -4.6311 -1.8111 1.1839
| 21> C -3.2657 -1.5349 1.3065
| 22> C -1.0347 0.7164 0.1898
| 23> N -2.1129 1.2810 -0.4171
| 24> C -2.6142 2.4820 -0.0269
| 25> C -2.0154 3.1921 1.0246
| 26> C -2.6082 4.4959 1.4954
| 27> F -1.6754 5.2443 2.1922
| 28> F -3.0429 5.2423 0.4136
| 29> F -3.6838 4.2336 2.3241
| 30> C -0.9120 2.6176 1.6753
| 31> C -0.4082 1.3839 1.2544
| 32> Cl 1.0097 0.7175 2.0529
| 33> C 2.6890 -1.1392 -0.4390
| 34> C 4.0380 -0.9125 -0.1521
| 35> H 6.7054 -1.6503 0.1387
| 36> H 8.0099 -0.4332 0.2917
| 37> H 4.6103 1.6371 -2.3468
| 38> H 2.2458 1.2385 -2.8371
| 39> H -0.2800 -2.6291 0.1455
| 40> H -0.6003 -1.6249 1.5766
| 41> H -2.1269 -3.3217 -1.3662
| 42> H -4.5387 -3.8050 -1.5696
| 43> H -6.1465 -2.8464 0.0589
| 44> H -5.3344 -1.3820 1.8844
| 45> H -2.9252 -0.8843 2.1026
| 46> H -3.4841 2.8789 -0.5342
| 47> H -0.4395 3.1248 2.5070
| 48> H 2.1533 -1.9080 0.1037
| 49> H 4.5042 -1.5025 0.6250
| 50> *
| 51>
| 52>                          ****END OF INPUT****

CARTESIAN COORDINATES (ANGSTROEM)
---------------------------------
  N      7.023200   -0.662000    0.036000
  C      6.186100    0.343200   -0.542900
  O      6.685200    1.468400   -0.814600
  C      4.756000    0.084800   -0.839200
  C      4.086800    0.859800   -1.803800
  C      2.736700    0.631200   -2.087000
  C      2.032000   -0.369000   -1.405500
  S      0.328100   -0.660500   -1.739400
  O     -0.199700    0.365500   -2.704300
  O      0.165200   -2.021300   -2.358000
  N     -0.570300   -0.562700   -0.256400
  C     -0.881700   -1.770100    0.512100
  C     -2.346000   -2.094100    0.401300
  C     -2.815900   -2.903600   -0.644700
  C     -4.182500   -3.175600   -0.764200
  C     -5.088700   -2.634900    0.152700
  C     -4.631100   -1.811100    1.183900
  C     -3.265700   -1.534900    1.306500
  C     -1.034700    0.716400    0.189800
  N     -2.112900    1.281000   -0.417100
  C     -2.614200    2.482000   -0.026900
  C     -2.015400    3.192100    1.024600
  C     -2.608200    4.495900    1.495400
  F     -1.675400    5.244300    2.192200
  F     -3.042900    5.242300    0.413600
  F     -3.683800    4.233600    2.324100
  C     -0.912000    2.617600    1.675300
  C     -0.408200    1.383900    1.254400
  Cl     1.009700    0.717500    2.052900
  C      2.689000   -1.139200   -0.439000
  C      4.038000   -0.912500   -0.152100
  H      6.705400   -1.650300    0.138700
  H      8.009900   -0.433200    0.291700
  H      4.610300    1.637100   -2.346800
  H      2.245800    1.238500   -2.837100
  H     -0.280000   -2.629100    0.145500
  H     -0.600300   -1.624900    1.576600
  H     -2.126900   -3.321700   -1.366200
  H     -4.538700   -3.805000   -1.569600
  H     -6.146500   -2.846400    0.058900
  H     -5.334400   -1.382000    1.884400
  H     -2.925200   -0.884300    2.102600
  H     -3.484100    2.878900   -0.534200
  H     -0.439500    3.124800    2.507000
  H      2.153300   -1.908000    0.103700
  H      4.504200   -1.502500    0.625000

 Total Charge           Charge          ....    0
 Multiplicity           Mult            ....    1
 Number of Electrons    NEL             ....  240
 Basis Dimension        Dim             ....  472

ORBITAL ENERGIES
----------------

  NO   OCC          E(Eh)            E(eV)
   0   2.0000    -101.558142     -2763.5375
   1   2.0000     -89.104187     -2424.6482
   2   2.0000     -24.736900      -673.1253
   3   2.0000     -24.734692      -673.0652
   4   2.0000     -24.732608      -673.0085
   5   2.0000     -19.134321      -520.6714
   6   2.0000     -19.128837      -520.5221
   7   2.0000     -19.120263      -520.2888
   8   2.0000     -14.382802      -391.3760
   9   2.0000     -14.366427      -390.9304
  10   2.0000     -14.362150      -390.8140
  11   2.0000     -10.454386      -284.4783
  12   2.0000     -10.306439      -280.4525
  13   2.0000     -10.297829      -280.2182
  14   2.0000     -10.284076      -279.8439
  15   2.0000     -10.255461      -279.0653
  16   2.0000     -10.243464      -278.7388
  17   2.0000     -10.243423      -278.7377
  18   2.0000     -10.242885      -278.7231
  19   2.0000     -10.237938      -278.5884
  20   2.0000     -10.228492      -278.3314
  21   2.0000     -10.225678      -278.2548
  22   2.0000     -10.221858      -278.1509
  23   2.0000     -10.219997      -278.1003
  24   2.0000     -10.214761      -277.9578
  25   2.0000     -10.190270      -277.2913
  26   2.0000     -10.183821      -277.1159
  27   2.0000     -10.181373      -277.0492
  28   2.0000     -10.180324      -277.0207
  29   2.0000     -10.179225      -276.9908
  30   2.0000     -10.177847      -276.9533
  31   2.0000      -9.489431      -258.2205
  32   2.0000      -8.139716      -221.4929
  33   2.0000      -7.252675      -197.3553
  34   2.0000      -7.243033      -197.0929
  35   2.0000      -7.242605      -197.0813
  36   2.0000      -6.104979      -166.1249
  37   2.0000      -6.102700      -166.0629
  38   2.0000      -6.102232      -166.0502
  39   2.0000      -1.295547       -35.2536
  40   2.0000      -1.221111       -33.2281
  41   2.0000      -1.219393       -33.1814
  42   2.0000      -1.089096       -29.6358
  43   2.0000      -1.020332       -27.7646
  44   2.0000      -0.988106       -26.8877
  45   2.0000      -0.967161       -26.3178
  46   2.0000      -0.932365       -25.3709
  47   2.0000      -0.897497       -24.4221
  48   2.0000      -0.894673       -24.3453
  49   2.0000      -0.885699       -24.1011
  50   2.0000      -0.850378       -23.1400
  51   2.0000      -0.839075       -22.8324
  52   2.0000      -0.805272       -21.9126
  53   2.0000      -0.786634       -21.4054
  54   2.0000      -0.778389       -21.1810
  55   2.0000      -0.767396       -20.8819
  56   2.0000      -0.740546       -20.1513
  57   2.0000      -0.727453       -19.7950
  58   2.0000      -0.710908       -19.3448
  59   2.0000      -0.682461       -18.5707
  60   2.0000      -0.668761       -18.1979
  61   2.0000      -0.650512       -17.7013
  62   2.0000      -0.639632       -17.4053
  63   2.0000      -0.619610       -16.8605
  64   2.0000      -0.604008       -16.4359
  65   2.0000      -0.591636       -16.0992
  66   2.0000      -0.588723       -16.0200
  67   2.0000      -0.586212       -15.9516
  68   2.0000      -0.585738       -15.9387
  69   2.0000      -0.574739       -15.6394
  70   2.0000      -0.567235       -15.4353
  71   2.0000      -0.543391       -14.7864
  72   2.0000      -0.532458       -14.4889
  73   2.0000      -0.522508       -14.2182
  74   2.0000      -0.511269       -13.9123
  75   2.0000      -0.506621       -13.7859
  76   2.0000      -0.494958       -13.4685
  77   2.0000      -0.483418       -13.1545
  78   2.0000      -0.479370       -13.0443
  79   2.0000      -0.470910       -12.8141
  80   2.0000      -0.469410       -12.7733
  81   2.0000      -0.464273       -12.6335
  82   2.0000      -0.462683       -12.5902
  83   2.0000      -0.461589       -12.5605
  84   2.0000      -0.451973       -12.2988
  85   2.0000      -0.450754       -12.2656
  86   2.0000      -0.441886       -12.0243
  87   2.0000      -0.437395       -11.9021
  88   2.0000      -0.433517       -11.7966
  89   2.0000      -0.430091       -11.7034
  90   2.0000      -0.428291       -11.6544
  91   2.0000      -0.425743       -11.5850
  92   2.0000      -0.419072       -11.4035
  93   2.0000      -0.417509       -11.3610
  94   2.0000      -0.414184       -11.2705
  95   2.0000      -0.413103       -11.2411
  96   2.0000      -0.398858       -10.8535
  97   2.0000      -0.398274       -10.8376
  98   2.0000      -0.396799       -10.7974
  99   2.0000      -0.384037       -10.4502
 100   2.0000      -0.374541       -10.1918
 101   2.0000      -0.368832       -10.0364
 102   2.0000      -0.358818        -9.7639
 103   2.0000      -0.351992        -9.5782
 104   2.0000      -0.342820        -9.3286
 105   2.0000      -0.338403        -9.2084
 106   2.0000      -0.335776        -9.1369
 107   2.0000      -0.317649        -8.6437
 108   2.0000      -0.309618        -8.4251
 109   2.0000      -0.302747        -8.2382
 110   2.0000      -0.289159        -7.8684
 111   2.0000      -0.283324        -7.7096
 112   2.0000      -0.280696        -7.6381
 113   2.0000      -0.277644        -7.5551
 114   2.0000      -0.275040        -7.4842
 115   2.0000      -0.271186        -7.3794
 116   2.0000      -0.263793        -7.1782
 117   2.0000      -0.256114        -6.9692
 118   2.0000      -0.245711        -6.6861
 119   2.0000      -0.240876        -6.5546
 120   0.0000      -0.076997        -2.0952
 121   0.0000      -0.069997        -1.9047
 122   0.0000      -0.054772        -1.4904
 123   0.0000      -0.033122        -0.9013
 124   0.0000      -0.009581        -0.2607

MULLIKEN ATOMIC CHARGES
-----------------------
   0 N :   -0.777015
   1 C :    0.504314
   2 O :   -0.467591
   3 C :    0.088402
   4 C :   -0.137422
   5 C :   -0.147488
   6 C :   -0.113174
   7 S :    1.196463
   8 O :   -0.527257
   9 O :   -0.531738
  10 N :   -0.601935
  11 C :   -0.264379
  12 C :    0.177245
  13 C :   -0.162923
  14 C :   -0.127224
  15 C :   -0.121445
  16 C :   -0.127948
  17 C :   -0.167192
  18 C :    0.386629
  19 N :   -0.325782
  20 C :   -0.003351
  21 C :   -0.024159
  22 C :    0.905683
  23 F :   -0.300758
  24 F :   -0.298173
  25 F :   -0.291841
  26 C :   -0.134753
  27 C :   -0.091337
  28 Cl:    0.018974
  29 C :   -0.133419
  30 C :   -0.161772
  31 H :    0.333697
  32 H :    0.356063
  33 H :    0.180724
  34 H :    0.193503
  35 H :    0.187698
  36 H :    0.164382
  37 H :    0.159099
  38 H :    0.133320
  39 H :    0.128765
  40 H :    0.127439
  41 H :    0.118552
  42 H :    0.186847
  43 H :    0.188649
  44 H :    0.161681
  45 H :    0.141946
Sum of atomic charges:    0.0000000

LOEWDIN ATOMIC CHARGES
----------------------
   0 N :   -0.401794
   1 C :    0.141667
   2 O :   -0.280287
   3 C :   -0.029381
   4 C :   -0.087488
   5 C :   -0.098419
   6 C :   -0.177602
   7 S :    1.267742
   8 O :   -0.560800
   9 O :   -0.565719
  10 N :   -0.282519
  11 C :   -0.150234
  12 C :   -0.033517
  13 C :   -0.118267
  14 C :   -0.123345
  15 C :   -0.125865
  16 C :   -0.128623
  17 C :   -0.133595
  18 C :    0.056102
  19 N :   -0.078147
  20 C :   -0.042565
  21 C :   -0.073419
  22 C :    0.313432
  23 F :   -0.108772
  24 F :   -0.107169
  25 F :   -0.109036
  26 C :   -0.095012
  27 C :   -0.098156
  28 Cl:    0.058272
  29 C :   -0.102292
  30 C :   -0.119346
  31 H :    0.250389
  32 H :    0.268289
  33 H :    0.160755
  34 H :    0.164946
  35 H :    0.149243
  36 H :    0.129604
  37 H :    0.145217
  38 H :    0.133828
  39 H :    0.131682
  40 H :    0.131069
  41 H :    0.126208
  42 H :    0.154370
  43 H :    0.162682
  44 H :    0.147212
  45 H :    0.138660

  Mayer bond orders larger than 0.100000
B(  0-N ,  1-C ) :   1.0613 B(  0-N , 31-H ) :   0.8255 B(  0-N , 32-H ) :   0.8215
B(  1-C ,  2-O ) :   1.8381 B(  1-C ,  3-C ) :   0.9777 B(  3-C ,  4-C ) :   1.4094
B(  3-C , 30-C ) :   1.3836 B(  4-C ,  5-C ) :   1.4092 B(  4-C , 33-H ) :   0.9100
B(  5-C ,  6-C ) :   1.4011 B(  5-C , 34-H ) :   0.9065 B(  6-C ,  7-S ) :   0.8173
B(  6-C , 29-C ) :   1.3816 B(  7-S ,  8-O ) :   1.6495 B(  7-S ,  9-O ) :   1.6482
B(  7-S , 10-N ) :   0.7900 B( 10-N , 11-C ) :   0.9121 B( 10-N , 18-C ) :   0.9392
B( 11-C , 12-C ) :   0.9497 B( 11-C , 35-H ) :   0.9150 B( 11-C , 36-H ) :   0.9184
B( 12-C , 13-C ) :   1.4421 B( 12-C , 17-C ) :   1.4282 B( 13-C , 14-C ) :   1.4419
B( 13-C , 37-H ) :   0.9127 B( 14-C , 15-C ) :   1.4494 B( 14-C , 38-H ) :   0.9292
B( 15-C , 16-C ) :   1.4569 B( 15-C , 39-H ) :   0.9303 B( 16-C , 17-C ) :   1.4437
B( 16-C , 40-H ) :   0.9295 B( 17-C , 41-H ) :   0.9255 B( 18-C , 19-N ) :   1.3964
B( 18-C , 27-C ) :   1.3385 B( 19-N , 20-C ) :   1.4172 B( 20-C , 21-C ) :   1.3486
B( 20-C , 42-H ) :   0.9173 B( 21-C , 22-C ) :   0.9718 B( 21-C , 26-C ) :   1.4186
B( 22-C , 23-F ) :   0.9499 B( 22-C , 24-F ) :   0.9556 B( 22-C , 25-F ) :   0.9876
B( 26-C , 27-C ) :   1.3849 B( 26-C , 43-H ) :   0.9073 B( 27-C , 28-Cl) :   1.0413
B( 29-C , 30-C ) :   1.4476 B( 29-C , 44-H ) :   0.9145 B( 30-C , 45-H ) :   0.9189

FINAL SINGLE POINT ENERGY     -2317.968188399921

DIPOLE MOMENT
-------------

Method             : SCF
Type of density    : Electron Density
Multiplicity       :   1
Irrep              :   0
Energy             : -2317.9681883999205638 Eh
Relativity type    :
Basis              : AO
                                X                 Y                 Z
Electronic contribution:     -8.389283068      31.146099003       8.937106103
Nuclear contribution   :      9.157369191     -32.194775511      -6.937202670
                        -----------------------------------------
Total Dipole Moment    :      0.768086123      -1.048676508       1.999903433
                        -----------------------------------------
Magnitude (a.u.)       :      2.385223774
Magnitude (Debye)      :      6.062757019

Rotational constants in cm-1:             0.005105             0.002911             0.002146
Rotational constants in MHz :           153.044318            87.282931            64.329200

                             ****ORCA TERMINATED NORMALLY****
TOTAL RUN TIME: 0 days 0 hours 5 minutes 34 seconds 592 msec
