                         Program Version 6.0.0  -   RELEASE  -
|  1> ! B3LYP 6-31G* SP
|  2>
|  3> * xyz 0 1
|  4> O 2.5555 -2.4565 -0.5023
|  5> C 2.3037 -1.2279 -0.6366
|  6> N 3.3783 -0.2723 -0.6608
|  7> C 4.7026 -0.5278 -0.1715
|  8> N 5.7136 0.3542 -0.3249
|  9> C 6.8608 -0.0800 0.2656
| 10> C 8.1332 0.7075 0.2063
| 11> F 8.6739 0.8214 1.4739
| 12> F 9.0355 0.0625 -0.6175
| 13> F 7.8913 1.9743 -0.2931
| 14> C 6.7693 -1.3212 0.8926
| 15> S 5.1922 -1.8763 0.7120
| 16> N 0.9380 -0.7993 -0.8070
| 17> C -0.0747 -1.7692 -1.2483
| 18> C -1.2836 -1.0515 -1.8557
| 19> C -1.9387 -0.0581 -0.8602
| 20> C -2.7747 0.9704 -1.6691
| 21> C -3.6984 1.8213 -0.7815
| 22> C -4.4210 0.9971 0.2499
| 23> C -5.5487 1.5233 0.8982
| 24> C -6.2107 0.7766 1.8760
| 25> C -5.7492 -0.4970 2.2172
| 26> C -4.6177 -1.0259 1.5873
| 27> Cl -4.0445 -2.6248 2.0372
| 28> C -3.9434 -0.2773 0.6114
| 29> O -2.8111 -0.8149 -0.0128
| 30> C -0.8691 0.6499 0.0334
| 31> C 0.5473 0.5947 -0.5498
| 32> H 3.1991 0.6700 -1.0749
| 33> H 7.5674 -1.8342 1.4119
| 34> H -0.3933 -2.3921 -0.3850
| 35> H 0.3562 -2.4374 -2.0256
| 36> H -2.0308 -1.8053 -2.1876
| 37> H -0.9364 -0.5126 -2.7657
| 38> H -3.4137 0.4250 -2.4000
| 39> H -2.1029 1.6418 -2.2479
| 40> H -3.1184 2.6148 -0.2669
| 41> H -4.4396 2.3319 -1.4346
| 42> H -5.9144 2.5102 0.6450
| 43> H -7.0833 1.1858 2.3700
| 44> H -6.2686 -1.0701 2.9744
| 45> H -0.8369 0.1508 1.0274
| 46> H -1.1245 1.7102 0.2312
| 47> H 0.5947 1.1759 -1.4961
| 48> H 1.2358 1.0622 0.1877
| 49> *
| 50>
| 51>                          ****END OF INPUT****

CARTESIAN COORDINATES (ANGSTROEM)
---------------------------------
  O      2.555500   -2.456500   -0.502300
  C      2.303700   -1.227900   -0.636600
  N      3.378300   -0.272300   -0.660800
  C      4.702600   -0.527800   -0.171500
  N      5.713600    0.354200   -0.324900
  C      6.860800   -0.080000    0.265600
  C      8.133200    0.707500    0.206300
  F      8.673900    0.821400    1.473900
  F      9.035500    0.062500   -0.617500
  F      7.891300    1.974300   -0.293100
  C      6.769300   -1.321200    0.892600
  S      5.192200   -1.876300    0.712000
  N      0.938000   -0.799300   -0.807000
  C     -0.074700   -1.769200   -1.248300
  C     -1.283600   -1.051500   -1.855700
  C     -1.938700   -0.058100   -0.860200
  C     -2.774700    0.970400   -1.669100
  C     -3.698400    1.821300   -0.781500
  C     -4.421000    0.997100    0.249900
  C     -5.548700    1.523300    0.898200
  C     -6.210700    0.776600    1.876000
  C     -5.749200   -0.497000    2.217200
  C     -4.617700   -1.025900    1.587300
  Cl    -4.044500   -2.624800    2.037200
  C     -3.943400   -0.277300    0.611400
  O     -2.811100   -0.814900   -0.012800
  C     -0.869100    0.649900    0.033400
  C      0.547300    0.594700   -0.549800
  H      3.199100    0.670000   -1.074900
  H      7.567400   -1.834200    1.411900
  H     -0.393300   -2.392100   -0.385000
  H      0.356200   -2.437400   -2.025600
  H     -2.030800   -1.805300   -2.187600
  H     -0.936400   -0.512600   -2.765700
  H     -3.413700    0.425000   -2.400000
  H     -2.102900    1.641800   -2.247900
  H     -3.118400    2.614800   -0.266900
  H     -4.439600    2.331900   -1.434600
  H     -5.914400    2.510200    0.645000
  H     -7.083300    1.185800    2.370000
  H     -6.268600   -1.070100    2.974400
  H     -0.836900    0.150800    1.027400
  H     -1.124500    1.710200    0.231200
  H      0.594700    1.175900   -1.496100
  H      1.235800    1.062200    0.187700

 Total Charge           Charge          ....    0
 Multiplicity           Mult            ....    1
 Number of Electrons    NEL             ....  222
 Basis Dimension        Dim             ....  434

ORBITAL ENERGIES
----------------

  NO   OCC          E(Eh)            E(eV)
   0   2.0000    -101.524780     -2762.6297
   1   2.0000     -88.908726     -2419.3294
   2   2.0000     -24.712573      -672.4633
   3   2.0000     -24.710100      -672.3960
   4   2.0000     -24.707823      -672.3340
   5   2.0000     -19.175678      -521.7967
   6   2.0000     -19.120203      -520.2872
   7   2.0000     -14.396590      -391.7511
   8   2.0000     -14.368971      -390.9996
   9   2.0000     -14.338575      -390.1725
  10   2.0000     -10.429931      -283.8128
  11   2.0000     -10.332794      -281.1696
  12   2.0000     -10.296006      -280.1686
  13   2.0000     -10.267620      -279.3961
  14   2.0000     -10.260982      -279.2155
  15   2.0000     -10.245840      -278.8035
  16   2.0000     -10.240754      -278.6651
  17   2.0000     -10.232816      -278.4491
  18   2.0000     -10.224500      -278.2228
  19   2.0000     -10.216061      -277.9932
  20   2.0000     -10.202461      -277.6231
  21   2.0000     -10.202059      -277.6121
  22   2.0000     -10.201970      -277.6097
  23   2.0000     -10.201495      -277.5968
  24   2.0000     -10.200445      -277.5682
  25   2.0000     -10.196730      -277.4671
  26   2.0000     -10.192333      -277.3475
  27   2.0000     -10.189620      -277.2737
  28   2.0000      -9.456154      -257.3150
  29   2.0000      -7.984908      -217.2804
  30   2.0000      -7.219357      -196.4487
  31   2.0000      -7.209790      -196.1884
  32   2.0000      -7.209353      -196.1765
  33   2.0000      -5.948038      -161.8544
  34   2.0000      -5.943799      -161.7390
  35   2.0000      -5.941842      -161.6857
  36   2.0000      -1.271690       -34.6044
  37   2.0000      -1.198167       -32.6038
  38   2.0000      -1.194679       -32.5089
  39   2.0000      -1.062734       -28.9185
  40   2.0000      -1.036925       -28.2162
  41   2.0000      -0.982554       -26.7367
  42   2.0000      -0.937488       -25.5104
  43   2.0000      -0.916517       -24.9397
  44   2.0000      -0.885462       -24.0946
  45   2.0000      -0.842229       -22.9182
  46   2.0000      -0.824839       -22.4450
  47   2.0000      -0.815184       -22.1823
  48   2.0000      -0.790846       -21.5200
  49   2.0000      -0.779403       -21.2086
  50   2.0000      -0.774214       -21.0674
  51   2.0000      -0.740259       -20.1435
  52   2.0000      -0.731759       -19.9122
  53   2.0000      -0.691081       -18.8053
  54   2.0000      -0.672739       -18.3062
  55   2.0000      -0.661951       -18.0126
  56   2.0000      -0.649683       -17.6788
  57   2.0000      -0.631997       -17.1975
  58   2.0000      -0.606620       -16.5070
  59   2.0000      -0.603568       -16.4239
  60   2.0000      -0.591991       -16.1089
  61   2.0000      -0.572975       -15.5915
  62   2.0000      -0.563998       -15.3472
  63   2.0000      -0.560670       -15.2566
  64   2.0000      -0.556743       -15.1497
  65   2.0000      -0.548386       -14.9223
  66   2.0000      -0.524403       -14.2697
  67   2.0000      -0.522254       -14.2113
  68   2.0000      -0.505509       -13.7556
  69   2.0000      -0.502931       -13.6854
  70   2.0000      -0.496447       -13.5090
  71   2.0000      -0.482934       -13.1413
  72   2.0000      -0.467965       -12.7340
  73   2.0000      -0.459152       -12.4942
  74   2.0000      -0.452904       -12.3241
  75   2.0000      -0.449480       -12.2310
  76   2.0000      -0.445980       -12.1357
  77   2.0000      -0.443446       -12.0668
  78   2.0000      -0.440025       -11.9737
  79   2.0000      -0.438139       -11.9224
  80   2.0000      -0.436080       -11.8663
  81   2.0000      -0.422848       -11.5063
  82   2.0000      -0.415962       -11.3189
  83   2.0000      -0.414594       -11.2817
  84   2.0000      -0.411348       -11.1934
  85   2.0000      -0.407530       -11.0895
  86   2.0000      -0.406387       -11.0583
  87   2.0000      -0.402751       -10.9594
  88   2.0000      -0.397161       -10.8073
  89   2.0000      -0.395929       -10.7738
  90   2.0000      -0.389637       -10.6026
  91   2.0000      -0.387359       -10.5406
  92   2.0000      -0.384315       -10.4578
  93   2.0000      -0.380633       -10.3576
  94   2.0000      -0.369228       -10.0472
  95   2.0000      -0.366284        -9.9671
  96   2.0000      -0.356410        -9.6984
  97   2.0000      -0.356319        -9.6959
  98   2.0000      -0.342528        -9.3207
  99   2.0000      -0.323923        -8.8144
 100   2.0000      -0.318745        -8.6735
 101   2.0000      -0.314745        -8.5646
 102   2.0000      -0.309499        -8.4219
 103   2.0000      -0.302453        -8.2302
 104   2.0000      -0.290164        -7.8958
 105   2.0000      -0.281044        -7.6476
 106   2.0000      -0.268171        -7.2973
 107   2.0000      -0.244187        -6.6447
 108   2.0000      -0.241492        -6.5713
 109   2.0000      -0.226671        -6.1680
 110   2.0000      -0.225809        -6.1446
 111   0.0000      -0.030570        -0.8319
 112   0.0000      -0.016572        -0.4510
 113   0.0000       0.000085         0.0023
 114   0.0000       0.013061         0.3554
 115   0.0000       0.029575         0.8048

MULLIKEN ATOMIC CHARGES
-----------------------
   0 O :   -0.481301
   1 C :    0.693689
   2 N :   -0.664319
   3 C :    0.256879
   4 N :   -0.414090
   5 C :    0.111939
   6 C :    0.918189
   7 F :   -0.303520
   8 F :   -0.298966
   9 F :   -0.300563
  10 C :   -0.376035
  11 S :    0.335729
  12 N :   -0.440922
  13 C :   -0.115938
  14 C :   -0.322001
  15 C :    0.361516
  16 C :   -0.308435
  17 C :   -0.354241
  18 C :    0.118116
  19 C :   -0.183366
  20 C :   -0.124078
  21 C :   -0.133153
  22 C :   -0.141579
  23 Cl:   -0.006591
  24 C :    0.326029
  25 O :   -0.542432
  26 C :   -0.320302
  27 C :   -0.156283
  28 H :    0.356394
  29 H :    0.196959
  30 H :    0.177749
  31 H :    0.167663
  32 H :    0.171505
  33 H :    0.147689
  34 H :    0.152144
  35 H :    0.137888
  36 H :    0.157594
  37 H :    0.157851
  38 H :    0.129185
  39 H :    0.133885
  40 H :    0.152624
  41 H :    0.178038
  42 H :    0.149394
  43 H :    0.136560
  44 H :    0.162909
Sum of atomic charges:    0.0000000

LOEWDIN ATOMIC CHARGES
----------------------
   0 O :   -0.293954
   1 C :    0.165026
   2 N :   -0.214432
   3 C :   -0.074149
   4 N :   -0.177344
   5 C :   -0.064577
   6 C :    0.307924
   7 F :   -0.114010
   8 F :   -0.112358
   9 F :   -0.105197
  10 C :   -0.329114
  11 S :    0.439782
  12 N :   -0.122887
  13 C :   -0.142481
  14 C :   -0.230532
  15 C :    0.082091
  16 C :   -0.231348
  17 C :   -0.225368
  18 C :   -0.051012
  19 C :   -0.127553
  20 C :   -0.139316
  21 C :   -0.130590
  22 C :   -0.109326
  23 Cl:    0.040881
  24 C :    0.074199
  25 O :   -0.166500
  26 C :   -0.239341
  27 C :   -0.160578
  28 H :    0.274682
  29 H :    0.170091
  30 H :    0.134948
  31 H :    0.139605
  32 H :    0.146872
  33 H :    0.129229
  34 H :    0.129613
  35 H :    0.126332
  36 H :    0.130162
  37 H :    0.137397
  38 H :    0.133143
  39 H :    0.135457
  40 H :    0.146266
  41 H :    0.144066
  42 H :    0.130831
  43 H :    0.107771
  44 H :    0.135600

  Mayer bond orders larger than 0.100000
B(  0-O ,  1-C ) :   1.7626 B(  1-C ,  2-N ) :   0.9792 B(  1-C , 12-N ) :   1.0854
B(  2-N ,  3-C ) :   0.9557 B(  2-N , 28-H ) :   0.8035 B(  3-C ,  4-N ) :   1.4909
B(  3-C , 10-C ) :   0.1111 B(  3-C , 11-S ) :   1.1816 B(  4-N ,  5-C ) :   1.2880
B(  5-C ,  6-C ) :   0.9717 B(  5-C , 10-C ) :   1.5436 B(  6-C ,  7-F ) :   0.9660
B(  6-C ,  8-F ) :   0.9787 B(  6-C ,  9-F ) :   0.9588 B( 10-C , 11-S ) :   1.1282
B( 10-C , 29-H ) :   0.9054 B( 12-N , 13-C ) :   0.9226 B( 12-N , 27-C ) :   0.9486
B( 13-C , 14-C ) :   0.9937 B( 13-C , 30-H ) :   0.9216 B( 13-C , 31-H ) :   0.9265
B( 14-C , 15-C ) :   0.9859 B( 14-C , 32-H ) :   0.9235 B( 14-C , 33-H ) :   0.9265
B( 15-C , 16-C ) :   0.9789 B( 15-C , 25-O ) :   0.8417 B( 15-C , 26-C ) :   0.9621
B( 16-C , 17-C ) :   0.9933 B( 16-C , 34-H ) :   0.9318 B( 16-C , 35-H ) :   0.9296
B( 17-C , 18-C ) :   0.9801 B( 17-C , 36-H ) :   0.9193 B( 17-C , 37-H ) :   0.9311
B( 18-C , 19-C ) :   1.4168 B( 18-C , 24-C ) :   1.3699 B( 19-C , 20-C ) :   1.4391
B( 19-C , 38-H ) :   0.9268 B( 20-C , 21-C ) :   1.4436 B( 20-C , 39-H ) :   0.9283
B( 21-C , 22-C ) :   1.4274 B( 21-C , 40-H ) :   0.9227 B( 22-C , 23-Cl) :   1.0281
B( 22-C , 24-C ) :   1.3221 B( 24-C , 25-O ) :   0.9374 B( 26-C , 27-C ) :   0.9968
B( 26-C , 41-H ) :   0.9240 B( 26-C , 42-H ) :   0.9248 B( 27-C , 43-H ) :   0.9217
B( 27-C , 44-H ) :   0.9256

FINAL SINGLE POINT ENERGY     -2167.896247880660

DIPOLE MOMENT
-------------

Method             : SCF
Type of density    : Electron Density
Multiplicity       :   1
Irrep              :   0
Energy             : -2167.8962478806597574 Eh
Relativity type    :
Basis              : AO
                                X                 Y                 Z
Electronic contribution:     52.659454599      -8.779879276      11.883313366
Nuclear contribution   :    -54.710509848      10.174491798     -12.402316338
                        -----------------------------------------
Total Dipole Moment    :     -2.051055248       1.394612522      -0.519002972
                        -----------------------------------------
Magnitude (a.u.)       :      2.533996015
Magnitude (Debye)      :      6.440906002

Rotational constants in cm-1:             0.013019             0.001511             0.001461
Rotational constants in MHz :           390.296905            45.288529            43.803770

                             ****ORCA TERMINATED NORMALLY****
TOTAL RUN TIME: 0 days 0 hours 4 minutes 13 seconds 513 msec
