                         Program Version 6.0.0  -   RELEASE  -
|  1> ! B3LYP 6-31G* SP
|  2>
|  3> * xyz 0 1
|  4> C -2.1450 2.9218 -2.6225
|  5> C -1.5000 3.0706 -1.2621
|  6> C -0.6237 2.0744 -0.7689
|  7> N -0.3872 0.8612 -1.4960
|  8> C -1.4297 -0.1673 -1.5657
|  9> C -1.1991 -1.2183 -0.5251
| 10> C -0.8575 -2.5461 -0.7822
| 11> C -0.5860 -3.2615 0.3887
| 12> C -0.1692 -4.5941 0.4672
| 13> F -0.0112 -5.3420 -0.6534
| 14> C 0.1039 -5.1450 1.7307
| 15> C -0.0404 -4.3659 2.8956
| 16> F 0.2355 -4.9066 4.1076
| 17> C -0.4604 -3.0294 2.8064
| 18> C -0.7266 -2.5059 1.5439
| 19> S -1.1847 -0.9412 1.1447
| 20> S 1.2146 0.5217 -2.0820
| 21> O 1.1284 0.0937 -3.5204
| 22> O 2.0600 1.7627 -2.0086
| 23> C 1.9654 -0.7403 -1.1077
| 24> C 2.2302 -0.5081 0.2471
| 25> C 2.7363 -1.5313 1.0531
| 26> C 2.9939 -2.8030 0.5115
| 27> C 3.4866 -3.9026 1.3692
| 28> O 3.7020 -3.7082 2.5962
| 29> O 3.7072 -5.1675 0.8305
| 30> C 2.7564 -3.0214 -0.8564
| 31> C 2.2464 -1.9971 -1.6597
| 32> N 0.0093 2.2534 0.4198
| 33> C -0.1810 3.3511 1.1897
| 34> C -1.0684 4.3491 0.7811
| 35> C -1.2867 5.4758 1.5890
| 36> C -2.1804 6.4672 1.1833
| 37> C -2.8628 6.3413 -0.0264
| 38> C -2.6532 5.2261 -0.8420
| 39> C -1.7473 4.2130 -0.4560
| 40> H -3.2327 2.7361 -2.5015
| 41> H -1.9888 3.8439 -3.2204
| 42> H -1.7090 2.0923 -3.2144
| 43> H -2.4322 0.2818 -1.3981
| 44> H -1.4342 -0.6227 -2.5791
| 45> H -0.7697 -2.9618 -1.7779
| 46> H 0.4355 -6.1723 1.8086
| 47> H -0.5633 -2.4189 3.6941
| 48> H 2.0224 0.4578 0.6868
| 49> H 2.9093 -1.3310 2.1030
| 50> H 4.0359 -5.9299 1.4109
| 51> H 2.9439 -3.9897 -1.3030
| 52> H 2.0439 -2.1975 -2.7035
| 53> H 0.3525 3.4343 2.1286
| 54> H -0.7686 5.5875 2.5341
| 55> H -2.3473 7.3338 1.8101
| 56> H -3.5596 7.1107 -0.3335
| 57> H -3.2134 5.1656 -1.7649
| 58> *
| 59>
| 60>                          ****END OF INPUT****

CARTESIAN COORDINATES (ANGSTROEM)
---------------------------------
  C     -2.145000    2.921800   -2.622500
  C     -1.500000    3.070600   -1.262100
  C     -0.623700    2.074400   -0.768900
  N     -0.387200    0.861200   -1.496000
  C     -1.429700   -0.167300   -1.565700
  C     -1.199100   -1.218300   -0.525100
  C     -0.857500   -2.546100   -0.782200
  C     -0.586000   -3.261500    0.388700
  C     -0.169200   -4.594100    0.467200
  F     -0.011200   -5.342000   -0.653400
  C      0.103900   -5.145000    1.730700
  C     -0.040400   -4.365900    2.895600
  F      0.235500   -4.906600    4.107600
  C     -0.460400   -3.029400    2.806400
  C     -0.726600   -2.505900    1.543900
  S     -1.184700   -0.941200    1.144700
  S      1.214600    0.521700   -2.082000
  O      1.128400    0.093700   -3.520400
  O      2.060000    1.762700   -2.008600
  C      1.965400   -0.740300   -1.107700
  C      2.230200   -0.508100    0.247100
  C      2.736300   -1.531300    1.053100
  C      2.993900   -2.803000    0.511500
  C      3.486600   -3.902600    1.369200
  O      3.702000   -3.708200    2.596200
  O      3.707200   -5.167500    0.830500
  C      2.756400   -3.021400   -0.856400
  C      2.246400   -1.997100   -1.659700
  N      0.009300    2.253400    0.419800
  C     -0.181000    3.351100    1.189700
  C     -1.068400    4.349100    0.781100
  C     -1.286700    5.475800    1.589000
  C     -2.180400    6.467200    1.183300
  C     -2.862800    6.341300   -0.026400
  C     -2.653200    5.226100   -0.842000
  C     -1.747300    4.213000   -0.456000
  H     -3.232700    2.736100   -2.501500
  H     -1.988800    3.843900   -3.220400
  H     -1.709000    2.092300   -3.214400
  H     -2.432200    0.281800   -1.398100
  H     -1.434200   -0.622700   -2.579100
  H     -0.769700   -2.961800   -1.777900
  H      0.435500   -6.172300    1.808600
  H     -0.563300   -2.418900    3.694100
  H      2.022400    0.457800    0.686800
  H      2.909300   -1.331000    2.103000
  H      4.035900   -5.929900    1.410900
  H      2.943900   -3.989700   -1.303000
  H      2.043900   -2.197500   -2.703500
  H      0.352500    3.434300    2.128600
  H     -0.768600    5.587500    2.534100
  H     -2.347300    7.333800    1.810100
  H     -3.559600    7.110700   -0.333500
  H     -3.213400    5.165600   -1.764900

 Total Charge           Charge          ....    0
 Multiplicity           Mult            ....    1
 Number of Electrons    NEL             ....  270
 Basis Dimension        Dim             ....  548

ORBITAL ENERGIES
----------------

  NO   OCC          E(Eh)            E(eV)
   0   2.0000     -89.097062     -2424.4543
   1   2.0000     -88.893876     -2418.9253
   2   2.0000     -24.715107      -672.5323
   3   2.0000     -24.705480      -672.2703
   4   2.0000     -19.190982      -522.2132
   5   2.0000     -19.131633      -520.5982
   6   2.0000     -19.126368      -520.4549
   7   2.0000     -19.122888      -520.3602
   8   2.0000     -14.377429      -391.2297
   9   2.0000     -14.336855      -390.1256
  10   2.0000     -10.328931      -281.0645
  11   2.0000     -10.284203      -279.8474
  12   2.0000     -10.283354      -279.8243
  13   2.0000     -10.265377      -279.3351
  14   2.0000     -10.252115      -278.9742
  15   2.0000     -10.234722      -278.5009
  16   2.0000     -10.228942      -278.3437
  17   2.0000     -10.224808      -278.2312
  18   2.0000     -10.223510      -278.1959
  19   2.0000     -10.223236      -278.1884
  20   2.0000     -10.213358      -277.9196
  21   2.0000     -10.211890      -277.8797
  22   2.0000     -10.210374      -277.8384
  23   2.0000     -10.209024      -277.8017
  24   2.0000     -10.208476      -277.7867
  25   2.0000     -10.208309      -277.7822
  26   2.0000     -10.203224      -277.6438
  27   2.0000     -10.200943      -277.5818
  28   2.0000     -10.200763      -277.5769
  29   2.0000     -10.200687      -277.5748
  30   2.0000     -10.199881      -277.5529
  31   2.0000     -10.199224      -277.5350
  32   2.0000     -10.198929      -277.5270
  33   2.0000     -10.198284      -277.5094
  34   2.0000     -10.194534      -277.4074
  35   2.0000     -10.187788      -277.2238
  36   2.0000      -8.132684      -221.3016
  37   2.0000      -7.971217      -216.9078
  38   2.0000      -6.097954      -165.9338
  39   2.0000      -6.095580      -165.8692
  40   2.0000      -6.095245      -165.8601
  41   2.0000      -5.934579      -161.4881
  42   2.0000      -5.930504      -161.3772
  43   2.0000      -5.927474      -161.2948
  44   2.0000      -1.226398       -33.3720
  45   2.0000      -1.218057       -33.1450
  46   2.0000      -1.082491       -29.4561
  47   2.0000      -1.075169       -29.2568
  48   2.0000      -0.989066       -26.9139
  49   2.0000      -0.968955       -26.3666
  50   2.0000      -0.960276       -26.1304
  51   2.0000      -0.926178       -25.2026
  52   2.0000      -0.913811       -24.8661
  53   2.0000      -0.882142       -24.0043
  54   2.0000      -0.868115       -23.6226
  55   2.0000      -0.846491       -23.0342
  56   2.0000      -0.812208       -22.1013
  57   2.0000      -0.799734       -21.7619
  58   2.0000      -0.786278       -21.3957
  59   2.0000      -0.781204       -21.2577
  60   2.0000      -0.767707       -20.8904
  61   2.0000      -0.766603       -20.8603
  62   2.0000      -0.745474       -20.2854
  63   2.0000      -0.731133       -19.8952
  64   2.0000      -0.712750       -19.3949
  65   2.0000      -0.708002       -19.2657
  66   2.0000      -0.685845       -18.6628
  67   2.0000      -0.652853       -17.7650
  68   2.0000      -0.648686       -17.6516
  69   2.0000      -0.632424       -17.2091
  70   2.0000      -0.630801       -17.1650
  71   2.0000      -0.615436       -16.7469
  72   2.0000      -0.610186       -16.6040
  73   2.0000      -0.599970       -16.3260
  74   2.0000      -0.591382       -16.0923
  75   2.0000      -0.577617       -15.7178
  76   2.0000      -0.558859       -15.2073
  77   2.0000      -0.545251       -14.8370
  78   2.0000      -0.539329       -14.6759
  79   2.0000      -0.535686       -14.5767
  80   2.0000      -0.531011       -14.4495
  81   2.0000      -0.516923       -14.0662
  82   2.0000      -0.506308       -13.7773
  83   2.0000      -0.502281       -13.6678
  84   2.0000      -0.499603       -13.5949
  85   2.0000      -0.486155       -13.2290
  86   2.0000      -0.480967       -13.0878
  87   2.0000      -0.474760       -12.9189
  88   2.0000      -0.474160       -12.9025
  89   2.0000      -0.463138       -12.6026
  90   2.0000      -0.462033       -12.5725
  91   2.0000      -0.456012       -12.4087
  92   2.0000      -0.453694       -12.3456
  93   2.0000      -0.452801       -12.3213
  94   2.0000      -0.448419       -12.2021
  95   2.0000      -0.443944       -12.0803
  96   2.0000      -0.439646       -11.9634
  97   2.0000      -0.438272       -11.9260
  98   2.0000      -0.435533       -11.8514
  99   2.0000      -0.433936       -11.8080
 100   2.0000      -0.427518       -11.6333
 101   2.0000      -0.422384       -11.4937
 102   2.0000      -0.417702       -11.3663
 103   2.0000      -0.410466       -11.1694
 104   2.0000      -0.409150       -11.1335
 105   2.0000      -0.406990       -11.0748
 106   2.0000      -0.401496       -10.9253
 107   2.0000      -0.397191       -10.8081
 108   2.0000      -0.386549       -10.5185
 109   2.0000      -0.379642       -10.3306
 110   2.0000      -0.377900       -10.2832
 111   2.0000      -0.373814       -10.1720
 112   2.0000      -0.371154       -10.0996
 113   2.0000      -0.369080       -10.0432
 114   2.0000      -0.360526        -9.8104
 115   2.0000      -0.359010        -9.7692
 116   2.0000      -0.354931        -9.6582
 117   2.0000      -0.343648        -9.3511
 118   2.0000      -0.330454        -8.9921
 119   2.0000      -0.324096        -8.8191
 120   2.0000      -0.313159        -8.5215
 121   2.0000      -0.303752        -8.2655
 122   2.0000      -0.298706        -8.1282
 123   2.0000      -0.295496        -8.0408
 124   2.0000      -0.293064        -7.9747
 125   2.0000      -0.282974        -7.7001
 126   2.0000      -0.274843        -7.4789
 127   2.0000      -0.271035        -7.3752
 128   2.0000      -0.268204        -7.2982
 129   2.0000      -0.266356        -7.2479
 130   2.0000      -0.259079        -7.0499
 131   2.0000      -0.254920        -6.9367
 132   2.0000      -0.243793        -6.6339
 133   2.0000      -0.223823        -6.0905
 134   2.0000      -0.214156        -5.8275
 135   0.0000      -0.077214        -2.1011
 136   0.0000      -0.065054        -1.7702
 137   0.0000      -0.036183        -0.9846
 138   0.0000      -0.030360        -0.8261
 139   0.0000      -0.023565        -0.6412

MULLIKEN ATOMIC CHARGES
-----------------------
   0 C :   -0.548699
   1 C :    0.094800
   2 C :    0.337382
   3 N :   -0.610516
   4 C :   -0.230382
   5 C :   -0.127628
   6 C :   -0.156764
   7 C :    0.071853
   8 C :    0.371495
   9 F :   -0.309017
  10 C :   -0.314648
  11 C :    0.449815
  12 F :   -0.312354
  13 C :   -0.265038
  14 C :   -0.102743
  15 S :    0.254807
  16 S :    1.204928
  17 O :   -0.542466
  18 O :   -0.530806
  19 C :   -0.125620
  20 C :   -0.138903
  21 C :   -0.140888
  22 C :    0.084688
  23 C :    0.533112
  24 O :   -0.448230
  25 O :   -0.626459
  26 C :   -0.148669
  27 C :   -0.147129
  28 N :   -0.391707
  29 C :   -0.042079
  30 C :    0.131428
  31 C :   -0.201325
  32 C :   -0.126952
  33 C :   -0.119326
  34 C :   -0.199445
  35 C :    0.126951
  36 H :    0.157187
  37 H :    0.172203
  38 H :    0.193309
  39 H :    0.186377
  40 H :    0.199197
  41 H :    0.152430
  42 H :    0.155628
  43 H :    0.155867
  44 H :    0.200382
  45 H :    0.176443
  46 H :    0.431701
  47 H :    0.171842
  48 H :    0.182207
  49 H :    0.154210
  50 H :    0.140682
  51 H :    0.137593
  52 H :    0.139333
  53 H :    0.139941
Sum of atomic charges:    0.0000000

LOEWDIN ATOMIC CHARGES
----------------------
   0 C :   -0.362302
   1 C :   -0.014545
   2 C :    0.033575
   3 N :   -0.281367
   4 C :   -0.149926
   5 C :   -0.198963
   6 C :   -0.156675
   7 C :   -0.075480
   8 C :    0.129777
   9 F :   -0.095826
  10 C :   -0.196308
  11 C :    0.127988
  12 F :   -0.095703
  13 C :   -0.173018
  14 C :   -0.157597
  15 S :    0.394755
  16 S :    1.270268
  17 O :   -0.574698
  18 O :   -0.561099
  19 C :   -0.172512
  20 C :   -0.098121
  21 C :   -0.087480
  22 C :   -0.039002
  23 C :    0.179960
  24 O :   -0.262558
  25 O :   -0.334950
  26 C :   -0.103332
  27 C :   -0.103835
  28 N :   -0.129068
  29 C :   -0.055775
  30 C :   -0.029080
  31 C :   -0.110214
  32 C :   -0.126204
  33 C :   -0.115271
  34 C :   -0.124226
  35 C :   -0.004322
  36 H :    0.134525
  37 H :    0.142584
  38 H :    0.149072
  39 H :    0.150441
  40 H :    0.153714
  41 H :    0.145277
  42 H :    0.152551
  43 H :    0.150787
  44 H :    0.165860
  45 H :    0.158633
  46 H :    0.348127
  47 H :    0.154181
  48 H :    0.158440
  49 H :    0.138183
  50 H :    0.137888
  51 H :    0.136250
  52 H :    0.137355
  53 H :    0.139272

  Mayer bond orders larger than 0.100000
B(  0-C ,  1-C ) :   0.9989 B(  0-C , 36-H ) :   0.9270 B(  0-C , 37-H ) :   0.9279
B(  0-C , 38-H ) :   0.9270 B(  1-C ,  2-C ) :   1.4417 B(  1-C , 29-C ) :   0.1007
B(  1-C , 35-C ) :   1.2657 B(  2-C ,  3-N ) :   0.8772 B(  2-C , 28-N ) :   1.2623
B(  3-N ,  4-C ) :   0.9231 B(  3-N , 16-S ) :   0.7834 B(  4-C ,  5-C ) :   0.9662
B(  4-C , 39-H ) :   0.9154 B(  4-C , 40-H ) :   0.9159 B(  5-C ,  6-C ) :   1.5747
B(  5-C , 15-S ) :   1.1048 B(  6-C ,  7-C ) :   1.2250 B(  6-C , 41-H ) :   0.9193
B(  7-C ,  8-C ) :   1.2554 B(  7-C , 14-C ) :   1.3386 B(  8-C ,  9-F ) :   0.9447
B(  8-C , 10-C ) :   1.4009 B( 10-C , 11-C ) :   1.3127 B( 10-C , 42-H ) :   0.9123
B( 11-C , 12-F ) :   0.9109 B( 11-C , 13-C ) :   1.4239 B( 13-C , 14-C ) :   1.3122
B( 13-C , 43-H ) :   0.9170 B( 14-C , 15-S ) :   1.0606 B( 16-S , 17-O ) :   1.6391
B( 16-S , 18-O ) :   1.6626 B( 16-S , 19-C ) :   0.8143 B( 19-C , 20-C ) :   1.3821
B( 19-C , 27-C ) :   1.3960 B( 20-C , 21-C ) :   1.4180 B( 20-C , 44-H ) :   0.8894
B( 21-C , 22-C ) :   1.3979 B( 21-C , 45-H ) :   0.9109 B( 22-C , 23-C ) :   1.0087
B( 22-C , 26-C ) :   1.3830 B( 23-C , 24-O ) :   1.8580 B( 23-C , 25-O ) :   1.0173
B( 25-O , 46-H ) :   0.7433 B( 26-C , 27-C ) :   1.4100 B( 26-C , 47-H ) :   0.9143
B( 27-C , 48-H ) :   0.9100 B( 28-N , 29-C ) :   1.4879 B( 29-C , 30-C ) :   1.2389
B( 29-C , 49-H ) :   0.9251 B( 30-C , 31-C ) :   1.2842 B( 30-C , 35-C ) :   1.2893
B( 31-C , 32-C ) :   1.5136 B( 31-C , 34-C ) :   0.1061 B( 31-C , 50-H ) :   0.9231
B( 32-C , 33-C ) :   1.3526 B( 32-C , 51-H ) :   0.9290 B( 33-C , 34-C ) :   1.5090
B( 33-C , 52-H ) :   0.9288 B( 34-C , 35-C ) :   1.2939 B( 34-C , 53-H ) :   0.9165

FINAL SINGLE POINT ENERGY     -2406.914508697059

DIPOLE MOMENT
-------------

Method             : SCF
Type of density    : Electron Density
Multiplicity       :   1
Irrep              :   0
Energy             : -2406.9145086970588636 Eh
Relativity type    :
Basis              : AO
                                X                 Y                 Z
Electronic contribution:      8.631450617     -27.608654363       9.530852672
Nuclear contribution   :    -10.428698280      27.912942406      -8.854115688
                        -----------------------------------------
Total Dipole Moment    :     -1.797247663       0.304288043       0.676736984
                        -----------------------------------------
Magnitude (a.u.)       :      1.944392790
Magnitude (Debye)      :      4.942253704

Rotational constants in cm-1:             0.006708             0.002103             0.001954
Rotational constants in MHz :           201.108902            63.053736            58.572899

                             ****ORCA TERMINATED NORMALLY****
TOTAL RUN TIME: 0 days 0 hours 11 minutes 53 seconds 884 msec
