                         Program Version 6.0.0  -   RELEASE  -
|  1> ! B3LYP def2-TZVP SP
|  2>
|  3> * xyz 0 1
|  4> O -2.2142 -1.7077 0.6968
|  5> C -1.8744 -0.5305 0.3955
|  6> N -2.8679 0.5074 0.3395
|  7> C -4.2792 0.2605 0.2142
|  8> C -4.7702 -0.8370 -0.5139
|  9> C -6.1471 -1.0428 -0.6408
| 10> C -7.0591 -0.1391 -0.0696
| 11> C -8.5434 -0.3887 -0.1640
| 12> F -9.2432 0.8052 -0.1330
| 13> F -8.8553 -1.0418 -1.3440
| 14> F -8.9416 -1.1720 0.9030
| 15> C -6.5659 0.9543 0.6623
| 16> C -5.1890 1.1599 0.7877
| 17> N -0.4857 -0.2281 0.1546
| 18> C -0.1058 1.0032 -0.5550
| 19> C 1.2389 0.8246 -1.2698
| 20> C 2.3859 0.4003 -0.3085
| 21> C 3.1338 1.6603 0.2039
| 22> C 4.3934 1.2842 0.9985
| 23> C 5.2346 0.2755 0.2608
| 24> C 6.5874 0.1109 0.5934
| 25> C 7.3633 -0.8429 -0.0705
| 26> C 6.7927 -1.6441 -1.0626
| 27> C 5.4407 -1.4993 -1.3917
| 28> Br 4.6772 -2.6150 -2.7451
| 29> C 4.6552 -0.5480 -0.7254
| 30> O 3.3013 -0.4075 -1.0588
| 31> C 1.8502 -0.4389 0.8923
| 32> C 0.5554 -1.1845 0.5583
| 33> H -2.5572 1.4921 0.4992
| 34> H -4.0933 -1.5261 -1.0010
| 35> H -6.4989 -1.9063 -1.1914
| 36> H -7.2449 1.6507 1.1382
| 37> H -4.8293 2.0146 1.3469
| 38> H -0.0453 1.8449 0.1677
| 39> H -0.8699 1.2507 -1.3242
| 40> H 1.4925 1.7583 -1.8175
| 41> H 1.1021 0.0376 -2.0449
| 42> H 3.4499 2.2839 -0.6618
| 43> H 2.4649 2.2823 0.8380
| 44> H 4.9855 2.2067 1.1845
| 45> H 4.1066 0.8613 1.9849
| 46> H 7.0401 0.7220 1.3645
| 47> H 8.4082 -0.9624 0.1856
| 48> H 7.4007 -2.3802 -1.5726
| 49> H 2.6169 -1.1724 1.2245
| 50> H 1.6358 0.2217 1.7618
| 51> H 0.2357 -1.7449 1.4641
| 52> H 0.7322 -1.9128 -0.2625
| 53> *
| 54>
| 55>                          ****END OF INPUT****

CARTESIAN COORDINATES (ANGSTROEM)
---------------------------------
  O     -2.214200   -1.707700    0.696800
  C     -1.874400   -0.530500    0.395500
  N     -2.867900    0.507400    0.339500
  C     -4.279200    0.260500    0.214200
  C     -4.770200   -0.837000   -0.513900
  C     -6.147100   -1.042800   -0.640800
  C     -7.059100   -0.139100   -0.069600
  C     -8.543400   -0.388700   -0.164000
  F     -9.243200    0.805200   -0.133000
  F     -8.855300   -1.041800   -1.344000
  F     -8.941600   -1.172000    0.903000
  C     -6.565900    0.954300    0.662300
  C     -5.189000    1.159900    0.787700
  N     -0.485700   -0.228100    0.154600
  C     -0.105800    1.003200   -0.555000
  C      1.238900    0.824600   -1.269800
  C      2.385900    0.400300   -0.308500
  C      3.133800    1.660300    0.203900
  C      4.393400    1.284200    0.998500
  C      5.234600    0.275500    0.260800
  C      6.587400    0.110900    0.593400
  C      7.363300   -0.842900   -0.070500
  C      6.792700   -1.644100   -1.062600
  C      5.440700   -1.499300   -1.391700
  Br     4.677200   -2.615000   -2.745100
  C      4.655200   -0.548000   -0.725400
  O      3.301300   -0.407500   -1.058800
  C      1.850200   -0.438900    0.892300
  C      0.555400   -1.184500    0.558300
  H     -2.557200    1.492100    0.499200
  H     -4.093300   -1.526100   -1.001000
  H     -6.498900   -1.906300   -1.191400
  H     -7.244900    1.650700    1.138200
  H     -4.829300    2.014600    1.346900
  H     -0.045300    1.844900    0.167700
  H     -0.869900    1.250700   -1.324200
  H      1.492500    1.758300   -1.817500
  H      1.102100    0.037600   -2.044900
  H      3.449900    2.283900   -0.661800
  H      2.464900    2.282300    0.838000
  H      4.985500    2.206700    1.184500
  H      4.106600    0.861300    1.984900
  H      7.040100    0.722000    1.364500
  H      8.408200   -0.962400    0.185600
  H      7.400700   -2.380200   -1.572600
  H      2.616900   -1.172400    1.224500
  H      1.635800    0.221700    1.761800
  H      0.235700   -1.744900    1.464100
  H      0.732200   -1.912800   -0.262500

 Total Charge           Charge          ....    0
 Multiplicity           Mult            ....    1
 Number of Electrons    NEL             ....  238
 Basis Dimension        Dim             .... 1036

ORBITAL ENERGIES
----------------

  NO   OCC          E(Eh)            E(eV)
   0   2.0000    -482.856444    -13139.1918
   1   2.0000     -62.503622     -1700.8100
   2   2.0000     -56.319233     -1532.5242
   3   2.0000     -56.316609     -1532.4528
   4   2.0000     -56.316540     -1532.4510
   5   2.0000     -24.709840      -672.3889
   6   2.0000     -24.709280      -672.3737
   7   2.0000     -24.706976      -672.3110
   8   2.0000     -19.162930      -521.4498
   9   2.0000     -19.091389      -519.5031
  10   2.0000     -14.369080      -391.0026
  11   2.0000     -14.355194      -390.6247
  12   2.0000     -10.426376      -283.7161
  13   2.0000     -10.315951      -280.7113
  14   2.0000     -10.261324      -279.2248
  15   2.0000     -10.255844      -279.0757
  16   2.0000     -10.241359      -278.6815
  17   2.0000     -10.236004      -278.5358
  18   2.0000     -10.233513      -278.4680
  19   2.0000     -10.218147      -278.0499
  20   2.0000     -10.201999      -277.6105
  21   2.0000     -10.198468      -277.5144
  22   2.0000     -10.198211      -277.5074
  23   2.0000     -10.196925      -277.4724
  24   2.0000     -10.196633      -277.4645
  25   2.0000     -10.194478      -277.4059
  26   2.0000     -10.193898      -277.3901
  27   2.0000     -10.193361      -277.3755
  28   2.0000     -10.192542      -277.3532
  29   2.0000     -10.191526      -277.3255
  30   2.0000     -10.187350      -277.2119
  31   2.0000     -10.186457      -277.1876
  32   2.0000     -10.183997      -277.1206
  33   2.0000      -8.694422      -236.5873
  34   2.0000      -6.524102      -177.5298
  35   2.0000      -6.513015      -177.2282
  36   2.0000      -6.512401      -177.2114
  37   2.0000      -2.638684       -71.8022
  38   2.0000      -2.635656       -71.7198
  39   2.0000      -2.635177       -71.7068
  40   2.0000      -2.626039       -71.4581
  41   2.0000      -2.626027       -71.4578
  42   2.0000      -1.287205       -35.0266
  43   2.0000      -1.213384       -33.0179
  44   2.0000      -1.212413       -32.9914
  45   2.0000      -1.068294       -29.0698
  46   2.0000      -1.031812       -28.0770
  47   2.0000      -0.938145       -25.5282
  48   2.0000      -0.930935       -25.3320
  49   2.0000      -0.877882       -23.8884
  50   2.0000      -0.865512       -23.5518
  51   2.0000      -0.836354       -22.7584
  52   2.0000      -0.810603       -22.0576
  53   2.0000      -0.789200       -21.4752
  54   2.0000      -0.783885       -21.3306
  55   2.0000      -0.777157       -21.1475
  56   2.0000      -0.762986       -20.7619
  57   2.0000      -0.743285       -20.2258
  58   2.0000      -0.730220       -19.8703
  59   2.0000      -0.702484       -19.1156
  60   2.0000      -0.675316       -18.3763
  61   2.0000      -0.662933       -18.0393
  62   2.0000      -0.654903       -17.8208
  63   2.0000      -0.636852       -17.3296
  64   2.0000      -0.630121       -17.1465
  65   2.0000      -0.607382       -16.5277
  66   2.0000      -0.605005       -16.4630
  67   2.0000      -0.581477       -15.8228
  68   2.0000      -0.580551       -15.7976
  69   2.0000      -0.574651       -15.6370
  70   2.0000      -0.565421       -15.3859
  71   2.0000      -0.556526       -15.1438
  72   2.0000      -0.552196       -15.0260
  73   2.0000      -0.531701       -14.4683
  74   2.0000      -0.520168       -14.1545
  75   2.0000      -0.510202       -13.8833
  76   2.0000      -0.498186       -13.5563
  77   2.0000      -0.494794       -13.4640
  78   2.0000      -0.474438       -12.9101
  79   2.0000      -0.468700       -12.7540
  80   2.0000      -0.465283       -12.6610
  81   2.0000      -0.462737       -12.5917
  82   2.0000      -0.459793       -12.5116
  83   2.0000      -0.458071       -12.4647
  84   2.0000      -0.457740       -12.4557
  85   2.0000      -0.445373       -12.1192
  86   2.0000      -0.441298       -12.0083
  87   2.0000      -0.438953       -11.9445
  88   2.0000      -0.433694       -11.8014
  89   2.0000      -0.432306       -11.7637
  90   2.0000      -0.424574       -11.5533
  91   2.0000      -0.423038       -11.5114
  92   2.0000      -0.419524       -11.4158
  93   2.0000      -0.416199       -11.3253
  94   2.0000      -0.411298       -11.1920
  95   2.0000      -0.410101       -11.1594
  96   2.0000      -0.407210       -11.0807
  97   2.0000      -0.404481       -11.0065
  98   2.0000      -0.394744       -10.7415
  99   2.0000      -0.386217       -10.5095
 100   2.0000      -0.381522       -10.3817
 101   2.0000      -0.378240       -10.2924
 102   2.0000      -0.372911       -10.1474
 103   2.0000      -0.371383       -10.1058
 104   2.0000      -0.367476        -9.9995
 105   2.0000      -0.365337        -9.9413
 106   2.0000      -0.357540        -9.7292
 107   2.0000      -0.346628        -9.4322
 108   2.0000      -0.325110        -8.8467
 109   2.0000      -0.316728        -8.6186
 110   2.0000      -0.313979        -8.5438
 111   2.0000      -0.311640        -8.4801
 112   2.0000      -0.287581        -7.8255
 113   2.0000      -0.276551        -7.5253
 114   2.0000      -0.264483        -7.1970
 115   2.0000      -0.250762        -6.8236
 116   2.0000      -0.246396        -6.7048
 117   2.0000      -0.237873        -6.4729
 118   2.0000      -0.235440        -6.4067
 119   0.0000      -0.038076        -1.0361
 120   0.0000      -0.031844        -0.8665
 121   0.0000      -0.027428        -0.7463
 122   0.0000      -0.015488        -0.4215
 123   0.0000      -0.007494        -0.2039

MULLIKEN ATOMIC CHARGES
-----------------------
   0 O :   -0.415563
   1 C :    0.328582
   2 N :   -0.337954
   3 C :    0.320084
   4 C :   -0.184895
   5 C :   -0.163561
   6 C :    0.054472
   7 C :    0.514921
   8 F :   -0.190688
   9 F :   -0.189560
  10 F :   -0.181995
  11 C :   -0.171765
  12 C :   -0.214862
  13 N :   -0.090127
  14 C :   -0.213921
  15 C :   -0.189438
  16 C :    0.397465
  17 C :   -0.270481
  18 C :   -0.148927
  19 C :    0.042953
  20 C :   -0.206421
  21 C :   -0.109421
  22 C :   -0.136201
  23 C :   -0.082407
  24 Br:   -0.070885
  25 C :    0.217939
  26 O :   -0.309292
  27 C :   -0.269756
  28 C :   -0.136650
  29 H :    0.227217
  30 H :    0.131089
  31 H :    0.132513
  32 H :    0.128341
  33 H :    0.108780
  34 H :    0.086708
  35 H :    0.132628
  36 H :    0.107307
  37 H :    0.121929
  38 H :    0.100882
  39 H :    0.103423
  40 H :    0.113377
  41 H :    0.106585
  42 H :    0.106583
  43 H :    0.110091
  44 H :    0.125462
  45 H :    0.128079
  46 H :    0.091418
  47 H :    0.135754
  48 H :    0.110192
Sum of atomic charges:   -0.0000000

LOEWDIN ATOMIC CHARGES
----------------------
   0 O :    0.010714
   1 C :   -0.411145
   2 N :    0.125621
   3 C :   -0.165234
   4 C :   -0.091491
   5 C :   -0.085968
   6 C :   -0.136026
   7 C :   -0.516629
   8 F :    0.151867
   9 F :    0.152889
  10 F :    0.153932
  11 C :   -0.091517
  12 C :   -0.118475
  13 N :    0.160388
  14 C :   -0.265198
  15 C :   -0.200521
  16 C :   -0.312613
  17 C :   -0.211108
  18 C :   -0.209818
  19 C :   -0.125994
  20 C :   -0.110517
  21 C :   -0.146279
  22 C :   -0.143124
  23 C :   -0.346335
  24 Br:    0.335874
  25 C :   -0.191842
  26 O :    0.275598
  27 C :   -0.206881
  28 C :   -0.242328
  29 H :    0.195240
  30 H :    0.154416
  31 H :    0.153109
  32 H :    0.151783
  33 H :    0.142870
  34 H :    0.121991
  35 H :    0.140897
  36 H :    0.145677
  37 H :    0.153850
  38 H :    0.144915
  39 H :    0.141282
  40 H :    0.149378
  41 H :    0.147361
  42 H :    0.145195
  43 H :    0.143128
  44 H :    0.147294
  45 H :    0.152721
  46 H :    0.144394
  47 H :    0.148810
  48 H :    0.137847

  Mayer bond orders larger than 0.100000
B(  0-O ,  1-C ) :   1.9026 B(  1-C ,  2-N ) :   1.0882 B(  1-C , 13-N ) :   1.1816
B(  2-N ,  3-C ) :   0.9141 B(  2-N , 29-H ) :   0.9042 B(  3-C ,  4-C ) :   1.3888
B(  3-C , 12-C ) :   1.3461 B(  4-C ,  5-C ) :   1.4383 B(  4-C , 30-H ) :   0.9527
B(  5-C ,  6-C ) :   1.3504 B(  5-C , 31-H ) :   0.9610 B(  6-C ,  7-C ) :   1.0086
B(  6-C , 11-C ) :   1.3694 B(  7-C ,  8-F ) :   1.1057 B(  7-C ,  9-F ) :   1.1076
B(  7-C , 10-F ) :   1.1270 B( 11-C , 12-C ) :   1.4599 B( 11-C , 32-H ) :   0.9612
B( 12-C , 33-H ) :   0.9676 B( 13-N , 14-C ) :   0.9641 B( 13-N , 28-C ) :   0.9338
B( 14-C , 15-C ) :   1.0117 B( 14-C , 34-H ) :   0.9447 B( 14-C , 35-H ) :   0.9432
B( 15-C , 16-C ) :   0.9036 B( 15-C , 36-H ) :   0.9675 B( 15-C , 37-H ) :   0.9538
B( 16-C , 17-C ) :   0.9441 B( 16-C , 26-O ) :   0.8553 B( 16-C , 27-C ) :   0.9204
B( 17-C , 18-C ) :   1.0170 B( 17-C , 38-H ) :   0.9533 B( 17-C , 39-H ) :   0.9614
B( 18-C , 19-C ) :   0.9641 B( 18-C , 40-H ) :   0.9671 B( 18-C , 41-H ) :   0.9350
B( 19-C , 20-C ) :   1.3330 B( 19-C , 25-C ) :   1.3356 B( 20-C , 21-C ) :   1.4199
B( 20-C , 42-H ) :   0.9832 B( 21-C , 22-C ) :   1.3895 B( 21-C , 43-H ) :   0.9752
B( 22-C , 23-C ) :   1.3505 B( 22-C , 44-H ) :   0.9674 B( 23-C , 24-Br) :   1.1351
B( 23-C , 25-C ) :   1.2879 B( 25-C , 26-O ) :   1.1292 B( 27-C , 28-C ) :   1.0028
B( 27-C , 45-H ) :   0.9598 B( 27-C , 46-H ) :   0.9469 B( 28-C , 47-H ) :   0.9610
B( 28-C , 48-H ) :   0.9609

FINAL SINGLE POINT ENERGY     -3945.594426328752

DIPOLE MOMENT
-------------

Method             : SCF
Type of density    : Electron Density
Multiplicity       :   1
Irrep              :   0
Energy             : -3945.5944263287524336 Eh
Relativity type    :
Basis              : AO
                                X                 Y                 Z
Electronic contribution:      0.994322730     -33.858897875     -31.957359967
Nuclear contribution   :      1.221439278      36.056705466      32.548934285
                        -----------------------------------------
Total Dipole Moment    :      2.215762008       2.197807591       0.591574318
                        -----------------------------------------
Magnitude (a.u.)       :      3.176463388
Magnitude (Debye)      :      8.073928287

Rotational constants in cm-1:             0.012883             0.001204             0.001135
Rotational constants in MHz :           386.212276            36.107008            34.041354

                             ****ORCA TERMINATED NORMALLY****
TOTAL RUN TIME: 0 days 0 hours 17 minutes 17 seconds 83 msec
