                         Program Version 6.0.0  -   RELEASE  -
|  1> ! B3LYP 6-31G* SP
|  2>
|  3> * xyz 0 1
|  4> O 7.3114 -1.5852 -1.3311
|  5> C 6.3840 -2.3977 -1.0658
|  6> O 6.5585 -3.7491 -1.3544
|  7> C 5.1230 -1.9223 -0.4550
|  8> C 4.0902 -2.8300 -0.1601
|  9> C 2.8963 -2.3830 0.4139
| 10> C 2.7194 -1.0251 0.7068
| 11> S 1.2037 -0.4544 1.3936
| 12> O 0.5322 -1.5551 2.1666
| 13> O 1.4791 0.6837 2.3375
| 14> N 0.1655 0.0777 0.1103
| 15> C -0.4691 -0.8980 -0.7781
| 16> C -1.9610 -0.8835 -0.5856
| 17> C -2.7660 -0.0428 -1.3688
| 18> C -4.1450 0.0066 -1.1563
| 19> C -4.7312 -0.7750 -0.1572
| 20> C -3.9343 -1.6147 0.6454
| 21> O -4.4673 -2.4171 1.6674
| 22> C -5.8468 -2.4943 2.0197
| 23> F -6.5896 -2.9429 0.9422
| 24> F -5.9933 -3.3868 3.0640
| 25> F -6.3055 -1.2537 2.4256
| 26> C -2.5515 -1.6572 0.4258
| 27> C -0.0690 1.4790 -0.0637
| 28> N -0.9441 2.1134 0.7613
| 29> C -1.2179 3.4387 0.6409
| 30> C -0.5804 4.2068 -0.3460
| 31> C -0.9177 5.6653 -0.5239
| 32> F -1.2584 6.2391 0.6890
| 33> F -1.9858 5.7823 -1.3937
| 34> F 0.1639 6.3571 -1.0415
| 35> C 0.3108 3.5647 -1.2200
| 36> C 0.5805 2.2012 -1.0770
| 37> Cl 1.7410 1.4348 -2.1527
| 38> C 3.7412 -0.1147 0.4108
| 39> C 4.9356 -0.5584 -0.1643
| 40> H 7.4176 -4.0850 -1.7734
| 41> H 4.2019 -3.8853 -0.3759
| 42> H 2.1091 -3.0962 0.6239
| 43> H -0.0770 -1.9179 -0.5737
| 44> H -0.2137 -0.6684 -1.8345
| 45> H -2.3247 0.5791 -2.1381
| 46> H -4.7611 0.6559 -1.7648
| 47> H -5.8009 -0.7136 -0.0169
| 48> H -1.9365 -2.2960 1.0478
| 49> H -1.9358 3.8894 1.3136
| 50> H 0.7985 4.1213 -2.0108
| 51> H 3.6105 0.9404 0.6173
| 52> H 5.7096 0.1665 -0.3845
| 53> *
| 54>
| 55>                          ****END OF INPUT****

CARTESIAN COORDINATES (ANGSTROEM)
---------------------------------
  O      7.311400   -1.585200   -1.331100
  C      6.384000   -2.397700   -1.065800
  O      6.558500   -3.749100   -1.354400
  C      5.123000   -1.922300   -0.455000
  C      4.090200   -2.830000   -0.160100
  C      2.896300   -2.383000    0.413900
  C      2.719400   -1.025100    0.706800
  S      1.203700   -0.454400    1.393600
  O      0.532200   -1.555100    2.166600
  O      1.479100    0.683700    2.337500
  N      0.165500    0.077700    0.110300
  C     -0.469100   -0.898000   -0.778100
  C     -1.961000   -0.883500   -0.585600
  C     -2.766000   -0.042800   -1.368800
  C     -4.145000    0.006600   -1.156300
  C     -4.731200   -0.775000   -0.157200
  C     -3.934300   -1.614700    0.645400
  O     -4.467300   -2.417100    1.667400
  C     -5.846800   -2.494300    2.019700
  F     -6.589600   -2.942900    0.942200
  F     -5.993300   -3.386800    3.064000
  F     -6.305500   -1.253700    2.425600
  C     -2.551500   -1.657200    0.425800
  C     -0.069000    1.479000   -0.063700
  N     -0.944100    2.113400    0.761300
  C     -1.217900    3.438700    0.640900
  C     -0.580400    4.206800   -0.346000
  C     -0.917700    5.665300   -0.523900
  F     -1.258400    6.239100    0.689000
  F     -1.985800    5.782300   -1.393700
  F      0.163900    6.357100   -1.041500
  C      0.310800    3.564700   -1.220000
  C      0.580500    2.201200   -1.077000
  Cl     1.741000    1.434800   -2.152700
  C      3.741200   -0.114700    0.410800
  C      4.935600   -0.558400   -0.164300
  H      7.417600   -4.085000   -1.773400
  H      4.201900   -3.885300   -0.375900
  H      2.109100   -3.096200    0.623900
  H     -0.077000   -1.917900   -0.573700
  H     -0.213700   -0.668400   -1.834500
  H     -2.324700    0.579100   -2.138100
  H     -4.761100    0.655900   -1.764800
  H     -5.800900   -0.713600   -0.016900
  H     -1.936500   -2.296000    1.047800
  H     -1.935800    3.889400    1.313600
  H      0.798500    4.121300   -2.010800
  H      3.610500    0.940400    0.617300
  H      5.709600    0.166500   -0.384500

 Total Charge           Charge          ....    0
 Multiplicity           Mult            ....    1
 Number of Electrons    NEL             ....  280
 Basis Dimension        Dim             ....  538

ORBITAL ENERGIES
----------------

  NO   OCC          E(Eh)            E(eV)
   0   2.0000    -101.562317     -2763.6511
   1   2.0000     -89.108639     -2424.7693
   2   2.0000     -24.738427      -673.1668
   3   2.0000     -24.737948      -673.1538
   4   2.0000     -24.737897      -673.1524
   5   2.0000     -24.736704      -673.1199
   6   2.0000     -24.735751      -673.0940
   7   2.0000     -24.735249      -673.0803
   8   2.0000     -19.210046      -522.7319
   9   2.0000     -19.201209      -522.4915
  10   2.0000     -19.143289      -520.9154
  11   2.0000     -19.136423      -520.7285
  12   2.0000     -19.135266      -520.6971
  13   2.0000     -14.387530      -391.5046
  14   2.0000     -14.366073      -390.9207
  15   2.0000     -10.501021      -285.7473
  16   2.0000     -10.457057      -284.5510
  17   2.0000     -10.340736      -281.3857
  18   2.0000     -10.301890      -280.3287
  19   2.0000     -10.287529      -279.9379
  20   2.0000     -10.268092      -279.4090
  21   2.0000     -10.258892      -279.1586
  22   2.0000     -10.249850      -278.9126
  23   2.0000     -10.248259      -278.8693
  24   2.0000     -10.246925      -278.8330
  25   2.0000     -10.246438      -278.8197
  26   2.0000     -10.238521      -278.6043
  27   2.0000     -10.227705      -278.3100
  28   2.0000     -10.227072      -278.2928
  29   2.0000     -10.223973      -278.2084
  30   2.0000     -10.223624      -278.1990
  31   2.0000     -10.206432      -277.7311
  32   2.0000     -10.196856      -277.4706
  33   2.0000     -10.195988      -277.4469
  34   2.0000     -10.194299      -277.4010
  35   2.0000     -10.192561      -277.3537
  36   2.0000      -9.493559      -258.3329
  37   2.0000      -8.144293      -221.6175
  38   2.0000      -7.256805      -197.4677
  39   2.0000      -7.247186      -197.2060
  40   2.0000      -7.246711      -197.1930
  41   2.0000      -6.109501      -166.2480
  42   2.0000      -6.107244      -166.1866
  43   2.0000      -6.106855      -166.1760
  44   2.0000      -1.301106       -35.4049
  45   2.0000      -1.298067       -35.3222
  46   2.0000      -1.223218       -33.2855
  47   2.0000      -1.222296       -33.2604
  48   2.0000      -1.222149       -33.2564
  49   2.0000      -1.221089       -33.2275
  50   2.0000      -1.093771       -29.7630
  51   2.0000      -1.085710       -29.5437
  52   2.0000      -1.079915       -29.3860
  53   2.0000      -1.000043       -27.2126
  54   2.0000      -0.992308       -27.0021
  55   2.0000      -0.971637       -26.4396
  56   2.0000      -0.937919       -25.5221
  57   2.0000      -0.901541       -24.5322
  58   2.0000      -0.897131       -24.4122
  59   2.0000      -0.865759       -23.5585
  60   2.0000      -0.843481       -22.9523
  61   2.0000      -0.814760       -22.1707
  62   2.0000      -0.793481       -21.5917
  63   2.0000      -0.783179       -21.3114
  64   2.0000      -0.779101       -21.2004
  65   2.0000      -0.768198       -20.9037
  66   2.0000      -0.734016       -19.9736
  67   2.0000      -0.721996       -19.6465
  68   2.0000      -0.702418       -19.1138
  69   2.0000      -0.694820       -18.9070
  70   2.0000      -0.675246       -18.3744
  71   2.0000      -0.658822       -17.9275
  72   2.0000      -0.646262       -17.5857
  73   2.0000      -0.635623       -17.2962
  74   2.0000      -0.631694       -17.1893
  75   2.0000      -0.617503       -16.8031
  76   2.0000      -0.608444       -16.5566
  77   2.0000      -0.593371       -16.1464
  78   2.0000      -0.590649       -16.0724
  79   2.0000      -0.589660       -16.0455
  80   2.0000      -0.588941       -16.0259
  81   2.0000      -0.577880       -15.7249
  82   2.0000      -0.570698       -15.5295
  83   2.0000      -0.567444       -15.4409
  84   2.0000      -0.548694       -14.9307
  85   2.0000      -0.533514       -14.5177
  86   2.0000      -0.525452       -14.2983
  87   2.0000      -0.513269       -13.9668
  88   2.0000      -0.499295       -13.5865
  89   2.0000      -0.492417       -13.3994
  90   2.0000      -0.489354       -13.3160
  91   2.0000      -0.483849       -13.1662
  92   2.0000      -0.478712       -13.0264
  93   2.0000      -0.473243       -12.8776
  94   2.0000      -0.467395       -12.7185
  95   2.0000      -0.466972       -12.7070
  96   2.0000      -0.466464       -12.6931
  97   2.0000      -0.465062       -12.6550
  98   2.0000      -0.462876       -12.5955
  99   2.0000      -0.457599       -12.4519
 100   2.0000      -0.455182       -12.3861
 101   2.0000      -0.449882       -12.2419
 102   2.0000      -0.447564       -12.1788
 103   2.0000      -0.444818       -12.1041
 104   2.0000      -0.442447       -12.0396
 105   2.0000      -0.441566       -12.0156
 106   2.0000      -0.437026       -11.8921
 107   2.0000      -0.432017       -11.7558
 108   2.0000      -0.431683       -11.7467
 109   2.0000      -0.428578       -11.6622
 110   2.0000      -0.426261       -11.5992
 111   2.0000      -0.421503       -11.4697
 112   2.0000      -0.416302       -11.3281
 113   2.0000      -0.415466       -11.3054
 114   2.0000      -0.413468       -11.2510
 115   2.0000      -0.404209       -10.9991
 116   2.0000      -0.401131       -10.9153
 117   2.0000      -0.399345       -10.8667
 118   2.0000      -0.391218       -10.6456
 119   2.0000      -0.383790       -10.4435
 120   2.0000      -0.377255       -10.2656
 121   2.0000      -0.375405       -10.2153
 122   2.0000      -0.372884       -10.1467
 123   2.0000      -0.353386        -9.6161
 124   2.0000      -0.348700        -9.4886
 125   2.0000      -0.346838        -9.4379
 126   2.0000      -0.337797        -9.1919
 127   2.0000      -0.327206        -8.9037
 128   2.0000      -0.320524        -8.7219
 129   2.0000      -0.313866        -8.5407
 130   2.0000      -0.303159        -8.2494
 131   2.0000      -0.294810        -8.0222
 132   2.0000      -0.289974        -7.8906
 133   2.0000      -0.284180        -7.7329
 134   2.0000      -0.283281        -7.7085
 135   2.0000      -0.280092        -7.6217
 136   2.0000      -0.278422        -7.5762
 137   2.0000      -0.269737        -7.3399
 138   2.0000      -0.254325        -6.9205
 139   2.0000      -0.243017        -6.6128
 140   0.0000      -0.092113        -2.5065
 141   0.0000      -0.072012        -1.9595
 142   0.0000      -0.057955        -1.5770
 143   0.0000      -0.037612        -1.0235
 144   0.0000      -0.021793        -0.5930

MULLIKEN ATOMIC CHARGES
-----------------------
   0 O :   -0.442403
   1 C :    0.529687
   2 O :   -0.623500
   3 C :    0.082907
   4 C :   -0.145529
   5 C :   -0.150411
   6 C :   -0.115504
   7 S :    1.205046
   8 O :   -0.535316
   9 O :   -0.532396
  10 N :   -0.593427
  11 C :   -0.260459
  12 C :    0.184263
  13 C :   -0.173275
  14 C :   -0.127471
  15 C :   -0.183785
  16 C :    0.354158
  17 O :   -0.542795
  18 C :    1.086545
  19 F :   -0.292630
  20 F :   -0.278326
  21 F :   -0.290863
  22 C :   -0.206431
  23 C :    0.398470
  24 N :   -0.333727
  25 C :   -0.001787
  26 C :   -0.023464
  27 C :    0.905577
  28 F :   -0.297850
  29 F :   -0.291120
  30 F :   -0.300245
  31 C :   -0.133339
  32 C :   -0.096656
  33 Cl:    0.021009
  34 C :   -0.136574
  35 C :   -0.141018
  36 H :    0.435645
  37 H :    0.175250
  38 H :    0.181149
  39 H :    0.180602
  40 H :    0.172785
  41 H :    0.124915
  42 H :    0.140071
  43 H :    0.152453
  44 H :    0.173814
  45 H :    0.188508
  46 H :    0.189163
  47 H :    0.184918
  48 H :    0.183365
Sum of atomic charges:    0.0000000

LOEWDIN ATOMIC CHARGES
----------------------
   0 O :   -0.258625
   1 C :    0.180332
   2 O :   -0.334219
   3 C :   -0.037109
   4 C :   -0.098495
   5 C :   -0.108342
   6 C :   -0.175060
   7 S :    1.268989
   8 O :   -0.565933
   9 O :   -0.561051
  10 N :   -0.281619
  11 C :   -0.144982
  12 C :   -0.023889
  13 C :   -0.142505
  14 C :   -0.118658
  15 C :   -0.156541
  16 C :    0.091716
  17 O :   -0.156928
  18 C :    0.359875
  19 F :   -0.106033
  20 F :   -0.086803
  21 F :   -0.104495
  22 C :   -0.129544
  23 C :    0.059069
  24 N :   -0.081650
  25 C :   -0.042349
  26 C :   -0.071759
  27 C :    0.313446
  28 F :   -0.106069
  29 F :   -0.108602
  30 F :   -0.109081
  31 C :   -0.093018
  32 C :   -0.098991
  33 Cl:    0.059466
  34 C :   -0.097059
  35 C :   -0.084664
  36 H :    0.350845
  37 H :    0.155877
  38 H :    0.157104
  39 H :    0.147524
  40 H :    0.133615
  41 H :    0.129688
  42 H :    0.137704
  43 H :    0.142188
  44 H :    0.156670
  45 H :    0.155244
  46 H :    0.162731
  47 H :    0.160139
  48 H :    0.161850

  Mayer bond orders larger than 0.100000
B(  0-O ,  1-C ) :   1.8635 B(  1-C ,  2-O ) :   1.0262 B(  1-C ,  3-C ) :   1.0071
B(  2-O , 36-H ) :   0.7409 B(  3-C ,  4-C ) :   1.3884 B(  3-C , 35-C ) :   1.3983
B(  4-C ,  5-C ) :   1.4139 B(  4-C , 37-H ) :   0.9141 B(  5-C ,  6-C ) :   1.3935
B(  5-C , 38-H ) :   0.9099 B(  6-C ,  7-S ) :   0.8153 B(  6-C , 34-C ) :   1.3783
B(  7-S ,  8-O ) :   1.6338 B(  7-S ,  9-O ) :   1.6430 B(  7-S , 10-N ) :   0.7961
B( 10-N , 11-C ) :   0.9151 B( 10-N , 23-C ) :   0.9431 B( 11-C , 12-C ) :   0.9490
B( 11-C , 39-H ) :   0.9180 B( 11-C , 40-H ) :   0.9180 B( 12-C , 13-C ) :   1.4303
B( 12-C , 22-C ) :   1.4299 B( 13-C , 14-C ) :   1.4396 B( 13-C , 41-H ) :   0.9242
B( 14-C , 15-C ) :   1.4485 B( 14-C , 42-H ) :   0.9273 B( 15-C , 16-C ) :   1.3897
B( 15-C , 43-H ) :   0.9099 B( 16-C , 17-O ) :   0.8246 B( 16-C , 22-C ) :   1.4078
B( 17-O , 18-C ) :   0.9904 B( 18-C , 19-F ) :   0.9668 B( 18-C , 20-F ) :   1.0089
B( 18-C , 21-F ) :   0.9690 B( 22-C , 44-H ) :   0.9009 B( 23-C , 24-N ) :   1.3947
B( 23-C , 32-C ) :   1.3381 B( 24-N , 25-C ) :   1.4127 B( 25-C , 26-C ) :   1.3540
B( 25-C , 45-H ) :   0.9164 B( 26-C , 27-C ) :   0.9712 B( 26-C , 31-C ) :   1.4153
B( 27-C , 28-F ) :   0.9536 B( 27-C , 29-F ) :   0.9893 B( 27-C , 30-F ) :   0.9516
B( 31-C , 32-C ) :   1.3885 B( 31-C , 46-H ) :   0.9075 B( 32-C , 33-Cl) :   1.0427
B( 34-C , 35-C ) :   1.4263 B( 34-C , 47-H ) :   0.9097 B( 35-C , 48-H ) :   0.9087

FINAL SINGLE POINT ENERGY     -2749.919824814056

DIPOLE MOMENT
-------------

Method             : SCF
Type of density    : Electron Density
Multiplicity       :   1
Irrep              :   0
Energy             : -2749.9198248140555734 Eh
Relativity type    :
Basis              : AO
                                X                 Y                 Z
Electronic contribution:    -25.129463644      18.882911465       6.592994912
Nuclear contribution   :     25.676171184     -19.293788625      -8.947849918
                        -----------------------------------------
Total Dipole Moment    :      0.546707540      -0.410877159      -2.354855006
                        -----------------------------------------
Magnitude (a.u.)       :      2.452152376
Magnitude (Debye)      :      6.232876004

Rotational constants in cm-1:             0.003118             0.001983             0.001341
Rotational constants in MHz :            93.483737            59.455830            40.191377

                             ****ORCA TERMINATED NORMALLY****
TOTAL RUN TIME: 0 days 0 hours 6 minutes 18 seconds 210 msec
