                         Program Version 6.0.0  -   RELEASE  -
|  1> ! B3LYP 6-31G* SP
|  2>
|  3> * xyz 0 1
|  4> C 0.8244 -1.9711 2.0956
|  5> C -0.4354 -1.4423 1.4435
|  6> C -0.3621 -0.4204 0.4718
|  7> N 0.8810 0.2082 0.1353
|  8> C 1.4336 0.0557 -1.2111
|  9> C 2.2630 -1.1965 -1.2828
| 10> C 1.6450 -2.4468 -1.4311
| 11> C 2.4129 -3.6148 -1.4453
| 12> C 3.8072 -3.5546 -1.3183
| 13> O 4.5295 -4.7593 -1.3564
| 14> C 5.9531 -4.8690 -1.3111
| 15> F 6.5224 -4.1593 -2.3563
| 16> F 6.3027 -6.1992 -1.4341
| 17> F 6.4306 -4.3935 -0.1025
| 18> C 4.4269 -2.2997 -1.1584
| 19> C 3.6579 -1.1325 -1.1340
| 20> S 1.5745 1.3660 1.2285
| 21> O 0.9490 1.2367 2.5887
| 22> O 3.0486 1.1002 1.3508
| 23> C 1.2871 2.9916 0.6204
| 24> C -0.0169 3.3942 0.3075
| 25> C -0.2608 4.6862 -0.1656
| 26> C 0.7983 5.5964 -0.3297
| 27> C 0.5454 6.9688 -0.8198
| 28> O -0.6200 7.3300 -1.1374
| 29> O 1.5942 7.8761 -0.9332
| 30> C 2.1055 5.1842 -0.0170
| 31> C 2.3475 3.8908 0.4550
| 32> N -1.4872 0.0035 -0.1541
| 33> C -2.7200 -0.4917 0.1140
| 34> C -3.8619 0.0966 -0.6152
| 35> C -4.8869 0.7655 0.0698
| 36> C -5.9396 1.3419 -0.6432
| 37> C -5.9522 1.2538 -2.0385
| 38> N -4.9388 0.6244 -2.6889
| 39> C -3.9007 0.0575 -2.0158
| 40> C -2.8649 -1.5115 1.0816
| 41> C -4.1179 -2.0963 1.3608
| 42> C -4.2361 -3.0877 2.3304
| 43> C -3.1144 -3.5189 3.0317
| 44> C -1.8616 -2.9763 2.7562
| 45> C -1.7092 -1.9786 1.7677
| 46> H 0.8772 -3.0728 1.9738
| 47> H 0.8231 -1.7129 3.1755
| 48> H 1.7504 -1.5611 1.6459
| 49> H 0.6151 0.0169 -1.9639
| 50> H 2.0570 0.9402 -1.4699
| 51> H 0.5687 -2.5177 -1.5287
| 52> H 1.9228 -4.5737 -1.5566
| 53> H 5.4989 -2.2120 -1.0479
| 54> H 4.1513 -0.1776 -1.0011
| 55> H -0.8466 2.7094 0.4327
| 56> H -1.2792 4.9728 -0.3976
| 57> H 1.4327 8.8169 -1.2697
| 58> H 2.9422 5.8596 -0.1363
| 59> H 3.3615 3.5956 0.6928
| 60> H -4.8676 0.8429 1.1510
| 61> H -6.7370 1.8548 -0.1205
| 62> H -6.7630 1.6959 -2.6026
| 63> H -3.1107 -0.4306 -2.5706
| 64> H -5.0112 -1.8032 0.8264
| 65> H -5.2023 -3.5246 2.5391
| 66> H -3.2154 -4.2829 3.7899
| 67> H -1.0213 -3.3446 3.3289
| 68> *
| 69>
| 70>                          ****END OF INPUT****

CARTESIAN COORDINATES (ANGSTROEM)
---------------------------------
  C      0.824400   -1.971100    2.095600
  C     -0.435400   -1.442300    1.443500
  C     -0.362100   -0.420400    0.471800
  N      0.881000    0.208200    0.135300
  C      1.433600    0.055700   -1.211100
  C      2.263000   -1.196500   -1.282800
  C      1.645000   -2.446800   -1.431100
  C      2.412900   -3.614800   -1.445300
  C      3.807200   -3.554600   -1.318300
  O      4.529500   -4.759300   -1.356400
  C      5.953100   -4.869000   -1.311100
  F      6.522400   -4.159300   -2.356300
  F      6.302700   -6.199200   -1.434100
  F      6.430600   -4.393500   -0.102500
  C      4.426900   -2.299700   -1.158400
  C      3.657900   -1.132500   -1.134000
  S      1.574500    1.366000    1.228500
  O      0.949000    1.236700    2.588700
  O      3.048600    1.100200    1.350800
  C      1.287100    2.991600    0.620400
  C     -0.016900    3.394200    0.307500
  C     -0.260800    4.686200   -0.165600
  C      0.798300    5.596400   -0.329700
  C      0.545400    6.968800   -0.819800
  O     -0.620000    7.330000   -1.137400
  O      1.594200    7.876100   -0.933200
  C      2.105500    5.184200   -0.017000
  C      2.347500    3.890800    0.455000
  N     -1.487200    0.003500   -0.154100
  C     -2.720000   -0.491700    0.114000
  C     -3.861900    0.096600   -0.615200
  C     -4.886900    0.765500    0.069800
  C     -5.939600    1.341900   -0.643200
  C     -5.952200    1.253800   -2.038500
  N     -4.938800    0.624400   -2.688900
  C     -3.900700    0.057500   -2.015800
  C     -2.864900   -1.511500    1.081600
  C     -4.117900   -2.096300    1.360800
  C     -4.236100   -3.087700    2.330400
  C     -3.114400   -3.518900    3.031700
  C     -1.861600   -2.976300    2.756200
  C     -1.709200   -1.978600    1.767700
  H      0.877200   -3.072800    1.973800
  H      0.823100   -1.712900    3.175500
  H      1.750400   -1.561100    1.645900
  H      0.615100    0.016900   -1.963900
  H      2.057000    0.940200   -1.469900
  H      0.568700   -2.517700   -1.528700
  H      1.922800   -4.573700   -1.556600
  H      5.498900   -2.212000   -1.047900
  H      4.151300   -0.177600   -1.001100
  H     -0.846600    2.709400    0.432700
  H     -1.279200    4.972800   -0.397600
  H      1.432700    8.816900   -1.269700
  H      2.942200    5.859600   -0.136300
  H      3.361500    3.595600    0.692800
  H     -4.867600    0.842900    1.151000
  H     -6.737000    1.854800   -0.120500
  H     -6.763000    1.695900   -2.602600
  H     -3.110700   -0.430600   -2.570600
  H     -5.011200   -1.803200    0.826400
  H     -5.202300   -3.524600    2.539100
  H     -3.215400   -4.282900    3.789900
  H     -1.021300   -3.344600    3.328900

 Total Charge           Charge          ....    0
 Multiplicity           Mult            ....    1
 Number of Electrons    NEL             ....  306
 Basis Dimension        Dim             ....  636

ORBITAL ENERGIES
----------------

  NO   OCC          E(Eh)            E(eV)
   0   2.0000     -89.100022     -2424.5349
   1   2.0000     -24.739215      -673.1883
   2   2.0000     -24.736156      -673.1050
   3   2.0000     -24.736072      -673.1027
   4   2.0000     -19.210259      -522.7377
   5   2.0000     -19.195541      -522.3372
   6   2.0000     -19.137048      -520.7455
   7   2.0000     -19.129469      -520.5393
   8   2.0000     -19.129417      -520.5379
   9   2.0000     -14.373720      -391.1288
  10   2.0000     -14.337282      -390.1373
  11   2.0000     -14.330855      -389.9624
  12   2.0000     -10.501545      -285.7616
  13   2.0000     -10.334350      -281.2119
  14   2.0000     -10.266179      -279.3569
  15   2.0000     -10.261133      -279.2196
  16   2.0000     -10.241498      -278.6853
  17   2.0000     -10.240271      -278.6519
  18   2.0000     -10.234811      -278.5034
  19   2.0000     -10.230525      -278.3867
  20   2.0000     -10.224914      -278.2341
  21   2.0000     -10.224356      -278.2189
  22   2.0000     -10.218632      -278.0631
  23   2.0000     -10.218169      -278.0505
  24   2.0000     -10.215933      -277.9897
  25   2.0000     -10.215635      -277.9816
  26   2.0000     -10.211256      -277.8624
  27   2.0000     -10.209810      -277.8230
  28   2.0000     -10.208399      -277.7847
  29   2.0000     -10.208057      -277.7753
  30   2.0000     -10.207591      -277.7627
  31   2.0000     -10.199303      -277.5371
  32   2.0000     -10.199221      -277.5349
  33   2.0000     -10.198444      -277.5138
  34   2.0000     -10.197739      -277.4946
  35   2.0000     -10.197646      -277.4921
  36   2.0000     -10.195424      -277.4316
  37   2.0000     -10.195011      -277.4204
  38   2.0000     -10.194628      -277.4099
  39   2.0000     -10.192833      -277.3611
  40   2.0000     -10.191408      -277.3223
  41   2.0000     -10.172935      -276.8196
  42   2.0000      -8.135769      -221.3855
  43   2.0000      -6.100864      -166.0130
  44   2.0000      -6.098827      -165.9575
  45   2.0000      -6.098317      -165.9436
  46   2.0000      -1.301061       -35.4037
  47   2.0000      -1.221977       -33.2517
  48   2.0000      -1.221530       -33.2395
  49   2.0000      -1.087132       -29.5824
  50   2.0000      -1.080585       -29.4042
  51   2.0000      -1.079228       -29.3673
  52   2.0000      -0.994344       -27.0575
  53   2.0000      -0.969395       -26.3786
  54   2.0000      -0.965804       -26.2809
  55   2.0000      -0.933277       -25.3958
  56   2.0000      -0.919623       -25.0242
  57   2.0000      -0.889234       -24.1973
  58   2.0000      -0.868829       -23.6421
  59   2.0000      -0.861309       -23.4374
  60   2.0000      -0.824653       -22.4400
  61   2.0000      -0.806753       -21.9529
  62   2.0000      -0.800250       -21.7759
  63   2.0000      -0.785807       -21.3829
  64   2.0000      -0.778549       -21.1854
  65   2.0000      -0.774908       -21.0863
  66   2.0000      -0.765177       -20.8215
  67   2.0000      -0.755804       -20.5665
  68   2.0000      -0.745134       -20.2761
  69   2.0000      -0.727149       -19.7867
  70   2.0000      -0.709935       -19.3183
  71   2.0000      -0.695116       -18.9151
  72   2.0000      -0.678038       -18.4504
  73   2.0000      -0.656320       -17.8594
  74   2.0000      -0.649312       -17.6687
  75   2.0000      -0.639623       -17.4050
  76   2.0000      -0.636523       -17.3207
  77   2.0000      -0.630400       -17.1540
  78   2.0000      -0.628793       -17.1103
  79   2.0000      -0.622587       -16.9415
  80   2.0000      -0.613113       -16.6837
  81   2.0000      -0.593828       -16.1589
  82   2.0000      -0.593083       -16.1386
  83   2.0000      -0.589139       -16.0313
  84   2.0000      -0.584779       -15.9127
  85   2.0000      -0.571146       -15.5417
  86   2.0000      -0.559665       -15.2293
  87   2.0000      -0.541953       -14.7473
  88   2.0000      -0.539962       -14.6931
  89   2.0000      -0.527640       -14.3578
  90   2.0000      -0.520311       -14.1584
  91   2.0000      -0.501334       -13.6420
  92   2.0000      -0.496590       -13.5129
  93   2.0000      -0.493409       -13.4263
  94   2.0000      -0.488458       -13.2916
  95   2.0000      -0.485926       -13.2227
  96   2.0000      -0.481923       -13.1138
  97   2.0000      -0.476093       -12.9551
  98   2.0000      -0.469839       -12.7850
  99   2.0000      -0.467520       -12.7219
 100   2.0000      -0.466889       -12.7047
 101   2.0000      -0.463475       -12.6118
 102   2.0000      -0.459656       -12.5079
 103   2.0000      -0.457638       -12.4530
 104   2.0000      -0.452140       -12.3034
 105   2.0000      -0.447313       -12.1720
 106   2.0000      -0.446680       -12.1548
 107   2.0000      -0.444876       -12.1057
 108   2.0000      -0.442451       -12.0397
 109   2.0000      -0.441515       -12.0142
 110   2.0000      -0.435475       -11.8499
 111   2.0000      -0.432544       -11.7701
 112   2.0000      -0.429332       -11.6827
 113   2.0000      -0.428712       -11.6659
 114   2.0000      -0.424601       -11.5540
 115   2.0000      -0.415879       -11.3166
 116   2.0000      -0.413755       -11.2589
 117   2.0000      -0.408061       -11.1039
 118   2.0000      -0.406533       -11.0623
 119   2.0000      -0.404057       -10.9950
 120   2.0000      -0.403605       -10.9826
 121   2.0000      -0.397474       -10.8158
 122   2.0000      -0.391020       -10.6402
 123   2.0000      -0.390356       -10.6221
 124   2.0000      -0.385141       -10.4802
 125   2.0000      -0.384189       -10.4543
 126   2.0000      -0.381703       -10.3867
 127   2.0000      -0.378560       -10.3011
 128   2.0000      -0.374029       -10.1778
 129   2.0000      -0.368110       -10.0168
 130   2.0000      -0.366850        -9.9825
 131   2.0000      -0.358579        -9.7574
 132   2.0000      -0.351035        -9.5521
 133   2.0000      -0.345559        -9.4031
 134   2.0000      -0.344529        -9.3751
 135   2.0000      -0.328047        -8.9266
 136   2.0000      -0.320727        -8.7274
 137   2.0000      -0.309504        -8.4220
 138   2.0000      -0.304271        -8.2796
 139   2.0000      -0.294075        -8.0022
 140   2.0000      -0.285472        -7.7681
 141   2.0000      -0.283274        -7.7083
 142   2.0000      -0.280071        -7.6211
 143   2.0000      -0.278103        -7.5676
 144   2.0000      -0.273758        -7.4493
 145   2.0000      -0.270926        -7.3723
 146   2.0000      -0.267297        -7.2735
 147   2.0000      -0.261655        -7.1200
 148   2.0000      -0.258908        -7.0452
 149   2.0000      -0.256009        -6.9664
 150   2.0000      -0.246895        -6.7183
 151   2.0000      -0.236414        -6.4331
 152   2.0000      -0.221500        -6.0273
 153   0.0000      -0.082520        -2.2455
 154   0.0000      -0.066852        -1.8191
 155   0.0000      -0.039629        -1.0784
 156   0.0000      -0.030187        -0.8214
 157   0.0000      -0.028680        -0.7804

MULLIKEN ATOMIC CHARGES
-----------------------
   0 C :   -0.542161
   1 C :    0.127637
   2 C :    0.298376
   3 N :   -0.611003
   4 C :   -0.259196
   5 C :    0.177876
   6 C :   -0.167487
   7 C :   -0.173739
   8 C :    0.352916
   9 O :   -0.547284
  10 C :    1.086305
  11 F :   -0.292335
  12 F :   -0.279148
  13 F :   -0.289955
  14 C :   -0.190006
  15 C :   -0.156515
  16 S :    1.217556
  17 O :   -0.537659
  18 O :   -0.552473
  19 C :   -0.128047
  20 C :   -0.143504
  21 C :   -0.142050
  22 C :    0.083356
  23 C :    0.527466
  24 O :   -0.444428
  25 O :   -0.623019
  26 C :   -0.146578
  27 C :   -0.149940
  28 N :   -0.430111
  29 C :    0.071929
  30 C :    0.071691
  31 C :   -0.123607
  32 C :   -0.145612
  33 C :    0.026332
  34 N :   -0.371044
  35 C :    0.005651
  36 C :    0.122848
  37 C :   -0.213875
  38 C :   -0.122476
  39 C :   -0.118221
  40 C :   -0.196443
  41 C :    0.113429
  42 H :    0.151391
  43 H :    0.180071
  44 H :    0.200311
  45 H :    0.180738
  46 H :    0.166457
  47 H :    0.140406
  48 H :    0.146789
  49 H :    0.154580
  50 H :    0.153421
  51 H :    0.190215
  52 H :    0.181528
  53 H :    0.434042
  54 H :    0.172548
  55 H :    0.186728
  56 H :    0.153667
  57 H :    0.138782
  58 H :    0.152691
  59 H :    0.155845
  60 H :    0.150167
  61 H :    0.137480
  62 H :    0.139422
  63 H :    0.147268
Sum of atomic charges:    0.0000000

LOEWDIN ATOMIC CHARGES
----------------------
   0 C :   -0.361863
   1 C :    0.005779
   2 C :    0.019579
   3 N :   -0.276911
   4 C :   -0.145742
   5 C :   -0.038434
   6 C :   -0.123164
   7 C :   -0.142940
   8 C :    0.087044
   9 O :   -0.162061
  10 C :    0.361306
  11 F :   -0.106552
  12 F :   -0.087428
  13 F :   -0.104207
  14 C :   -0.157051
  15 C :   -0.110567
  16 S :    1.263413
  17 O :   -0.565188
  18 O :   -0.577828
  19 C :   -0.175922
  20 C :   -0.101412
  21 C :   -0.085114
  22 C :   -0.039301
  23 C :    0.179326
  24 O :   -0.260643
  25 O :   -0.333849
  26 C :   -0.099892
  27 C :   -0.105419
  28 N :   -0.138689
  29 C :    0.031899
  30 C :   -0.033916
  31 C :   -0.102175
  32 C :   -0.144601
  33 C :   -0.066449
  34 N :   -0.131558
  35 C :   -0.054954
  36 C :   -0.022906
  37 C :   -0.118445
  38 C :   -0.124618
  39 C :   -0.115715
  40 C :   -0.118145
  41 C :   -0.004335
  42 H :    0.131583
  43 H :    0.148184
  44 H :    0.153918
  45 H :    0.142140
  46 H :    0.138749
  47 H :    0.138089
  48 H :    0.144182
  49 H :    0.143184
  50 H :    0.144502
  51 H :    0.161399
  52 H :    0.160929
  53 H :    0.349616
  54 H :    0.154735
  55 H :    0.161333
  56 H :    0.142508
  57 H :    0.137606
  58 H :    0.136502
  59 H :    0.139900
  60 H :    0.143582
  61 H :    0.136426
  62 H :    0.137435
  63 H :    0.143150

  Mayer bond orders larger than 0.100000
B(  0-C ,  1-C ) :   1.0096 B(  0-C , 42-H ) :   0.9261 B(  0-C , 43-H ) :   0.9191
B(  0-C , 44-H ) :   0.9174 B(  1-C ,  2-C ) :   1.4332 B(  1-C , 41-C ) :   1.2595
B(  2-C ,  3-N ) :   0.8870 B(  2-C , 28-N ) :   1.2723 B(  3-N ,  4-C ) :   0.9204
B(  3-N , 16-S ) :   0.7982 B(  4-C ,  5-C ) :   0.9450 B(  4-C , 45-H ) :   0.9175
B(  4-C , 46-H ) :   0.9237 B(  5-C ,  6-C ) :   1.4287 B(  5-C , 15-C ) :   1.4369
B(  6-C ,  7-C ) :   1.4363 B(  6-C , 47-H ) :   0.9210 B(  7-C ,  8-C ) :   1.4179
B(  7-C , 48-H ) :   0.9186 B(  8-C ,  9-O ) :   0.8230 B(  8-C , 14-C ) :   1.3914
B(  9-O , 10-C ) :   0.9892 B( 10-C , 11-F ) :   0.9676 B( 10-C , 12-F ) :   1.0078
B( 10-C , 13-F ) :   0.9702 B( 14-C , 15-C ) :   1.4325 B( 14-C , 49-H ) :   0.9094
B( 15-C , 50-H ) :   0.9151 B( 16-S , 17-O ) :   1.6613 B( 16-S , 18-O ) :   1.6154
B( 16-S , 19-C ) :   0.8113 B( 19-C , 20-C ) :   1.3736 B( 19-C , 27-C ) :   1.4044
B( 20-C , 21-C ) :   1.4353 B( 20-C , 51-H ) :   0.8988 B( 21-C , 22-C ) :   1.3970
B( 21-C , 52-H ) :   0.9096 B( 22-C , 23-C ) :   1.0078 B( 22-C , 26-C ) :   1.3876
B( 23-C , 24-O ) :   1.8632 B( 23-C , 25-O ) :   1.0260 B( 25-O , 53-H ) :   0.7419
B( 26-C , 27-C ) :   1.4101 B( 26-C , 54-H ) :   0.9149 B( 27-C , 55-H ) :   0.9087
B( 28-N , 29-C ) :   1.4422 B( 29-C , 30-C ) :   0.9716 B( 29-C , 36-C ) :   1.2265
B( 30-C , 31-C ) :   1.4156 B( 30-C , 35-C ) :   1.3796 B( 31-C , 32-C ) :   1.4392
B( 31-C , 56-H ) :   0.9224 B( 32-C , 33-C ) :   1.4180 B( 32-C , 57-H ) :   0.9236
B( 33-C , 34-N ) :   1.4317 B( 33-C , 58-H ) :   0.9302 B( 34-N , 35-C ) :   1.4172
B( 35-C , 59-H ) :   0.9268 B( 36-C , 37-C ) :   1.2955 B( 36-C , 41-C ) :   1.2796
B( 37-C , 38-C ) :   1.5072 B( 37-C , 40-C ) :   0.1039 B( 37-C , 60-H ) :   0.9098
B( 38-C , 39-C ) :   1.3552 B( 38-C , 61-H ) :   0.9289 B( 39-C , 40-C ) :   1.5077
B( 39-C , 62-H ) :   0.9285 B( 40-C , 41-C ) :   1.2942 B( 40-C , 63-H ) :   0.9144

FINAL SINGLE POINT ENERGY     -2393.258901774549

DIPOLE MOMENT
-------------

Method             : SCF
Type of density    : Electron Density
Multiplicity       :   1
Irrep              :   0
Energy             : -2393.2589017745490310 Eh
Relativity type    :
Basis              : AO
                                X                 Y                 Z
Electronic contribution:     37.805746912     -16.926521413      -8.701686314
Nuclear contribution   :    -38.914396041      17.174752887       8.685598811
                        -----------------------------------------
Total Dipole Moment    :     -1.108649129       0.248231475      -0.016087503
                        -----------------------------------------
Magnitude (a.u.)       :      1.136213257
Magnitude (Debye)      :      2.888024584

Rotational constants in cm-1:             0.002620             0.001609             0.001158
Rotational constants in MHz :            78.551894            48.226155            34.726005

                             ****ORCA TERMINATED NORMALLY****
TOTAL RUN TIME: 0 days 0 hours 13 minutes 3 seconds 211 msec
