                         Program Version 6.0.0  -   RELEASE  -
|  1> ! B3LYP 6-31G* SP
|  2>
|  3> * xyz 0 1
|  4> O 5.9838 2.0404 -0.8427
|  5> C 4.9807 1.4170 -1.2843
|  6> O 4.7662 1.3595 -2.6596
|  7> C 4.0411 0.7537 -0.3534
|  8> C 4.2791 0.7623 1.0338
|  9> C 3.3875 0.1351 1.9088
| 10> C 2.2500 -0.5039 1.4126
| 11> C 1.9958 -0.5187 0.0351
| 12> S 0.5266 -1.2827 -0.5687
| 13> O 0.5412 -2.7263 -0.1503
| 14> O 0.4825 -1.2263 -2.0702
| 15> N -0.8815 -0.4681 0.0646
| 16> C -1.6081 -1.0575 1.1983
| 17> C -2.1465 -2.4369 0.8932
| 18> C -2.6561 -2.7635 -0.3779
| 19> C -3.1827 -4.0351 -0.6232
| 20> C -3.2180 -4.9883 0.3977
| 21> C -2.7294 -4.6691 1.6667
| 22> C -2.2025 -3.3982 1.9167
| 23> C -1.0191 0.9410 -0.1990
| 24> N 0.0624 1.7520 -0.0465
| 25> C 0.0079 3.0927 -0.2545
| 26> C -1.1971 3.6985 -0.6406
| 27> C -1.3020 5.1832 -0.8805
| 28> F -1.6824 5.4134 -2.1906
| 29> F -2.2541 5.7209 -0.0327
| 30> F -0.0957 5.8237 -0.6519
| 31> C -2.3257 2.8861 -0.8119
| 32> C -2.2478 1.5071 -0.5948
| 33> Cl -3.6881 0.5377 -0.8646
| 34> C 2.8928 0.1069 -0.8453
| 35> H 5.4081 1.8051 -3.3069
| 36> H 5.1544 1.2518 1.4431
| 37> H 3.5766 0.1480 2.9754
| 38> H 1.5645 -0.9813 2.1024
| 39> H -2.4623 -0.4139 1.4975
| 40> H -0.9200 -1.0976 2.0707
| 41> H -2.6288 -2.0467 -1.1863
| 42> H -3.5627 -4.2814 -1.6063
| 43> H -3.6263 -5.9719 0.2056
| 44> H -2.7596 -5.4069 2.4583
| 45> H -1.8358 -3.1653 2.9087
| 46> H 0.9080 3.6770 -0.1180
| 47> H -3.2670 3.3271 -1.1188
| 48> H 2.6901 0.0992 -1.9099
| 49> *
| 50>
| 51>                          ****END OF INPUT****

CARTESIAN COORDINATES (ANGSTROEM)
---------------------------------
  O      5.983800    2.040400   -0.842700
  C      4.980700    1.417000   -1.284300
  O      4.766200    1.359500   -2.659600
  C      4.041100    0.753700   -0.353400
  C      4.279100    0.762300    1.033800
  C      3.387500    0.135100    1.908800
  C      2.250000   -0.503900    1.412600
  C      1.995800   -0.518700    0.035100
  S      0.526600   -1.282700   -0.568700
  O      0.541200   -2.726300   -0.150300
  O      0.482500   -1.226300   -2.070200
  N     -0.881500   -0.468100    0.064600
  C     -1.608100   -1.057500    1.198300
  C     -2.146500   -2.436900    0.893200
  C     -2.656100   -2.763500   -0.377900
  C     -3.182700   -4.035100   -0.623200
  C     -3.218000   -4.988300    0.397700
  C     -2.729400   -4.669100    1.666700
  C     -2.202500   -3.398200    1.916700
  C     -1.019100    0.941000   -0.199000
  N      0.062400    1.752000   -0.046500
  C      0.007900    3.092700   -0.254500
  C     -1.197100    3.698500   -0.640600
  C     -1.302000    5.183200   -0.880500
  F     -1.682400    5.413400   -2.190600
  F     -2.254100    5.720900   -0.032700
  F     -0.095700    5.823700   -0.651900
  C     -2.325700    2.886100   -0.811900
  C     -2.247800    1.507100   -0.594800
  Cl    -3.688100    0.537700   -0.864600
  C      2.892800    0.106900   -0.845300
  H      5.408100    1.805100   -3.306900
  H      5.154400    1.251800    1.443100
  H      3.576600    0.148000    2.975400
  H      1.564500   -0.981300    2.102400
  H     -2.462300   -0.413900    1.497500
  H     -0.920000   -1.097600    2.070700
  H     -2.628800   -2.046700   -1.186300
  H     -3.562700   -4.281400   -1.606300
  H     -3.626300   -5.971900    0.205600
  H     -2.759600   -5.406900    2.458300
  H     -1.835800   -3.165300    2.908700
  H      0.908000    3.677000   -0.118000
  H     -3.267000    3.327100   -1.118800
  H      2.690100    0.099200   -1.909900

 Total Charge           Charge          ....    0
 Multiplicity           Mult            ....    1
 Number of Electrons    NEL             ....  240
 Basis Dimension        Dim             ....  470

ORBITAL ENERGIES
----------------

  NO   OCC          E(Eh)            E(eV)
   0   2.0000    -101.556622     -2763.4962
   1   2.0000     -89.105051     -2424.6717
   2   2.0000     -24.740426      -673.2212
   3   2.0000     -24.735479      -673.0866
   4   2.0000     -24.734903      -673.0709
   5   2.0000     -19.193632      -522.2853
   6   2.0000     -19.135578      -520.7055
   7   2.0000     -19.132279      -520.6158
   8   2.0000     -19.131557      -520.5961
   9   2.0000     -14.394966      -391.7069
  10   2.0000     -14.369108      -391.0033
  11   2.0000     -10.456631      -284.5394
  12   2.0000     -10.334043      -281.2036
  13   2.0000     -10.308260      -280.5020
  14   2.0000     -10.287002      -279.9236
  15   2.0000     -10.262181      -279.2481
  16   2.0000     -10.246777      -278.8290
  17   2.0000     -10.245927      -278.8058
  18   2.0000     -10.244159      -278.7577
  19   2.0000     -10.240532      -278.6590
  20   2.0000     -10.230232      -278.3788
  21   2.0000     -10.226306      -278.2719
  22   2.0000     -10.222762      -278.1755
  23   2.0000     -10.219515      -278.0871
  24   2.0000     -10.215264      -277.9715
  25   2.0000     -10.190460      -277.2965
  26   2.0000     -10.177691      -276.9491
  27   2.0000     -10.175721      -276.8955
  28   2.0000     -10.173752      -276.8419
  29   2.0000     -10.173159      -276.8257
  30   2.0000     -10.172373      -276.8043
  31   2.0000      -9.487804      -258.1763
  32   2.0000      -8.140840      -221.5235
  33   2.0000      -7.251161      -197.3141
  34   2.0000      -7.241426      -197.0492
  35   2.0000      -7.240832      -197.0331
  36   2.0000      -6.106258      -166.1597
  37   2.0000      -6.103668      -166.0893
  38   2.0000      -6.103243      -166.0777
  39   2.0000      -1.297731       -35.3131
  40   2.0000      -1.223739       -33.2996
  41   2.0000      -1.221109       -33.2281
  42   2.0000      -1.090470       -29.6732
  43   2.0000      -1.078134       -29.3375
  44   2.0000      -0.995431       -27.0870
  45   2.0000      -0.992698       -27.0127
  46   2.0000      -0.968015       -26.3410
  47   2.0000      -0.938018       -25.5248
  48   2.0000      -0.899116       -24.4662
  49   2.0000      -0.890031       -24.2190
  50   2.0000      -0.848334       -23.0844
  51   2.0000      -0.840487       -22.8708
  52   2.0000      -0.803185       -21.8558
  53   2.0000      -0.788979       -21.4692
  54   2.0000      -0.786179       -21.3930
  55   2.0000      -0.765399       -20.8276
  56   2.0000      -0.734826       -19.9956
  57   2.0000      -0.726998       -19.7826
  58   2.0000      -0.708409       -19.2768
  59   2.0000      -0.681569       -18.5464
  60   2.0000      -0.679759       -18.4972
  61   2.0000      -0.663525       -18.0554
  62   2.0000      -0.646322       -17.5873
  63   2.0000      -0.627237       -17.0680
  64   2.0000      -0.604619       -16.4525
  65   2.0000      -0.598479       -16.2854
  66   2.0000      -0.589444       -16.0396
  67   2.0000      -0.587851       -15.9962
  68   2.0000      -0.580650       -15.8003
  69   2.0000      -0.577235       -15.7074
  70   2.0000      -0.568552       -15.4711
  71   2.0000      -0.538901       -14.6643
  72   2.0000      -0.532140       -14.4803
  73   2.0000      -0.516943       -14.0667
  74   2.0000      -0.511784       -13.9264
  75   2.0000      -0.494418       -13.4538
  76   2.0000      -0.487942       -13.2776
  77   2.0000      -0.485399       -13.2084
  78   2.0000      -0.477272       -12.9872
  79   2.0000      -0.471244       -12.8232
  80   2.0000      -0.467893       -12.7320
  81   2.0000      -0.463849       -12.6220
  82   2.0000      -0.462070       -12.5736
  83   2.0000      -0.460959       -12.5433
  84   2.0000      -0.454432       -12.3657
  85   2.0000      -0.448544       -12.2055
  86   2.0000      -0.447195       -12.1688
  87   2.0000      -0.441051       -12.0016
  88   2.0000      -0.438398       -11.9294
  89   2.0000      -0.433092       -11.7850
  90   2.0000      -0.432119       -11.7585
  91   2.0000      -0.429345       -11.6831
  92   2.0000      -0.418456       -11.3868
  93   2.0000      -0.415612       -11.3094
  94   2.0000      -0.411536       -11.1985
  95   2.0000      -0.408097       -11.1049
  96   2.0000      -0.400997       -10.9117
  97   2.0000      -0.400194       -10.8898
  98   2.0000      -0.392040       -10.6680
  99   2.0000      -0.383310       -10.4304
 100   2.0000      -0.375191       -10.2095
 101   2.0000      -0.373314       -10.1584
 102   2.0000      -0.352959        -9.6045
 103   2.0000      -0.347741        -9.4625
 104   2.0000      -0.343856        -9.3568
 105   2.0000      -0.332785        -9.0555
 106   2.0000      -0.331761        -9.0277
 107   2.0000      -0.326912        -8.8957
 108   2.0000      -0.319333        -8.6895
 109   2.0000      -0.310783        -8.4568
 110   2.0000      -0.304693        -8.2911
 111   2.0000      -0.294669        -8.0184
 112   2.0000      -0.292637        -7.9630
 113   2.0000      -0.280275        -7.6267
 114   2.0000      -0.279370        -7.6021
 115   2.0000      -0.273688        -7.4474
 116   2.0000      -0.271307        -7.3826
 117   2.0000      -0.260019        -7.0755
 118   2.0000      -0.239556        -6.5186
 119   2.0000      -0.230710        -6.2779
 120   0.0000      -0.075223        -2.0469
 121   0.0000      -0.068529        -1.8648
 122   0.0000      -0.057737        -1.5711
 123   0.0000      -0.046899        -1.2762
 124   0.0000      -0.001966        -0.0535

MULLIKEN ATOMIC CHARGES
-----------------------
   0 O :   -0.448923
   1 C :    0.529279
   2 O :   -0.621089
   3 C :    0.085581
   4 C :   -0.143144
   5 C :   -0.124010
   6 C :   -0.120435
   7 C :   -0.106506
   8 S :    1.208645
   9 O :   -0.523775
  10 O :   -0.530320
  11 N :   -0.610797
  12 C :   -0.230256
  13 C :    0.170251
  14 C :   -0.148085
  15 C :   -0.125847
  16 C :   -0.123390
  17 C :   -0.123139
  18 C :   -0.174638
  19 C :    0.425736
  20 N :   -0.399988
  21 C :   -0.002109
  22 C :   -0.032533
  23 C :    0.907222
  24 F :   -0.295819
  25 F :   -0.297948
  26 F :   -0.301552
  27 C :   -0.124732
  28 C :   -0.108423
  29 Cl:    0.038798
  30 C :   -0.165766
  31 H :    0.434483
  32 H :    0.178308
  33 H :    0.154300
  34 H :    0.164711
  35 H :    0.191198
  36 H :    0.160931
  37 H :    0.153164
  38 H :    0.130254
  39 H :    0.125377
  40 H :    0.125543
  41 H :    0.113867
  42 H :    0.185598
  43 H :    0.191962
  44 H :    0.208016
Sum of atomic charges:   -0.0000000

LOEWDIN ATOMIC CHARGES
----------------------
   0 O :   -0.265134
   1 C :    0.180897
   2 O :   -0.332916
   3 C :   -0.052967
   4 C :   -0.071656
   5 C :   -0.123226
   6 C :   -0.084341
   7 C :   -0.174209
   8 S :    1.270207
   9 O :   -0.549416
  10 O :   -0.564097
  11 N :   -0.277095
  12 C :   -0.143043
  13 C :   -0.026401
  14 C :   -0.121710
  15 C :   -0.122479
  16 C :   -0.129109
  17 C :   -0.126471
  18 C :   -0.132214
  19 C :    0.067705
  20 N :   -0.125476
  21 C :   -0.049278
  22 C :   -0.081988
  23 C :    0.313155
  24 F :   -0.109013
  25 F :   -0.110653
  26 F :   -0.107315
  27 C :   -0.083317
  28 C :   -0.100716
  29 Cl:    0.074001
  30 C :   -0.070868
  31 H :    0.350400
  32 H :    0.158393
  33 H :    0.144971
  34 H :    0.147939
  35 H :    0.152986
  36 H :    0.124949
  37 H :    0.140789
  38 H :    0.132666
  39 H :    0.130202
  40 H :    0.130389
  41 H :    0.125136
  42 H :    0.153626
  43 H :    0.164292
  44 H :    0.172404

  Mayer bond orders larger than 0.100000
B(  0-O ,  1-C ) :   1.8594 B(  1-C ,  2-O ) :   1.0262 B(  1-C ,  3-C ) :   1.0100
B(  2-O , 31-H ) :   0.7415 B(  3-C ,  4-C ) :   1.4015 B(  3-C , 30-C ) :   1.3662
B(  4-C ,  5-C ) :   1.4258 B(  4-C , 32-H ) :   0.9096 B(  5-C ,  6-C ) :   1.4435
B(  5-C , 33-H ) :   0.9263 B(  6-C ,  7-C ) :   1.3892 B(  6-C , 34-H ) :   0.9138
B(  7-C ,  8-S ) :   0.8071 B(  7-C , 30-C ) :   1.3833 B(  8-S ,  9-O ) :   1.6570
B(  8-S , 10-O ) :   1.6613 B(  8-S , 11-N ) :   0.7543 B( 11-N , 12-C ) :   0.8914
B( 11-N , 19-C ) :   0.9472 B( 12-C , 13-C ) :   0.9649 B( 12-C , 35-H ) :   0.9078
B( 12-C , 36-H ) :   0.9222 B( 13-C , 14-C ) :   1.4288 B( 13-C , 18-C ) :   1.4310
B( 14-C , 15-C ) :   1.4476 B( 14-C , 37-H ) :   0.9111 B( 15-C , 16-C ) :   1.4487
B( 15-C , 38-H ) :   0.9297 B( 16-C , 17-C ) :   1.4584 B( 16-C , 39-H ) :   0.9304
B( 17-C , 18-C ) :   1.4448 B( 17-C , 40-H ) :   0.9300 B( 18-C , 41-H ) :   0.9258
B( 19-C , 20-N ) :   1.3848 B( 19-C , 28-C ) :   1.3224 B( 20-N , 21-C ) :   1.3962
B( 21-C , 22-C ) :   1.3780 B( 21-C , 42-H ) :   0.9158 B( 22-C , 23-C ) :   0.9750
B( 22-C , 27-C ) :   1.3928 B( 23-C , 24-F ) :   0.9724 B( 23-C , 25-F ) :   0.9688
B( 23-C , 26-F ) :   0.9467 B( 27-C , 28-C ) :   1.4111 B( 27-C , 43-H ) :   0.9083
B( 28-C , 29-Cl) :   1.0505 B( 30-C , 44-H ) :   0.8944

FINAL SINGLE POINT ENERGY     -2337.827791462468

DIPOLE MOMENT
-------------

Method             : SCF
Type of density    : Electron Density
Multiplicity       :   1
Irrep              :   0
Energy             : -2337.8277914624682126 Eh
Relativity type    :
Basis              : AO
                                X                 Y                 Z
Electronic contribution:     -8.392167615      34.420791464     -11.384334370
Nuclear contribution   :      7.945804918     -33.442966707      12.566064514
                        -----------------------------------------
Total Dipole Moment    :     -0.446362697       0.977824757       1.181730145
                        -----------------------------------------
Magnitude (a.u.)       :      1.597456430
Magnitude (Debye)      :      4.060411560

Rotational constants in cm-1:             0.004524             0.003437             0.002196
Rotational constants in MHz :           135.611187           103.041272            65.822149

                             ****ORCA TERMINATED NORMALLY****
TOTAL RUN TIME: 0 days 0 hours 5 minutes 25 seconds 527 msec
