                         Program Version 6.0.0  -   RELEASE  -
|  1> ! B3LYP 6-31G* SP
|  2>
|  3> * xyz 0 1
|  4> N 8.1467 1.3156 -0.7629
|  5> C 7.0110 1.0957 -0.7291
|  6> C 5.5983 0.8222 -0.6871
|  7> C 4.9025 0.5408 -1.8680
|  8> C 3.5302 0.2765 -1.8282
|  9> C 2.8364 0.2828 -0.6040
| 10> C 1.3798 0.0092 -0.5709
| 11> O 0.7055 0.1298 -1.6296
| 12> N 0.7444 -0.4485 0.6379
| 13> C -0.5737 -0.0176 1.1318
| 14> C -1.4256 0.7264 0.1072
| 15> C -1.1098 2.0644 -0.1914
| 16> C -1.8549 2.7839 -1.1288
| 17> C -2.9288 2.1792 -1.8005
| 18> C -3.7630 2.9703 -2.7763
| 19> F -2.9925 3.9267 -3.4149
| 20> F -4.7874 3.5992 -2.0939
| 21> F -4.3067 2.1392 -3.7405
| 22> C -3.2735 0.8568 -1.4785
| 23> C -2.5284 0.1355 -0.5416
| 24> C -1.3171 -1.1434 1.8408
| 25> N -2.0116 -0.7831 2.9582
| 26> C -2.7241 -1.6626 3.7037
| 27> C -2.7635 -3.0024 3.3443
| 28> C -2.0829 -3.4228 2.2056
| 29> C -1.3702 -2.5068 1.4050
| 30> C -0.6462 -3.0430 0.1796
| 31> F -0.7422 -2.1725 -0.8859
| 32> F 0.6850 -3.2560 0.4840
| 33> F -1.1904 -4.2474 -0.2339
| 34> C 3.5432 0.5776 0.5767
| 35> C 4.9156 0.8426 0.5342
| 36> H 5.4204 0.5256 -2.8196
| 37> H 3.0137 0.0577 -2.7546
| 38> H 1.3490 -0.9390 1.3350
| 39> H -0.3531 0.7304 1.9272
| 40> H -0.2768 2.5512 0.3013
| 41> H -1.5905 3.8149 -1.3278
| 42> H -4.1245 0.3802 -1.9489
| 43> H -2.8333 -0.8772 -0.3207
| 44> H -3.2526 -1.3193 4.5830
| 45> H -3.3176 -3.7127 3.9444
| 46> H -2.1201 -4.4747 1.9527
| 47> H 3.0368 0.6255 1.5318
| 48> H 5.4427 1.0689 1.4533
| 49> *
| 50>
| 51>                          ****END OF INPUT****

CARTESIAN COORDINATES (ANGSTROEM)
---------------------------------
  N      8.146700    1.315600   -0.762900
  C      7.011000    1.095700   -0.729100
  C      5.598300    0.822200   -0.687100
  C      4.902500    0.540800   -1.868000
  C      3.530200    0.276500   -1.828200
  C      2.836400    0.282800   -0.604000
  C      1.379800    0.009200   -0.570900
  O      0.705500    0.129800   -1.629600
  N      0.744400   -0.448500    0.637900
  C     -0.573700   -0.017600    1.131800
  C     -1.425600    0.726400    0.107200
  C     -1.109800    2.064400   -0.191400
  C     -1.854900    2.783900   -1.128800
  C     -2.928800    2.179200   -1.800500
  C     -3.763000    2.970300   -2.776300
  F     -2.992500    3.926700   -3.414900
  F     -4.787400    3.599200   -2.093900
  F     -4.306700    2.139200   -3.740500
  C     -3.273500    0.856800   -1.478500
  C     -2.528400    0.135500   -0.541600
  C     -1.317100   -1.143400    1.840800
  N     -2.011600   -0.783100    2.958200
  C     -2.724100   -1.662600    3.703700
  C     -2.763500   -3.002400    3.344300
  C     -2.082900   -3.422800    2.205600
  C     -1.370200   -2.506800    1.405000
  C     -0.646200   -3.043000    0.179600
  F     -0.742200   -2.172500   -0.885900
  F      0.685000   -3.256000    0.484000
  F     -1.190400   -4.247400   -0.233900
  C      3.543200    0.577600    0.576700
  C      4.915600    0.842600    0.534200
  H      5.420400    0.525600   -2.819600
  H      3.013700    0.057700   -2.754600
  H      1.349000   -0.939000    1.335000
  H     -0.353100    0.730400    1.927200
  H     -0.276800    2.551200    0.301300
  H     -1.590500    3.814900   -1.327800
  H     -4.124500    0.380200   -1.948900
  H     -2.833300   -0.877200   -0.320700
  H     -3.252600   -1.319300    4.583000
  H     -3.317600   -3.712700    3.944400
  H     -2.120100   -4.474700    1.952700
  H      3.036800    0.625500    1.531800
  H      5.442700    1.068900    1.453300

 Total Charge           Charge          ....    0
 Multiplicity           Mult            ....    1
 Number of Electrons    NEL             ....  228
 Basis Dimension        Dim             ....  474

ORBITAL ENERGIES
----------------

  NO   OCC          E(Eh)            E(eV)
   0   2.0000     -24.730377      -672.9478
   1   2.0000     -24.728917      -672.9080
   2   2.0000     -24.724519      -672.7884
   3   2.0000     -24.712447      -672.4599
   4   2.0000     -24.712408      -672.4588
   5   2.0000     -24.709360      -672.3759
   6   2.0000     -19.124834      -520.4132
   7   2.0000     -14.365992      -390.9185
   8   2.0000     -14.353904      -390.5896
   9   2.0000     -14.340402      -390.2222
  10   2.0000     -10.448403      -284.3155
  11   2.0000     -10.427556      -283.7482
  12   2.0000     -10.304158      -280.3904
  13   2.0000     -10.265167      -279.3294
  14   2.0000     -10.255856      -279.0760
  15   2.0000     -10.246572      -278.8234
  16   2.0000     -10.246078      -278.8100
  17   2.0000     -10.239995      -278.6444
  18   2.0000     -10.231175      -278.4044
  19   2.0000     -10.229117      -278.3484
  20   2.0000     -10.226194      -278.2689
  21   2.0000     -10.221785      -278.1489
  22   2.0000     -10.220043      -278.1015
  23   2.0000     -10.219561      -278.0884
  24   2.0000     -10.216567      -278.0069
  25   2.0000     -10.214464      -277.9497
  26   2.0000     -10.211416      -277.8668
  27   2.0000     -10.206895      -277.7437
  28   2.0000     -10.196751      -277.4677
  29   2.0000     -10.196216      -277.4531
  30   2.0000     -10.194890      -277.4171
  31   2.0000     -10.193073      -277.3676
  32   2.0000      -1.290921       -35.1278
  33   2.0000      -1.272437       -34.6248
  34   2.0000      -1.215947       -33.0876
  35   2.0000      -1.212257       -32.9872
  36   2.0000      -1.197784       -32.5934
  37   2.0000      -1.196970       -32.5712
  38   2.0000      -1.023493       -27.8507
  39   2.0000      -0.961282       -26.1578
  40   2.0000      -0.920663       -25.0525
  41   2.0000      -0.914353       -24.8808
  42   2.0000      -0.885904       -24.1067
  43   2.0000      -0.865967       -23.5642
  44   2.0000      -0.835937       -22.7470
  45   2.0000      -0.816142       -22.2083
  46   2.0000      -0.798704       -21.7338
  47   2.0000      -0.785571       -21.3765
  48   2.0000      -0.777485       -21.1565
  49   2.0000      -0.754890       -20.5416
  50   2.0000      -0.735358       -20.0101
  51   2.0000      -0.710477       -19.3331
  52   2.0000      -0.686216       -18.6729
  53   2.0000      -0.672360       -18.2958
  54   2.0000      -0.650486       -17.7006
  55   2.0000      -0.640622       -17.4322
  56   2.0000      -0.635829       -17.3018
  57   2.0000      -0.619740       -16.8640
  58   2.0000      -0.609749       -16.5921
  59   2.0000      -0.583772       -15.8853
  60   2.0000      -0.581390       -15.8204
  61   2.0000      -0.576050       -15.6751
  62   2.0000      -0.574264       -15.6265
  63   2.0000      -0.569979       -15.5099
  64   2.0000      -0.563429       -15.3317
  65   2.0000      -0.560085       -15.2407
  66   2.0000      -0.555596       -15.1185
  67   2.0000      -0.545028       -14.8310
  68   2.0000      -0.524152       -14.2629
  69   2.0000      -0.515596       -14.0301
  70   2.0000      -0.495712       -13.4890
  71   2.0000      -0.489595       -13.3226
  72   2.0000      -0.478563       -13.0224
  73   2.0000      -0.474304       -12.9065
  74   2.0000      -0.464376       -12.6363
  75   2.0000      -0.462076       -12.5737
  76   2.0000      -0.458607       -12.4793
  77   2.0000      -0.456277       -12.4159
  78   2.0000      -0.451129       -12.2758
  79   2.0000      -0.446377       -12.1465
  80   2.0000      -0.441139       -12.0040
  81   2.0000      -0.438864       -11.9421
  82   2.0000      -0.436217       -11.8701
  83   2.0000      -0.431574       -11.7437
  84   2.0000      -0.429750       -11.6941
  85   2.0000      -0.425919       -11.5898
  86   2.0000      -0.423469       -11.5232
  87   2.0000      -0.416924       -11.3451
  88   2.0000      -0.415759       -11.3134
  89   2.0000      -0.413820       -11.2606
  90   2.0000      -0.411563       -11.1992
  91   2.0000      -0.405063       -11.0223
  92   2.0000      -0.402248       -10.9457
  93   2.0000      -0.399560       -10.8726
  94   2.0000      -0.394061       -10.7229
  95   2.0000      -0.391159       -10.6440
  96   2.0000      -0.382503       -10.4084
  97   2.0000      -0.381680       -10.3860
  98   2.0000      -0.376466       -10.2442
  99   2.0000      -0.364735        -9.9249
 100   2.0000      -0.361923        -9.8484
 101   2.0000      -0.354052        -9.6343
 102   2.0000      -0.351860        -9.5746
 103   2.0000      -0.344231        -9.3670
 104   2.0000      -0.337021        -9.1708
 105   2.0000      -0.308919        -8.4061
 106   2.0000      -0.291514        -7.9325
 107   2.0000      -0.282361        -7.6834
 108   2.0000      -0.278457        -7.5772
 109   2.0000      -0.272741        -7.4217
 110   2.0000      -0.265851        -7.2342
 111   2.0000      -0.257842        -7.0162
 112   2.0000      -0.254330        -6.9207
 113   2.0000      -0.242937        -6.6107
 114   0.0000      -0.079961        -2.1759
 115   0.0000      -0.056878        -1.5477
 116   0.0000      -0.051297        -1.3959
 117   0.0000      -0.033429        -0.9097
 118   0.0000      -0.025533        -0.6948

MULLIKEN ATOMIC CHARGES
-----------------------
   0 N :   -0.298309
   1 C :    0.086655
   2 C :    0.130124
   3 C :   -0.140242
   4 C :   -0.152342
   5 C :    0.096886
   6 C :    0.498150
   7 O :   -0.451341
   8 N :   -0.643886
   9 C :   -0.060499
  10 C :    0.178540
  11 C :   -0.152890
  12 C :   -0.156487
  13 C :   -0.006762
  14 C :    0.892521
  15 F :   -0.305706
  16 F :   -0.298142
  17 F :   -0.305469
  18 C :   -0.166357
  19 C :   -0.144936
  20 C :    0.193338
  21 N :   -0.399786
  22 C :    0.027213
  23 C :   -0.132525
  24 C :   -0.130138
  25 C :   -0.081816
  26 C :    0.941233
  27 F :   -0.279682
  28 F :   -0.304827
  29 F :   -0.305651
  30 C :   -0.179009
  31 C :   -0.139462
  32 H :    0.166805
  33 H :    0.178888
  34 H :    0.320478
  35 H :    0.172453
  36 H :    0.131766
  37 H :    0.151034
  38 H :    0.150970
  39 H :    0.131264
  40 H :    0.164020
  41 H :    0.149981
  42 H :    0.171035
  43 H :    0.141148
  44 H :    0.161764
Sum of atomic charges:    0.0000000

LOEWDIN ATOMIC CHARGES
----------------------
   0 N :   -0.086445
   1 C :   -0.006546
   2 C :   -0.042777
   3 C :   -0.097970
   4 C :   -0.086167
   5 C :   -0.036977
   6 C :    0.137886
   7 O :   -0.250171
   8 N :   -0.250892
   9 C :   -0.046227
  10 C :    0.005756
  11 C :   -0.114911
  12 C :   -0.109225
  13 C :   -0.065375
  14 C :    0.309917
  15 F :   -0.113866
  16 F :   -0.115372
  17 F :   -0.113699
  18 C :   -0.110292
  19 C :   -0.115796
  20 C :    0.040256
  21 N :   -0.126754
  22 C :   -0.053112
  23 C :   -0.140889
  24 C :   -0.088025
  25 C :   -0.084421
  26 C :    0.309017
  27 F :   -0.086867
  28 F :   -0.114020
  29 F :   -0.111536
  30 C :   -0.119390
  31 C :   -0.100845
  32 H :    0.151882
  33 H :    0.159663
  34 H :    0.248476
  35 H :    0.144352
  36 H :    0.133526
  37 H :    0.143340
  38 H :    0.143139
  39 H :    0.136143
  40 H :    0.142319
  41 H :    0.143516
  42 H :    0.151749
  43 H :    0.138423
  44 H :    0.149208

  Mayer bond orders larger than 0.100000
B(  0-N ,  1-C ) :   3.0169 B(  1-C ,  2-C ) :   0.9813 B(  2-C ,  3-C ) :   1.3913
B(  2-C , 31-C ) :   1.4085 B(  3-C ,  4-C ) :   1.4228 B(  3-C , 32-H ) :   0.9218
B(  4-C ,  5-C ) :   1.3949 B(  4-C , 33-H ) :   0.9087 B(  5-C ,  6-C ) :   0.9863
B(  5-C , 30-C ) :   1.3852 B(  6-C ,  7-O ) :   1.8115 B(  6-C ,  8-N ) :   1.0120
B(  8-N ,  9-C ) :   0.9017 B(  8-N , 34-H ) :   0.8203 B(  9-C , 10-C ) :   0.9756
B(  9-C , 20-C ) :   0.9486 B(  9-C , 35-H ) :   0.9037 B( 10-C , 11-C ) :   1.4016
B( 10-C , 19-C ) :   1.4379 B( 11-C , 12-C ) :   1.4359 B( 11-C , 36-H ) :   0.9248
B( 12-C , 13-C ) :   1.4108 B( 12-C , 37-H ) :   0.9194 B( 13-C , 14-C ) :   0.9793
B( 13-C , 18-C ) :   1.4122 B( 14-C , 15-F ) :   0.9480 B( 14-C , 16-F ) :   0.9846
B( 14-C , 17-F ) :   0.9485 B( 18-C , 19-C ) :   1.4277 B( 18-C , 38-H ) :   0.9196
B( 19-C , 39-H ) :   0.9141 B( 20-C , 21-N ) :   1.3948 B( 20-C , 25-C ) :   1.3482
B( 21-N , 22-C ) :   1.4194 B( 22-C , 23-C ) :   1.4209 B( 22-C , 40-H ) :   0.9265
B( 23-C , 24-C ) :   1.4381 B( 23-C , 41-H ) :   0.9227 B( 24-C , 25-C ) :   1.4000
B( 24-C , 42-H ) :   0.9156 B( 25-C , 26-C ) :   0.9639 B( 26-C , 27-F ) :   0.9485
B( 26-C , 28-F ) :   0.9493 B( 26-C , 29-F ) :   0.9400 B( 30-C , 31-C ) :   1.4243
B( 30-C , 43-H ) :   0.9172 B( 31-C , 44-H ) :   0.9218

FINAL SINGLE POINT ENERGY     -1683.792016671966

DIPOLE MOMENT
-------------

Method             : SCF
Type of density    : Electron Density
Multiplicity       :   1
Irrep              :   0
Energy             : -1683.7920166719657118 Eh
Relativity type    :
Basis              : AO
                                X                 Y                 Z
Electronic contribution:    -14.966604775       0.355626988     -16.597305183
Nuclear contribution   :     13.974007494      -1.724266651      18.842124921
                        -----------------------------------------
Total Dipole Moment    :     -0.992597280      -1.368639663       2.244819738
                        -----------------------------------------
Magnitude (a.u.)       :      2.810273927
Magnitude (Debye)      :      7.143148648

Rotational constants in cm-1:             0.004574             0.003021             0.002097
Rotational constants in MHz :           137.130027            90.572890            62.863521

                             ****ORCA TERMINATED NORMALLY****
TOTAL RUN TIME: 0 days 0 hours 8 minutes 20 seconds 343 msec
