                         Program Version 6.0.0  -   RELEASE  -
|  1> ! B3LYP 6-31G* SP
|  2>
|  3> * xyz 0 1
|  4> C -1.5796 -1.3848 -2.4110
|  5> C -1.3101 -1.7348 -0.9371
|  6> C -1.8826 -3.0749 -0.5058
|  7> C -1.2289 -3.7961 0.5097
|  8> C -1.7503 -5.0083 0.9701
|  9> C -2.9405 -5.5062 0.4362
| 10> F -3.4497 -6.6771 0.8901
| 11> C -3.6059 -4.7967 -0.5652
| 12> C -3.0861 -3.5872 -1.0332
| 13> N -1.7718 -0.6625 -0.0269
| 14> C -3.2141 -0.3837 0.1134
| 15> C -3.5145 1.0933 0.0115
| 16> C -4.4819 1.6719 0.8536
| 17> C -4.8341 3.0188 0.7111
| 18> C -4.2283 3.7981 -0.2790
| 19> C -3.2591 3.2419 -1.1307
| 20> C -2.6207 4.0716 -2.1761
| 21> O -1.7050 3.5937 -2.8993
| 22> O -3.0285 5.3867 -2.3763
| 23> C -2.9188 1.8835 -0.9847
| 24> C -0.8622 -0.1203 0.9628
| 25> O -1.2883 0.1639 2.1170
| 26> C 0.5611 0.1294 0.6512
| 27> C 0.9336 0.6823 -0.5822
| 28> C 2.2822 0.8841 -0.8880
| 29> C 3.2793 0.5442 0.0362
| 30> O 4.6220 0.7162 -0.3322
| 31> C 5.6947 0.9093 0.5521
| 32> C 6.9497 0.3869 0.2120
| 33> C 8.0470 0.5778 1.0577
| 34> C 7.9007 1.3016 2.2420
| 35> C 6.6577 1.8427 2.5816
| 36> C 5.5560 1.6509 1.7403
| 37> C 2.9091 -0.0142 1.2735
| 38> C 1.5587 -0.2058 1.5832
| 39> H -2.6397 -1.1160 -2.5957
| 40> H -0.9519 -0.5219 -2.7168
| 41> H -1.3082 -2.2441 -3.0608
| 42> H -0.2041 -1.8351 -0.8749
| 43> H -0.3141 -3.4155 0.9505
| 44> H -1.2320 -5.5578 1.7478
| 45> H -4.5317 -5.1791 -0.9733
| 46> H -3.6327 -3.0574 -1.8004
| 47> H -3.5631 -0.7917 1.0893
| 48> H -3.8064 -0.8992 -0.6719
| 49> H -4.9766 1.0782 1.6133
| 50> H -5.5899 3.4489 1.3520
| 51> H -4.5236 4.8342 -0.3786
| 52> H -2.5965 5.9615 -3.0907
| 53> H -2.2010 1.4310 -1.6594
| 54> H 0.1815 0.9706 -1.3038
| 55> H 2.5544 1.3053 -1.8478
| 56> H 7.0726 -0.1695 -0.7077
| 57> H 9.0135 0.1722 0.7885
| 58> H 8.7521 1.4503 2.8916
| 59> H 6.5469 2.4103 3.4942
| 60> H 4.6057 2.0957 2.0040
| 61> H 3.6603 -0.3245 1.9885
| 62> H 1.2936 -0.6425 2.5358
| 63> *
| 64>
| 65>                          ****END OF INPUT****

CARTESIAN COORDINATES (ANGSTROEM)
---------------------------------
  C     -1.579600   -1.384800   -2.411000
  C     -1.310100   -1.734800   -0.937100
  C     -1.882600   -3.074900   -0.505800
  C     -1.228900   -3.796100    0.509700
  C     -1.750300   -5.008300    0.970100
  C     -2.940500   -5.506200    0.436200
  F     -3.449700   -6.677100    0.890100
  C     -3.605900   -4.796700   -0.565200
  C     -3.086100   -3.587200   -1.033200
  N     -1.771800   -0.662500   -0.026900
  C     -3.214100   -0.383700    0.113400
  C     -3.514500    1.093300    0.011500
  C     -4.481900    1.671900    0.853600
  C     -4.834100    3.018800    0.711100
  C     -4.228300    3.798100   -0.279000
  C     -3.259100    3.241900   -1.130700
  C     -2.620700    4.071600   -2.176100
  O     -1.705000    3.593700   -2.899300
  O     -3.028500    5.386700   -2.376300
  C     -2.918800    1.883500   -0.984700
  C     -0.862200   -0.120300    0.962800
  O     -1.288300    0.163900    2.117000
  C      0.561100    0.129400    0.651200
  C      0.933600    0.682300   -0.582200
  C      2.282200    0.884100   -0.888000
  C      3.279300    0.544200    0.036200
  O      4.622000    0.716200   -0.332200
  C      5.694700    0.909300    0.552100
  C      6.949700    0.386900    0.212000
  C      8.047000    0.577800    1.057700
  C      7.900700    1.301600    2.242000
  C      6.657700    1.842700    2.581600
  C      5.556000    1.650900    1.740300
  C      2.909100   -0.014200    1.273500
  C      1.558700   -0.205800    1.583200
  H     -2.639700   -1.116000   -2.595700
  H     -0.951900   -0.521900   -2.716800
  H     -1.308200   -2.244100   -3.060800
  H     -0.204100   -1.835100   -0.874900
  H     -0.314100   -3.415500    0.950500
  H     -1.232000   -5.557800    1.747800
  H     -4.531700   -5.179100   -0.973300
  H     -3.632700   -3.057400   -1.800400
  H     -3.563100   -0.791700    1.089300
  H     -3.806400   -0.899200   -0.671900
  H     -4.976600    1.078200    1.613300
  H     -5.589900    3.448900    1.352000
  H     -4.523600    4.834200   -0.378600
  H     -2.596500    5.961500   -3.090700
  H     -2.201000    1.431000   -1.659400
  H      0.181500    0.970600   -1.303800
  H      2.554400    1.305300   -1.847800
  H      7.072600   -0.169500   -0.707700
  H      9.013500    0.172200    0.788500
  H      8.752100    1.450300    2.891600
  H      6.546900    2.410300    3.494200
  H      4.605700    2.095700    2.004000
  H      3.660300   -0.324500    1.988500
  H      1.293600   -0.642500    2.535800

 Total Charge           Charge          ....    0
 Multiplicity           Mult            ....    1
 Number of Electrons    NEL             ....  246
 Basis Dimension        Dim             ....  538

ORBITAL ENERGIES
----------------

  NO   OCC          E(Eh)            E(eV)
   0   2.0000     -24.698906      -672.0914
   1   2.0000     -19.187280      -522.1124
   2   2.0000     -19.181526      -521.9558
   3   2.0000     -19.121509      -520.3227
   4   2.0000     -19.107908      -519.9526
   5   2.0000     -14.351624      -390.5275
   6   2.0000     -10.318977      -280.7936
   7   2.0000     -10.283720      -279.8342
   8   2.0000     -10.269803      -279.4555
   9   2.0000     -10.259975      -279.1881
  10   2.0000     -10.253265      -279.0055
  11   2.0000     -10.231011      -278.3999
  12   2.0000     -10.222319      -278.1635
  13   2.0000     -10.206140      -277.7232
  14   2.0000     -10.198541      -277.5164
  15   2.0000     -10.196336      -277.4564
  16   2.0000     -10.195864      -277.4436
  17   2.0000     -10.194922      -277.4179
  18   2.0000     -10.194830      -277.4154
  19   2.0000     -10.194741      -277.4130
  20   2.0000     -10.193580      -277.3814
  21   2.0000     -10.192270      -277.3458
  22   2.0000     -10.191970      -277.3376
  23   2.0000     -10.191699      -277.3302
  24   2.0000     -10.191631      -277.3284
  25   2.0000     -10.191283      -277.3189
  26   2.0000     -10.190731      -277.3039
  27   2.0000     -10.190156      -277.2882
  28   2.0000     -10.188148      -277.2336
  29   2.0000     -10.187896      -277.2268
  30   2.0000     -10.187824      -277.2248
  31   2.0000     -10.186678      -277.1936
  32   2.0000     -10.186340      -277.1844
  33   2.0000     -10.181457      -277.0515
  34   2.0000     -10.180293      -277.0199
  35   2.0000      -1.212241       -32.9867
  36   2.0000      -1.066369       -29.0174
  37   2.0000      -1.064758       -28.9735
  38   2.0000      -1.006858       -27.3980
  39   2.0000      -0.979748       -26.6603
  40   2.0000      -0.920532       -25.0489
  41   2.0000      -0.863670       -23.5017
  42   2.0000      -0.862893       -23.4805
  43   2.0000      -0.856704       -23.3121
  44   2.0000      -0.848329       -23.0842
  45   2.0000      -0.790906       -21.5217
  46   2.0000      -0.775009       -21.0891
  47   2.0000      -0.766147       -20.8479
  48   2.0000      -0.756872       -20.5955
  49   2.0000      -0.755733       -20.5645
  50   2.0000      -0.753348       -20.4996
  51   2.0000      -0.747510       -20.3408
  52   2.0000      -0.733149       -19.9500
  53   2.0000      -0.725601       -19.7446
  54   2.0000      -0.690763       -18.7966
  55   2.0000      -0.658099       -17.9078
  56   2.0000      -0.648739       -17.6531
  57   2.0000      -0.636668       -17.3246
  58   2.0000      -0.623137       -16.9564
  59   2.0000      -0.620085       -16.8734
  60   2.0000      -0.609517       -16.5858
  61   2.0000      -0.600191       -16.3320
  62   2.0000      -0.592118       -16.1123
  63   2.0000      -0.589578       -16.0432
  64   2.0000      -0.584353       -15.9011
  65   2.0000      -0.553657       -15.0658
  66   2.0000      -0.547340       -14.8939
  67   2.0000      -0.540941       -14.7197
  68   2.0000      -0.526082       -14.3154
  69   2.0000      -0.514133       -13.9903
  70   2.0000      -0.497986       -13.5509
  71   2.0000      -0.493886       -13.4393
  72   2.0000      -0.487692       -13.2708
  73   2.0000      -0.482693       -13.1347
  74   2.0000      -0.477111       -12.9829
  75   2.0000      -0.471302       -12.8248
  76   2.0000      -0.463369       -12.6089
  77   2.0000      -0.456534       -12.4229
  78   2.0000      -0.454587       -12.3699
  79   2.0000      -0.454340       -12.3632
  80   2.0000      -0.450726       -12.2649
  81   2.0000      -0.447035       -12.1644
  82   2.0000      -0.444133       -12.0855
  83   2.0000      -0.435327       -11.8459
  84   2.0000      -0.431505       -11.7418
  85   2.0000      -0.429005       -11.6738
  86   2.0000      -0.427116       -11.6224
  87   2.0000      -0.425561       -11.5801
  88   2.0000      -0.424661       -11.5556
  89   2.0000      -0.423041       -11.5115
  90   2.0000      -0.408355       -11.1119
  91   2.0000      -0.404267       -11.0007
  92   2.0000      -0.402146       -10.9430
  93   2.0000      -0.398266       -10.8374
  94   2.0000      -0.396652       -10.7935
  95   2.0000      -0.388494       -10.5715
  96   2.0000      -0.384980       -10.4758
  97   2.0000      -0.375027       -10.2050
  98   2.0000      -0.367078        -9.9887
  99   2.0000      -0.364288        -9.9128
 100   2.0000      -0.362981        -9.8772
 101   2.0000      -0.361098        -9.8260
 102   2.0000      -0.358054        -9.7431
 103   2.0000      -0.356452        -9.6995
 104   2.0000      -0.355243        -9.6666
 105   2.0000      -0.347483        -9.4555
 106   2.0000      -0.346683        -9.4337
 107   2.0000      -0.341689        -9.2978
 108   2.0000      -0.338017        -9.1979
 109   2.0000      -0.333622        -9.0783
 110   2.0000      -0.325321        -8.8524
 111   2.0000      -0.302429        -8.2295
 112   2.0000      -0.261214        -7.1080
 113   2.0000      -0.260005        -7.0751
 114   2.0000      -0.259800        -7.0695
 115   2.0000      -0.259041        -7.0489
 116   2.0000      -0.254287        -6.9195
 117   2.0000      -0.252309        -6.8657
 118   2.0000      -0.250412        -6.8141
 119   2.0000      -0.248423        -6.7599
 120   2.0000      -0.238191        -6.4815
 121   2.0000      -0.222881        -6.0649
 122   2.0000      -0.217108        -5.9078
 123   0.0000      -0.049528        -1.3477
 124   0.0000      -0.035499        -0.9660
 125   0.0000      -0.014098        -0.3836
 126   0.0000      -0.012659        -0.3445
 127   0.0000      -0.006748        -0.1836

MULLIKEN ATOMIC CHARGES
-----------------------
   0 C :   -0.457349
   1 C :   -0.086345
   2 C :    0.166981
   3 C :   -0.160187
   4 C :   -0.207483
   5 C :    0.412175
   6 F :   -0.318071
   7 C :   -0.212280
   8 C :   -0.164649
   9 N :   -0.418171
  10 C :   -0.212763
  11 C :    0.152052
  12 C :   -0.156466
  13 C :   -0.126982
  14 C :   -0.161150
  15 C :    0.088537
  16 C :    0.519045
  17 O :   -0.462468
  18 O :   -0.624931
  19 C :   -0.204327
  20 C :    0.444538
  21 O :   -0.469614
  22 C :    0.075203
  23 C :   -0.162472
  24 C :   -0.184721
  25 C :    0.358235
  26 O :   -0.557128
  27 C :    0.344119
  28 C :   -0.174001
  29 C :   -0.125745
  30 C :   -0.129539
  31 C :   -0.127888
  32 C :   -0.185887
  33 C :   -0.193683
  34 C :   -0.151478
  35 H :    0.147223
  36 H :    0.159714
  37 H :    0.153878
  38 H :    0.163692
  39 H :    0.140980
  40 H :    0.146472
  41 H :    0.144335
  42 H :    0.134824
  43 H :    0.174092
  44 H :    0.165249
  45 H :    0.137909
  46 H :    0.136778
  47 H :    0.154506
  48 H :    0.427609
  49 H :    0.164540
  50 H :    0.165280
  51 H :    0.151140
  52 H :    0.141195
  53 H :    0.135493
  54 H :    0.128781
  55 H :    0.136486
  56 H :    0.152106
  57 H :    0.155995
  58 H :    0.156616
Sum of atomic charges:    0.0000000

LOEWDIN ATOMIC CHARGES
----------------------
   0 C :   -0.363633
   1 C :   -0.057412
   2 C :   -0.032687
   3 C :   -0.117505
   4 C :   -0.153945
   5 C :    0.115704
   6 F :   -0.103946
   7 C :   -0.157294
   8 C :   -0.129258
   9 N :   -0.108403
  10 C :   -0.141930
  11 C :   -0.020821
  12 C :   -0.103861
  13 C :   -0.127769
  14 C :   -0.106321
  15 C :   -0.057412
  16 C :    0.179266
  17 O :   -0.278972
  18 O :   -0.336801
  19 C :   -0.096608
  20 C :    0.143204
  21 O :   -0.274066
  22 C :   -0.061150
  23 C :   -0.111582
  24 C :   -0.145155
  25 C :    0.097064
  26 O :   -0.138466
  27 C :    0.084275
  28 C :   -0.145321
  29 C :   -0.121673
  30 C :   -0.140399
  31 C :   -0.122774
  32 C :   -0.157870
  33 C :   -0.160518
  34 C :   -0.097416
  35 H :    0.123165
  36 H :    0.131226
  37 H :    0.132082
  38 H :    0.142057
  39 H :    0.137909
  40 H :    0.144085
  41 H :    0.142959
  42 H :    0.134742
  43 H :    0.138457
  44 H :    0.138918
  45 H :    0.137117
  46 H :    0.135998
  47 H :    0.145266
  48 H :    0.345386
  49 H :    0.147391
  50 H :    0.146331
  51 H :    0.146619
  52 H :    0.141592
  53 H :    0.135516
  54 H :    0.132008
  55 H :    0.135570
  56 H :    0.143352
  57 H :    0.146028
  58 H :    0.147681

  Mayer bond orders larger than 0.100000
B(  0-C ,  1-C ) :   0.9914 B(  0-C , 35-H ) :   0.9366 B(  0-C , 36-H ) :   0.9366
B(  0-C , 37-H ) :   0.9405 B(  1-C ,  2-C ) :   0.9556 B(  1-C ,  9-N ) :   0.9485
B(  1-C , 38-H ) :   0.9139 B(  2-C ,  3-C ) :   1.4210 B(  2-C ,  8-C ) :   1.4224
B(  3-C ,  4-C ) :   1.4251 B(  3-C , 39-H ) :   0.9218 B(  4-C ,  5-C ) :   1.3910
B(  4-C , 40-H ) :   0.9202 B(  5-C ,  6-F ) :   0.9176 B(  5-C ,  7-C ) :   1.3965
B(  7-C ,  8-C ) :   1.4183 B(  7-C , 41-H ) :   0.9206 B(  8-C , 42-H ) :   0.9201
B(  9-N , 10-C ) :   0.9239 B(  9-N , 20-C ) :   1.0305 B( 10-C , 11-C ) :   0.9670
B( 10-C , 43-H ) :   0.9149 B( 10-C , 44-H ) :   0.9148 B( 11-C , 12-C ) :   1.4170
B( 11-C , 19-C ) :   1.4057 B( 12-C , 13-C ) :   1.4344 B( 12-C , 45-H ) :   0.9222
B( 13-C , 14-C ) :   1.4313 B( 13-C , 46-H ) :   0.9292 B( 14-C , 15-C ) :   1.3839
B( 14-C , 47-H ) :   0.9185 B( 15-C , 16-C ) :   1.0126 B( 15-C , 19-C ) :   1.3825
B( 16-C , 17-O ) :   1.8490 B( 16-C , 18-O ) :   1.0202 B( 18-O , 48-H ) :   0.7457
B( 19-C , 49-H ) :   0.8980 B( 20-C , 21-O ) :   1.8157 B( 20-C , 22-C ) :   0.9708
B( 22-C , 23-C ) :   1.3899 B( 22-C , 34-C ) :   1.3986 B( 23-C , 24-C ) :   1.4304
B( 23-C , 50-H ) :   0.9085 B( 24-C , 25-C ) :   1.4057 B( 24-C , 51-H ) :   0.9190
B( 25-C , 26-O ) :   0.8915 B( 25-C , 33-C ) :   1.3656 B( 26-O , 27-C ) :   0.8674
B( 27-C , 28-C ) :   1.4207 B( 27-C , 32-C ) :   1.3844 B( 28-C , 29-C ) :   1.4409
B( 28-C , 52-H ) :   0.9209 B( 29-C , 30-C ) :   1.4546 B( 29-C , 53-H ) :   0.9293
B( 30-C , 31-C ) :   1.4502 B( 30-C , 54-H ) :   0.9303 B( 31-C , 32-C ) :   1.4463
B( 31-C , 55-H ) :   0.9289 B( 32-C , 56-H ) :   0.9149 B( 33-C , 34-C ) :   1.4347
B( 33-C , 57-H ) :   0.9123 B( 34-C , 58-H ) :   0.9181

FINAL SINGLE POINT ENERGY     -1574.072928823194

DIPOLE MOMENT
-------------

Method             : SCF
Type of density    : Electron Density
Multiplicity       :   1
Irrep              :   0
Energy             : -1574.0729288231941609 Eh
Relativity type    :
Basis              : AO
                                X                 Y                 Z
Electronic contribution:     -6.892684120      -5.718915358       2.566914801
Nuclear contribution   :      7.024279401       5.865954791      -2.929342499
                        -----------------------------------------
Total Dipole Moment    :      0.131595281       0.147039433      -0.362427698
                        -----------------------------------------
Magnitude (a.u.)       :      0.412664209
Magnitude (Debye)      :      1.048909060

Rotational constants in cm-1:             0.003700             0.002157             0.001514
Rotational constants in MHz :           110.909006            64.665972            45.376750

                             ****ORCA TERMINATED NORMALLY****
TOTAL RUN TIME: 0 days 0 hours 6 minutes 2 seconds 562 msec
