                         Program Version 6.0.0  -   RELEASE  -
|  1> ! B3LYP 6-31G* SP
|  2>
|  3> * xyz 0 1
|  4> C -3.1605 -1.7711 2.4032
|  5> C -3.0540 -1.7153 0.8914
|  6> C -1.8427 -1.3185 0.2743
|  7> N -0.7161 -0.8943 1.0535
|  8> C -0.7427 0.3942 1.7550
|  9> C 0.1838 1.3822 1.0973
| 10> C 0.0053 1.7229 -0.2709
| 11> C 0.9115 2.5827 -0.9181
| 12> C 1.9626 3.1043 -0.1706
| 13> N 2.9524 3.9054 -0.6022
| 14> C 3.7513 4.1273 0.4717
| 15> C 3.2540 3.4609 1.5837
| 16> Cl 3.9740 3.4327 3.1939
| 17> C 2.1157 2.8107 1.1587
| 18> C 1.2467 1.9571 1.8318
| 19> S 0.7009 -1.9002 1.1114
| 20> O 0.4251 -3.2141 0.4320
| 21> O 1.0549 -2.1751 2.5476
| 22> C 2.0369 -1.1007 0.2903
| 23> C 1.9956 -0.9257 -1.0995
| 24> C 3.0002 -0.2006 -1.7506
| 25> C 4.0569 0.3690 -1.0167
| 26> C 5.0738 1.2093 -1.6884
| 27> O 5.0879 1.3167 -2.9460
| 28> O 6.0088 1.9109 -0.9353
| 29> C 4.1084 0.1635 0.3750
| 30> C 3.1068 -0.5693 1.0226
| 31> N -1.7288 -1.3322 -1.0813
| 32> C -2.7547 -1.6813 -1.8938
| 33> C -3.9935 -2.0327 -1.3489
| 34> C -5.0657 -2.3699 -2.1916
| 35> C -6.3043 -2.7129 -1.6471
| 36> C -6.4841 -2.7149 -0.2623
| 37> C -5.4256 -2.3818 0.5875
| 38> C -4.1583 -2.0440 0.0606
| 39> H -3.6532 -2.7127 2.7249
| 40> H -2.1664 -1.7696 2.8975
| 41> H -3.7438 -0.8970 2.7683
| 42> H -1.7695 0.8172 1.7542
| 43> H -0.4606 0.2317 2.8169
| 44> H -0.8323 1.3065 -0.8410
| 45> H 0.7912 2.8224 -1.9708
| 46> H 3.0982 4.2698 -1.5679
| 47> H 4.6676 4.7268 0.4501
| 48> H 1.4066 1.7181 2.8760
| 49> H 1.1702 -1.3247 -1.6756
| 50> H 2.9322 -0.0603 -2.8240
| 51> H 6.6695 2.5304 -1.3815
| 52> H 4.9073 0.5925 0.9675
| 53> H 3.1472 -0.6822 2.0994
| 54> H -2.6049 -1.6643 -2.9644
| 55> H -4.9458 -2.3661 -3.2700
| 56> H -7.1285 -2.9747 -2.3015
| 57> H -7.4493 -2.9748 0.1542
| 58> H -5.6182 -2.3840 1.6492
| 59> *
| 60>
| 61>                          ****END OF INPUT****

CARTESIAN COORDINATES (ANGSTROEM)
---------------------------------
  C     -3.160500   -1.771100    2.403200
  C     -3.054000   -1.715300    0.891400
  C     -1.842700   -1.318500    0.274300
  N     -0.716100   -0.894300    1.053500
  C     -0.742700    0.394200    1.755000
  C      0.183800    1.382200    1.097300
  C      0.005300    1.722900   -0.270900
  C      0.911500    2.582700   -0.918100
  C      1.962600    3.104300   -0.170600
  N      2.952400    3.905400   -0.602200
  C      3.751300    4.127300    0.471700
  C      3.254000    3.460900    1.583700
  Cl     3.974000    3.432700    3.193900
  C      2.115700    2.810700    1.158700
  C      1.246700    1.957100    1.831800
  S      0.700900   -1.900200    1.111400
  O      0.425100   -3.214100    0.432000
  O      1.054900   -2.175100    2.547600
  C      2.036900   -1.100700    0.290300
  C      1.995600   -0.925700   -1.099500
  C      3.000200   -0.200600   -1.750600
  C      4.056900    0.369000   -1.016700
  C      5.073800    1.209300   -1.688400
  O      5.087900    1.316700   -2.946000
  O      6.008800    1.910900   -0.935300
  C      4.108400    0.163500    0.375000
  C      3.106800   -0.569300    1.022600
  N     -1.728800   -1.332200   -1.081300
  C     -2.754700   -1.681300   -1.893800
  C     -3.993500   -2.032700   -1.348900
  C     -5.065700   -2.369900   -2.191600
  C     -6.304300   -2.712900   -1.647100
  C     -6.484100   -2.714900   -0.262300
  C     -5.425600   -2.381800    0.587500
  C     -4.158300   -2.044000    0.060600
  H     -3.653200   -2.712700    2.724900
  H     -2.166400   -1.769600    2.897500
  H     -3.743800   -0.897000    2.768300
  H     -1.769500    0.817200    1.754200
  H     -0.460600    0.231700    2.816900
  H     -0.832300    1.306500   -0.841000
  H      0.791200    2.822400   -1.970800
  H      3.098200    4.269800   -1.567900
  H      4.667600    4.726800    0.450100
  H      1.406600    1.718100    2.876000
  H      1.170200   -1.324700   -1.675600
  H      2.932200   -0.060300   -2.824000
  H      6.669500    2.530400   -1.381500
  H      4.907300    0.592500    0.967500
  H      3.147200   -0.682200    2.099400
  H     -2.604900   -1.664300   -2.964400
  H     -4.945800   -2.366100   -3.270000
  H     -7.128500   -2.974700   -2.301500
  H     -7.449300   -2.974800    0.154200
  H     -5.618200   -2.384000    1.649200

 Total Charge           Charge          ....    0
 Multiplicity           Mult            ....    1
 Number of Electrons    NEL             ....  262
 Basis Dimension        Dim             ....  538

ORBITAL ENERGIES
----------------

  NO   OCC          E(Eh)            E(eV)
   0   2.0000    -101.530623     -2762.7887
   1   2.0000     -89.090031     -2424.2630
   2   2.0000     -19.194090      -522.2977
   3   2.0000     -19.133946      -520.6612
   4   2.0000     -19.118995      -520.2543
   5   2.0000     -19.116586      -520.1888
   6   2.0000     -14.393794      -391.6751
   7   2.0000     -14.365567      -390.9070
   8   2.0000     -14.331321      -389.9751
   9   2.0000     -10.331040      -281.1219
  10   2.0000     -10.258590      -279.1504
  11   2.0000     -10.229679      -278.3637
  12   2.0000     -10.229105      -278.3481
  13   2.0000     -10.227419      -278.3022
  14   2.0000     -10.225457      -278.2488
  15   2.0000     -10.224185      -278.2142
  16   2.0000     -10.220560      -278.1156
  17   2.0000     -10.216792      -278.0130
  18   2.0000     -10.207472      -277.7594
  19   2.0000     -10.207013      -277.7470
  20   2.0000     -10.206410      -277.7305
  21   2.0000     -10.205903      -277.7167
  22   2.0000     -10.205763      -277.7129
  23   2.0000     -10.204490      -277.6783
  24   2.0000     -10.199194      -277.5342
  25   2.0000     -10.197157      -277.4787
  26   2.0000     -10.197028      -277.4752
  27   2.0000     -10.194781      -277.4141
  28   2.0000     -10.194520      -277.4070
  29   2.0000     -10.188888      -277.2537
  30   2.0000     -10.188504      -277.2433
  31   2.0000     -10.182842      -277.0892
  32   2.0000     -10.182765      -277.0871
  33   2.0000     -10.181997      -277.0662
  34   2.0000     -10.180112      -277.0149
  35   2.0000      -9.461443      -257.4589
  36   2.0000      -8.125577      -221.1082
  37   2.0000      -7.224742      -196.5952
  38   2.0000      -7.214916      -196.3279
  39   2.0000      -7.214884      -196.3270
  40   2.0000      -6.090764      -165.7381
  41   2.0000      -6.088526      -165.6772
  42   2.0000      -6.088190      -165.6681
  43   2.0000      -1.079045       -29.3623
  44   2.0000      -1.074752       -29.2455
  45   2.0000      -1.012323       -27.5467
  46   2.0000      -0.991752       -26.9869
  47   2.0000      -0.958943       -26.0942
  48   2.0000      -0.952865       -25.9288
  49   2.0000      -0.911081       -24.7918
  50   2.0000      -0.877193       -23.8696
  51   2.0000      -0.866731       -23.5849
  52   2.0000      -0.862799       -23.4779
  53   2.0000      -0.845048       -22.9949
  54   2.0000      -0.806101       -21.9351
  55   2.0000      -0.795227       -21.6392
  56   2.0000      -0.782930       -21.3046
  57   2.0000      -0.776225       -21.1222
  58   2.0000      -0.764361       -20.7993
  59   2.0000      -0.762364       -20.7450
  60   2.0000      -0.740054       -20.1379
  61   2.0000      -0.718363       -19.5477
  62   2.0000      -0.709206       -19.2985
  63   2.0000      -0.703868       -19.1532
  64   2.0000      -0.679919       -18.5015
  65   2.0000      -0.649205       -17.6658
  66   2.0000      -0.643306       -17.5053
  67   2.0000      -0.627979       -17.0882
  68   2.0000      -0.625940       -17.0327
  69   2.0000      -0.611259       -16.6332
  70   2.0000      -0.604622       -16.4526
  71   2.0000      -0.595092       -16.1933
  72   2.0000      -0.588454       -16.0127
  73   2.0000      -0.571984       -15.5645
  74   2.0000      -0.552505       -15.0344
  75   2.0000      -0.551619       -15.0103
  76   2.0000      -0.535294       -14.5661
  77   2.0000      -0.529946       -14.4206
  78   2.0000      -0.513450       -13.9717
  79   2.0000      -0.500996       -13.6328
  80   2.0000      -0.491814       -13.3830
  81   2.0000      -0.480252       -13.0683
  82   2.0000      -0.478240       -13.0136
  83   2.0000      -0.472879       -12.8677
  84   2.0000      -0.469199       -12.7675
  85   2.0000      -0.460903       -12.5418
  86   2.0000      -0.455663       -12.3992
  87   2.0000      -0.453355       -12.3364
  88   2.0000      -0.452520       -12.3137
  89   2.0000      -0.448312       -12.1992
  90   2.0000      -0.444805       -12.1037
  91   2.0000      -0.438105       -11.9214
  92   2.0000      -0.435064       -11.8387
  93   2.0000      -0.433068       -11.7844
  94   2.0000      -0.432074       -11.7573
  95   2.0000      -0.429551       -11.6887
  96   2.0000      -0.423979       -11.5371
  97   2.0000      -0.415164       -11.2972
  98   2.0000      -0.413387       -11.2488
  99   2.0000      -0.406642       -11.0653
 100   2.0000      -0.403326       -10.9751
 101   2.0000      -0.395772       -10.7695
 102   2.0000      -0.392470       -10.6797
 103   2.0000      -0.384549       -10.4641
 104   2.0000      -0.380938       -10.3659
 105   2.0000      -0.377711       -10.2780
 106   2.0000      -0.371180       -10.1003
 107   2.0000      -0.366165        -9.9639
 108   2.0000      -0.358175        -9.7464
 109   2.0000      -0.354562        -9.6481
 110   2.0000      -0.350163        -9.5284
 111   2.0000      -0.349963        -9.5230
 112   2.0000      -0.345737        -9.4080
 113   2.0000      -0.332884        -9.0582
 114   2.0000      -0.318085        -8.6555
 115   2.0000      -0.316620        -8.6157
 116   2.0000      -0.310970        -8.4619
 117   2.0000      -0.299223        -8.1423
 118   2.0000      -0.291453        -7.9308
 119   2.0000      -0.290382        -7.9017
 120   2.0000      -0.282951        -7.6995
 121   2.0000      -0.276832        -7.5330
 122   2.0000      -0.271558        -7.3895
 123   2.0000      -0.266805        -7.2601
 124   2.0000      -0.265595        -7.2272
 125   2.0000      -0.257783        -7.0146
 126   2.0000      -0.253142        -6.8884
 127   2.0000      -0.246753        -6.7145
 128   2.0000      -0.227632        -6.1942
 129   2.0000      -0.216972        -5.9041
 130   2.0000      -0.204446        -5.5632
 131   0.0000      -0.074431        -2.0254
 132   0.0000      -0.059718        -1.6250
 133   0.0000      -0.031618        -0.8604
 134   0.0000      -0.026246        -0.7142
 135   0.0000      -0.006948        -0.1891

MULLIKEN ATOMIC CHARGES
-----------------------
   0 C :   -0.546585
   1 C :    0.099547
   2 C :    0.340258
   3 N :   -0.615337
   4 C :   -0.244879
   5 C :    0.125350
   6 C :   -0.182132
   7 C :   -0.180508
   8 C :    0.312749
   9 N :   -0.628676
  10 C :    0.028189
  11 C :   -0.181014
  12 Cl:   -0.012892
  13 C :    0.158377
  14 C :   -0.254433
  15 S :    1.207194
  16 O :   -0.536982
  17 O :   -0.545207
  18 C :   -0.122096
  19 C :   -0.131627
  20 C :   -0.142832
  21 C :    0.085463
  22 C :    0.518448
  23 O :   -0.456730
  24 O :   -0.619425
  25 C :   -0.145315
  26 C :   -0.139692
  27 N :   -0.396529
  28 C :   -0.048964
  29 C :    0.133309
  30 C :   -0.201771
  31 C :   -0.127897
  32 C :   -0.120307
  33 C :   -0.198474
  34 C :    0.123186
  35 H :    0.167297
  36 H :    0.197612
  37 H :    0.156179
  38 H :    0.176248
  39 H :    0.177655
  40 H :    0.143622
  41 H :    0.127434
  42 H :    0.347377
  43 H :    0.157318
  44 H :    0.146043
  45 H :    0.193079
  46 H :    0.169772
  47 H :    0.427383
  48 H :    0.174910
  49 H :    0.184521
  50 H :    0.150775
  51 H :    0.138393
  52 H :    0.135466
  53 H :    0.137646
  54 H :    0.139504
Sum of atomic charges:    0.0000000

LOEWDIN ATOMIC CHARGES
----------------------
   0 C :   -0.361718
   1 C :   -0.013858
   2 C :    0.036827
   3 N :   -0.282411
   4 C :   -0.147566
   5 C :   -0.052126
   6 C :   -0.133594
   7 C :   -0.144118
   8 C :    0.005417
   9 N :   -0.105415
  10 C :   -0.103927
  11 C :   -0.145810
  12 Cl:    0.029519
  13 C :   -0.049081
  14 C :   -0.131895
  15 S :    1.270870
  16 O :   -0.565874
  17 O :   -0.576712
  18 C :   -0.168928
  19 C :   -0.093500
  20 C :   -0.089371
  21 C :   -0.043916
  22 C :    0.177377
  23 O :   -0.273604
  24 O :   -0.331722
  25 C :   -0.098206
  26 C :   -0.097186
  27 N :   -0.135052
  28 C :   -0.059838
  29 C :   -0.029620
  30 C :   -0.111680
  31 C :   -0.127698
  32 C :   -0.116927
  33 C :   -0.124305
  34 C :   -0.004643
  35 H :    0.139524
  36 H :    0.151765
  37 H :    0.134517
  38 H :    0.145967
  39 H :    0.137334
  40 H :    0.139678
  41 H :    0.132307
  42 H :    0.274941
  43 H :    0.140888
  44 H :    0.141420
  45 H :    0.163246
  46 H :    0.154908
  47 H :    0.344587
  48 H :    0.155423
  49 H :    0.159847
  50 H :    0.136516
  51 H :    0.136676
  52 H :    0.135080
  53 H :    0.136484
  54 H :    0.139181

  Mayer bond orders larger than 0.100000
B(  0-C ,  1-C ) :   0.9989 B(  0-C , 35-H ) :   0.9290 B(  0-C , 36-H ) :   0.9245
B(  0-C , 37-H ) :   0.9276 B(  1-C ,  2-C ) :   1.4385 B(  1-C , 28-C ) :   0.1015
B(  1-C , 34-C ) :   1.2660 B(  2-C ,  3-N ) :   0.8866 B(  2-C , 27-N ) :   1.2641
B(  3-N ,  4-C ) :   0.9112 B(  3-N , 15-S ) :   0.7952 B(  4-C ,  5-C ) :   0.9592
B(  4-C , 38-H ) :   0.9175 B(  4-C , 39-H ) :   0.9204 B(  5-C ,  6-C ) :   1.3436
B(  5-C , 14-C ) :   1.4523 B(  6-C ,  7-C ) :   1.4818 B(  6-C , 40-H ) :   0.9127
B(  7-C ,  8-C ) :   1.3445 B(  7-C , 41-H ) :   0.9223 B(  8-C ,  9-N ) :   1.0060
B(  8-C , 13-C ) :   1.3371 B(  9-N , 10-C ) :   1.1219 B(  9-N , 42-H ) :   0.8294
B( 10-C , 11-C ) :   1.5247 B( 10-C , 43-H ) :   0.9264 B( 11-C , 12-Cl) :   1.0248
B( 11-C , 13-C ) :   1.2589 B( 13-C , 14-C ) :   1.3231 B( 14-C , 44-H ) :   0.9119
B( 15-S , 16-O ) :   1.6525 B( 15-S , 17-O ) :   1.6363 B( 15-S , 18-C ) :   0.8135
B( 18-C , 19-C ) :   1.3839 B( 18-C , 26-C ) :   1.3993 B( 19-C , 20-C ) :   1.4268
B( 19-C , 45-H ) :   0.8988 B( 20-C , 21-C ) :   1.3932 B( 20-C , 46-H ) :   0.9132
B( 21-C , 22-C ) :   1.0103 B( 21-C , 25-C ) :   1.3805 B( 22-C , 23-O ) :   1.8538
B( 22-C , 24-O ) :   1.0185 B( 24-O , 47-H ) :   0.7454 B( 25-C , 26-C ) :   1.4086
B( 25-C , 48-H ) :   0.9134 B( 26-C , 49-H ) :   0.9087 B( 27-N , 28-C ) :   1.4906
B( 28-C , 29-C ) :   1.2399 B( 28-C , 50-H ) :   0.9262 B( 29-C , 30-C ) :   1.2831
B( 29-C , 34-C ) :   1.2891 B( 30-C , 31-C ) :   1.5142 B( 30-C , 33-C ) :   0.1059
B( 30-C , 51-H ) :   0.9235 B( 31-C , 32-C ) :   1.3514 B( 31-C , 52-H ) :   0.9293
B( 32-C , 33-C ) :   1.5104 B( 32-C , 53-H ) :   0.9291 B( 33-C , 34-C ) :   1.2925
B( 33-C , 54-H ) :   0.9168

FINAL SINGLE POINT ENERGY     -2325.235068515852

DIPOLE MOMENT
-------------

Method             : SCF
Type of density    : Electron Density
Multiplicity       :   1
Irrep              :   0
Energy             : -2325.2350685158521628 Eh
Relativity type    :
Basis              : AO
                                X                 Y                 Z
Electronic contribution:     24.785927789       9.098484536       5.174969852
Nuclear contribution   :    -25.899422429      -6.903952665      -6.350329670
                        -----------------------------------------
Total Dipole Moment    :     -1.113494641       2.194531871      -1.175359817
                        -----------------------------------------
Magnitude (a.u.)       :      2.727143405
Magnitude (Debye)      :      6.931847652

Rotational constants in cm-1:             0.007357             0.002031             0.001951
Rotational constants in MHz :           220.553305            60.897981            58.478643

                             ****ORCA TERMINATED NORMALLY****
TOTAL RUN TIME: 0 days 0 hours 12 minutes 52 seconds 242 msec
