                         Program Version 6.0.0  -   RELEASE  -
|  1> ! B3LYP 6-31G* SP
|  2>
|  3> * xyz 0 1
|  4> C -0.3774 -1.9771 -1.4451
|  5> C -1.2635 -1.6646 -0.2592
|  6> C -1.1828 -0.4110 0.3927
|  7> N -0.2660 0.5981 -0.0461
|  8> C 0.9252 0.8921 0.7507
|  9> C 1.8819 -0.2645 0.6803
| 10> C 1.8243 -1.2949 1.6530
| 11> C 2.6471 -2.4291 1.5452
| 12> C 3.5078 -2.5069 0.4533
| 13> C 4.3939 -3.4908 0.0691
| 14> Cl 4.7224 -5.0054 0.8887
| 15> C 4.9618 -3.0529 -1.1200
| 16> N 4.4550 -1.8433 -1.4581
| 17> C 4.7742 -1.0762 -2.6579
| 18> C 3.5675 -1.5193 -0.4963
| 19> C 2.7630 -0.3810 -0.4164
| 20> S -0.7199 1.6529 -1.3464
| 21> O -1.9138 1.0960 -2.0711
| 22> O 0.4209 1.7607 -2.3196
| 23> C -1.1288 3.2315 -0.6870
| 24> C -0.3105 4.3423 -0.9281
| 25> C -0.6336 5.5866 -0.3788
| 26> C -1.7777 5.7356 0.4244
| 27> C -2.1158 7.0533 1.0055
| 28> O -3.1413 7.1892 1.7267
| 29> O -1.3041 8.1575 0.7602
| 30> C -2.5913 4.6141 0.6667
| 31> C -2.2668 3.3718 0.1150
| 32> N -1.9606 -0.1529 1.4763
| 33> C -2.8397 -1.0560 1.9724
| 34> C -2.9669 -2.3127 1.3759
| 35> C -3.8714 -3.2529 1.8932
| 36> C -3.9901 -4.5109 1.3023
| 37> C -3.2087 -4.8400 0.1951
| 38> C -2.3045 -3.9135 -0.3310
| 39> C -2.1698 -2.6321 0.2479
| 40> H -1.0026 -2.2569 -2.3183
| 41> H 0.3038 -2.8158 -1.1901
| 42> H 0.2511 -1.1210 -1.7561
| 43> H 0.6303 1.0918 1.8043
| 44> H 1.4253 1.8127 0.3773
| 45> H 1.1291 -1.2255 2.4803
| 46> H 2.5997 -3.2213 2.2808
| 47> H 5.6940 -3.5948 -1.7046
| 48> H 5.0848 -0.0485 -2.3745
| 49> H 5.6048 -1.5562 -3.2178
| 50> H 3.8804 -1.0222 -3.3145
| 51> H 2.7989 0.3795 -1.1861
| 52> H 0.5797 4.2484 -1.5363
| 53> H 0.0141 6.4300 -0.5814
| 54> H -1.5267 9.0641 1.1530
| 55> H -3.4775 4.6954 1.2835
| 56> H -2.9008 2.5173 0.3163
| 57> H -3.4351 -0.7906 2.8375
| 58> H -4.4843 -3.0151 2.7548
| 59> H -4.6883 -5.2334 1.7049
| 60> H -3.3031 -5.8183 -0.2581
| 61> H -1.7176 -4.2135 -1.1880
| 62> *
| 63>
| 64>                          ****END OF INPUT****

CARTESIAN COORDINATES (ANGSTROEM)
---------------------------------
  C     -0.377400   -1.977100   -1.445100
  C     -1.263500   -1.664600   -0.259200
  C     -1.182800   -0.411000    0.392700
  N     -0.266000    0.598100   -0.046100
  C      0.925200    0.892100    0.750700
  C      1.881900   -0.264500    0.680300
  C      1.824300   -1.294900    1.653000
  C      2.647100   -2.429100    1.545200
  C      3.507800   -2.506900    0.453300
  C      4.393900   -3.490800    0.069100
  Cl     4.722400   -5.005400    0.888700
  C      4.961800   -3.052900   -1.120000
  N      4.455000   -1.843300   -1.458100
  C      4.774200   -1.076200   -2.657900
  C      3.567500   -1.519300   -0.496300
  C      2.763000   -0.381000   -0.416400
  S     -0.719900    1.652900   -1.346400
  O     -1.913800    1.096000   -2.071100
  O      0.420900    1.760700   -2.319600
  C     -1.128800    3.231500   -0.687000
  C     -0.310500    4.342300   -0.928100
  C     -0.633600    5.586600   -0.378800
  C     -1.777700    5.735600    0.424400
  C     -2.115800    7.053300    1.005500
  O     -3.141300    7.189200    1.726700
  O     -1.304100    8.157500    0.760200
  C     -2.591300    4.614100    0.666700
  C     -2.266800    3.371800    0.115000
  N     -1.960600   -0.152900    1.476300
  C     -2.839700   -1.056000    1.972400
  C     -2.966900   -2.312700    1.375900
  C     -3.871400   -3.252900    1.893200
  C     -3.990100   -4.510900    1.302300
  C     -3.208700   -4.840000    0.195100
  C     -2.304500   -3.913500   -0.331000
  C     -2.169800   -2.632100    0.247900
  H     -1.002600   -2.256900   -2.318300
  H      0.303800   -2.815800   -1.190100
  H      0.251100   -1.121000   -1.756100
  H      0.630300    1.091800    1.804300
  H      1.425300    1.812700    0.377300
  H      1.129100   -1.225500    2.480300
  H      2.599700   -3.221300    2.280800
  H      5.694000   -3.594800   -1.704600
  H      5.084800   -0.048500   -2.374500
  H      5.604800   -1.556200   -3.217800
  H      3.880400   -1.022200   -3.314500
  H      2.798900    0.379500   -1.186100
  H      0.579700    4.248400   -1.536300
  H      0.014100    6.430000   -0.581400
  H     -1.526700    9.064100    1.153000
  H     -3.477500    4.695400    1.283500
  H     -2.900800    2.517300    0.316300
  H     -3.435100   -0.790600    2.837500
  H     -4.484300   -3.015100    2.754800
  H     -4.688300   -5.233400    1.704900
  H     -3.303100   -5.818300   -0.258100
  H     -1.717600   -4.213500   -1.188000

 Total Charge           Charge          ....    0
 Multiplicity           Mult            ....    1
 Number of Electrons    NEL             ....  270
 Basis Dimension        Dim             ....  556

ORBITAL ENERGIES
----------------

  NO   OCC          E(Eh)            E(eV)
   0   2.0000    -101.523595     -2762.5975
   1   2.0000     -89.094119     -2424.3742
   2   2.0000     -19.193603      -522.2845
   3   2.0000     -19.134786      -520.6840
   4   2.0000     -19.125675      -520.4361
   5   2.0000     -19.123261      -520.3704
   6   2.0000     -14.387274      -391.4976
   7   2.0000     -14.364866      -390.8879
   8   2.0000     -14.329395      -389.9227
   9   2.0000     -10.332152      -281.1521
  10   2.0000     -10.252851      -278.9943
  11   2.0000     -10.237642      -278.5804
  12   2.0000     -10.237119      -278.5662
  13   2.0000     -10.227555      -278.3059
  14   2.0000     -10.226241      -278.2702
  15   2.0000     -10.221608      -278.1441
  16   2.0000     -10.217188      -278.0238
  17   2.0000     -10.216207      -277.9971
  18   2.0000     -10.215547      -277.9792
  19   2.0000     -10.214515      -277.9511
  20   2.0000     -10.213150      -277.9139
  21   2.0000     -10.212494      -277.8961
  22   2.0000     -10.208592      -277.7899
  23   2.0000     -10.204908      -277.6897
  24   2.0000     -10.201663      -277.6014
  25   2.0000     -10.197065      -277.4762
  26   2.0000     -10.194526      -277.4072
  27   2.0000     -10.194090      -277.3953
  28   2.0000     -10.192892      -277.3627
  29   2.0000     -10.191916      -277.3361
  30   2.0000     -10.186765      -277.1960
  31   2.0000     -10.181453      -277.0514
  32   2.0000     -10.177278      -276.9378
  33   2.0000     -10.175997      -276.9030
  34   2.0000     -10.174211      -276.8543
  35   2.0000     -10.168458      -276.6978
  36   2.0000      -9.454610      -257.2730
  37   2.0000      -8.129881      -221.2253
  38   2.0000      -7.217853      -196.4078
  39   2.0000      -7.208090      -196.1421
  40   2.0000      -7.208058      -196.1412
  41   2.0000      -6.094806      -165.8481
  42   2.0000      -6.093008      -165.7992
  43   2.0000      -6.092533      -165.7863
  44   2.0000      -1.081435       -29.4274
  45   2.0000      -1.078155       -29.3381
  46   2.0000      -1.012005       -27.5381
  47   2.0000      -0.992052       -26.9951
  48   2.0000      -0.961572       -26.1657
  49   2.0000      -0.957705       -26.0605
  50   2.0000      -0.910111       -24.7654
  51   2.0000      -0.885728       -24.1019
  52   2.0000      -0.867042       -23.5934
  53   2.0000      -0.860833       -23.4244
  54   2.0000      -0.841555       -22.8999
  55   2.0000      -0.805174       -21.9099
  56   2.0000      -0.801651       -21.8140
  57   2.0000      -0.794775       -21.6269
  58   2.0000      -0.772628       -21.0243
  59   2.0000      -0.771705       -20.9992
  60   2.0000      -0.751687       -20.4544
  61   2.0000      -0.747018       -20.3274
  62   2.0000      -0.736922       -20.0527
  63   2.0000      -0.709252       -19.2997
  64   2.0000      -0.696703       -18.9583
  65   2.0000      -0.686179       -18.6719
  66   2.0000      -0.674723       -18.3601
  67   2.0000      -0.649454       -17.6725
  68   2.0000      -0.640196       -17.4206
  69   2.0000      -0.634431       -17.2637
  70   2.0000      -0.622182       -16.9304
  71   2.0000      -0.610332       -16.6080
  72   2.0000      -0.592088       -16.1115
  73   2.0000      -0.590209       -16.0604
  74   2.0000      -0.578370       -15.7382
  75   2.0000      -0.569660       -15.5012
  76   2.0000      -0.556356       -15.1392
  77   2.0000      -0.537694       -14.6314
  78   2.0000      -0.529023       -14.3954
  79   2.0000      -0.520593       -14.1661
  80   2.0000      -0.510069       -13.8797
  81   2.0000      -0.498301       -13.5594
  82   2.0000      -0.492587       -13.4040
  83   2.0000      -0.485351       -13.2071
  84   2.0000      -0.481785       -13.1100
  85   2.0000      -0.478533       -13.0216
  86   2.0000      -0.475202       -12.9309
  87   2.0000      -0.467377       -12.7180
  88   2.0000      -0.460352       -12.5268
  89   2.0000      -0.456948       -12.4342
  90   2.0000      -0.451783       -12.2936
  91   2.0000      -0.444816       -12.1040
  92   2.0000      -0.444314       -12.0904
  93   2.0000      -0.443162       -12.0591
  94   2.0000      -0.439242       -11.9524
  95   2.0000      -0.437717       -11.9109
  96   2.0000      -0.427213       -11.6251
  97   2.0000      -0.425581       -11.5806
  98   2.0000      -0.423411       -11.5216
  99   2.0000      -0.418865       -11.3979
 100   2.0000      -0.413095       -11.2409
 101   2.0000      -0.409839       -11.1523
 102   2.0000      -0.407812       -11.0971
 103   2.0000      -0.403134       -10.9698
 104   2.0000      -0.397520       -10.8171
 105   2.0000      -0.391341       -10.6489
 106   2.0000      -0.388651       -10.5757
 107   2.0000      -0.384018       -10.4497
 108   2.0000      -0.381891       -10.3918
 109   2.0000      -0.374152       -10.1812
 110   2.0000      -0.364808        -9.9269
 111   2.0000      -0.364139        -9.9087
 112   2.0000      -0.362185        -9.8555
 113   2.0000      -0.350922        -9.5491
 114   2.0000      -0.347083        -9.4446
 115   2.0000      -0.345181        -9.3928
 116   2.0000      -0.339886        -9.2488
 117   2.0000      -0.327463        -8.9107
 118   2.0000      -0.321194        -8.7401
 119   2.0000      -0.317907        -8.6507
 120   2.0000      -0.304319        -8.2809
 121   2.0000      -0.303922        -8.2701
 122   2.0000      -0.298152        -8.1131
 123   2.0000      -0.285187        -7.7603
 124   2.0000      -0.278363        -7.5747
 125   2.0000      -0.274992        -7.4829
 126   2.0000      -0.274117        -7.4591
 127   2.0000      -0.271104        -7.3771
 128   2.0000      -0.265787        -7.2324
 129   2.0000      -0.262932        -7.1547
 130   2.0000      -0.251875        -6.8539
 131   2.0000      -0.246984        -6.7208
 132   2.0000      -0.227934        -6.2024
 133   2.0000      -0.218370        -5.9422
 134   2.0000      -0.194899        -5.3035
 135   0.0000      -0.079103        -2.1525
 136   0.0000      -0.057071        -1.5530
 137   0.0000      -0.030144        -0.8203
 138   0.0000      -0.025586        -0.6962
 139   0.0000      -0.018076        -0.4919

MULLIKEN ATOMIC CHARGES
-----------------------
   0 C :   -0.545318
   1 C :    0.137713
   2 C :    0.310514
   3 N :   -0.607980
   4 C :   -0.242269
   5 C :    0.148192
   6 C :   -0.193129
   7 C :   -0.198348
   8 C :    0.139569
   9 C :   -0.186995
  10 Cl:   -0.017173
  11 C :    0.005242
  12 N :   -0.423114
  13 C :   -0.329647
  14 C :    0.294093
  15 C :   -0.236125
  16 S :    1.222686
  17 O :   -0.545355
  18 O :   -0.563483
  19 C :   -0.125535
  20 C :   -0.152600
  21 C :   -0.146461
  22 C :    0.083118
  23 C :    0.527293
  24 O :   -0.445417
  25 O :   -0.624113
  26 C :   -0.142433
  27 C :   -0.135851
  28 N :   -0.404144
  29 C :   -0.059425
  30 C :    0.139527
  31 C :   -0.203885
  32 C :   -0.125493
  33 C :   -0.120830
  34 C :   -0.192849
  35 C :    0.116706
  36 H :    0.165624
  37 H :    0.163660
  38 H :    0.197786
  39 H :    0.170721
  40 H :    0.166842
  41 H :    0.129259
  42 H :    0.142043
  43 H :    0.158098
  44 H :    0.178144
  45 H :    0.175209
  46 H :    0.186889
  47 H :    0.151077
  48 H :    0.181146
  49 H :    0.170265
  50 H :    0.433251
  51 H :    0.179916
  52 H :    0.190293
  53 H :    0.149384
  54 H :    0.137239
  55 H :    0.135374
  56 H :    0.137742
  57 H :    0.143355
Sum of atomic charges:    0.0000000

LOEWDIN ATOMIC CHARGES
----------------------
   0 C :   -0.361348
   1 C :    0.012043
   2 C :    0.025767
   3 N :   -0.279136
   4 C :   -0.145747
   5 C :   -0.040494
   6 C :   -0.145246
   7 C :   -0.126770
   8 C :   -0.047261
   9 C :   -0.154616
  10 Cl:    0.031569
  11 C :   -0.105388
  12 N :    0.015164
  13 C :   -0.262163
  14 C :    0.006180
  15 C :   -0.148369
  16 S :    1.262624
  17 O :   -0.569034
  18 O :   -0.585212
  19 C :   -0.175252
  20 C :   -0.109570
  21 C :   -0.100972
  22 C :   -0.040394
  23 C :    0.179683
  24 O :   -0.261720
  25 O :   -0.335144
  26 C :   -0.085564
  27 C :   -0.095794
  28 N :   -0.140195
  29 C :   -0.065613
  30 C :   -0.027149
  31 C :   -0.113440
  32 C :   -0.125064
  33 C :   -0.117638
  34 C :   -0.117543
  35 C :   -0.005636
  36 H :    0.140084
  37 H :    0.138611
  38 H :    0.151443
  39 H :    0.133245
  40 H :    0.140415
  41 H :    0.132446
  42 H :    0.140746
  43 H :    0.141546
  44 H :    0.139202
  45 H :    0.143812
  46 H :    0.141861
  47 H :    0.142363
  48 H :    0.158426
  49 H :    0.153516
  50 H :    0.349151
  51 H :    0.160245
  52 H :    0.162577
  53 H :    0.135379
  54 H :    0.136200
  55 H :    0.135172
  56 H :    0.136622
  57 H :    0.141382

  Mayer bond orders larger than 0.100000
B(  0-C ,  1-C ) :   1.0109 B(  0-C , 36-H ) :   0.9242 B(  0-C , 37-H ) :   0.9232
B(  0-C , 38-H ) :   0.9167 B(  1-C ,  2-C ) :   1.4349 B(  1-C , 29-C ) :   0.1003
B(  1-C , 35-C ) :   1.2625 B(  2-C ,  3-N ) :   0.8914 B(  2-C , 28-N ) :   1.2753
B(  3-N ,  4-C ) :   0.9152 B(  3-N , 16-S ) :   0.8133 B(  4-C ,  5-C ) :   0.9597
B(  4-C , 39-H ) :   0.9199 B(  4-C , 40-H ) :   0.9208 B(  5-C ,  6-C ) :   1.3638
B(  5-C , 15-C ) :   1.4495 B(  6-C ,  7-C ) :   1.4544 B(  6-C , 41-H ) :   0.9239
B(  7-C ,  8-C ) :   1.3524 B(  7-C , 15-C ) :   0.1025 B(  7-C , 42-H ) :   0.9193
B(  8-C ,  9-C ) :   1.2642 B(  8-C , 14-C ) :   1.3128 B(  9-C , 10-Cl) :   1.0210
B(  9-C , 11-C ) :   1.5078 B( 11-C , 12-N ) :   1.1489 B( 11-C , 43-H ) :   0.9240
B( 12-N , 13-C ) :   0.9465 B( 12-N , 14-C ) :   1.0528 B( 13-C , 44-H ) :   0.9322
B( 13-C , 45-H ) :   0.9433 B( 13-C , 46-H ) :   0.9289 B( 14-C , 15-C ) :   1.3308
B( 15-C , 47-H ) :   0.9048 B( 16-S , 17-O ) :   1.6490 B( 16-S , 18-O ) :   1.6013
B( 16-S , 19-C ) :   0.8111 B( 19-C , 20-C ) :   1.4009 B( 19-C , 27-C ) :   1.3791
B( 20-C , 21-C ) :   1.4091 B( 20-C , 48-H ) :   0.9100 B( 21-C , 22-C ) :   1.3885
B( 21-C , 49-H ) :   0.9154 B( 22-C , 23-C ) :   1.0089 B( 22-C , 26-C ) :   1.3954
B( 23-C , 24-O ) :   1.8623 B( 23-C , 25-O ) :   1.0239 B( 25-O , 50-H ) :   0.7424
B( 26-C , 27-C ) :   1.4322 B( 26-C , 51-H ) :   0.9101 B( 27-C , 52-H ) :   0.9037
B( 28-N , 29-C ) :   1.4921 B( 29-C , 30-C ) :   1.2423 B( 29-C , 53-H ) :   0.9267
B( 30-C , 31-C ) :   1.2833 B( 30-C , 35-C ) :   1.2910 B( 31-C , 32-C ) :   1.5126
B( 31-C , 34-C ) :   0.1061 B( 31-C , 54-H ) :   0.9236 B( 32-C , 33-C ) :   1.3527
B( 32-C , 55-H ) :   0.9294 B( 33-C , 34-C ) :   1.5075 B( 33-C , 56-H ) :   0.9291
B( 34-C , 35-C ) :   1.2965 B( 34-C , 57-H ) :   0.9150

FINAL SINGLE POINT ENERGY     -2364.530786669047

DIPOLE MOMENT
-------------

Method             : SCF
Type of density    : Electron Density
Multiplicity       :   1
Irrep              :   0
Energy             : -2364.5307866690473020 Eh
Relativity type    :
Basis              : AO
                                X                 Y                 Z
Electronic contribution:      5.365970194       0.342892609       5.690691692
Nuclear contribution   :     -4.596573716      -0.205026792      -5.564205072
                        -----------------------------------------
Total Dipole Moment    :      0.769396478       0.137865817       0.126486620
                        -----------------------------------------
Magnitude (a.u.)       :      0.791818660
Magnitude (Debye)      :      2.012643086

Rotational constants in cm-1:             0.004363             0.001936             0.001511
Rotational constants in MHz :           130.788644            58.027305            45.287818

                             ****ORCA TERMINATED NORMALLY****
TOTAL RUN TIME: 0 days 0 hours 13 minutes 11 seconds 433 msec
