                         Program Version 6.0.0  -   RELEASE  -
|  1> ! B3LYP 6-31G* SP
|  2>
|  3> * xyz 0 1
|  4> C 6.0828 1.2278 1.7311
|  5> O 4.7469 0.7854 1.9372
|  6> C 3.9280 0.2445 0.9347
|  7> C 4.3644 0.0854 -0.3954
|  8> C 3.5075 -0.4617 -1.3574
|  9> C 2.2117 -0.8493 -1.0075
| 10> C 1.7589 -0.6896 0.3120
| 11> C 0.3424 -1.0632 0.6857
| 12> N -0.6556 -0.1684 0.0605
| 13> C -1.9276 -0.7289 -0.3632
| 14> O -2.9854 -0.0500 -0.2789
| 15> C -2.0375 -2.1006 -0.8918
| 16> C -1.2297 -2.5202 -1.9592
| 17> C -1.3321 -3.8267 -2.4465
| 18> C -2.2486 -4.7158 -1.8812
| 19> C -3.0738 -4.2958 -0.8345
| 20> C -2.9766 -2.9895 -0.3471
| 21> C -0.4389 1.3004 0.1383
| 22> C -0.0404 1.8645 -1.2078
| 23> N -0.7199 1.4988 -2.4104
| 24> O 0.9039 2.6920 -1.2702
| 25> C -1.5835 2.0346 0.8218
| 26> C -1.8058 1.8043 2.1927
| 27> C -2.8573 2.4379 2.8603
| 28> C -3.7000 3.3095 2.1690
| 29> C -3.4951 3.5463 0.8081
| 30> C -2.4465 2.9150 0.1339
| 31> C 2.6278 -0.1441 1.2787
| 32> H 6.4859 1.6155 2.6903
| 33> H 6.1029 2.0469 0.9798
| 34> H 6.7167 0.3820 1.3907
| 35> H 5.3606 0.3802 -0.6946
| 36> H 3.8471 -0.5810 -2.3790
| 37> H 1.5627 -1.2599 -1.7664
| 38> H 0.1869 -2.1207 0.3914
| 39> H 0.2048 -1.0275 1.7882
| 40> H -0.5353 -1.8337 -2.4218
| 41> H -0.7028 -4.1490 -3.2670
| 42> H -2.3251 -5.7277 -2.2583
| 43> H -3.7866 -4.9827 -0.4000
| 44> H -3.6230 -2.6747 0.4628
| 45> H 0.4321 1.4952 0.8024
| 46> H -0.3813 1.8654 -3.3281
| 47> H -1.5858 0.9229 -2.4000
| 48> H -1.1634 1.1287 2.7434
| 49> H -3.0172 2.2523 3.9147
| 50> H -4.5145 3.7984 2.6865
| 51> H -4.1526 4.2189 0.2732
| 52> H -2.3230 3.1148 -0.9214
| 53> H 2.2911 -0.0068 2.3004
| 54> *
| 55>
| 56>                          ****END OF INPUT****

CARTESIAN COORDINATES (ANGSTROEM)
---------------------------------
  C      6.082800    1.227800    1.731100
  O      4.746900    0.785400    1.937200
  C      3.928000    0.244500    0.934700
  C      4.364400    0.085400   -0.395400
  C      3.507500   -0.461700   -1.357400
  C      2.211700   -0.849300   -1.007500
  C      1.758900   -0.689600    0.312000
  C      0.342400   -1.063200    0.685700
  N     -0.655600   -0.168400    0.060500
  C     -1.927600   -0.728900   -0.363200
  O     -2.985400   -0.050000   -0.278900
  C     -2.037500   -2.100600   -0.891800
  C     -1.229700   -2.520200   -1.959200
  C     -1.332100   -3.826700   -2.446500
  C     -2.248600   -4.715800   -1.881200
  C     -3.073800   -4.295800   -0.834500
  C     -2.976600   -2.989500   -0.347100
  C     -0.438900    1.300400    0.138300
  C     -0.040400    1.864500   -1.207800
  N     -0.719900    1.498800   -2.410400
  O      0.903900    2.692000   -1.270200
  C     -1.583500    2.034600    0.821800
  C     -1.805800    1.804300    2.192700
  C     -2.857300    2.437900    2.860300
  C     -3.700000    3.309500    2.169000
  C     -3.495100    3.546300    0.808100
  C     -2.446500    2.915000    0.133900
  C      2.627800   -0.144100    1.278700
  H      6.485900    1.615500    2.690300
  H      6.102900    2.046900    0.979800
  H      6.716700    0.382000    1.390700
  H      5.360600    0.380200   -0.694600
  H      3.847100   -0.581000   -2.379000
  H      1.562700   -1.259900   -1.766400
  H      0.186900   -2.120700    0.391400
  H      0.204800   -1.027500    1.788200
  H     -0.535300   -1.833700   -2.421800
  H     -0.702800   -4.149000   -3.267000
  H     -2.325100   -5.727700   -2.258300
  H     -3.786600   -4.982700   -0.400000
  H     -3.623000   -2.674700    0.462800
  H      0.432100    1.495200    0.802400
  H     -0.381300    1.865400   -3.328100
  H     -1.585800    0.922900   -2.400000
  H     -1.163400    1.128700    2.743400
  H     -3.017200    2.252300    3.914700
  H     -4.514500    3.798400    2.686500
  H     -4.152600    4.218900    0.273200
  H     -2.323000    3.114800   -0.921400
  H      2.291100   -0.006800    2.300400

 Total Charge           Charge          ....    0
 Multiplicity           Mult            ....    1
 Number of Electrons    NEL             ....  198
 Basis Dimension        Dim             ....  436

ORBITAL ENERGIES
----------------

  NO   OCC          E(Eh)            E(eV)
   0   2.0000     -19.162339      -521.4338
   1   2.0000     -19.115346      -520.1550
   2   2.0000     -19.101188      -519.7698
   3   2.0000     -14.359193      -390.7335
   4   2.0000     -14.346190      -390.3797
   5   2.0000     -10.290817      -280.0274
   6   2.0000     -10.284086      -279.8442
   7   2.0000     -10.245535      -278.7952
   8   2.0000     -10.234666      -278.4994
   9   2.0000     -10.230907      -278.3971
  10   2.0000     -10.224230      -278.2154
  11   2.0000     -10.203924      -277.6629
  12   2.0000     -10.196438      -277.4592
  13   2.0000     -10.194575      -277.4085
  14   2.0000     -10.193966      -277.3919
  15   2.0000     -10.193759      -277.3863
  16   2.0000     -10.193535      -277.3802
  17   2.0000     -10.192380      -277.3487
  18   2.0000     -10.185592      -277.1640
  19   2.0000     -10.183755      -277.1141
  20   2.0000     -10.180608      -277.0284
  21   2.0000     -10.179511      -276.9986
  22   2.0000     -10.175444      -276.8879
  23   2.0000     -10.170768      -276.7607
  24   2.0000     -10.169857      -276.7359
  25   2.0000     -10.167769      -276.6791
  26   2.0000     -10.167327      -276.6670
  27   2.0000     -10.167060      -276.6598
  28   2.0000      -1.040394       -28.3106
  29   2.0000      -1.017150       -27.6781
  30   2.0000      -1.001716       -27.2581
  31   2.0000      -0.922071       -25.0908
  32   2.0000      -0.869320       -23.6554
  33   2.0000      -0.862561       -23.4715
  34   2.0000      -0.847927       -23.0733
  35   2.0000      -0.836852       -22.7719
  36   2.0000      -0.777624       -21.1602
  37   2.0000      -0.768161       -20.9027
  38   2.0000      -0.753792       -20.5117
  39   2.0000      -0.751002       -20.4358
  40   2.0000      -0.748505       -20.3679
  41   2.0000      -0.729231       -19.8434
  42   2.0000      -0.699469       -19.0335
  43   2.0000      -0.686809       -18.6890
  44   2.0000      -0.676198       -18.4003
  45   2.0000      -0.633373       -17.2350
  46   2.0000      -0.614836       -16.7305
  47   2.0000      -0.602832       -16.4039
  48   2.0000      -0.599124       -16.3030
  49   2.0000      -0.586324       -15.9547
  50   2.0000      -0.576964       -15.7000
  51   2.0000      -0.572687       -15.5836
  52   2.0000      -0.550686       -14.9849
  53   2.0000      -0.526909       -14.3379
  54   2.0000      -0.521459       -14.1896
  55   2.0000      -0.514958       -14.0127
  56   2.0000      -0.500569       -13.6212
  57   2.0000      -0.487214       -13.2578
  58   2.0000      -0.484307       -13.1787
  59   2.0000      -0.483270       -13.1504
  60   2.0000      -0.470031       -12.7902
  61   2.0000      -0.462028       -12.5724
  62   2.0000      -0.456961       -12.4345
  63   2.0000      -0.453657       -12.3446
  64   2.0000      -0.450121       -12.2484
  65   2.0000      -0.443977       -12.0812
  66   2.0000      -0.437026       -11.8921
  67   2.0000      -0.429754       -11.6942
  68   2.0000      -0.428361       -11.6563
  69   2.0000      -0.422346       -11.4926
  70   2.0000      -0.415020       -11.2933
  71   2.0000      -0.412124       -11.2145
  72   2.0000      -0.407709       -11.0943
  73   2.0000      -0.396878       -10.7996
  74   2.0000      -0.390532       -10.6269
  75   2.0000      -0.385112       -10.4794
  76   2.0000      -0.381115       -10.3707
  77   2.0000      -0.369867       -10.0646
  78   2.0000      -0.365302        -9.9404
  79   2.0000      -0.362321        -9.8593
  80   2.0000      -0.360164        -9.8006
  81   2.0000      -0.356534        -9.7018
  82   2.0000      -0.350351        -9.5335
  83   2.0000      -0.348730        -9.4894
  84   2.0000      -0.340613        -9.2685
  85   2.0000      -0.331745        -9.0272
  86   2.0000      -0.326696        -8.8898
  87   2.0000      -0.312380        -8.5003
  88   2.0000      -0.308158        -8.3854
  89   2.0000      -0.273737        -7.4488
  90   2.0000      -0.261189        -7.1073
  91   2.0000      -0.259133        -7.0514
  92   2.0000      -0.251937        -6.8555
  93   2.0000      -0.248004        -6.7485
  94   2.0000      -0.241683        -6.5765
  95   2.0000      -0.233335        -6.3494
  96   2.0000      -0.223756        -6.0887
  97   2.0000      -0.215427        -5.8621
  98   2.0000      -0.214392        -5.8339
  99   0.0000      -0.037901        -1.0313
 100   0.0000      -0.011707        -0.3186
 101   0.0000      -0.003999        -0.1088
 102   0.0000       0.003695         0.1005
 103   0.0000       0.007254         0.1974

MULLIKEN ATOMIC CHARGES
-----------------------
   0 C :   -0.194843
   1 O :   -0.512994
   2 C :    0.381355
   3 C :   -0.199119
   4 C :   -0.116339
   5 C :   -0.163994
   6 C :    0.145796
   7 C :   -0.239423
   8 N :   -0.416271
   9 C :    0.421252
  10 O :   -0.456905
  11 C :    0.079983
  12 C :   -0.169424
  13 C :   -0.130810
  14 C :   -0.117619
  15 C :   -0.131706
  16 C :   -0.143746
  17 C :   -0.160513
  18 C :    0.575098
  19 N :   -0.779582
  20 O :   -0.471967
  21 C :    0.181058
  22 C :   -0.163131
  23 C :   -0.125748
  24 C :   -0.121944
  25 C :   -0.130442
  26 C :   -0.147155
  27 C :   -0.229330
  28 H :    0.168242
  29 H :    0.150966
  30 H :    0.144288
  31 H :    0.131557
  32 H :    0.130862
  33 H :    0.122196
  34 H :    0.179239
  35 H :    0.151957
  36 H :    0.149593
  37 H :    0.134898
  38 H :    0.135631
  39 H :    0.138119
  40 H :    0.153996
  41 H :    0.202972
  42 H :    0.346006
  43 H :    0.348105
  44 H :    0.114782
  45 H :    0.122726
  46 H :    0.121462
  47 H :    0.124319
  48 H :    0.132763
  49 H :    0.133788
Sum of atomic charges:    0.0000000

LOEWDIN ATOMIC CHARGES
----------------------
   0 C :   -0.199164
   1 O :   -0.193222
   2 C :    0.094829
   3 C :   -0.170096
   4 C :   -0.113108
   5 C :   -0.146903
   6 C :   -0.027801
   7 C :   -0.146782
   8 N :   -0.109397
   9 C :    0.135235
  10 O :   -0.258576
  11 C :   -0.045316
  12 C :   -0.128798
  13 C :   -0.127495
  14 C :   -0.120220
  15 C :   -0.125788
  16 C :   -0.102930
  17 C :   -0.064235
  18 C :    0.145036
  19 N :   -0.408936
  20 O :   -0.281365
  21 C :   -0.004435
  22 C :   -0.129750
  23 C :   -0.127777
  24 C :   -0.131383
  25 C :   -0.125539
  26 C :   -0.121329
  27 C :   -0.156301
  28 H :    0.135055
  29 H :    0.118242
  30 H :    0.114818
  31 H :    0.135237
  32 H :    0.133099
  33 H :    0.128455
  34 H :    0.147661
  35 H :    0.119416
  36 H :    0.136516
  37 H :    0.134617
  38 H :    0.134843
  39 H :    0.136343
  40 H :    0.145775
  41 H :    0.169574
  42 H :    0.262028
  43 H :    0.254790
  44 H :    0.124694
  45 H :    0.129060
  46 H :    0.128530
  47 H :    0.129915
  48 H :    0.134872
  49 H :    0.138006

  Mayer bond orders larger than 0.100000
B(  0-C ,  1-O ) :   0.9205 B(  0-C , 28-H ) :   0.9453 B(  0-C , 29-H ) :   0.9299
B(  0-C , 30-H ) :   0.9309 B(  1-O ,  2-C ) :   0.9180 B(  2-C ,  3-C ) :   1.3752
B(  2-C , 27-C ) :   1.3813 B(  3-C ,  4-C ) :   1.4343 B(  3-C , 31-H ) :   0.9190
B(  4-C ,  5-C ) :   1.4490 B(  4-C , 32-H ) :   0.9292 B(  5-C ,  6-C ) :   1.4205
B(  5-C , 33-H ) :   0.9182 B(  6-C ,  7-C ) :   0.9628 B(  6-C , 27-C ) :   1.4252
B(  7-C ,  8-N ) :   0.9433 B(  7-C , 34-H ) :   0.9116 B(  7-C , 35-H ) :   0.9210
B(  8-N ,  9-C ) :   1.0421 B(  8-N , 17-C ) :   0.9004 B(  9-C , 10-O ) :   1.7945
B(  9-C , 11-C ) :   0.9516 B( 11-C , 12-C ) :   1.4058 B( 11-C , 16-C ) :   1.4161
B( 12-C , 13-C ) :   1.4342 B( 12-C , 36-H ) :   0.9115 B( 13-C , 14-C ) :   1.4548
B( 13-C , 37-H ) :   0.9290 B( 14-C , 15-C ) :   1.4439 B( 14-C , 38-H ) :   0.9296
B( 15-C , 16-C ) :   1.4387 B( 15-C , 39-H ) :   0.9286 B( 16-C , 40-H ) :   0.9203
B( 17-C , 18-C ) :   0.9183 B( 17-C , 21-C ) :   0.9488 B( 17-C , 41-H ) :   0.8955
B( 18-C , 19-N ) :   1.0689 B( 18-C , 20-O ) :   1.8620 B( 19-N , 42-H ) :   0.8265
B( 19-N , 43-H ) :   0.8038 B( 21-C , 22-C ) :   1.4149 B( 21-C , 26-C ) :   1.4397
B( 22-C , 23-C ) :   1.4497 B( 22-C , 44-H ) :   0.9262 B( 23-C , 24-C ) :   1.4532
B( 23-C , 45-H ) :   0.9301 B( 24-C , 25-C ) :   1.4536 B( 24-C , 46-H ) :   0.9309
B( 25-C , 26-C ) :   1.4446 B( 25-C , 47-H ) :   0.9299 B( 26-C , 48-H ) :   0.9129
B( 27-C , 49-H ) :   0.9135

FINAL SINGLE POINT ENERGY     -1224.085749835617

DIPOLE MOMENT
-------------

Method             : SCF
Type of density    : Electron Density
Multiplicity       :   1
Irrep              :   0
Energy             : -1224.0857498356172073 Eh
Relativity type    :
Basis              : AO
                                X                 Y                 Z
Electronic contribution:     -6.844685652       1.118018771      -1.524170453
Nuclear contribution   :      7.451527765      -2.610935094       1.074421547
                        -----------------------------------------
Total Dipole Moment    :      0.606842113      -1.492916323      -0.449748906
                        -----------------------------------------
Magnitude (a.u.)       :      1.673120013
Magnitude (Debye)      :      4.252733102

Rotational constants in cm-1:             0.006438             0.004781             0.003301
Rotational constants in MHz :           193.001256           143.327467            98.973803

                             ****ORCA TERMINATED NORMALLY****
TOTAL RUN TIME: 0 days 0 hours 8 minutes 38 seconds 854 msec
