                         Program Version 6.0.0  -   RELEASE  -
|  1> ! B3LYP 6-31G* SP
|  2>
|  3> * xyz 0 1
|  4> O 2.2219 -0.6228 2.9367
|  5> C 1.7820 0.0557 1.9707
|  6> C 0.3336 0.1427 1.5892
|  7> C -0.2639 -1.2343 1.2431
|  8> C -1.4921 -1.0409 0.4065
|  9> C -1.7079 0.0480 -0.4246
| 10> N -2.8419 -0.1063 -1.1459
| 11> C -3.3381 -1.3029 -0.7761
| 12> C -4.4879 -1.9251 -1.2601
| 13> C -4.8080 -3.1996 -0.7564
| 14> C -3.9783 -3.8204 0.2044
| 15> C -2.8210 -3.1724 0.6735
| 16> C -2.5349 -1.9074 0.1631
| 17> C -0.7555 1.2079 -0.5294
| 18> C -1.4473 2.5168 -0.2296
| 19> C -1.3452 3.5897 -1.1318
| 20> C -1.9637 4.8116 -0.8503
| 21> C -2.6842 4.9767 0.3365
| 22> Cl -3.4587 6.5109 0.6875
| 23> C -2.7841 3.9184 1.2446
| 24> C -2.1667 2.6955 0.9669
| 25> N 0.3650 1.0096 0.4018
| 26> C 1.7188 1.3795 0.1629
| 27> O 2.0846 2.0884 -0.8125
| 28> N 2.6168 0.8358 1.1181
| 29> C 4.0555 0.6586 0.9359
| 30> C 4.3236 -0.5326 0.0559
| 31> C 4.3903 -0.3827 -1.3393
| 32> C 4.5897 -1.4979 -2.1590
| 33> C 4.7157 -2.7699 -1.5934
| 34> F 4.9067 -3.8503 -2.3900
| 35> C 4.6403 -2.9282 -0.2067
| 36> C 4.4412 -1.8155 0.6162
| 37> H -0.2478 0.6321 2.3999
| 38> H 0.4651 -1.8376 0.6590
| 39> H -0.5182 -1.7793 2.1771
| 40> H -3.2349 0.5523 -1.8549
| 41> H -5.1128 -1.4465 -2.0029
| 42> H -5.6940 -3.7098 -1.1111
| 43> H -4.2334 -4.8025 0.5806
| 44> H -2.1775 -3.6428 1.4055
| 45> H -0.3639 1.2031 -1.5705
| 46> H -0.7862 3.4826 -2.0530
| 47> H -1.8802 5.6296 -1.5544
| 48> H -3.3385 4.0422 2.1661
| 49> H -2.2545 1.8872 1.6815
| 50> H 4.4899 1.5771 0.4851
| 51> H 4.5425 0.5233 1.9259
| 52> H 4.2860 0.5954 -1.7918
| 53> H 4.6427 -1.3751 -3.2331
| 54> H 4.7325 -3.9136 0.2317
| 55> H 4.3768 -1.9541 1.6881
| 56> *
| 57>
| 58>                          ****END OF INPUT****

CARTESIAN COORDINATES (ANGSTROEM)
---------------------------------
  O      2.221900   -0.622800    2.936700
  C      1.782000    0.055700    1.970700
  C      0.333600    0.142700    1.589200
  C     -0.263900   -1.234300    1.243100
  C     -1.492100   -1.040900    0.406500
  C     -1.707900    0.048000   -0.424600
  N     -2.841900   -0.106300   -1.145900
  C     -3.338100   -1.302900   -0.776100
  C     -4.487900   -1.925100   -1.260100
  C     -4.808000   -3.199600   -0.756400
  C     -3.978300   -3.820400    0.204400
  C     -2.821000   -3.172400    0.673500
  C     -2.534900   -1.907400    0.163100
  C     -0.755500    1.207900   -0.529400
  C     -1.447300    2.516800   -0.229600
  C     -1.345200    3.589700   -1.131800
  C     -1.963700    4.811600   -0.850300
  C     -2.684200    4.976700    0.336500
  Cl    -3.458700    6.510900    0.687500
  C     -2.784100    3.918400    1.244600
  C     -2.166700    2.695500    0.966900
  N      0.365000    1.009600    0.401800
  C      1.718800    1.379500    0.162900
  O      2.084600    2.088400   -0.812500
  N      2.616800    0.835800    1.118100
  C      4.055500    0.658600    0.935900
  C      4.323600   -0.532600    0.055900
  C      4.390300   -0.382700   -1.339300
  C      4.589700   -1.497900   -2.159000
  C      4.715700   -2.769900   -1.593400
  F      4.906700   -3.850300   -2.390000
  C      4.640300   -2.928200   -0.206700
  C      4.441200   -1.815500    0.616200
  H     -0.247800    0.632100    2.399900
  H      0.465100   -1.837600    0.659000
  H     -0.518200   -1.779300    2.177100
  H     -3.234900    0.552300   -1.854900
  H     -5.112800   -1.446500   -2.002900
  H     -5.694000   -3.709800   -1.111100
  H     -4.233400   -4.802500    0.580600
  H     -2.177500   -3.642800    1.405500
  H     -0.363900    1.203100   -1.570500
  H     -0.786200    3.482600   -2.053000
  H     -1.880200    5.629600   -1.554400
  H     -3.338500    4.042200    2.166100
  H     -2.254500    1.887200    1.681500
  H      4.489900    1.577100    0.485100
  H      4.542500    0.523300    1.925900
  H      4.286000    0.595400   -1.791800
  H      4.642700   -1.375100   -3.233100
  H      4.732500   -3.913600    0.231700
  H      4.376800   -1.954100    1.688100

 Total Charge           Charge          ....    0
 Multiplicity           Mult            ....    1
 Number of Electrons    NEL             ....  238
 Basis Dimension        Dim             ....  504

ORBITAL ENERGIES
----------------

  NO   OCC          E(Eh)            E(eV)
   0   2.0000    -101.531750     -2762.8194
   1   2.0000     -24.698161      -672.0711
   2   2.0000     -19.136985      -520.7438
   3   2.0000     -19.120869      -520.3053
   4   2.0000     -14.393605      -391.6699
   5   2.0000     -14.386746      -391.4833
   6   2.0000     -14.375193      -391.1689
   7   2.0000     -10.327858      -281.0353
   8   2.0000     -10.309949      -280.5480
   9   2.0000     -10.270296      -279.4690
  10   2.0000     -10.254698      -279.0445
  11   2.0000     -10.252567      -278.9865
  12   2.0000     -10.251146      -278.9479
  13   2.0000     -10.238587      -278.6061
  14   2.0000     -10.224592      -278.2253
  15   2.0000     -10.210892      -277.8525
  16   2.0000     -10.207471      -277.7594
  17   2.0000     -10.204031      -277.6658
  18   2.0000     -10.203745      -277.6580
  19   2.0000     -10.202662      -277.6286
  20   2.0000     -10.202581      -277.6264
  21   2.0000     -10.201156      -277.5876
  22   2.0000     -10.196760      -277.4680
  23   2.0000     -10.192446      -277.3506
  24   2.0000     -10.192124      -277.3418
  25   2.0000     -10.190570      -277.2995
  26   2.0000     -10.190470      -277.2968
  27   2.0000     -10.182216      -277.0722
  28   2.0000     -10.178369      -276.9675
  29   2.0000     -10.177657      -276.9481
  30   2.0000     -10.176232      -276.9094
  31   2.0000     -10.175114      -276.8789
  32   2.0000     -10.170901      -276.7643
  33   2.0000      -9.463667      -257.5195
  34   2.0000      -7.226691      -196.6483
  35   2.0000      -7.217274      -196.3920
  36   2.0000      -7.216954      -196.3833
  37   2.0000      -1.211590       -32.9690
  38   2.0000      -1.057594       -28.7786
  39   2.0000      -1.020935       -27.7810
  40   2.0000      -1.008639       -27.4464
  41   2.0000      -0.961614       -26.1668
  42   2.0000      -0.935288       -25.4505
  43   2.0000      -0.893600       -24.3161
  44   2.0000      -0.862062       -23.4579
  45   2.0000      -0.850967       -23.1560
  46   2.0000      -0.841671       -22.9030
  47   2.0000      -0.814629       -22.1672
  48   2.0000      -0.805619       -21.9220
  49   2.0000      -0.774613       -21.0783
  50   2.0000      -0.763366       -20.7722
  51   2.0000      -0.759325       -20.6623
  52   2.0000      -0.754275       -20.5249
  53   2.0000      -0.736571       -20.0431
  54   2.0000      -0.728402       -19.8208
  55   2.0000      -0.706625       -19.2283
  56   2.0000      -0.678549       -18.4643
  57   2.0000      -0.674880       -18.3644
  58   2.0000      -0.630478       -17.1562
  59   2.0000      -0.625287       -17.0149
  60   2.0000      -0.621382       -16.9087
  61   2.0000      -0.610966       -16.6252
  62   2.0000      -0.606903       -16.5147
  63   2.0000      -0.600632       -16.3440
  64   2.0000      -0.582885       -15.8611
  65   2.0000      -0.578538       -15.7428
  66   2.0000      -0.556807       -15.1515
  67   2.0000      -0.546294       -14.8654
  68   2.0000      -0.538696       -14.6587
  69   2.0000      -0.525936       -14.3115
  70   2.0000      -0.514410       -13.9978
  71   2.0000      -0.502459       -13.6726
  72   2.0000      -0.496208       -13.5025
  73   2.0000      -0.491824       -13.3832
  74   2.0000      -0.486609       -13.2413
  75   2.0000      -0.485745       -13.2178
  76   2.0000      -0.476633       -12.9698
  77   2.0000      -0.473309       -12.8794
  78   2.0000      -0.456585       -12.4243
  79   2.0000      -0.453941       -12.3524
  80   2.0000      -0.450396       -12.2559
  81   2.0000      -0.448473       -12.2036
  82   2.0000      -0.443667       -12.0728
  83   2.0000      -0.438141       -11.9224
  84   2.0000      -0.436795       -11.8858
  85   2.0000      -0.435118       -11.8402
  86   2.0000      -0.429976       -11.7003
  87   2.0000      -0.427796       -11.6409
  88   2.0000      -0.423068       -11.5123
  89   2.0000      -0.417840       -11.3700
  90   2.0000      -0.413537       -11.2529
  91   2.0000      -0.407686       -11.0937
  92   2.0000      -0.398884       -10.8542
  93   2.0000      -0.395886       -10.7726
  94   2.0000      -0.389208       -10.5909
  95   2.0000      -0.385393       -10.4871
  96   2.0000      -0.378619       -10.3027
  97   2.0000      -0.376233       -10.2378
  98   2.0000      -0.369339       -10.0502
  99   2.0000      -0.363192        -9.8830
 100   2.0000      -0.362982        -9.8773
 101   2.0000      -0.355244        -9.6667
 102   2.0000      -0.348046        -9.4708
 103   2.0000      -0.341885        -9.3032
 104   2.0000      -0.340139        -9.2557
 105   2.0000      -0.335318        -9.1245
 106   2.0000      -0.330166        -8.9843
 107   2.0000      -0.315090        -8.5740
 108   2.0000      -0.285031        -7.7561
 109   2.0000      -0.277929        -7.5628
 110   2.0000      -0.270902        -7.3716
 111   2.0000      -0.268051        -7.2940
 112   2.0000      -0.261265        -7.1094
 113   2.0000      -0.259469        -7.0605
 114   2.0000      -0.256468        -6.9789
 115   2.0000      -0.243764        -6.6332
 116   2.0000      -0.239721        -6.5231
 117   2.0000      -0.224070        -6.0973
 118   2.0000      -0.200937        -5.4678
 119   0.0000      -0.026302        -0.7157
 120   0.0000      -0.023795        -0.6475
 121   0.0000      -0.021100        -0.5742
 122   0.0000      -0.010709        -0.2914
 123   0.0000      -0.009866        -0.2685

MULLIKEN ATOMIC CHARGES
-----------------------
   0 O :   -0.477428
   1 C :    0.537411
   2 C :   -0.040916
   3 C :   -0.331018
   4 C :    0.021847
   5 C :    0.246318
   6 N :   -0.695586
   7 C :    0.310994
   8 C :   -0.195570
   9 C :   -0.140701
  10 C :   -0.148902
  11 C :   -0.202359
  12 C :    0.099417
  13 C :   -0.117676
  14 C :    0.179736
  15 C :   -0.174631
  16 C :   -0.133765
  17 C :   -0.063929
  18 Cl:   -0.015461
  19 C :   -0.131582
  20 C :   -0.167680
  21 N :   -0.475067
  22 C :    0.706188
  23 O :   -0.505702
  24 N :   -0.449039
  25 C :   -0.243872
  26 C :    0.120086
  27 C :   -0.155081
  28 C :   -0.211198
  29 C :    0.412137
  30 F :   -0.317748
  31 C :   -0.211534
  32 C :   -0.158629
  33 H :    0.186077
  34 H :    0.169770
  35 H :    0.168081
  36 H :    0.338250
  37 H :    0.118975
  38 H :    0.123511
  39 H :    0.122255
  40 H :    0.125638
  41 H :    0.177305
  42 H :    0.150933
  43 H :    0.155311
  44 H :    0.155423
  45 H :    0.143852
  46 H :    0.188700
  47 H :    0.188037
  48 H :    0.162907
  49 H :    0.146392
  50 H :    0.147160
  51 H :    0.162361
Sum of atomic charges:   -0.0000000

LOEWDIN ATOMIC CHARGES
----------------------
   0 O :   -0.266458
   1 C :    0.151674
   2 C :   -0.062889
   3 C :   -0.208254
   4 C :   -0.088017
   5 C :   -0.005675
   6 N :   -0.110739
   7 C :    0.011514
   8 C :   -0.153471
   9 C :   -0.139934
  10 C :   -0.142651
  11 C :   -0.135296
  12 C :   -0.043299
  13 C :   -0.040257
  14 C :   -0.027052
  15 C :   -0.124194
  16 C :   -0.130602
  17 C :   -0.086451
  18 Cl:    0.038063
  19 C :   -0.130277
  20 C :   -0.120595
  21 N :   -0.089615
  22 C :    0.162077
  23 O :   -0.309610
  24 N :   -0.055291
  25 C :   -0.139534
  26 C :   -0.048647
  27 C :   -0.117648
  28 C :   -0.157810
  29 C :    0.118110
  30 F :   -0.104134
  31 C :   -0.158066
  32 C :   -0.120224
  33 H :    0.146615
  34 H :    0.141453
  35 H :    0.143447
  36 H :    0.272026
  37 H :    0.128325
  38 H :    0.130589
  39 H :    0.129173
  40 H :    0.132080
  41 H :    0.150117
  42 H :    0.142970
  43 H :    0.146030
  44 H :    0.146041
  45 H :    0.138723
  46 H :    0.152705
  47 H :    0.151897
  48 H :    0.147674
  49 H :    0.143967
  50 H :    0.144295
  51 H :    0.147128

  Mayer bond orders larger than 0.100000
B(  0-O ,  1-C ) :   1.8368 B(  1-C ,  2-C ) :   0.9350 B(  1-C , 24-N ) :   1.0441
B(  2-C ,  3-C ) :   0.9670 B(  2-C , 21-N ) :   0.9294 B(  2-C , 33-H ) :   0.8971
B(  3-C ,  4-C ) :   0.9771 B(  3-C , 34-H ) :   0.9196 B(  3-C , 35-H ) :   0.9159
B(  4-C ,  5-C ) :   1.5190 B(  4-C , 12-C ) :   1.2728 B(  5-C ,  6-N ) :   1.0413
B(  5-C , 13-C ) :   0.9627 B(  6-N ,  7-C ) :   0.9970 B(  6-N , 36-H ) :   0.8318
B(  7-C ,  8-C ) :   1.3562 B(  7-C , 12-C ) :   1.3108 B(  8-C ,  9-C ) :   1.4740
B(  8-C , 11-C ) :   0.1032 B(  8-C , 37-H ) :   0.9230 B(  9-C , 10-C ) :   1.3856
B(  9-C , 38-H ) :   0.9315 B( 10-C , 11-C ) :   1.4654 B( 10-C , 39-H ) :   0.9315
B( 11-C , 12-C ) :   1.3488 B( 11-C , 40-H ) :   0.9242 B( 13-C , 14-C ) :   0.9452
B( 13-C , 21-N ) :   0.9198 B( 13-C , 41-H ) :   0.9013 B( 14-C , 15-C ) :   1.4270
B( 14-C , 20-C ) :   1.4050 B( 15-C , 16-C ) :   1.4235 B( 15-C , 42-H ) :   0.9198
B( 16-C , 17-C ) :   1.4229 B( 16-C , 43-H ) :   0.9227 B( 17-C , 18-Cl) :   1.0162
B( 17-C , 19-C ) :   1.4074 B( 19-C , 20-C ) :   1.4477 B( 19-C , 44-H ) :   0.9230
B( 20-C , 45-H ) :   0.9147 B( 21-N , 22-C ) :   1.0553 B( 22-C , 23-O ) :   1.8034
B( 22-C , 24-N ) :   0.9690 B( 24-N , 25-C ) :   0.9082 B( 25-C , 26-C ) :   0.9666
B( 25-C , 46-H ) :   0.9184 B( 25-C , 47-H ) :   0.9187 B( 26-C , 27-C ) :   1.4379
B( 26-C , 32-C ) :   1.4364 B( 27-C , 28-C ) :   1.4191 B( 27-C , 48-H ) :   0.9136
B( 28-C , 29-C ) :   1.3921 B( 28-C , 49-H ) :   0.9209 B( 29-C , 30-F ) :   0.9189
B( 29-C , 31-C ) :   1.3922 B( 31-C , 32-C ) :   1.4192 B( 31-C , 50-H ) :   0.9207
B( 32-C , 51-H ) :   0.9141

FINAL SINGLE POINT ENERGY     -1876.056280591744

DIPOLE MOMENT
-------------

Method             : SCF
Type of density    : Electron Density
Multiplicity       :   1
Irrep              :   0
Energy             : -1876.0562805917440983 Eh
Relativity type    :
Basis              : AO
                                X                 Y                 Z
Electronic contribution:      1.129198514      15.371789131      -1.724462190
Nuclear contribution   :     -1.868728821     -15.408809799       1.194825108
                        -----------------------------------------
Total Dipole Moment    :     -0.739530307      -0.037020668      -0.529637082
                        -----------------------------------------
Magnitude (a.u.)       :      0.910379615
Magnitude (Debye)      :      2.314001085

Rotational constants in cm-1:             0.004872             0.002623             0.001961
Rotational constants in MHz :           146.054628            78.623411            58.784702

                             ****ORCA TERMINATED NORMALLY****
TOTAL RUN TIME: 0 days 0 hours 10 minutes 29 seconds 98 msec
