                         Program Version 6.0.0  -   RELEASE  -
|  1> ! B3LYP 6-31G* SP
|  2>
|  3> * xyz 0 1
|  4> C -3.6567 -3.6978 -1.9671
|  5> C -2.6452 -3.0167 -1.0354
|  6> C -1.2643 -2.9527 -1.6939
|  7> C -3.0975 -1.6240 -0.6426
|  8> S -3.8685 -0.5552 -1.7019
|  9> C -3.8691 0.7593 -0.6584
| 10> C -3.2441 0.4162 0.5250
| 11> C -2.8082 -0.9394 0.5584
| 12> C -2.0347 -1.5595 1.7045
| 13> C -0.5616 -1.2664 1.6149
| 14> O -0.1595 -0.2182 1.0419
| 15> N 0.3757 -2.1523 2.2450
| 16> C 1.7970 -1.9702 2.2024
| 17> N 2.4181 -1.0193 1.4713
| 18> C 3.7734 -1.0706 1.6074
| 19> C 4.6597 -0.1237 0.8811
| 20> C 6.0146 0.0313 1.2299
| 21> C 6.8329 0.9226 0.5306
| 22> C 6.3150 1.6882 -0.5286
| 23> C 7.1938 2.6364 -1.3106
| 24> F 7.3658 2.1471 -2.5936
| 25> F 8.4385 2.7833 -0.7215
| 26> F 6.5954 3.8835 -1.3774
| 27> C 4.9625 1.5317 -0.8827
| 28> F 4.4340 2.2360 -1.9165
| 29> C 4.1446 0.6426 -0.1795
| 30> C 4.2288 -2.0859 2.4577
| 31> S 2.8924 -2.9254 3.0418
| 32> C -3.0829 1.4185 1.4952
| 33> O -2.5126 1.1612 2.5900
| 34> N -3.5412 2.6891 1.2390
| 35> C -3.3924 3.7451 2.2565
| 36> C -4.1917 2.9741 0.0573
| 37> O -4.6309 4.1409 -0.1489
| 38> N -4.3646 2.0050 -0.9004
| 39> C -4.9961 2.3171 -2.1924
| 40> H -3.7262 -3.1655 -2.9404
| 41> H -3.3471 -4.7473 -2.1637
| 42> H -4.6612 -3.7169 -1.4913
| 43> H -2.5707 -3.6611 -0.1371
| 44> H -1.2930 -2.3153 -2.6037
| 45> H -0.9271 -3.9715 -1.9801
| 46> H -0.5207 -2.5314 -0.9851
| 47> H -2.4257 -1.2088 2.6795
| 48> H -2.1881 -2.6552 1.7319
| 49> H 0.0060 -2.9682 2.7825
| 50> H 6.4494 -0.5224 2.0501
| 51> H 7.8718 1.0102 0.8241
| 52> H 3.1077 0.5453 -0.4773
| 53> H 5.2554 -2.3260 2.6935
| 54> H -4.3199 3.8127 2.8597
| 55> H -3.1933 4.7279 1.7814
| 56> H -2.5340 3.5507 2.9334
| 57> H -5.6911 3.1794 -2.1119
| 58> H -5.6007 1.4584 -2.5557
| 59> H -4.2118 2.5532 -2.9422
| 60> *
| 61>
| 62>                          ****END OF INPUT****

CARTESIAN COORDINATES (ANGSTROEM)
---------------------------------
  C     -3.656700   -3.697800   -1.967100
  C     -2.645200   -3.016700   -1.035400
  C     -1.264300   -2.952700   -1.693900
  C     -3.097500   -1.624000   -0.642600
  S     -3.868500   -0.555200   -1.701900
  C     -3.869100    0.759300   -0.658400
  C     -3.244100    0.416200    0.525000
  C     -2.808200   -0.939400    0.558400
  C     -2.034700   -1.559500    1.704500
  C     -0.561600   -1.266400    1.614900
  O     -0.159500   -0.218200    1.041900
  N      0.375700   -2.152300    2.245000
  C      1.797000   -1.970200    2.202400
  N      2.418100   -1.019300    1.471300
  C      3.773400   -1.070600    1.607400
  C      4.659700   -0.123700    0.881100
  C      6.014600    0.031300    1.229900
  C      6.832900    0.922600    0.530600
  C      6.315000    1.688200   -0.528600
  C      7.193800    2.636400   -1.310600
  F      7.365800    2.147100   -2.593600
  F      8.438500    2.783300   -0.721500
  F      6.595400    3.883500   -1.377400
  C      4.962500    1.531700   -0.882700
  F      4.434000    2.236000   -1.916500
  C      4.144600    0.642600   -0.179500
  C      4.228800   -2.085900    2.457700
  S      2.892400   -2.925400    3.041800
  C     -3.082900    1.418500    1.495200
  O     -2.512600    1.161200    2.590000
  N     -3.541200    2.689100    1.239000
  C     -3.392400    3.745100    2.256500
  C     -4.191700    2.974100    0.057300
  O     -4.630900    4.140900   -0.148900
  N     -4.364600    2.005000   -0.900400
  C     -4.996100    2.317100   -2.192400
  H     -3.726200   -3.165500   -2.940400
  H     -3.347100   -4.747300   -2.163700
  H     -4.661200   -3.716900   -1.491300
  H     -2.570700   -3.661100   -0.137100
  H     -1.293000   -2.315300   -2.603700
  H     -0.927100   -3.971500   -1.980100
  H     -0.520700   -2.531400   -0.985100
  H     -2.425700   -1.208800    2.679500
  H     -2.188100   -2.655200    1.731900
  H      0.006000   -2.968200    2.782500
  H      6.449400   -0.522400    2.050100
  H      7.871800    1.010200    0.824100
  H      3.107700    0.545300   -0.477300
  H      5.255400   -2.326000    2.693500
  H     -4.319900    3.812700    2.859700
  H     -3.193300    4.727900    1.781400
  H     -2.534000    3.550700    2.933400
  H     -5.691100    3.179400   -2.111900
  H     -5.600700    1.458400   -2.555700
  H     -4.211800    2.553200   -2.942200

 Total Charge           Charge          ....    0
 Multiplicity           Mult            ....    1
 Number of Electrons    NEL             ....  278
 Basis Dimension        Dim             ....  552

ORBITAL ENERGIES
----------------

  NO   OCC          E(Eh)            E(eV)
   0   2.0000     -88.913042     -2419.4469
   1   2.0000     -88.907314     -2419.2910
   2   2.0000     -24.715697      -672.5483
   3   2.0000     -24.707434      -672.3235
   4   2.0000     -24.706498      -672.2980
   5   2.0000     -24.702860      -672.1990
   6   2.0000     -19.117586      -520.2159
   7   2.0000     -19.107166      -519.9324
   8   2.0000     -19.100409      -519.7486
   9   2.0000     -14.407558      -392.0496
  10   2.0000     -14.397006      -391.7624
  11   2.0000     -14.389355      -391.5543
  12   2.0000     -14.329950      -389.9378
  13   2.0000     -10.429931      -283.8128
  14   2.0000     -10.323544      -280.9179
  15   2.0000     -10.302782      -280.3530
  16   2.0000     -10.295039      -280.1423
  17   2.0000     -10.283567      -279.8301
  18   2.0000     -10.280598      -279.7493
  19   2.0000     -10.264309      -279.3061
  20   2.0000     -10.236252      -278.5426
  21   2.0000     -10.232195      -278.4322
  22   2.0000     -10.219315      -278.0817
  23   2.0000     -10.216117      -277.9947
  24   2.0000     -10.214043      -277.9382
  25   2.0000     -10.212649      -277.9003
  26   2.0000     -10.212520      -277.8968
  27   2.0000     -10.211454      -277.8678
  28   2.0000     -10.210447      -277.8404
  29   2.0000     -10.206442      -277.7314
  30   2.0000     -10.204335      -277.6741
  31   2.0000     -10.195674      -277.4384
  32   2.0000     -10.193278      -277.3732
  33   2.0000     -10.191729      -277.3310
  34   2.0000     -10.185270      -277.1553
  35   2.0000     -10.179226      -276.9908
  36   2.0000      -7.990743      -217.4392
  37   2.0000      -7.984310      -217.2641
  38   2.0000      -5.953816      -162.0116
  39   2.0000      -5.949709      -161.8998
  40   2.0000      -5.947563      -161.8414
  41   2.0000      -5.947523      -161.8403
  42   2.0000      -5.943419      -161.7287
  43   2.0000      -5.941004      -161.6629
  44   2.0000      -1.270919       -34.5835
  45   2.0000      -1.215337       -33.0710
  46   2.0000      -1.197580       -32.5878
  47   2.0000      -1.193050       -32.4645
  48   2.0000      -1.064278       -28.9605
  49   2.0000      -1.021906       -27.8075
  50   2.0000      -1.012074       -27.5399
  51   2.0000      -0.978406       -26.6238
  52   2.0000      -0.977284       -26.5932
  53   2.0000      -0.931781       -25.3550
  54   2.0000      -0.918501       -24.9937
  55   2.0000      -0.901780       -24.5387
  56   2.0000      -0.871508       -23.7149
  57   2.0000      -0.819006       -22.2863
  58   2.0000      -0.817691       -22.2505
  59   2.0000      -0.799371       -21.7520
  60   2.0000      -0.793225       -21.5848
  61   2.0000      -0.774483       -21.0748
  62   2.0000      -0.755807       -20.5665
  63   2.0000      -0.744173       -20.2500
  64   2.0000      -0.729608       -19.8536
  65   2.0000      -0.719046       -19.5662
  66   2.0000      -0.702094       -19.1050
  67   2.0000      -0.690519       -18.7900
  68   2.0000      -0.685730       -18.6597
  69   2.0000      -0.645365       -17.5613
  70   2.0000      -0.639590       -17.4041
  71   2.0000      -0.630802       -17.1650
  72   2.0000      -0.629721       -17.1356
  73   2.0000      -0.614050       -16.7092
  74   2.0000      -0.599202       -16.3051
  75   2.0000      -0.597971       -16.2716
  76   2.0000      -0.567490       -15.4422
  77   2.0000      -0.563648       -15.3377
  78   2.0000      -0.561438       -15.2775
  79   2.0000      -0.560016       -15.2388
  80   2.0000      -0.553865       -15.0714
  81   2.0000      -0.547941       -14.9102
  82   2.0000      -0.531291       -14.4572
  83   2.0000      -0.514055       -13.9882
  84   2.0000      -0.505081       -13.7440
  85   2.0000      -0.502912       -13.6849
  86   2.0000      -0.493434       -13.4270
  87   2.0000      -0.488084       -13.2814
  88   2.0000      -0.485226       -13.2037
  89   2.0000      -0.475692       -12.9442
  90   2.0000      -0.467808       -12.7297
  91   2.0000      -0.463969       -12.6252
  92   2.0000      -0.461029       -12.5452
  93   2.0000      -0.457667       -12.4538
  94   2.0000      -0.447988       -12.1904
  95   2.0000      -0.446833       -12.1589
  96   2.0000      -0.443592       -12.0708
  97   2.0000      -0.441182       -12.0052
  98   2.0000      -0.438550       -11.9335
  99   2.0000      -0.437526       -11.9057
 100   2.0000      -0.429936       -11.6991
 101   2.0000      -0.424511       -11.5515
 102   2.0000      -0.423560       -11.5256
 103   2.0000      -0.417559       -11.3624
 104   2.0000      -0.415245       -11.2994
 105   2.0000      -0.408876       -11.1261
 106   2.0000      -0.408411       -11.1134
 107   2.0000      -0.403732       -10.9861
 108   2.0000      -0.403386       -10.9767
 109   2.0000      -0.398313       -10.8386
 110   2.0000      -0.395641       -10.7660
 111   2.0000      -0.394830       -10.7439
 112   2.0000      -0.388509       -10.5719
 113   2.0000      -0.388382       -10.5684
 114   2.0000      -0.382511       -10.4087
 115   2.0000      -0.377896       -10.2831
 116   2.0000      -0.375102       -10.2071
 117   2.0000      -0.373960       -10.1760
 118   2.0000      -0.369985       -10.0678
 119   2.0000      -0.369008       -10.0412
 120   2.0000      -0.364678        -9.9234
 121   2.0000      -0.356333        -9.6963
 122   2.0000      -0.351246        -9.5579
 123   2.0000      -0.349048        -9.4981
 124   2.0000      -0.346050        -9.4165
 125   2.0000      -0.336602        -9.1594
 126   2.0000      -0.310245        -8.4422
 127   2.0000      -0.304483        -8.2854
 128   2.0000      -0.298355        -8.1186
 129   2.0000      -0.284385        -7.7385
 130   2.0000      -0.268001        -7.2927
 131   2.0000      -0.261741        -7.1223
 132   2.0000      -0.260791        -7.0965
 133   2.0000      -0.255418        -6.9503
 134   2.0000      -0.252211        -6.8630
 135   2.0000      -0.241523        -6.5722
 136   2.0000      -0.236600        -6.4382
 137   2.0000      -0.218126        -5.9355
 138   2.0000      -0.209818        -5.7094
 139   0.0000      -0.047582        -1.2948
 140   0.0000      -0.028603        -0.7783
 141   0.0000      -0.024896        -0.6775
 142   0.0000      -0.011959        -0.3254
 143   0.0000      -0.007273        -0.1979

MULLIKEN ATOMIC CHARGES
-----------------------
   0 C :   -0.454886
   1 C :   -0.125710
   2 C :   -0.431935
   3 C :   -0.180331
   4 S :    0.255569
   5 C :    0.024106
   6 C :    0.060536
   7 C :    0.136326
   8 C :   -0.459068
   9 C :    0.595903
  10 O :   -0.423370
  11 N :   -0.667770
  12 C :    0.259043
  13 N :   -0.373115
  14 C :    0.219070
  15 C :    0.139384
  16 C :   -0.182755
  17 C :   -0.160681
  18 C :   -0.111960
  19 C :    0.916495
  20 F :   -0.298635
  21 F :   -0.307435
  22 F :   -0.299938
  23 C :    0.391688
  24 F :   -0.301600
  25 C :   -0.259884
  26 C :   -0.393555
  27 S :    0.254092
  28 C :    0.529662
  29 O :   -0.507088
  30 N :   -0.478146
  31 C :   -0.314780
  32 C :    0.680832
  33 O :   -0.509094
  34 N :   -0.457316
  35 C :   -0.338371
  36 H :    0.154949
  37 H :    0.147150
  38 H :    0.154016
  39 H :    0.141804
  40 H :    0.152515
  41 H :    0.139892
  42 H :    0.167172
  43 H :    0.221996
  44 H :    0.140276
  45 H :    0.342193
  46 H :    0.131965
  47 H :    0.158738
  48 H :    0.191353
  49 H :    0.184461
  50 H :    0.172905
  51 H :    0.191694
  52 H :    0.201189
  53 H :    0.215620
  54 H :    0.178548
  55 H :    0.186278
Sum of atomic charges:    0.0000000

LOEWDIN ATOMIC CHARGES
----------------------
   0 C :   -0.353384
   1 C :   -0.124308
   2 C :   -0.350095
   3 C :   -0.191649
   4 S :    0.392055
   5 C :   -0.121059
   6 C :   -0.097089
   7 C :   -0.010592
   8 C :   -0.251138
   9 C :    0.158012
  10 O :   -0.234102
  11 N :   -0.211640
  12 C :   -0.077696
  13 N :   -0.150511
  14 C :   -0.002991
  15 C :    0.001474
  16 C :   -0.134378
  17 C :   -0.109822
  18 C :   -0.100241
  19 C :    0.314775
  20 F :   -0.113750
  21 F :   -0.113163
  22 F :   -0.112493
  23 C :    0.135366
  24 F :   -0.093006
  25 C :   -0.137016
  26 C :   -0.343515
  27 S :    0.390437
  28 C :    0.119488
  29 O :   -0.298617
  30 N :   -0.025147
  31 C :   -0.259570
  32 C :    0.141611
  33 O :   -0.317437
  34 N :   -0.024421
  35 C :   -0.263121
  36 H :    0.127761
  37 H :    0.127210
  38 H :    0.128680
  39 H :    0.128430
  40 H :    0.129668
  41 H :    0.122302
  42 H :    0.134813
  43 H :    0.175366
  44 H :    0.126832
  45 H :    0.264484
  46 H :    0.134519
  47 H :    0.147530
  48 H :    0.168073
  49 H :    0.161446
  50 H :    0.137827
  51 H :    0.150441
  52 H :    0.155919
  53 H :    0.164363
  54 H :    0.141350
  55 H :    0.141717

  Mayer bond orders larger than 0.100000
B(  0-C ,  1-C ) :   0.9995 B(  0-C , 36-H ) :   0.9379 B(  0-C , 37-H ) :   0.9451
B(  0-C , 38-H ) :   0.9461 B(  1-C ,  2-C ) :   1.0011 B(  1-C ,  3-C ) :   0.9757
B(  1-C , 39-H ) :   0.9209 B(  2-C , 40-H ) :   0.9444 B(  2-C , 41-H ) :   0.9428
B(  2-C , 42-H ) :   0.9369 B(  3-C ,  4-S ) :   1.0497 B(  3-C ,  7-C ) :   1.5651
B(  4-S ,  5-C ) :   1.1334 B(  5-C ,  6-C ) :   1.3659 B(  5-C , 34-N ) :   0.9802
B(  6-C ,  7-C ) :   1.2878 B(  6-C , 28-C ) :   1.0845 B(  7-C ,  8-C ) :   1.0043
B(  8-C ,  9-C ) :   0.9458 B(  8-C , 43-H ) :   0.8777 B(  8-C , 44-H ) :   0.9132
B(  9-C , 10-O ) :   1.9005 B(  9-C , 11-N ) :   0.9590 B( 11-N , 12-C ) :   0.9551
B( 11-N , 45-H ) :   0.8222 B( 12-C , 13-N ) :   1.5109 B( 12-C , 26-C ) :   0.1068
B( 12-C , 27-S ) :   1.1376 B( 13-N , 14-C ) :   1.2656 B( 14-C , 15-C ) :   1.0536
B( 14-C , 26-C ) :   1.5121 B( 15-C , 16-C ) :   1.3998 B( 15-C , 25-C ) :   1.3700
B( 16-C , 17-C ) :   1.4350 B( 16-C , 46-H ) :   0.9202 B( 17-C , 18-C ) :   1.4033
B( 17-C , 47-H ) :   0.9182 B( 18-C , 19-C ) :   0.9674 B( 18-C , 23-C ) :   1.3219
B( 19-C , 20-F ) :   0.9782 B( 19-C , 21-F ) :   0.9443 B( 19-C , 22-F ) :   0.9646
B( 23-C , 24-F ) :   0.9477 B( 23-C , 25-C ) :   1.3579 B( 25-C , 48-H ) :   0.8978
B( 26-C , 27-S ) :   1.1184 B( 26-C , 49-H ) :   0.9013 B( 28-C , 29-O ) :   1.7518
B( 28-C , 30-N ) :   0.9786 B( 30-N , 31-C ) :   0.9191 B( 30-N , 32-C ) :   1.0468
B( 31-C , 50-H ) :   0.9418 B( 31-C , 51-H ) :   0.9285 B( 31-C , 52-H ) :   0.9211
B( 32-C , 33-O ) :   1.7841 B( 32-C , 34-N ) :   1.0418 B( 34-N , 35-C ) :   0.9310
B( 35-C , 53-H ) :   0.9187 B( 35-C , 54-H ) :   0.9242 B( 35-C , 55-H ) :   0.9322

FINAL SINGLE POINT ENERGY     -2527.851170282207

DIPOLE MOMENT
-------------

Method             : SCF
Type of density    : Electron Density
Multiplicity       :   1
Irrep              :   0
Energy             : -2527.8511702822070220 Eh
Relativity type    :
Basis              : AO
                                X                 Y                 Z
Electronic contribution:     57.915398724      23.976205719      -2.714224733
Nuclear contribution   :    -59.078212376     -27.033469587       3.258363101
                        -----------------------------------------
Total Dipole Moment    :     -1.162813652      -3.057263868       0.544138368
                        -----------------------------------------
Magnitude (a.u.)       :      3.315883670
Magnitude (Debye)      :      8.428306479

Rotational constants in cm-1:             0.004078             0.001463             0.001281
Rotational constants in MHz :           122.257433            43.848876            38.393972

                             ****ORCA TERMINATED NORMALLY****
TOTAL RUN TIME: 0 days 0 hours 10 minutes 39 seconds 406 msec
