                         Program Version 6.0.0  -   RELEASE  -
|  1> ! B3LYP 6-31G* SP
|  2>
|  3> * xyz 0 1
|  4> O 5.9791 -0.1787 0.9492
|  5> C 5.1480 0.4927 0.2785
|  6> N 5.5989 1.2468 -0.8596
|  7> C 7.0128 1.3562 -1.2163
|  8> C 7.4999 0.0844 -1.9078
|  9> O 6.7690 -0.1275 -3.0836
| 10> C 3.7183 0.4755 0.6723
| 11> C 3.2035 -0.6166 1.3942
| 12> C 1.8589 -0.6470 1.7741
| 13> C 1.0111 0.4188 1.4511
| 14> S -0.6891 0.3671 1.8985
| 15> O -1.1701 1.7586 2.2047
| 16> O -0.8795 -0.4772 3.1274
| 17> N -1.6021 -0.2984 0.5825
| 18> C -1.5411 -1.7317 0.2910
| 19> C -2.8686 -2.3773 0.5801
| 20> C -3.8479 -2.4621 -0.4241
| 21> C -5.0999 -3.0159 -0.1410
| 22> C -5.3851 -3.4820 1.1454
| 23> C -4.4194 -3.3921 2.1517
| 24> C -3.1664 -2.8373 1.8733
| 25> C -2.4218 0.5684 -0.2083
| 26> N -3.6315 0.9607 0.2731
| 27> C -4.4612 1.7709 -0.4347
| 28> C -4.0777 2.2473 -1.6982
| 29> C -5.0128 3.1006 -2.5168
| 30> F -5.8229 3.8655 -1.6953
| 31> F -5.8078 2.2834 -3.2986
| 32> F -4.2987 3.9556 -3.3388
| 33> C -2.8409 1.8365 -2.2198
| 34> C -2.0016 1.0048 -1.4741
| 35> Cl -0.4367 0.5454 -2.1311
| 36> C 1.5164 1.5127 0.7391
| 37> C 2.8604 1.5453 0.3563
| 38> H 4.9072 1.7266 -1.4770
| 39> H 7.6198 1.5518 -0.3062
| 40> H 7.1521 2.2170 -1.9059
| 41> H 7.3843 -0.7871 -1.2268
| 42> H 8.5789 0.1997 -2.1539
| 43> H 7.1305 -0.9597 -3.4857
| 44> H 3.8382 -1.4553 1.6525
| 45> H 1.4798 -1.5046 2.3150
| 46> H -0.7490 -2.2162 0.9022
| 47> H -1.2594 -1.8888 -0.7721
| 48> H -3.6440 -2.0924 -1.4216
| 49> H -5.8505 -3.0807 -0.9185
| 50> H -6.3552 -3.9094 1.3632
| 51> H -4.6432 -3.7484 3.1490
| 52> H -2.4303 -2.7667 2.6639
| 53> H -5.4205 2.0379 -0.0110
| 54> H -2.5267 2.1623 -3.2037
| 55> H 0.8698 2.3412 0.4786
| 56> H 3.2249 2.4197 -0.1652
| 57> *
| 58>
| 59>                          ****END OF INPUT****

CARTESIAN COORDINATES (ANGSTROEM)
---------------------------------
  O      5.979100   -0.178700    0.949200
  C      5.148000    0.492700    0.278500
  N      5.598900    1.246800   -0.859600
  C      7.012800    1.356200   -1.216300
  C      7.499900    0.084400   -1.907800
  O      6.769000   -0.127500   -3.083600
  C      3.718300    0.475500    0.672300
  C      3.203500   -0.616600    1.394200
  C      1.858900   -0.647000    1.774100
  C      1.011100    0.418800    1.451100
  S     -0.689100    0.367100    1.898500
  O     -1.170100    1.758600    2.204700
  O     -0.879500   -0.477200    3.127400
  N     -1.602100   -0.298400    0.582500
  C     -1.541100   -1.731700    0.291000
  C     -2.868600   -2.377300    0.580100
  C     -3.847900   -2.462100   -0.424100
  C     -5.099900   -3.015900   -0.141000
  C     -5.385100   -3.482000    1.145400
  C     -4.419400   -3.392100    2.151700
  C     -3.166400   -2.837300    1.873300
  C     -2.421800    0.568400   -0.208300
  N     -3.631500    0.960700    0.273100
  C     -4.461200    1.770900   -0.434700
  C     -4.077700    2.247300   -1.698200
  C     -5.012800    3.100600   -2.516800
  F     -5.822900    3.865500   -1.695300
  F     -5.807800    2.283400   -3.298600
  F     -4.298700    3.955600   -3.338800
  C     -2.840900    1.836500   -2.219800
  C     -2.001600    1.004800   -1.474100
  Cl    -0.436700    0.545400   -2.131100
  C      1.516400    1.512700    0.739100
  C      2.860400    1.545300    0.356300
  H      4.907200    1.726600   -1.477000
  H      7.619800    1.551800   -0.306200
  H      7.152100    2.217000   -1.905900
  H      7.384300   -0.787100   -1.226800
  H      8.578900    0.199700   -2.153900
  H      7.130500   -0.959700   -3.485700
  H      3.838200   -1.455300    1.652500
  H      1.479800   -1.504600    2.315000
  H     -0.749000   -2.216200    0.902200
  H     -1.259400   -1.888800   -0.772100
  H     -3.644000   -2.092400   -1.421600
  H     -5.850500   -3.080700   -0.918500
  H     -6.355200   -3.909400    1.363200
  H     -4.643200   -3.748400    3.149000
  H     -2.430300   -2.766700    2.663900
  H     -5.420500    2.037900   -0.011000
  H     -2.526700    2.162300   -3.203700
  H      0.869800    2.341200    0.478600
  H      3.224900    2.419700   -0.165200

 Total Charge           Charge          ....    0
 Multiplicity           Mult            ....    1
 Number of Electrons    NEL             ....  264
 Basis Dimension        Dim             ....  522

ORBITAL ENERGIES
----------------

  NO   OCC          E(Eh)            E(eV)
   0   2.0000    -101.558522     -2763.5479
   1   2.0000     -89.101909     -2424.5862
   2   2.0000     -24.736065      -673.1025
   3   2.0000     -24.735703      -673.0927
   4   2.0000     -24.732640      -673.0094
   5   2.0000     -19.141167      -520.8576
   6   2.0000     -19.129801      -520.5483
   7   2.0000     -19.128700      -520.5184
   8   2.0000     -19.119321      -520.2632
   9   2.0000     -14.379842      -391.2954
  10   2.0000     -14.364979      -390.8909
  11   2.0000     -14.361480      -390.7957
  12   2.0000     -10.454366      -284.4778
  13   2.0000     -10.300689      -280.2960
  14   2.0000     -10.297118      -280.1988
  15   2.0000     -10.283381      -279.8250
  16   2.0000     -10.254913      -279.0504
  17   2.0000     -10.243165      -278.7307
  18   2.0000     -10.242734      -278.7190
  19   2.0000     -10.240662      -278.6626
  20   2.0000     -10.238229      -278.5964
  21   2.0000     -10.225989      -278.2633
  22   2.0000     -10.225494      -278.2498
  23   2.0000     -10.225279      -278.2440
  24   2.0000     -10.220959      -278.1264
  25   2.0000     -10.219778      -278.0943
  26   2.0000     -10.218307      -278.0543
  27   2.0000     -10.213162      -277.9143
  28   2.0000     -10.190364      -277.2939
  29   2.0000     -10.183615      -277.1102
  30   2.0000     -10.181347      -277.0485
  31   2.0000     -10.180126      -277.0153
  32   2.0000     -10.179007      -276.9849
  33   2.0000     -10.177866      -276.9538
  34   2.0000      -9.489771      -258.2298
  35   2.0000      -8.137512      -221.4330
  36   2.0000      -7.253013      -197.3645
  37   2.0000      -7.243403      -197.1030
  38   2.0000      -7.242929      -197.0901
  39   2.0000      -6.102712      -166.0632
  40   2.0000      -6.100507      -166.0032
  41   2.0000      -6.100052      -165.9909
  42   2.0000      -1.295669       -35.2569
  43   2.0000      -1.220926       -33.2231
  44   2.0000      -1.219809       -33.1927
  45   2.0000      -1.087241       -29.5853
  46   2.0000      -1.024034       -27.8654
  47   2.0000      -1.017772       -27.6950
  48   2.0000      -0.986967       -26.8567
  49   2.0000      -0.965263       -26.2661
  50   2.0000      -0.931514       -25.3478
  51   2.0000      -0.907580       -24.6965
  52   2.0000      -0.897505       -24.4224
  53   2.0000      -0.888261       -24.1708
  54   2.0000      -0.850146       -23.1337
  55   2.0000      -0.838982       -22.8299
  56   2.0000      -0.805305       -21.9135
  57   2.0000      -0.786098       -21.3908
  58   2.0000      -0.776351       -21.1256
  59   2.0000      -0.767188       -20.8762
  60   2.0000      -0.743320       -20.2268
  61   2.0000      -0.740431       -20.1481
  62   2.0000      -0.726097       -19.7581
  63   2.0000      -0.705858       -19.2074
  64   2.0000      -0.682487       -18.5714
  65   2.0000      -0.666941       -18.1484
  66   2.0000      -0.649551       -17.6752
  67   2.0000      -0.638680       -17.3794
  68   2.0000      -0.625918       -17.0321
  69   2.0000      -0.608903       -16.5691
  70   2.0000      -0.602714       -16.4007
  71   2.0000      -0.588378       -16.0106
  72   2.0000      -0.586491       -15.9592
  73   2.0000      -0.586002       -15.9459
  74   2.0000      -0.575837       -15.6693
  75   2.0000      -0.574468       -15.6321
  76   2.0000      -0.565788       -15.3959
  77   2.0000      -0.547089       -14.8871
  78   2.0000      -0.532093       -14.4790
  79   2.0000      -0.522958       -14.2304
  80   2.0000      -0.516645       -14.0586
  81   2.0000      -0.505870       -13.7654
  82   2.0000      -0.495681       -13.4882
  83   2.0000      -0.490088       -13.3360
  84   2.0000      -0.481118       -13.0919
  85   2.0000      -0.477336       -12.9890
  86   2.0000      -0.470587       -12.8053
  87   2.0000      -0.467196       -12.7131
  88   2.0000      -0.464152       -12.6302
  89   2.0000      -0.462353       -12.5813
  90   2.0000      -0.461413       -12.5557
  91   2.0000      -0.452090       -12.3020
  92   2.0000      -0.449239       -12.2244
  93   2.0000      -0.442290       -12.0353
  94   2.0000      -0.441314       -12.0088
  95   2.0000      -0.437046       -11.8926
  96   2.0000      -0.431710       -11.7474
  97   2.0000      -0.429607       -11.6902
  98   2.0000      -0.425937       -11.5903
  99   2.0000      -0.423336       -11.5196
 100   2.0000      -0.420038       -11.4298
 101   2.0000      -0.417470       -11.3599
 102   2.0000      -0.416988       -11.3468
 103   2.0000      -0.413203       -11.2438
 104   2.0000      -0.407524       -11.0893
 105   2.0000      -0.399327       -10.8662
 106   2.0000      -0.397413       -10.8141
 107   2.0000      -0.394086       -10.7236
 108   2.0000      -0.388963       -10.5842
 109   2.0000      -0.377316       -10.2673
 110   2.0000      -0.369597       -10.0572
 111   2.0000      -0.365813        -9.9543
 112   2.0000      -0.358604        -9.7581
 113   2.0000      -0.351002        -9.5513
 114   2.0000      -0.342548        -9.3212
 115   2.0000      -0.338450        -9.2097
 116   2.0000      -0.337712        -9.1896
 117   2.0000      -0.332181        -9.0391
 118   2.0000      -0.316318        -8.6074
 119   2.0000      -0.309075        -8.4104
 120   2.0000      -0.296275        -8.0620
 121   2.0000      -0.289308        -7.8725
 122   2.0000      -0.284298        -7.7362
 123   2.0000      -0.278757        -7.5854
 124   2.0000      -0.278221        -7.5708
 125   2.0000      -0.272477        -7.4145
 126   2.0000      -0.270377        -7.3573
 127   2.0000      -0.262761        -7.1501
 128   2.0000      -0.256385        -6.9766
 129   2.0000      -0.248735        -6.7684
 130   2.0000      -0.245677        -6.6852
 131   2.0000      -0.240062        -6.5324
 132   0.0000      -0.079214        -2.1555
 133   0.0000      -0.064462        -1.7541
 134   0.0000      -0.053229        -1.4484
 135   0.0000      -0.031816        -0.8658
 136   0.0000      -0.007747        -0.2108

MULLIKEN ATOMIC CHARGES
-----------------------
   0 O :   -0.483542
   1 C :    0.503352
   2 N :   -0.600206
   3 C :   -0.136019
   4 C :   -0.012261
   5 O :   -0.628020
   6 C :    0.087724
   7 C :   -0.136182
   8 C :   -0.151078
   9 C :   -0.116512
  10 S :    1.203192
  11 O :   -0.536369
  12 O :   -0.537324
  13 N :   -0.592060
  14 C :   -0.261437
  15 C :    0.179109
  16 C :   -0.169858
  17 C :   -0.127868
  18 C :   -0.121905
  19 C :   -0.126993
  20 C :   -0.159841
  21 C :    0.398457
  22 N :   -0.331512
  23 C :   -0.002326
  24 C :   -0.024060
  25 C :    0.904778
  26 F :   -0.298618
  27 F :   -0.291453
  28 F :   -0.301266
  29 C :   -0.133941
  30 C :   -0.094943
  31 Cl:    0.017364
  32 C :   -0.136034
  33 C :   -0.161875
  34 H :    0.331137
  35 H :    0.172486
  36 H :    0.151640
  37 H :    0.151253
  38 H :    0.110976
  39 H :    0.400122
  40 H :    0.175314
  41 H :    0.179432
  42 H :    0.177745
  43 H :    0.167644
  44 H :    0.119186
  45 H :    0.127295
  46 H :    0.128639
  47 H :    0.133543
  48 H :    0.156245
  49 H :    0.186860
  50 H :    0.186512
  51 H :    0.178690
  52 H :    0.144808
Sum of atomic charges:    0.0000000

LOEWDIN ATOMIC CHARGES
----------------------
   0 O :   -0.289027
   1 C :    0.142260
   2 N :   -0.232784
   3 C :   -0.161753
   4 C :   -0.117403
   5 O :   -0.415390
   6 C :   -0.025802
   7 C :   -0.090605
   8 C :   -0.106055
   9 C :   -0.181482
  10 S :    1.269146
  11 O :   -0.564878
  12 O :   -0.567364
  13 N :   -0.281998
  14 C :   -0.146426
  15 C :   -0.033013
  16 C :   -0.134617
  17 C :   -0.128871
  18 C :   -0.126002
  19 C :   -0.123429
  20 C :   -0.116278
  21 C :    0.061066
  22 N :   -0.080359
  23 C :   -0.043077
  24 C :   -0.073256
  25 C :    0.313173
  26 F :   -0.106538
  27 F :   -0.108938
  28 F :   -0.110087
  29 C :   -0.094080
  30 C :   -0.098838
  31 Cl:    0.056866
  32 C :   -0.096841
  33 C :   -0.118557
  34 H :    0.253425
  35 H :    0.141712
  36 H :    0.131822
  37 H :    0.117040
  38 H :    0.098870
  39 H :    0.317035
  40 H :    0.158288
  41 H :    0.156466
  42 H :    0.145869
  43 H :    0.130901
  44 H :    0.126453
  45 H :    0.130893
  46 H :    0.131655
  47 H :    0.133953
  48 H :    0.144162
  49 H :    0.154465
  50 H :    0.161438
  51 H :    0.156981
  52 H :    0.139808

  Mayer bond orders larger than 0.100000
B(  0-O ,  1-C ) :   1.7851 B(  1-C ,  2-N ) :   1.0716 B(  1-C ,  6-C ) :   0.9796
B(  2-N ,  3-C ) :   0.9465 B(  2-N , 34-H ) :   0.8243 B(  3-C ,  4-C ) :   0.9902
B(  3-C , 35-H ) :   0.9265 B(  3-C , 36-H ) :   0.9354 B(  4-C ,  5-O ) :   0.9601
B(  4-C , 37-H ) :   0.9184 B(  4-C , 38-H ) :   0.9275 B(  5-O , 39-H ) :   0.7909
B(  6-C ,  7-C ) :   1.4092 B(  6-C , 33-C ) :   1.3873 B(  7-C ,  8-C ) :   1.4170
B(  7-C , 40-H ) :   0.9110 B(  8-C ,  9-C ) :   1.3835 B(  8-C , 41-H ) :   0.9104
B(  9-C , 10-S ) :   0.8175 B(  9-C , 32-C ) :   1.3942 B( 10-S , 11-O ) :   1.6407
B( 10-S , 12-O ) :   1.6334 B( 10-S , 13-N ) :   0.7975 B( 13-N , 14-C ) :   0.9112
B( 13-N , 21-C ) :   0.9475 B( 14-C , 15-C ) :   0.9493 B( 14-C , 42-H ) :   0.9194
B( 14-C , 43-H ) :   0.9197 B( 15-C , 16-C ) :   1.4302 B( 15-C , 20-C ) :   1.4391
B( 16-C , 17-C ) :   1.4424 B( 16-C , 44-H ) :   0.9252 B( 17-C , 18-C ) :   1.4575
B( 17-C , 45-H ) :   0.9295 B( 18-C , 19-C ) :   1.4486 B( 18-C , 46-H ) :   0.9303
B( 19-C , 20-C ) :   1.4443 B( 19-C , 47-H ) :   0.9291 B( 20-C , 48-H ) :   0.9133
B( 21-C , 22-N ) :   1.3947 B( 21-C , 30-C ) :   1.3377 B( 22-N , 23-C ) :   1.4127
B( 23-C , 24-C ) :   1.3540 B( 23-C , 49-H ) :   0.9169 B( 24-C , 25-C ) :   0.9719
B( 24-C , 29-C ) :   1.4141 B( 25-C , 26-F ) :   0.9526 B( 25-C , 27-F ) :   0.9892
B( 25-C , 28-F ) :   0.9509 B( 29-C , 30-C ) :   1.3894 B( 29-C , 50-H ) :   0.9084
B( 30-C , 31-Cl) :   1.0407 B( 32-C , 33-C ) :   1.4340 B( 32-C , 51-H ) :   0.9100
B( 33-C , 52-H ) :   0.9185

FINAL SINGLE POINT ENERGY     -2471.708428319408

DIPOLE MOMENT
-------------

Method             : SCF
Type of density    : Electron Density
Multiplicity       :   1
Irrep              :   0
Energy             : -2471.7084283194076306 Eh
Relativity type    :
Basis              : AO
                                X                 Y                 Z
Electronic contribution:    -40.842522370      24.292266501     -11.992797767
Nuclear contribution   :     41.782626699     -24.735341869       9.563114918
                        -----------------------------------------
Total Dipole Moment    :      0.940104329      -0.443075368      -2.429682849
                        -----------------------------------------
Magnitude (a.u.)       :      2.642625717
Magnitude (Debye)      :      6.717020762

Rotational constants in cm-1:             0.004815             0.001843             0.001533
Rotational constants in MHz :           144.343772            55.251893            45.949860

                             ****ORCA TERMINATED NORMALLY****
TOTAL RUN TIME: 0 days 0 hours 10 minutes 13 seconds 628 msec
