                         Program Version 6.0.0  -   RELEASE  -
|  1> ! B3LYP 6-31G* SP
|  2>
|  3> * xyz 0 1
|  4> C -5.0267 -2.4607 -1.1202
|  5> C -4.0741 -1.3671 -0.7075
|  6> C -3.7949 -0.3488 -1.6364
|  7> C -2.9304 0.6948 -1.3174
|  8> C -2.3309 0.7519 -0.0558
|  9> C -1.3404 1.8392 0.2695
| 10> N 0.0220 1.2843 0.3175
| 11> C 0.5656 0.7323 -0.8961
| 12> O 0.4902 1.3986 -1.9644
| 13> C 1.1949 -0.6080 -0.9110
| 14> C 0.9073 -1.5492 0.0914
| 15> N 1.4724 -2.7855 0.0597
| 16> C 2.3270 -3.1580 -0.9286
| 17> C 2.8894 -4.4396 -0.9258
| 18> C 3.7654 -4.8209 -1.9470
| 19> C 4.0812 -3.9246 -2.9737
| 20> C 3.5243 -2.6418 -2.9841
| 21> C 2.6444 -2.2516 -1.9632
| 22> C 2.0677 -0.9757 -1.9481
| 23> C 0.9540 1.6022 1.4176
| 24> C 0.4115 1.1742 2.7927
| 25> C 1.3659 3.0626 1.3507
| 26> C 2.5017 3.4176 0.5989
| 27> C 2.8767 4.7575 0.4664
| 28> C 2.1154 5.7609 1.0684
| 29> F 2.4773 7.0604 0.9342
| 30> C 0.9754 5.4253 1.8024
| 31> C 0.5958 4.0866 1.9388
| 32> C -2.5991 -0.2548 0.8805
| 33> C -3.4538 -1.3317 0.5734
| 34> C -3.6497 -2.3838 1.6125
| 35> O -4.2262 -3.4713 1.3462
| 36> O -3.1701 -2.1819 2.9049
| 37> H -4.4824 -3.4264 -1.1961
| 38> H -5.4883 -2.2553 -2.1101
| 39> H -5.8531 -2.5424 -0.3840
| 40> H -4.2459 -0.3620 -2.6214
| 41> H -2.7219 1.4552 -2.0595
| 42> H -1.6282 2.3064 1.2310
| 43> H -1.3797 2.6504 -0.4905
| 44> H 0.2165 -1.3137 0.8879
| 45> H 2.6489 -5.1403 -0.1359
| 46> H 4.1995 -5.8124 -1.9435
| 47> H 4.7588 -4.2246 -3.7622
| 48> H 3.7784 -1.9591 -3.7861
| 49> H 2.3031 -0.2694 -2.7359
| 50> H 1.8778 0.9925 1.2897
| 51> H -0.5467 1.6631 3.0527
| 52> H 0.2520 0.0764 2.8122
| 53> H 1.1535 1.4234 3.5809
| 54> H 3.0951 2.6559 0.1076
| 55> H 3.7543 5.0167 -0.1120
| 56> H 0.3792 6.2037 2.2610
| 57> H -0.2995 3.8623 2.5004
| 58> H -2.1108 -0.2058 1.8459
| 59> H -3.2894 -2.8879 3.6214
| 60> *
| 61>
| 62>                          ****END OF INPUT****

CARTESIAN COORDINATES (ANGSTROEM)
---------------------------------
  C     -5.026700   -2.460700   -1.120200
  C     -4.074100   -1.367100   -0.707500
  C     -3.794900   -0.348800   -1.636400
  C     -2.930400    0.694800   -1.317400
  C     -2.330900    0.751900   -0.055800
  C     -1.340400    1.839200    0.269500
  N      0.022000    1.284300    0.317500
  C      0.565600    0.732300   -0.896100
  O      0.490200    1.398600   -1.964400
  C      1.194900   -0.608000   -0.911000
  C      0.907300   -1.549200    0.091400
  N      1.472400   -2.785500    0.059700
  C      2.327000   -3.158000   -0.928600
  C      2.889400   -4.439600   -0.925800
  C      3.765400   -4.820900   -1.947000
  C      4.081200   -3.924600   -2.973700
  C      3.524300   -2.641800   -2.984100
  C      2.644400   -2.251600   -1.963200
  C      2.067700   -0.975700   -1.948100
  C      0.954000    1.602200    1.417600
  C      0.411500    1.174200    2.792700
  C      1.365900    3.062600    1.350700
  C      2.501700    3.417600    0.598900
  C      2.876700    4.757500    0.466400
  C      2.115400    5.760900    1.068400
  F      2.477300    7.060400    0.934200
  C      0.975400    5.425300    1.802400
  C      0.595800    4.086600    1.938800
  C     -2.599100   -0.254800    0.880500
  C     -3.453800   -1.331700    0.573400
  C     -3.649700   -2.383800    1.612500
  O     -4.226200   -3.471300    1.346200
  O     -3.170100   -2.181900    2.904900
  H     -4.482400   -3.426400   -1.196100
  H     -5.488300   -2.255300   -2.110100
  H     -5.853100   -2.542400   -0.384000
  H     -4.245900   -0.362000   -2.621400
  H     -2.721900    1.455200   -2.059500
  H     -1.628200    2.306400    1.231000
  H     -1.379700    2.650400   -0.490500
  H      0.216500   -1.313700    0.887900
  H      2.648900   -5.140300   -0.135900
  H      4.199500   -5.812400   -1.943500
  H      4.758800   -4.224600   -3.762200
  H      3.778400   -1.959100   -3.786100
  H      2.303100   -0.269400   -2.735900
  H      1.877800    0.992500    1.289700
  H     -0.546700    1.663100    3.052700
  H      0.252000    0.076400    2.812200
  H      1.153500    1.423400    3.580900
  H      3.095100    2.655900    0.107600
  H      3.754300    5.016700   -0.112000
  H      0.379200    6.203700    2.261000
  H     -0.299500    3.862300    2.500400
  H     -2.110800   -0.205800    1.845900
  H     -3.289400   -2.887900    3.621400

 Total Charge           Charge          ....    0
 Multiplicity           Mult            ....    1
 Number of Electrons    NEL             ....  232
 Basis Dimension        Dim             ....  508

ORBITAL ENERGIES
----------------

  NO   OCC          E(Eh)            E(eV)
   0   2.0000     -24.697154      -672.0437
   1   2.0000     -19.180403      -521.9253
   2   2.0000     -19.123700      -520.3823
   3   2.0000     -19.120773      -520.3027
   4   2.0000     -14.342002      -390.2657
   5   2.0000     -14.326288      -389.8381
   6   2.0000     -10.319068      -280.7961
   7   2.0000     -10.293154      -280.0910
   8   2.0000     -10.268639      -279.4239
   9   2.0000     -10.234865      -278.5048
  10   2.0000     -10.225865      -278.2599
  11   2.0000     -10.223407      -278.1930
  12   2.0000     -10.219502      -278.0868
  13   2.0000     -10.209227      -277.8072
  14   2.0000     -10.206718      -277.7389
  15   2.0000     -10.205427      -277.7038
  16   2.0000     -10.204913      -277.6898
  17   2.0000     -10.199936      -277.5544
  18   2.0000     -10.197048      -277.4758
  19   2.0000     -10.196336      -277.4564
  20   2.0000     -10.194918      -277.4178
  21   2.0000     -10.194870      -277.4165
  22   2.0000     -10.194199      -277.3983
  23   2.0000     -10.192672      -277.3567
  24   2.0000     -10.192145      -277.3424
  25   2.0000     -10.191717      -277.3307
  26   2.0000     -10.191214      -277.3170
  27   2.0000     -10.190255      -277.2909
  28   2.0000     -10.189097      -277.2594
  29   2.0000     -10.188387      -277.2401
  30   2.0000     -10.184407      -277.1318
  31   2.0000     -10.182824      -277.0887
  32   2.0000     -10.166864      -276.6544
  33   2.0000      -1.210702       -32.9449
  34   2.0000      -1.065909       -29.0049
  35   2.0000      -1.019503       -27.7421
  36   2.0000      -0.979379       -26.6503
  37   2.0000      -0.938404       -25.5353
  38   2.0000      -0.922766       -25.1097
  39   2.0000      -0.864414       -23.5219
  40   2.0000      -0.857205       -23.3257
  41   2.0000      -0.852536       -23.1987
  42   2.0000      -0.814915       -22.1750
  43   2.0000      -0.795163       -21.6375
  44   2.0000      -0.774362       -21.0715
  45   2.0000      -0.764028       -20.7902
  46   2.0000      -0.763361       -20.7721
  47   2.0000      -0.755244       -20.5512
  48   2.0000      -0.743620       -20.2349
  49   2.0000      -0.727435       -19.7945
  50   2.0000      -0.712503       -19.3882
  51   2.0000      -0.673087       -18.3156
  52   2.0000      -0.658906       -17.9297
  53   2.0000      -0.644124       -17.5275
  54   2.0000      -0.642409       -17.4808
  55   2.0000      -0.629821       -17.1383
  56   2.0000      -0.621000       -16.8983
  57   2.0000      -0.609570       -16.5872
  58   2.0000      -0.608614       -16.5612
  59   2.0000      -0.590933       -16.0801
  60   2.0000      -0.573666       -15.6103
  61   2.0000      -0.556406       -15.1406
  62   2.0000      -0.540179       -14.6990
  63   2.0000      -0.530144       -14.4259
  64   2.0000      -0.528076       -14.3697
  65   2.0000      -0.514081       -13.9889
  66   2.0000      -0.508962       -13.8496
  67   2.0000      -0.494350       -13.4519
  68   2.0000      -0.484983       -13.1970
  69   2.0000      -0.479025       -13.0349
  70   2.0000      -0.474557       -12.9133
  71   2.0000      -0.470001       -12.7894
  72   2.0000      -0.466568       -12.6960
  73   2.0000      -0.453116       -12.3299
  74   2.0000      -0.451927       -12.2976
  75   2.0000      -0.451391       -12.2830
  76   2.0000      -0.449459       -12.2304
  77   2.0000      -0.438526       -11.9329
  78   2.0000      -0.436592       -11.8803
  79   2.0000      -0.431397       -11.7389
  80   2.0000      -0.429445       -11.6858
  81   2.0000      -0.428907       -11.6711
  82   2.0000      -0.421956       -11.4820
  83   2.0000      -0.416037       -11.3209
  84   2.0000      -0.412567       -11.2265
  85   2.0000      -0.408963       -11.1284
  86   2.0000      -0.402332       -10.9480
  87   2.0000      -0.401734       -10.9318
  88   2.0000      -0.399964       -10.8836
  89   2.0000      -0.394611       -10.7379
  90   2.0000      -0.388141       -10.5618
  91   2.0000      -0.378743       -10.3061
  92   2.0000      -0.369778       -10.0622
  93   2.0000      -0.366589        -9.9754
  94   2.0000      -0.364976        -9.9315
  95   2.0000      -0.361462        -9.8359
  96   2.0000      -0.357573        -9.7301
  97   2.0000      -0.355505        -9.6738
  98   2.0000      -0.352084        -9.5807
  99   2.0000      -0.348950        -9.4954
 100   2.0000      -0.346201        -9.4206
 101   2.0000      -0.340518        -9.2660
 102   2.0000      -0.338297        -9.2055
 103   2.0000      -0.335790        -9.1373
 104   2.0000      -0.304672        -8.2906
 105   2.0000      -0.301328        -8.1995
 106   2.0000      -0.269584        -7.3357
 107   2.0000      -0.259666        -7.0659
 108   2.0000      -0.258141        -7.0244
 109   2.0000      -0.257880        -7.0173
 110   2.0000      -0.253182        -6.8894
 111   2.0000      -0.246172        -6.6987
 112   2.0000      -0.244437        -6.6515
 113   2.0000      -0.239584        -6.5194
 114   2.0000      -0.229487        -6.2447
 115   2.0000      -0.216166        -5.8822
 116   0.0000      -0.074668        -2.0318
 117   0.0000      -0.047165        -1.2834
 118   0.0000      -0.040719        -1.1080
 119   0.0000      -0.011702        -0.3184
 120   0.0000      -0.009379        -0.2552

MULLIKEN ATOMIC CHARGES
-----------------------
   0 C :   -0.493191
   1 C :    0.124026
   2 C :   -0.180769
   3 C :   -0.152260
   4 C :    0.144853
   5 C :   -0.227355
   6 N :   -0.417295
   7 C :    0.441257
   8 O :   -0.448974
   9 C :    0.061910
  10 C :   -0.024661
  11 N :   -0.434001
  12 C :    0.218307
  13 C :   -0.143482
  14 C :   -0.127270
  15 C :   -0.131783
  16 C :   -0.196653
  17 C :    0.160701
  18 C :   -0.180875
  19 C :   -0.090020
  20 C :   -0.457459
  21 C :    0.183230
  22 C :   -0.158746
  23 C :   -0.206097
  24 C :    0.411464
  25 F :   -0.318540
  26 C :   -0.211551
  27 C :   -0.163494
  28 C :   -0.216240
  29 C :    0.054401
  30 C :    0.517589
  31 O :   -0.454068
  32 O :   -0.628225
  33 H :    0.180777
  34 H :    0.135619
  35 H :    0.169357
  36 H :    0.135735
  37 H :    0.149347
  38 H :    0.154832
  39 H :    0.166767
  40 H :    0.166869
  41 H :    0.147009
  42 H :    0.139682
  43 H :    0.136791
  44 H :    0.139635
  45 H :    0.167695
  46 H :    0.151321
  47 H :    0.146823
  48 H :    0.160878
  49 H :    0.156098
  50 H :    0.137147
  51 H :    0.145496
  52 H :    0.144023
  53 H :    0.131590
  54 H :    0.154388
  55 H :    0.427395
Sum of atomic charges:    0.0000000

LOEWDIN ATOMIC CHARGES
----------------------
   0 C :   -0.348987
   1 C :    0.019791
   2 C :   -0.133764
   3 C :   -0.107471
   4 C :   -0.040957
   5 C :   -0.143297
   6 N :   -0.126319
   7 C :    0.146686
   8 O :   -0.253375
   9 C :   -0.079846
  10 C :   -0.056470
  11 N :   -0.130121
  12 C :    0.021527
  13 C :   -0.115217
  14 C :   -0.115415
  15 C :   -0.127591
  16 C :   -0.113682
  17 C :   -0.031476
  18 C :   -0.054829
  19 C :   -0.052027
  20 C :   -0.362802
  21 C :   -0.030710
  22 C :   -0.117789
  23 C :   -0.153504
  24 C :    0.115837
  25 F :   -0.104566
  26 C :   -0.156148
  27 C :   -0.127221
  28 C :   -0.103642
  29 C :   -0.062537
  30 C :    0.179267
  31 O :   -0.264671
  32 O :   -0.341907
  33 H :    0.149076
  34 H :    0.119991
  35 H :    0.143161
  36 H :    0.136455
  37 H :    0.142003
  38 H :    0.133174
  39 H :    0.132467
  40 H :    0.142768
  41 H :    0.145790
  42 H :    0.137570
  43 H :    0.135845
  44 H :    0.136751
  45 H :    0.153265
  46 H :    0.134595
  47 H :    0.122086
  48 H :    0.130250
  49 H :    0.133884
  50 H :    0.136261
  51 H :    0.143826
  52 H :    0.142780
  53 H :    0.132817
  54 H :    0.143552
  55 H :    0.344863

  Mayer bond orders larger than 0.100000
B(  0-C ,  1-C ) :   1.0242 B(  0-C , 33-H ) :   0.9231 B(  0-C , 34-H ) :   0.9378
B(  0-C , 35-H ) :   0.9278 B(  1-C ,  2-C ) :   1.4383 B(  1-C , 29-C ) :   1.3707
B(  2-C ,  3-C ) :   1.4067 B(  2-C , 36-H ) :   0.9215 B(  3-C ,  4-C ) :   1.4396
B(  3-C , 37-H ) :   0.9176 B(  4-C ,  5-C ) :   0.9666 B(  4-C , 28-C ) :   1.3963
B(  5-C ,  6-N ) :   0.9339 B(  5-C , 38-H ) :   0.9229 B(  5-C , 39-H ) :   0.9147
B(  6-N ,  7-C ) :   0.9990 B(  6-N , 19-C ) :   0.9603 B(  7-C ,  8-O ) :   1.8476
B(  7-C ,  9-C ) :   0.9826 B(  9-C , 10-C ) :   1.2629 B(  9-C , 18-C ) :   1.4273
B( 10-C , 11-N ) :   1.5002 B( 10-C , 40-H ) :   0.9099 B( 11-N , 12-C ) :   1.2514
B( 12-C , 13-C ) :   1.3110 B( 12-C , 17-C ) :   1.2465 B( 13-C , 14-C ) :   1.5132
B( 13-C , 16-C ) :   0.1072 B( 13-C , 41-H ) :   0.9169 B( 14-C , 15-C ) :   1.3444
B( 14-C , 42-H ) :   0.9290 B( 15-C , 16-C ) :   1.5168 B( 15-C , 43-H ) :   0.9294
B( 16-C , 17-C ) :   1.2750 B( 16-C , 44-H ) :   0.9238 B( 17-C , 18-C ) :   1.2718
B( 18-C , 45-H ) :   0.9102 B( 19-C , 20-C ) :   0.9958 B( 19-C , 21-C ) :   0.9464
B( 19-C , 46-H ) :   0.9187 B( 20-C , 47-H ) :   0.9359 B( 20-C , 48-H ) :   0.9359
B( 20-C , 49-H ) :   0.9405 B( 21-C , 22-C ) :   1.4218 B( 21-C , 27-C ) :   1.4185
B( 22-C , 23-C ) :   1.4248 B( 22-C , 50-H ) :   0.9229 B( 23-C , 24-C ) :   1.3934
B( 23-C , 51-H ) :   0.9202 B( 24-C , 25-F ) :   0.9172 B( 24-C , 26-C ) :   1.3943
B( 26-C , 27-C ) :   1.4223 B( 26-C , 52-H ) :   0.9207 B( 27-C , 53-H ) :   0.9216
B( 28-C , 29-C ) :   1.3524 B( 28-C , 54-H ) :   0.9060 B( 29-C , 30-C ) :   1.0101
B( 30-C , 31-O ) :   1.8207 B( 30-C , 32-O ) :   1.0124 B( 32-O , 55-H ) :   0.7447

FINAL SINGLE POINT ENERGY     -1476.844930857317

DIPOLE MOMENT
-------------

Method             : SCF
Type of density    : Electron Density
Multiplicity       :   1
Irrep              :   0
Energy             : -1476.8449308573171948 Eh
Relativity type    :
Basis              : AO
                                X                 Y                 Z
Electronic contribution:      8.011965422      10.874672312      -0.761909485
Nuclear contribution   :     -7.323093256     -11.028949647       1.096224590
                        -----------------------------------------
Total Dipole Moment    :      0.688872165      -0.154277336       0.334315105
                        -----------------------------------------
Magnitude (a.u.)       :      0.781097271
Magnitude (Debye)      :      1.985391480

Rotational constants in cm-1:             0.004315             0.003077             0.002103
Rotational constants in MHz :           129.358611            92.259116            63.058019

                             ****ORCA TERMINATED NORMALLY****
TOTAL RUN TIME: 0 days 0 hours 10 minutes 15 seconds 958 msec
