                         Program Version 6.0.0  -   RELEASE  -
|  1> ! B3LYP 6-31G* SP
|  2>
|  3> * xyz 0 1
|  4> O -4.4872 2.0485 -2.3852
|  5> C -4.2671 1.3284 -1.3744
|  6> C -3.1359 1.6732 -0.4459
|  7> C -2.5494 0.4052 0.2335
|  8> C -1.7477 -0.4470 -0.7984
|  9> C -0.2547 -0.0950 -0.8475
| 10> N 0.3562 -0.1800 0.4883
| 11> C 1.7808 -0.3503 0.6394
| 12> O 2.2335 -0.8518 1.7050
| 13> N 2.6868 0.0254 -0.4155
| 14> C 4.1167 0.0579 -0.2671
| 15> C 4.7206 0.4892 0.9265
| 16> C 6.1134 0.5373 1.0373
| 17> C 6.9284 0.1508 -0.0404
| 18> C 8.4297 0.2494 0.0609
| 19> F 8.8468 0.0564 1.3667
| 20> F 8.8328 1.5030 -0.3602
| 21> F 9.0350 -0.7097 -0.7327
| 22> C 6.3218 -0.2314 -1.2489
| 23> C 4.9292 -0.2778 -1.3591
| 24> C -0.5014 -0.1284 1.6809
| 25> C -1.6639 0.8358 1.4364
| 26> O -3.6205 -0.4026 0.7446
| 27> C -4.8068 -0.6316 0.0353
| 28> C -5.6539 -1.6795 0.4142
| 29> F -5.3323 -2.4672 1.4703
| 30> C -6.8270 -1.9263 -0.3060
| 31> C -7.1589 -1.1237 -1.4015
| 32> C -6.3250 -0.0651 -1.7746
| 33> C -5.1487 0.1914 -1.0509
| 34> H -3.5379 2.3621 0.3289
| 35> H -2.3394 2.2133 -1.0033
| 36> H -1.8279 -1.5217 -0.5209
| 37> H -2.1776 -0.3569 -1.8193
| 38> H -0.1189 0.9306 -1.2528
| 39> H 0.2369 -0.8189 -1.5334
| 40> H 2.3044 0.2269 -1.3653
| 41> H 4.1192 0.8193 1.7629
| 42> H 6.5531 0.8874 1.9628
| 43> H 6.9249 -0.4905 -2.1102
| 44> H 4.4808 -0.5813 -2.2970
| 45> H 0.0737 0.2375 2.5595
| 46> H -0.8852 -1.1457 1.9111
| 47> H -2.2814 0.9117 2.3583
| 48> H -1.2261 1.8437 1.2566
| 49> H -7.4785 -2.7411 -0.0174
| 50> H -8.0672 -1.3177 -1.9573
| 51> H -6.6043 0.5569 -2.6158
| 52> *
| 53>
| 54>                          ****END OF INPUT****

CARTESIAN COORDINATES (ANGSTROEM)
---------------------------------
  O     -4.487200    2.048500   -2.385200
  C     -4.267100    1.328400   -1.374400
  C     -3.135900    1.673200   -0.445900
  C     -2.549400    0.405200    0.233500
  C     -1.747700   -0.447000   -0.798400
  C     -0.254700   -0.095000   -0.847500
  N      0.356200   -0.180000    0.488300
  C      1.780800   -0.350300    0.639400
  O      2.233500   -0.851800    1.705000
  N      2.686800    0.025400   -0.415500
  C      4.116700    0.057900   -0.267100
  C      4.720600    0.489200    0.926500
  C      6.113400    0.537300    1.037300
  C      6.928400    0.150800   -0.040400
  C      8.429700    0.249400    0.060900
  F      8.846800    0.056400    1.366700
  F      8.832800    1.503000   -0.360200
  F      9.035000   -0.709700   -0.732700
  C      6.321800   -0.231400   -1.248900
  C      4.929200   -0.277800   -1.359100
  C     -0.501400   -0.128400    1.680900
  C     -1.663900    0.835800    1.436400
  O     -3.620500   -0.402600    0.744600
  C     -4.806800   -0.631600    0.035300
  C     -5.653900   -1.679500    0.414200
  F     -5.332300   -2.467200    1.470300
  C     -6.827000   -1.926300   -0.306000
  C     -7.158900   -1.123700   -1.401500
  C     -6.325000   -0.065100   -1.774600
  C     -5.148700    0.191400   -1.050900
  H     -3.537900    2.362100    0.328900
  H     -2.339400    2.213300   -1.003300
  H     -1.827900   -1.521700   -0.520900
  H     -2.177600   -0.356900   -1.819300
  H     -0.118900    0.930600   -1.252800
  H      0.236900   -0.818900   -1.533400
  H      2.304400    0.226900   -1.365300
  H      4.119200    0.819300    1.762900
  H      6.553100    0.887400    1.962800
  H      6.924900   -0.490500   -2.110200
  H      4.480800   -0.581300   -2.297000
  H      0.073700    0.237500    2.559500
  H     -0.885200   -1.145700    1.911100
  H     -2.281400    0.911700    2.358300
  H     -1.226100    1.843700    1.256600
  H     -7.478500   -2.741100   -0.017400
  H     -8.067200   -1.317700   -1.957300
  H     -6.604300    0.556900   -2.615800

 Total Charge           Charge          ....    0
 Multiplicity           Mult            ....    1
 Number of Electrons    NEL             ....  218
 Basis Dimension        Dim             ....  456

ORBITAL ENERGIES
----------------

  NO   OCC          E(Eh)            E(eV)
   0   2.0000     -24.711716      -672.4400
   1   2.0000     -24.711575      -672.4361
   2   2.0000     -24.711033      -672.4214
   3   2.0000     -24.707943      -672.3373
   4   2.0000     -19.189419      -522.1706
   5   2.0000     -19.137590      -520.7603
   6   2.0000     -19.107043      -519.9291
   7   2.0000     -14.377359      -391.2278
   8   2.0000     -14.361701      -390.8018
   9   2.0000     -10.426278      -283.7135
  10   2.0000     -10.323206      -280.9087
  11   2.0000     -10.286474      -279.9092
  12   2.0000     -10.282586      -279.8034
  13   2.0000     -10.276897      -279.6486
  14   2.0000     -10.276549      -279.6391
  15   2.0000     -10.243600      -278.7425
  16   2.0000     -10.242825      -278.7214
  17   2.0000     -10.225303      -278.2446
  18   2.0000     -10.212649      -277.9003
  19   2.0000     -10.210923      -277.8533
  20   2.0000     -10.209045      -277.8022
  21   2.0000     -10.206866      -277.7429
  22   2.0000     -10.204991      -277.6919
  23   2.0000     -10.203841      -277.6606
  24   2.0000     -10.203585      -277.6537
  25   2.0000     -10.202694      -277.6294
  26   2.0000     -10.199375      -277.5391
  27   2.0000     -10.196113      -277.4503
  28   2.0000     -10.196095      -277.4499
  29   2.0000     -10.189403      -277.2677
  30   2.0000      -1.271395       -34.5964
  31   2.0000      -1.223735       -33.2995
  32   2.0000      -1.197052       -32.5734
  33   2.0000      -1.195780       -32.5388
  34   2.0000      -1.074863       -29.2485
  35   2.0000      -1.024235       -27.8708
  36   2.0000      -1.021062       -27.7845
  37   2.0000      -0.932642       -25.3785
  38   2.0000      -0.923854       -25.1393
  39   2.0000      -0.877926       -23.8896
  40   2.0000      -0.857169       -23.3247
  41   2.0000      -0.830132       -22.5891
  42   2.0000      -0.790042       -21.4981
  43   2.0000      -0.781075       -21.2541
  44   2.0000      -0.772069       -21.0091
  45   2.0000      -0.760647       -20.6983
  46   2.0000      -0.755554       -20.5597
  47   2.0000      -0.746855       -20.3230
  48   2.0000      -0.691007       -18.8033
  49   2.0000      -0.668429       -18.1889
  50   2.0000      -0.665698       -18.1146
  51   2.0000      -0.657017       -17.8783
  52   2.0000      -0.630622       -17.1601
  53   2.0000      -0.623811       -16.9748
  54   2.0000      -0.613003       -16.6807
  55   2.0000      -0.591559       -16.0971
  56   2.0000      -0.570596       -15.5267
  57   2.0000      -0.563458       -15.3325
  58   2.0000      -0.562400       -15.3037
  59   2.0000      -0.559575       -15.2268
  60   2.0000      -0.554109       -15.0781
  61   2.0000      -0.548499       -14.9254
  62   2.0000      -0.538139       -14.6435
  63   2.0000      -0.524269       -14.2661
  64   2.0000      -0.517389       -14.0789
  65   2.0000      -0.512139       -13.9360
  66   2.0000      -0.495214       -13.4754
  67   2.0000      -0.486916       -13.2497
  68   2.0000      -0.475141       -12.9293
  69   2.0000      -0.471695       -12.8355
  70   2.0000      -0.467678       -12.7262
  71   2.0000      -0.460579       -12.5330
  72   2.0000      -0.458144       -12.4667
  73   2.0000      -0.450576       -12.2608
  74   2.0000      -0.446863       -12.1598
  75   2.0000      -0.442162       -12.0318
  76   2.0000      -0.441194       -12.0055
  77   2.0000      -0.438345       -11.9280
  78   2.0000      -0.432416       -11.7666
  79   2.0000      -0.423999       -11.5376
  80   2.0000      -0.417996       -11.3742
  81   2.0000      -0.415065       -11.2945
  82   2.0000      -0.413292       -11.2463
  83   2.0000      -0.409965       -11.1557
  84   2.0000      -0.407169       -11.0796
  85   2.0000      -0.405169       -11.0252
  86   2.0000      -0.400039       -10.8856
  87   2.0000      -0.397613       -10.8196
  88   2.0000      -0.396230       -10.7820
  89   2.0000      -0.390382       -10.6228
  90   2.0000      -0.384128       -10.4526
  91   2.0000      -0.381930       -10.3928
  92   2.0000      -0.378942       -10.3115
  93   2.0000      -0.373634       -10.1671
  94   2.0000      -0.363167        -9.8823
  95   2.0000      -0.360595        -9.8123
  96   2.0000      -0.358170        -9.7463
  97   2.0000      -0.356692        -9.7061
  98   2.0000      -0.344641        -9.3782
  99   2.0000      -0.330523        -8.9940
 100   2.0000      -0.321930        -8.7602
 101   2.0000      -0.298575        -8.1246
 102   2.0000      -0.265685        -7.2296
 103   2.0000      -0.264988        -7.2107
 104   2.0000      -0.254840        -6.9346
 105   2.0000      -0.253187        -6.8896
 106   2.0000      -0.240783        -6.5520
 107   2.0000      -0.234320        -6.3762
 108   2.0000      -0.228038        -6.2052
 109   0.0000      -0.073498        -2.0000
 110   0.0000      -0.024629        -0.6702
 111   0.0000      -0.010541        -0.2868
 112   0.0000      -0.009535        -0.2595
 113   0.0000       0.024939         0.6786

MULLIKEN ATOMIC CHARGES
-----------------------
   0 O :   -0.442528
   1 C :    0.356188
   2 C :   -0.393437
   3 C :    0.344887
   4 C :   -0.328553
   5 C :   -0.144802
   6 N :   -0.441645
   7 C :    0.687249
   8 O :   -0.489444
   9 N :   -0.727788
  10 C :    0.350259
  11 C :   -0.127979
  12 C :   -0.173461
  13 C :   -0.014841
  14 C :    0.891389
  15 F :   -0.306157
  16 F :   -0.298990
  17 F :   -0.307227
  18 C :   -0.163903
  19 C :   -0.182905
  20 C :   -0.122727
  21 C :   -0.323117
  22 O :   -0.543154
  23 C :    0.239077
  24 C :    0.358702
  25 F :   -0.306805
  26 C :   -0.198496
  27 C :   -0.124738
  28 C :   -0.167591
  29 C :    0.052077
  30 H :    0.182643
  31 H :    0.174241
  32 H :    0.174602
  33 H :    0.161976
  34 H :    0.141015
  35 H :    0.154293
  36 H :    0.331317
  37 H :    0.158878
  38 H :    0.154431
  39 H :    0.151213
  40 H :    0.129863
  41 H :    0.176765
  42 H :    0.161489
  43 H :    0.170823
  44 H :    0.154268
  45 H :    0.159513
  46 H :    0.145647
  47 H :    0.167482
Sum of atomic charges:   -0.0000000

LOEWDIN ATOMIC CHARGES
----------------------
   0 O :   -0.236549
   1 C :    0.127404
   2 C :   -0.251391
   3 C :    0.082968
   4 C :   -0.239058
   5 C :   -0.157257
   6 N :   -0.134452
   7 C :    0.166848
   8 O :   -0.306277
   9 N :   -0.228132
  10 C :    0.051530
  11 C :   -0.121176
  12 C :   -0.109530
  13 C :   -0.080129
  14 C :    0.308894
  15 F :   -0.114311
  16 F :   -0.116607
  17 F :   -0.115513
  18 C :   -0.110629
  19 C :   -0.148115
  20 C :   -0.142751
  21 C :   -0.233207
  22 O :   -0.165417
  23 C :    0.076343
  24 C :    0.097024
  25 F :   -0.095398
  26 C :   -0.130735
  27 C :   -0.136519
  28 C :   -0.092607
  29 C :   -0.089943
  30 H :    0.153787
  31 H :    0.149214
  32 H :    0.141996
  33 H :    0.138081
  34 H :    0.109993
  35 H :    0.128445
  36 H :    0.254982
  37 H :    0.150691
  38 H :    0.145121
  39 H :    0.143611
  40 H :    0.133241
  41 H :    0.146730
  42 H :    0.125372
  43 H :    0.145882
  44 H :    0.132233
  45 H :    0.151350
  46 H :    0.140502
  47 H :    0.153459

  Mayer bond orders larger than 0.100000
B(  0-O ,  1-C ) :   1.8657 B(  1-C ,  2-C ) :   0.9573 B(  1-C , 29-C ) :   1.0126
B(  2-C ,  3-C ) :   0.9526 B(  2-C , 30-H ) :   0.9094 B(  2-C , 31-H ) :   0.9165
B(  3-C ,  4-C ) :   0.9729 B(  3-C , 21-C ) :   0.9732 B(  3-C , 22-O ) :   0.8351
B(  4-C ,  5-C ) :   1.0006 B(  4-C , 32-H ) :   0.9232 B(  4-C , 33-H ) :   0.9248
B(  5-C ,  6-N ) :   0.9453 B(  5-C , 34-H ) :   0.9181 B(  5-C , 35-H ) :   0.9248
B(  6-N ,  7-C ) :   1.0546 B(  6-N , 20-C ) :   0.9372 B(  7-C ,  8-O ) :   1.7896
B(  7-C ,  9-N ) :   0.9954 B(  9-N , 10-C ) :   0.8757 B(  9-N , 36-H ) :   0.8170
B( 10-C , 11-C ) :   1.4176 B( 10-C , 19-C ) :   1.4032 B( 11-C , 12-C ) :   1.4354
B( 11-C , 37-H ) :   0.9108 B( 12-C , 13-C ) :   1.3981 B( 12-C , 38-H ) :   0.9197
B( 13-C , 14-C ) :   0.9830 B( 13-C , 18-C ) :   1.4114 B( 14-C , 15-F ) :   0.9475
B( 14-C , 16-F ) :   0.9840 B( 14-C , 17-F ) :   0.9470 B( 18-C , 19-C ) :   1.4385
B( 18-C , 39-H ) :   0.9196 B( 19-C , 40-H ) :   0.9243 B( 20-C , 21-C ) :   0.9906
B( 20-C , 41-H ) :   0.9235 B( 20-C , 42-H ) :   0.9255 B( 21-C , 43-H ) :   0.9221
B( 21-C , 44-H ) :   0.9271 B( 22-O , 23-C ) :   0.9275 B( 23-C , 24-C ) :   1.2914
B( 23-C , 29-C ) :   1.2941 B( 24-C , 25-F ) :   0.9379 B( 24-C , 26-C ) :   1.4095
B( 26-C , 27-C ) :   1.3985 B( 26-C , 45-H ) :   0.9179 B( 27-C , 28-C ) :   1.4468
B( 27-C , 46-H ) :   0.9293 B( 28-C , 29-C ) :   1.3753 B( 28-C , 47-H ) :   0.9116

FINAL SINGLE POINT ENERGY     -1544.772705381405

DIPOLE MOMENT
-------------

Method             : SCF
Type of density    : Electron Density
Multiplicity       :   1
Irrep              :   0
Energy             : -1544.7727053814053306 Eh
Relativity type    :
Basis              : AO
                                X                 Y                 Z
Electronic contribution:     37.265253206      -4.181913295       4.137227636
Nuclear contribution   :    -39.224722323       4.360103194      -4.988145549
                        -----------------------------------------
Total Dipole Moment    :     -1.959469117       0.178189899      -0.850917913
                        -----------------------------------------
Magnitude (a.u.)       :      2.143672585
Magnitude (Debye)      :      5.448782690

Rotational constants in cm-1:             0.017629             0.001340             0.001304
Rotational constants in MHz :           528.515363            40.179797            39.088889

                             ****ORCA TERMINATED NORMALLY****
TOTAL RUN TIME: 0 days 0 hours 5 minutes 53 seconds 725 msec
