                         Program Version 6.0.0  -   RELEASE  -
|  1> ! B3LYP 6-31G* SP
|  2>
|  3> * xyz 0 1
|  4> C -2.5873 1.1596 -2.0668
|  5> C -2.0369 1.5255 -0.7083
|  6> C -2.7750 2.3988 0.1184
|  7> F -3.9829 2.8785 -0.2749
|  8> C -2.2751 2.7934 1.3600
|  9> C -1.0357 2.3364 1.7927
| 10> F -0.5452 2.7400 2.9911
| 11> C -0.2934 1.4703 0.9927
| 12> C -0.7852 1.0225 -0.2466
| 13> C 0.0770 0.0786 -1.0847
| 14> C 1.1145 0.9256 -1.8364
| 15> N 0.6241 -1.0577 -0.2779
| 16> C -0.3196 -2.0773 0.1605
| 17> O 0.0448 -3.2824 0.2467
| 18> C -1.7323 -1.7775 0.4484
| 19> C -2.0978 -1.1503 1.6484
| 20> C -3.4440 -0.8785 1.9161
| 21> C -4.4305 -1.2590 1.0024
| 22> C -4.0732 -1.9160 -0.1781
| 23> C -2.7277 -2.1834 -0.4513
| 24> C 2.0698 -1.4271 -0.2081
| 25> C 2.6039 -1.9895 -1.5145
| 26> N 1.7283 -2.4467 -2.5500
| 27> O 3.8431 -2.1819 -1.6477
| 28> C 2.9308 -0.3549 0.4509
| 29> C 3.8570 0.4375 -0.2636
| 30> C 4.6528 1.3754 0.4003
| 31> C 4.5507 1.5255 1.7837
| 32> C 3.6536 0.7383 2.5083
| 33> C 2.8511 -0.1968 1.8479
| 34> H -1.8589 1.4334 -2.8542
| 35> H -3.5322 1.6920 -2.2980
| 36> H -2.7973 0.0736 -2.1159
| 37> H -2.8475 3.4676 1.9842
| 38> H 0.6660 1.1422 1.3488
| 39> H -0.5415 -0.3850 -1.8785
| 40> H 0.5887 1.6197 -2.5274
| 41> H 1.7783 0.3080 -2.4672
| 42> H 1.6972 1.5571 -1.1391
| 43> H -1.3429 -0.8643 2.3698
| 44> H -3.7244 -0.3799 2.8343
| 45> H -5.4708 -1.0474 1.2127
| 46> H -4.8371 -2.2202 -0.8814
| 47> H -2.4622 -2.6906 -1.3705
| 48> H 2.1804 -2.2893 0.4863
| 49> H 2.1259 -2.8609 -3.4203
| 50> H 0.6919 -2.4150 -2.4544
| 51> H 3.9623 0.3475 -1.3335
| 52> H 5.3535 1.9830 -0.1600
| 53> H 5.1685 2.2508 2.2942
| 54> H 3.5797 0.8508 3.5831
| 55> H 2.1625 -0.7999 2.4275
| 56> *
| 57>
| 58>                          ****END OF INPUT****

CARTESIAN COORDINATES (ANGSTROEM)
---------------------------------
  C     -2.587300    1.159600   -2.066800
  C     -2.036900    1.525500   -0.708300
  C     -2.775000    2.398800    0.118400
  F     -3.982900    2.878500   -0.274900
  C     -2.275100    2.793400    1.360000
  C     -1.035700    2.336400    1.792700
  F     -0.545200    2.740000    2.991100
  C     -0.293400    1.470300    0.992700
  C     -0.785200    1.022500   -0.246600
  C      0.077000    0.078600   -1.084700
  C      1.114500    0.925600   -1.836400
  N      0.624100   -1.057700   -0.277900
  C     -0.319600   -2.077300    0.160500
  O      0.044800   -3.282400    0.246700
  C     -1.732300   -1.777500    0.448400
  C     -2.097800   -1.150300    1.648400
  C     -3.444000   -0.878500    1.916100
  C     -4.430500   -1.259000    1.002400
  C     -4.073200   -1.916000   -0.178100
  C     -2.727700   -2.183400   -0.451300
  C      2.069800   -1.427100   -0.208100
  C      2.603900   -1.989500   -1.514500
  N      1.728300   -2.446700   -2.550000
  O      3.843100   -2.181900   -1.647700
  C      2.930800   -0.354900    0.450900
  C      3.857000    0.437500   -0.263600
  C      4.652800    1.375400    0.400300
  C      4.550700    1.525500    1.783700
  C      3.653600    0.738300    2.508300
  C      2.851100   -0.196800    1.847900
  H     -1.858900    1.433400   -2.854200
  H     -3.532200    1.692000   -2.298000
  H     -2.797300    0.073600   -2.115900
  H     -2.847500    3.467600    1.984200
  H      0.666000    1.142200    1.348800
  H     -0.541500   -0.385000   -1.878500
  H      0.588700    1.619700   -2.527400
  H      1.778300    0.308000   -2.467200
  H      1.697200    1.557100   -1.139100
  H     -1.342900   -0.864300    2.369800
  H     -3.724400   -0.379900    2.834300
  H     -5.470800   -1.047400    1.212700
  H     -4.837100   -2.220200   -0.881400
  H     -2.462200   -2.690600   -1.370500
  H      2.180400   -2.289300    0.486300
  H      2.125900   -2.860900   -3.420300
  H      0.691900   -2.415000   -2.454400
  H      3.962300    0.347500   -1.333500
  H      5.353500    1.983000   -0.160000
  H      5.168500    2.250800    2.294200
  H      3.579700    0.850800    3.583100
  H      2.162500   -0.799900    2.427500

 Total Charge           Charge          ....    0
 Multiplicity           Mult            ....    1
 Number of Electrons    NEL             ....  214
 Basis Dimension        Dim             ....  464

ORBITAL ENERGIES
----------------

  NO   OCC          E(Eh)            E(eV)
   0   2.0000     -24.707293      -672.3196
   1   2.0000     -24.702562      -672.1909
   2   2.0000     -19.126696      -520.4639
   3   2.0000     -19.107596      -519.9441
   4   2.0000     -14.368445      -390.9853
   5   2.0000     -14.354257      -390.5992
   6   2.0000     -10.298234      -280.2292
   7   2.0000     -10.293374      -280.0969
   8   2.0000     -10.276500      -279.6378
   9   2.0000     -10.273669      -279.5607
  10   2.0000     -10.247601      -278.8514
  11   2.0000     -10.242061      -278.7006
  12   2.0000     -10.209626      -277.8181
  13   2.0000     -10.205614      -277.7089
  14   2.0000     -10.204995      -277.6920
  15   2.0000     -10.200035      -277.5571
  16   2.0000     -10.197695      -277.4934
  17   2.0000     -10.195141      -277.4239
  18   2.0000     -10.193581      -277.3814
  19   2.0000     -10.193395      -277.3764
  20   2.0000     -10.192287      -277.3462
  21   2.0000     -10.191703      -277.3304
  22   2.0000     -10.187826      -277.2249
  23   2.0000     -10.186646      -277.1927
  24   2.0000     -10.185965      -277.1742
  25   2.0000     -10.185122      -277.1513
  26   2.0000     -10.184258      -277.1278
  27   2.0000     -10.182589      -277.0823
  28   2.0000     -10.182349      -277.0758
  29   2.0000     -10.181914      -277.0640
  30   2.0000      -1.219527       -33.1850
  31   2.0000      -1.215618       -33.0786
  32   2.0000      -1.025523       -27.9059
  33   2.0000      -1.008049       -27.4304
  34   2.0000      -0.930215       -25.3124
  35   2.0000      -0.876028       -23.8379
  36   2.0000      -0.868295       -23.6275
  37   2.0000      -0.862288       -23.4640
  38   2.0000      -0.851977       -23.1835
  39   2.0000      -0.800875       -21.7929
  40   2.0000      -0.778965       -21.1967
  41   2.0000      -0.772648       -21.0248
  42   2.0000      -0.759664       -20.6715
  43   2.0000      -0.753955       -20.5162
  44   2.0000      -0.744904       -20.2699
  45   2.0000      -0.738798       -20.1037
  46   2.0000      -0.705656       -19.2019
  47   2.0000      -0.689994       -18.7757
  48   2.0000      -0.649007       -17.6604
  49   2.0000      -0.638525       -17.3751
  50   2.0000      -0.616212       -16.7680
  51   2.0000      -0.611156       -16.6304
  52   2.0000      -0.609593       -16.5879
  53   2.0000      -0.601201       -16.3595
  54   2.0000      -0.597942       -16.2708
  55   2.0000      -0.573307       -15.6005
  56   2.0000      -0.561195       -15.2709
  57   2.0000      -0.547159       -14.8890
  58   2.0000      -0.538093       -14.6423
  59   2.0000      -0.522979       -14.2310
  60   2.0000      -0.518079       -14.0976
  61   2.0000      -0.510394       -13.8885
  62   2.0000      -0.498404       -13.5623
  63   2.0000      -0.491943       -13.3865
  64   2.0000      -0.483101       -13.1458
  65   2.0000      -0.479638       -13.0516
  66   2.0000      -0.468921       -12.7600
  67   2.0000      -0.464167       -12.6306
  68   2.0000      -0.460670       -12.5355
  69   2.0000      -0.457752       -12.4561
  70   2.0000      -0.455722       -12.4008
  71   2.0000      -0.453397       -12.3375
  72   2.0000      -0.447321       -12.1722
  73   2.0000      -0.430945       -11.7266
  74   2.0000      -0.430112       -11.7040
  75   2.0000      -0.429225       -11.6798
  76   2.0000      -0.425149       -11.5689
  77   2.0000      -0.423108       -11.5134
  78   2.0000      -0.418349       -11.3839
  79   2.0000      -0.416651       -11.3377
  80   2.0000      -0.402353       -10.9486
  81   2.0000      -0.397512       -10.8168
  82   2.0000      -0.397102       -10.8057
  83   2.0000      -0.395538       -10.7631
  84   2.0000      -0.383141       -10.4258
  85   2.0000      -0.376862       -10.2549
  86   2.0000      -0.370813       -10.0903
  87   2.0000      -0.369438       -10.0529
  88   2.0000      -0.366528        -9.9737
  89   2.0000      -0.362758        -9.8711
  90   2.0000      -0.361035        -9.8243
  91   2.0000      -0.353508        -9.6194
  92   2.0000      -0.349740        -9.5169
  93   2.0000      -0.345154        -9.3921
  94   2.0000      -0.344513        -9.3747
  95   2.0000      -0.336522        -9.1572
  96   2.0000      -0.335481        -9.1289
  97   2.0000      -0.279717        -7.6115
  98   2.0000      -0.270592        -7.3632
  99   2.0000      -0.258900        -7.0450
 100   2.0000      -0.258173        -7.0253
 101   2.0000      -0.251114        -6.8332
 102   2.0000      -0.249577        -6.7913
 103   2.0000      -0.246019        -6.6945
 104   2.0000      -0.238724        -6.4960
 105   2.0000      -0.237491        -6.4625
 106   2.0000      -0.225002        -6.1226
 107   0.0000      -0.031427        -0.8552
 108   0.0000      -0.017590        -0.4786
 109   0.0000      -0.010813        -0.2942
 110   0.0000      -0.007767        -0.2114
 111   0.0000      -0.004857        -0.1322

MULLIKEN ATOMIC CHARGES
-----------------------
   0 C :   -0.544446
   1 C :    0.038224
   2 C :    0.383375
   3 F :   -0.317115
   4 C :   -0.299014
   5 C :    0.431942
   6 F :   -0.319563
   7 C :   -0.277337
   8 C :    0.130945
   9 C :   -0.030056
  10 C :   -0.481263
  11 N :   -0.458092
  12 C :    0.408625
  13 O :   -0.454376
  14 C :    0.099007
  15 C :   -0.137605
  16 C :   -0.127799
  17 C :   -0.118203
  18 C :   -0.130214
  19 C :   -0.155683
  20 C :   -0.139897
  21 C :    0.565951
  22 N :   -0.769880
  23 O :   -0.478564
  24 C :    0.160854
  25 C :   -0.145063
  26 C :   -0.136482
  27 C :   -0.121135
  28 C :   -0.124936
  29 C :   -0.186512
  30 H :    0.156282
  31 H :    0.172076
  32 H :    0.167678
  33 H :    0.153607
  34 H :    0.161936
  35 H :    0.134984
  36 H :    0.159251
  37 H :    0.165882
  38 H :    0.182897
  39 H :    0.143079
  40 H :    0.138415
  41 H :    0.135940
  42 H :    0.135619
  43 H :    0.132582
  44 H :    0.227837
  45 H :    0.349962
  46 H :    0.340469
  47 H :    0.144241
  48 H :    0.132965
  49 H :    0.130223
  50 H :    0.133891
  51 H :    0.134495
Sum of atomic charges:   -0.0000000

LOEWDIN ATOMIC CHARGES
----------------------
   0 C :   -0.363308
   1 C :   -0.054875
   2 C :    0.121111
   3 F :   -0.101332
   4 C :   -0.188564
   5 C :    0.115684
   6 F :   -0.103439
   7 C :   -0.170870
   8 C :   -0.006217
   9 C :   -0.044760
  10 C :   -0.361071
  11 N :   -0.117947
  12 C :    0.143541
  13 O :   -0.263480
  14 C :   -0.038908
  15 C :   -0.106329
  16 C :   -0.122812
  17 C :   -0.122147
  18 C :   -0.128304
  19 C :   -0.121364
  20 C :   -0.069267
  21 C :    0.138961
  22 N :   -0.397429
  23 O :   -0.289391
  24 C :   -0.020433
  25 C :   -0.113515
  26 C :   -0.130488
  27 C :   -0.125303
  28 C :   -0.129904
  29 C :   -0.132136
  30 H :    0.130741
  31 H :    0.140952
  32 H :    0.137937
  33 H :    0.151587
  34 H :    0.152350
  35 H :    0.121851
  36 H :    0.135574
  37 H :    0.134301
  38 H :    0.143658
  39 H :    0.139379
  40 H :    0.136688
  41 H :    0.135266
  42 H :    0.135103
  43 H :    0.133637
  44 H :    0.185722
  45 H :    0.264494
  46 H :    0.251331
  47 H :    0.140386
  48 H :    0.133645
  49 H :    0.132564
  50 H :    0.134265
  51 H :    0.132863

  Mayer bond orders larger than 0.100000
B(  0-C ,  1-C ) :   0.9812 B(  0-C , 30-H ) :   0.9319 B(  0-C , 31-H ) :   0.9372
B(  0-C , 32-H ) :   0.9190 B(  1-C ,  2-C ) :   1.3626 B(  1-C ,  8-C ) :   1.3857
B(  2-C ,  3-F ) :   0.8957 B(  2-C ,  4-C ) :   1.3606 B(  4-C ,  5-C ) :   1.3669
B(  4-C , 33-H ) :   0.9119 B(  5-C ,  6-F ) :   0.9055 B(  5-C ,  7-C ) :   1.3854
B(  7-C ,  8-C ) :   1.3871 B(  7-C , 34-H ) :   0.8884 B(  8-C ,  9-C ) :   0.9601
B(  9-C , 10-C ) :   1.0025 B(  9-C , 11-N ) :   0.9036 B(  9-C , 35-H ) :   0.9157
B( 10-C , 36-H ) :   0.9344 B( 10-C , 37-H ) :   0.9211 B( 10-C , 38-H ) :   0.9264
B( 11-N , 12-C ) :   1.0475 B( 11-N , 20-C ) :   0.8926 B( 12-C , 13-O ) :   1.8121
B( 12-C , 14-C ) :   0.9347 B( 14-C , 15-C ) :   1.4173 B( 14-C , 19-C ) :   1.4185
B( 15-C , 16-C ) :   1.4405 B( 15-C , 39-H ) :   0.9212 B( 16-C , 17-C ) :   1.4468
B( 16-C , 40-H ) :   0.9275 B( 17-C , 18-C ) :   1.4542 B( 17-C , 41-H ) :   0.9292
B( 18-C , 19-C ) :   1.4280 B( 18-C , 42-H ) :   0.9283 B( 19-C , 43-H ) :   0.9256
B( 20-C , 21-C ) :   0.9164 B( 20-C , 24-C ) :   0.9421 B( 20-C , 44-H ) :   0.8817
B( 21-C , 22-N ) :   1.0708 B( 21-C , 23-O ) :   1.8197 B( 22-N , 45-H ) :   0.8242
B( 22-N , 46-H ) :   0.8141 B( 24-C , 25-C ) :   1.4315 B( 24-C , 29-C ) :   1.4070
B( 25-C , 26-C ) :   1.4334 B( 25-C , 47-H ) :   0.9119 B( 26-C , 27-C ) :   1.4486
B( 26-C , 48-H ) :   0.9292 B( 27-C , 28-C ) :   1.4562 B( 27-C , 49-H ) :   0.9298
B( 28-C , 29-C ) :   1.4327 B( 28-C , 50-H ) :   0.9288 B( 29-C , 51-H ) :   0.9238

FINAL SINGLE POINT ENERGY     -1386.590275948580

DIPOLE MOMENT
-------------

Method             : SCF
Type of density    : Electron Density
Multiplicity       :   1
Irrep              :   0
Energy             : -1386.5902759485800289 Eh
Relativity type    :
Basis              : AO
                                X                 Y                 Z
Electronic contribution:     -6.812644014       5.609760467      11.410697688
Nuclear contribution   :      5.573851571      -4.670960820     -12.101833449
                        -----------------------------------------
Total Dipole Moment    :     -1.238792443       0.938799647      -0.691135762
                        -----------------------------------------
Magnitude (a.u.)       :      1.701064412
Magnitude (Debye)      :      4.323762121

Rotational constants in cm-1:             0.007576             0.004463             0.003612
Rotational constants in MHz :           227.137608           133.807521           108.290471

                             ****ORCA TERMINATED NORMALLY****
TOTAL RUN TIME: 0 days 0 hours 6 minutes 19 seconds 410 msec
