                         Program Version 6.0.0  -   RELEASE  -
|  1> ! B3LYP 6-31G* SP
|  2>
|  3> * xyz 0 1
|  4> O 0.3624 0.1782 2.2265
|  5> C 0.5132 0.4585 1.0056
|  6> N -0.5886 1.0071 0.2614
|  7> C -1.9531 1.0408 0.8073
|  8> C -2.9110 1.8483 -0.0325
|  9> N -2.5982 2.4418 -1.2071
| 10> C -3.6478 3.1318 -1.7276
| 11> C -4.8092 3.1032 -0.9658
| 12> S -4.5019 2.1814 0.4055
| 13> C -2.4727 -0.3627 1.0752
| 14> N -2.5923 -0.7163 2.3870
| 15> C -3.0402 -1.9309 2.7883
| 16> C -3.4114 -2.8784 1.8445
| 17> C -3.3095 -2.5689 0.4913
| 18> C -2.8168 -1.3177 0.0673
| 19> C -2.7856 -1.0270 -1.4243
| 20> F -1.6397 -0.3509 -1.7838
| 21> F -3.8923 -0.2761 -1.7716
| 22> F -2.8121 -2.1980 -2.1632
| 23> C 1.8333 0.2347 0.3674
| 24> C 1.9454 0.0587 -1.0252
| 25> C 3.1926 -0.1603 -1.6180
| 26> C 4.3468 -0.2132 -0.8270
| 27> C 5.6093 -0.4310 -1.3942
| 28> C 6.7386 -0.4809 -0.5742
| 29> C 6.5948 -0.3131 0.8053
| 30> N 5.3638 -0.1029 1.3438
| 31> C 4.2448 -0.0489 0.5711
| 32> C 2.9946 0.1691 1.1599
| 33> H -0.3754 1.4947 -0.6365
| 34> H -1.9002 1.5811 1.7790
| 35> H -3.5738 3.6648 -2.6657
| 36> H -5.7420 3.5923 -1.2115
| 37> H -3.1148 -2.1558 3.8438
| 38> H -3.7831 -3.8453 2.1585
| 39> H -3.6258 -3.3170 -0.2242
| 40> H 1.0701 0.0664 -1.6600
| 41> H 3.2532 -0.2945 -2.6915
| 42> H 5.7214 -0.5619 -2.4639
| 43> H 7.7177 -0.6485 -1.0039
| 44> H 7.4634 -0.3502 1.4490
| 45> H 2.9322 0.2975 2.2341
| 46> *
| 47>
| 48>                          ****END OF INPUT****

CARTESIAN COORDINATES (ANGSTROEM)
---------------------------------
  O      0.362400    0.178200    2.226500
  C      0.513200    0.458500    1.005600
  N     -0.588600    1.007100    0.261400
  C     -1.953100    1.040800    0.807300
  C     -2.911000    1.848300   -0.032500
  N     -2.598200    2.441800   -1.207100
  C     -3.647800    3.131800   -1.727600
  C     -4.809200    3.103200   -0.965800
  S     -4.501900    2.181400    0.405500
  C     -2.472700   -0.362700    1.075200
  N     -2.592300   -0.716300    2.387000
  C     -3.040200   -1.930900    2.788300
  C     -3.411400   -2.878400    1.844500
  C     -3.309500   -2.568900    0.491300
  C     -2.816800   -1.317700    0.067300
  C     -2.785600   -1.027000   -1.424300
  F     -1.639700   -0.350900   -1.783800
  F     -3.892300   -0.276100   -1.771600
  F     -2.812100   -2.198000   -2.163200
  C      1.833300    0.234700    0.367400
  C      1.945400    0.058700   -1.025200
  C      3.192600   -0.160300   -1.618000
  C      4.346800   -0.213200   -0.827000
  C      5.609300   -0.431000   -1.394200
  C      6.738600   -0.480900   -0.574200
  C      6.594800   -0.313100    0.805300
  N      5.363800   -0.102900    1.343800
  C      4.244800   -0.048900    0.571100
  C      2.994600    0.169100    1.159900
  H     -0.375400    1.494700   -0.636500
  H     -1.900200    1.581100    1.779000
  H     -3.573800    3.664800   -2.665700
  H     -5.742000    3.592300   -1.211500
  H     -3.114800   -2.155800    3.843800
  H     -3.783100   -3.845300    2.158500
  H     -3.625800   -3.317000   -0.224200
  H      1.070100    0.066400   -1.660000
  H      3.253200   -0.294500   -2.691500
  H      5.721400   -0.561900   -2.463900
  H      7.717700   -0.648500   -1.003900
  H      7.463400   -0.350200    1.449000
  H      2.932200    0.297500    2.234100

 Total Charge           Charge          ....    0
 Multiplicity           Mult            ....    1
 Number of Electrons    NEL             ....  212
 Basis Dimension        Dim             ....  436

ORBITAL ENERGIES
----------------

  NO   OCC          E(Eh)            E(eV)
   0   2.0000     -88.904816     -2419.2230
   1   2.0000     -24.724347      -672.7837
   2   2.0000     -24.723707      -672.7663
   3   2.0000     -24.722241      -672.7264
   4   2.0000     -19.102960      -519.8180
   5   2.0000     -14.352351      -390.5473
   6   2.0000     -14.336858      -390.1257
   7   2.0000     -14.336604      -390.1188
   8   2.0000     -14.323082      -389.7509
   9   2.0000     -10.441979      -284.1407
  10   2.0000     -10.285273      -279.8765
  11   2.0000     -10.254272      -279.0329
  12   2.0000     -10.251046      -278.9452
  13   2.0000     -10.250872      -278.9404
  14   2.0000     -10.230307      -278.3808
  15   2.0000     -10.227266      -278.2980
  16   2.0000     -10.221089      -278.1300
  17   2.0000     -10.218118      -278.0491
  18   2.0000     -10.217358      -278.0285
  19   2.0000     -10.217131      -278.0223
  20   2.0000     -10.214382      -277.9475
  21   2.0000     -10.202730      -277.6304
  22   2.0000     -10.202536      -277.6251
  23   2.0000     -10.201693      -277.6022
  24   2.0000     -10.196229      -277.4535
  25   2.0000     -10.193458      -277.3781
  26   2.0000     -10.193436      -277.3775
  27   2.0000     -10.191428      -277.3228
  28   2.0000     -10.188179      -277.2345
  29   2.0000      -7.981963      -217.2003
  30   2.0000      -5.944840      -161.7673
  31   2.0000      -5.940739      -161.6557
  32   2.0000      -5.939289      -161.6163
  33   2.0000      -1.286413       -35.0051
  34   2.0000      -1.210473       -32.9387
  35   2.0000      -1.208830       -32.8939
  36   2.0000      -1.004955       -27.3462
  37   2.0000      -0.967786       -26.3348
  38   2.0000      -0.943733       -25.6803
  39   2.0000      -0.933160       -25.3926
  40   2.0000      -0.900829       -24.5128
  41   2.0000      -0.851102       -23.1597
  42   2.0000      -0.822725       -22.3875
  43   2.0000      -0.811413       -22.0797
  44   2.0000      -0.807247       -21.9663
  45   2.0000      -0.799130       -21.7454
  46   2.0000      -0.769158       -20.9298
  47   2.0000      -0.758642       -20.6437
  48   2.0000      -0.738808       -20.1040
  49   2.0000      -0.715226       -19.4623
  50   2.0000      -0.694843       -18.9076
  51   2.0000      -0.660551       -17.9745
  52   2.0000      -0.638766       -17.3817
  53   2.0000      -0.634970       -17.2784
  54   2.0000      -0.627994       -17.0886
  55   2.0000      -0.605881       -16.4869
  56   2.0000      -0.594611       -16.1802
  57   2.0000      -0.576927       -15.6990
  58   2.0000      -0.575889       -15.6707
  59   2.0000      -0.572989       -15.5918
  60   2.0000      -0.566836       -15.4244
  61   2.0000      -0.554518       -15.0892
  62   2.0000      -0.533330       -14.5126
  63   2.0000      -0.519894       -14.1470
  64   2.0000      -0.513295       -13.9675
  65   2.0000      -0.510868       -13.9014
  66   2.0000      -0.502181       -13.6650
  67   2.0000      -0.499522       -13.5927
  68   2.0000      -0.475215       -12.9313
  69   2.0000      -0.466659       -12.6984
  70   2.0000      -0.464781       -12.6473
  71   2.0000      -0.456135       -12.4121
  72   2.0000      -0.450824       -12.2676
  73   2.0000      -0.443144       -12.0586
  74   2.0000      -0.436462       -11.8767
  75   2.0000      -0.432751       -11.7758
  76   2.0000      -0.428140       -11.6503
  77   2.0000      -0.425324       -11.5736
  78   2.0000      -0.423805       -11.5323
  79   2.0000      -0.418472       -11.3872
  80   2.0000      -0.411985       -11.2107
  81   2.0000      -0.411043       -11.1850
  82   2.0000      -0.405261       -11.0277
  83   2.0000      -0.404620       -11.0103
  84   2.0000      -0.403881       -10.9902
  85   2.0000      -0.396048       -10.7770
  86   2.0000      -0.394385       -10.7318
  87   2.0000      -0.391355       -10.6493
  88   2.0000      -0.371465       -10.1081
  89   2.0000      -0.371123       -10.0988
  90   2.0000      -0.363404        -9.8887
  91   2.0000      -0.358705        -9.7609
  92   2.0000      -0.356945        -9.7130
  93   2.0000      -0.330978        -9.0064
  94   2.0000      -0.302251        -8.2247
  95   2.0000      -0.294065        -8.0019
  96   2.0000      -0.287639        -7.8270
  97   2.0000      -0.279356        -7.6017
  98   2.0000      -0.273468        -7.4414
  99   2.0000      -0.258883        -7.0446
 100   2.0000      -0.255400        -6.9498
 101   2.0000      -0.248792        -6.7700
 102   2.0000      -0.243444        -6.6245
 103   2.0000      -0.238337        -6.4855
 104   2.0000      -0.236579        -6.4376
 105   2.0000      -0.224340        -6.1046
 106   0.0000      -0.065696        -1.7877
 107   0.0000      -0.042498        -1.1564
 108   0.0000      -0.038382        -1.0444
 109   0.0000      -0.029471        -0.8019
 110   0.0000      -0.025137        -0.6840

MULLIKEN ATOMIC CHARGES
-----------------------
   0 O :   -0.470697
   1 C :    0.504568
   2 N :   -0.643223
   3 C :   -0.004436
   4 C :   -0.001506
   5 N :   -0.367845
   6 C :    0.035134
   7 C :   -0.345165
   8 S :    0.281842
   9 C :    0.232569
  10 N :   -0.383255
  11 C :    0.032018
  12 C :   -0.132649
  13 C :   -0.128928
  14 C :   -0.065972
  15 C :    0.919891
  16 F :   -0.293186
  17 F :   -0.289848
  18 F :   -0.306306
  19 C :    0.072516
  20 C :   -0.184502
  21 C :   -0.208581
  22 C :    0.173190
  23 C :   -0.153519
  24 C :   -0.145143
  25 C :    0.015026
  26 N :   -0.428776
  27 C :    0.209970
  28 C :   -0.173656
  29 H :    0.349317
  30 H :    0.208107
  31 H :    0.155217
  32 H :    0.185134
  33 H :    0.161519
  34 H :    0.144798
  35 H :    0.164581
  36 H :    0.143692
  37 H :    0.135523
  38 H :    0.141955
  39 H :    0.135057
  40 H :    0.151484
  41 H :    0.174086
Sum of atomic charges:    0.0000000

LOEWDIN ATOMIC CHARGES
----------------------
   0 O :   -0.278700
   1 C :    0.140873
   2 N :   -0.233592
   3 C :   -0.051952
   4 C :   -0.145412
   5 N :   -0.169010
   6 C :   -0.113139
   7 C :   -0.329657
   8 S :    0.411401
   9 C :    0.047145
  10 N :   -0.109203
  11 C :   -0.051583
  12 C :   -0.140137
  13 C :   -0.091435
  14 C :   -0.077043
  15 C :    0.310025
  16 F :   -0.099848
  17 F :   -0.105300
  18 F :   -0.112536
  19 C :   -0.048051
  20 C :   -0.127519
  21 C :   -0.121234
  22 C :   -0.022779
  23 C :   -0.094010
  24 C :   -0.146576
  25 C :   -0.062895
  26 N :   -0.125131
  27 C :    0.012431
  28 C :   -0.075937
  29 H :    0.261167
  30 H :    0.167598
  31 H :    0.141139
  32 H :    0.163066
  33 H :    0.141523
  34 H :    0.141040
  35 H :    0.148895
  36 H :    0.138559
  37 H :    0.134637
  38 H :    0.138015
  39 H :    0.136199
  40 H :    0.136501
  41 H :    0.162463

  Mayer bond orders larger than 0.100000
B(  0-O ,  1-C ) :   1.8106 B(  1-C ,  2-N ) :   1.0306 B(  1-C , 19-C ) :   0.9810
B(  2-N ,  3-C ) :   0.9383 B(  2-N , 29-H ) :   0.7907 B(  3-C ,  4-C ) :   0.9448
B(  3-C ,  9-C ) :   0.9412 B(  3-C , 30-H ) :   0.8911 B(  4-C ,  5-N ) :   1.5228
B(  4-C ,  7-C ) :   0.1303 B(  4-C ,  8-S ) :   1.1736 B(  5-N ,  6-C ) :   1.3203
B(  6-C ,  7-C ) :   1.5809 B(  6-C , 31-H ) :   0.9282 B(  7-C ,  8-S ) :   1.1655
B(  7-C , 32-H ) :   0.9135 B(  9-C , 10-N ) :   1.3875 B(  9-C , 14-C ) :   1.3430
B( 10-N , 11-C ) :   1.4160 B( 11-C , 12-C ) :   1.4214 B( 11-C , 33-H ) :   0.9268
B( 12-C , 13-C ) :   1.4341 B( 12-C , 34-H ) :   0.9235 B( 13-C , 14-C ) :   1.4099
B( 13-C , 35-H ) :   0.9170 B( 14-C , 15-C ) :   0.9683 B( 15-C , 16-F ) :   0.9367
B( 15-C , 17-F ) :   0.9597 B( 15-C , 18-F ) :   0.9390 B( 19-C , 20-C ) :   1.3023
B( 19-C , 28-C ) :   1.4494 B( 20-C , 21-C ) :   1.5005 B( 20-C , 36-H ) :   0.9132
B( 21-C , 22-C ) :   1.2859 B( 21-C , 28-C ) :   0.1023 B( 21-C , 37-H ) :   0.9240
B( 22-C , 23-C ) :   1.3031 B( 22-C , 27-C ) :   1.2503 B( 23-C , 24-C ) :   1.5140
B( 23-C , 38-H ) :   0.9242 B( 24-C , 25-C ) :   1.3209 B( 24-C , 39-H ) :   0.9249
B( 25-C , 26-N ) :   1.5177 B( 25-C , 40-H ) :   0.9300 B( 26-N , 27-C ) :   1.2425
B( 27-C , 28-C ) :   1.2684 B( 28-C , 41-H ) :   0.9044

FINAL SINGLE POINT ENERGY     -1761.059140617274

DIPOLE MOMENT
-------------

Method             : SCF
Type of density    : Electron Density
Multiplicity       :   1
Irrep              :   0
Energy             : -1761.0591406172736697 Eh
Relativity type    :
Basis              : AO
                                X                 Y                 Z
Electronic contribution:    -19.051492645      -1.664689282      -5.830485120
Nuclear contribution   :     18.410476503       1.323990855       4.431715936
                        -----------------------------------------
Total Dipole Moment    :     -0.641016142      -0.340698426      -1.398769184
                        -----------------------------------------
Magnitude (a.u.)       :      1.575922695
Magnitude (Debye)      :      4.005677155

Rotational constants in cm-1:             0.009548             0.002769             0.002640
Rotational constants in MHz :           286.238655            83.002383            79.152535

                             ****ORCA TERMINATED NORMALLY****
TOTAL RUN TIME: 0 days 0 hours 7 minutes 4 seconds 20 msec
