                         Program Version 6.0.0  -   RELEASE  -
|  1> ! B3LYP def2-TZVP SP
|  2>
|  3> * xyz 0 1
|  4> N 3.0149 0.1521 1.0748
|  5> C 2.3331 1.2108 0.3349
|  6> C 1.6367 0.6456 -0.9062
|  7> C 0.5566 -0.3271 -0.5318
|  8> C 0.6723 -1.7126 -0.4713
|  9> N -0.4824 -2.2637 -0.0323
| 10> C -1.3211 -1.2377 0.1951
| 11> C -2.6282 -1.3052 0.6746
| 12> C -3.3250 -0.0967 0.8575
| 13> C -2.7056 1.1396 0.5633
| 14> Br -3.6655 2.7695 0.8227
| 15> C -1.3833 1.1760 0.0818
| 16> C -0.7209 -0.0390 -0.0933
| 17> H 3.8241 -0.1794 0.5008
| 18> H 3.4189 0.5784 1.9400
| 19> H 1.5824 1.7003 0.9937
| 20> H 3.0698 1.9834 0.0208
| 21> H 2.3827 0.1452 -1.5609
| 22> H 1.1903 1.4813 -1.4864
| 23> H 1.5563 -2.2836 -0.7239
| 24> H -0.6746 -3.2799 0.1124
| 25> H -3.0926 -2.2559 0.9022
| 26> H -4.3414 -0.1179 1.2288
| 27> H -0.8975 2.1165 -0.1438
| 28> *
| 29>
| 30>                          ****END OF INPUT****

CARTESIAN COORDINATES (ANGSTROEM)
---------------------------------
  N      3.014900    0.152100    1.074800
  C      2.333100    1.210800    0.334900
  C      1.636700    0.645600   -0.906200
  C      0.556600   -0.327100   -0.531800
  C      0.672300   -1.712600   -0.471300
  N     -0.482400   -2.263700   -0.032300
  C     -1.321100   -1.237700    0.195100
  C     -2.628200   -1.305200    0.674600
  C     -3.325000   -0.096700    0.857500
  C     -2.705600    1.139600    0.563300
  Br    -3.665500    2.769500    0.822700
  C     -1.383300    1.176000    0.081800
  C     -0.720900   -0.039000   -0.093300
  H      3.824100   -0.179400    0.500800
  H      3.418900    0.578400    1.940000
  H      1.582400    1.700300    0.993700
  H      3.069800    1.983400    0.020800
  H      2.382700    0.145200   -1.560900
  H      1.190300    1.481300   -1.486400
  H      1.556300   -2.283600   -0.723900
  H     -0.674600   -3.279900    0.112400
  H     -3.092600   -2.255900    0.902200
  H     -4.341400   -0.117900    1.228800
  H     -0.897500    2.116500   -0.143800

 Total Charge           Charge          ....    0
 Multiplicity           Mult            ....    1
 Number of Electrons    NEL             ....  120
 Basis Dimension        Dim             ....  486

ORBITAL ENERGIES
----------------

  NO   OCC          E(Eh)            E(eV)
   0   2.0000    -482.843089    -13138.8284
   1   2.0000     -62.490459     -1700.4518
   2   2.0000     -56.305924     -1532.1621
   3   2.0000     -56.303506     -1532.0963
   4   2.0000     -56.303433     -1532.0943
   5   2.0000     -14.364476      -390.8773
   6   2.0000     -14.299159      -389.0999
   7   2.0000     -10.218235      -278.0523
   8   2.0000     -10.197945      -277.5002
   9   2.0000     -10.196950      -277.4731
  10   2.0000     -10.193836      -277.3884
  11   2.0000     -10.177932      -276.9556
  12   2.0000     -10.175603      -276.8922
  13   2.0000     -10.175570      -276.8913
  14   2.0000     -10.175309      -276.8842
  15   2.0000     -10.160698      -276.4866
  16   2.0000     -10.157343      -276.3954
  17   2.0000      -8.681397      -236.2328
  18   2.0000      -6.510715      -177.1656
  19   2.0000      -6.499987      -176.8736
  20   2.0000      -6.499805      -176.8687
  21   2.0000      -2.625365       -71.4398
  22   2.0000      -2.622332       -71.3573
  23   2.0000      -2.622221       -71.3543
  24   2.0000      -2.613352       -71.1129
  25   2.0000      -2.613348       -71.1128
  26   2.0000      -0.998893       -27.1813
  27   2.0000      -0.880988       -23.9729
  28   2.0000      -0.855218       -23.2717
  29   2.0000      -0.806167       -21.9369
  30   2.0000      -0.786482       -21.4013
  31   2.0000      -0.739088       -20.1116
  32   2.0000      -0.716029       -19.4841
  33   2.0000      -0.707250       -19.2452
  34   2.0000      -0.627093       -17.0641
  35   2.0000      -0.611888       -16.6503
  36   2.0000      -0.592896       -16.1335
  37   2.0000      -0.558972       -15.2104
  38   2.0000      -0.541696       -14.7403
  39   2.0000      -0.489842       -13.3293
  40   2.0000      -0.485543       -13.2123
  41   2.0000      -0.465743       -12.6735
  42   2.0000      -0.457779       -12.4568
  43   2.0000      -0.442991       -12.0544
  44   2.0000      -0.440040       -11.9741
  45   2.0000      -0.435012       -11.8373
  46   2.0000      -0.420789       -11.4503
  47   2.0000      -0.395068       -10.7504
  48   2.0000      -0.380749       -10.3607
  49   2.0000      -0.369717       -10.0605
  50   2.0000      -0.360787        -9.8175
  51   2.0000      -0.356990        -9.7142
  52   2.0000      -0.350321        -9.5327
  53   2.0000      -0.337202        -9.1757
  54   2.0000      -0.291436        -7.9304
  55   2.0000      -0.279779        -7.6132
  56   2.0000      -0.278300        -7.5729
  57   2.0000      -0.243167        -6.6169
  58   2.0000      -0.220020        -5.9871
  59   2.0000      -0.200898        -5.4667
  60   0.0000      -0.025434        -0.6921
  61   0.0000       0.009202         0.2504
  62   0.0000       0.013134         0.3574
  63   0.0000       0.021272         0.5788
  64   0.0000       0.022832         0.6213

MULLIKEN ATOMIC CHARGES
-----------------------
   0 N :   -0.496591
   1 C :   -0.099466
   2 C :   -0.262298
   3 C :    0.156780
   4 C :   -0.066638
   5 N :   -0.265325
   6 C :    0.172523
   7 C :   -0.180018
   8 C :   -0.170256
   9 C :    0.126542
  10 Br:   -0.107652
  11 C :   -0.338310
  12 C :    0.075295
  13 H :    0.198168
  14 H :    0.208091
  15 H :    0.106294
  16 H :    0.079844
  17 H :    0.099802
  18 H :    0.098201
  19 H :    0.107084
  20 H :    0.231583
  21 H :    0.095872
  22 H :    0.115296
  23 H :    0.115178
Sum of atomic charges:   -0.0000000

LOEWDIN ATOMIC CHARGES
----------------------
   0 N :   -0.184194
   1 C :   -0.338673
   2 C :   -0.225640
   3 C :   -0.145866
   4 C :   -0.171698
   5 N :    0.214052
   6 C :   -0.189621
   7 C :   -0.113351
   8 C :   -0.157016
   9 C :   -0.375644
  10 Br:    0.307464
  11 C :   -0.106654
  12 C :   -0.120386
  13 H :    0.154346
  14 H :    0.157453
  15 H :    0.131667
  16 H :    0.110557
  17 H :    0.141168
  18 H :    0.145302
  19 H :    0.132288
  20 H :    0.208219
  21 H :    0.139918
  22 H :    0.141795
  23 H :    0.144514

  Mayer bond orders larger than 0.100000
B(  0-N ,  1-C ) :   1.0423 B(  0-N ,  3-C ) :  -0.1584 B(  0-N , 13-H ) :   0.9326
B(  0-N , 14-H ) :   0.9337 B(  1-C ,  2-C ) :   0.9632 B(  1-C , 15-H ) :   0.9542
B(  1-C , 16-H ) :   0.9695 B(  2-C ,  3-C ) :   0.9022 B(  2-C , 17-H ) :   0.9974
B(  2-C , 18-H ) :   0.9741 B(  3-C ,  4-C ) :   1.5720 B(  3-C , 12-C ) :   1.2496
B(  4-C ,  5-N ) :   1.1646 B(  4-C , 19-H ) :   0.9487 B(  5-N ,  6-C ) :   1.1346
B(  5-N , 20-H ) :   0.9127 B(  6-C ,  7-C ) :   1.2795 B(  6-C , 12-C ) :   1.3109
B(  7-C ,  8-C ) :   1.4578 B(  7-C , 21-H ) :   0.9769 B(  8-C ,  9-C ) :   1.2971
B(  8-C , 22-H ) :   0.9771 B(  9-C , 10-Br) :   0.9907 B(  9-C , 11-C ) :   1.4682
B( 11-C , 12-C ) :   1.2378 B( 11-C , 23-H ) :   0.9800

FINAL SINGLE POINT ENERGY     -3071.093835480596

DIPOLE MOMENT
-------------

Method             : SCF
Type of density    : Electron Density
Multiplicity       :   1
Irrep              :   0
Energy             : -3071.0938354805962263 Eh
Relativity type    :
Basis              : AO
                                X                 Y                 Z
Electronic contribution:    -41.800008653      25.422314712       6.186024556
Nuclear contribution   :     43.023155048     -26.640533914      -6.355906093
                        -----------------------------------------
Total Dipole Moment    :      1.223146395      -1.218219203      -0.169881537
                        -----------------------------------------
Magnitude (a.u.)       :      1.734648341
Magnitude (Debye)      :      4.409125683

Rotational constants in cm-1:             0.034081             0.010313             0.008354
Rotational constants in MHz :          1021.730552           309.165347           250.437548

                             ****ORCA TERMINATED NORMALLY****
TOTAL RUN TIME: 0 days 0 hours 4 minutes 37 seconds 803 msec
