                         Program Version 6.0.0  -   RELEASE  -
|  1> ! B3LYP 6-31G* SP
|  2>
|  3> * xyz 0 1
|  4> C -11.3174 1.4189 -0.9308
|  5> C -10.1375 0.5068 -0.8472
|  6> O -10.2701 -0.6284 -0.3155
|  7> N -8.8486 0.9580 -1.2897
|  8> C -7.6895 0.1064 -1.3307
|  9> C -7.7940 -1.1848 -1.8728
| 10> C -6.6729 -2.0059 -1.9709
| 11> C -5.4281 -1.5428 -1.5517
| 12> C -5.2902 -0.2536 -1.0129
| 13> N -3.9839 0.2328 -0.6624
| 14> C -3.0343 -0.5368 0.0861
| 15> N -3.4204 -1.6545 0.7550
| 16> C -2.5182 -2.3597 1.4807
| 17> N -1.2279 -1.9470 1.5439
| 18> C -0.8296 -0.8292 0.8798
| 19> N 0.5460 -0.3986 0.9437
| 20> C 1.0247 0.7334 0.1332
| 21> C 2.3813 0.4170 -0.5236
| 22> C 3.3068 -0.4826 0.3308
| 23> O 4.6373 -0.0049 0.2133
| 24> C 5.5636 -1.0749 0.2145
| 25> C 6.9738 -0.5529 0.1133
| 26> C 7.9789 -1.3772 -0.4158
| 27> C 9.2986 -0.9252 -0.4931
| 28> C 9.6423 0.3513 -0.0366
| 29> O 10.9820 0.7562 -0.1483
| 30> C 11.4906 2.0351 0.2251
| 31> F 11.2999 2.2489 1.5790
| 32> F 12.8439 2.0749 -0.0464
| 33> F 10.8603 3.0294 -0.5027
| 34> C 8.6416 1.1724 0.5163
| 35> C 7.3226 0.7170 0.6047
| 36> C 2.8786 -0.4837 1.8069
| 37> C 1.4454 -1.0159 1.9313
| 38> N -1.7427 -0.1250 0.1582
| 39> C -6.4304 0.5763 -0.8814
| 40> C -6.3040 1.9480 -0.2640
| 41> H -12.2525 0.8279 -1.0298
| 42> H -11.3707 2.0366 -0.0113
| 43> H -11.2247 2.0862 -1.8129
| 44> H -8.7355 1.9675 -1.5365
| 45> H -8.7433 -1.5464 -2.2469
| 46> H -6.7647 -2.9959 -2.3986
| 47> H -4.5616 -2.1808 -1.6757
| 48> H -3.7188 1.2048 -0.9419
| 49> H -2.8282 -3.2491 2.0110
| 50> H 0.3039 0.9997 -0.6693
| 51> H 1.1302 1.6230 0.7921
| 52> H 2.2028 -0.0830 -1.5013
| 53> H 2.8849 1.3835 -0.7476
| 54> H 3.1907 -1.5258 -0.0586
| 55> H 5.4835 -1.6699 1.1518
| 56> H 5.3710 -1.7408 -0.6597
| 57> H 7.7411 -2.3715 -0.7705
| 58> H 10.0601 -1.5718 -0.9112
| 59> H 8.8693 2.1608 0.8869
| 60> H 6.5763 1.3615 1.0525
| 61> H 3.5549 -1.1311 2.4043
| 62> H 2.9390 0.5468 2.2216
| 63> H 1.4628 -2.1162 1.7699
| 64> H 1.0678 -0.8185 2.9579
| 65> H -7.2313 2.2303 0.2772
| 66> H -5.4877 1.9767 0.4891
| 67> H -6.0978 2.6961 -1.0576
| 68> *
| 69>
| 70>                          ****END OF INPUT****

CARTESIAN COORDINATES (ANGSTROEM)
---------------------------------
  C    -11.317400    1.418900   -0.930800
  C    -10.137500    0.506800   -0.847200
  O    -10.270100   -0.628400   -0.315500
  N     -8.848600    0.958000   -1.289700
  C     -7.689500    0.106400   -1.330700
  C     -7.794000   -1.184800   -1.872800
  C     -6.672900   -2.005900   -1.970900
  C     -5.428100   -1.542800   -1.551700
  C     -5.290200   -0.253600   -1.012900
  N     -3.983900    0.232800   -0.662400
  C     -3.034300   -0.536800    0.086100
  N     -3.420400   -1.654500    0.755000
  C     -2.518200   -2.359700    1.480700
  N     -1.227900   -1.947000    1.543900
  C     -0.829600   -0.829200    0.879800
  N      0.546000   -0.398600    0.943700
  C      1.024700    0.733400    0.133200
  C      2.381300    0.417000   -0.523600
  C      3.306800   -0.482600    0.330800
  O      4.637300   -0.004900    0.213300
  C      5.563600   -1.074900    0.214500
  C      6.973800   -0.552900    0.113300
  C      7.978900   -1.377200   -0.415800
  C      9.298600   -0.925200   -0.493100
  C      9.642300    0.351300   -0.036600
  O     10.982000    0.756200   -0.148300
  C     11.490600    2.035100    0.225100
  F     11.299900    2.248900    1.579000
  F     12.843900    2.074900   -0.046400
  F     10.860300    3.029400   -0.502700
  C      8.641600    1.172400    0.516300
  C      7.322600    0.717000    0.604700
  C      2.878600   -0.483700    1.806900
  C      1.445400   -1.015900    1.931300
  N     -1.742700   -0.125000    0.158200
  C     -6.430400    0.576300   -0.881400
  C     -6.304000    1.948000   -0.264000
  H    -12.252500    0.827900   -1.029800
  H    -11.370700    2.036600   -0.011300
  H    -11.224700    2.086200   -1.812900
  H     -8.735500    1.967500   -1.536500
  H     -8.743300   -1.546400   -2.246900
  H     -6.764700   -2.995900   -2.398600
  H     -4.561600   -2.180800   -1.675700
  H     -3.718800    1.204800   -0.941900
  H     -2.828200   -3.249100    2.011000
  H      0.303900    0.999700   -0.669300
  H      1.130200    1.623000    0.792100
  H      2.202800   -0.083000   -1.501300
  H      2.884900    1.383500   -0.747600
  H      3.190700   -1.525800   -0.058600
  H      5.483500   -1.669900    1.151800
  H      5.371000   -1.740800   -0.659700
  H      7.741100   -2.371500   -0.770500
  H     10.060100   -1.571800   -0.911200
  H      8.869300    2.160800    0.886900
  H      6.576300    1.361500    1.052500
  H      3.554900   -1.131100    2.404300
  H      2.939000    0.546800    2.221600
  H      1.462800   -2.116200    1.769900
  H      1.067800   -0.818500    2.957900
  H     -7.231300    2.230300    0.277200
  H     -5.487700    1.976700    0.489100
  H     -6.097800    2.696100   -1.057600

 Total Charge           Charge          ....    0
 Multiplicity           Mult            ....    1
 Number of Electrons    NEL             ....  270
 Basis Dimension        Dim             ....  572

ORBITAL ENERGIES
----------------

  NO   OCC          E(Eh)            E(eV)
   0   2.0000     -24.738879      -673.1791
   1   2.0000     -24.736336      -673.1099
   2   2.0000     -24.735685      -673.0922
   3   2.0000     -19.208907      -522.7009
   4   2.0000     -19.152014      -521.1528
   5   2.0000     -19.105381      -519.8838
   6   2.0000     -14.365333      -390.9006
   7   2.0000     -14.364914      -390.8892
   8   2.0000     -14.357016      -390.6743
   9   2.0000     -14.317099      -389.5881
  10   2.0000     -14.312895      -389.4737
  11   2.0000     -14.312047      -389.4506
  12   2.0000     -10.501153      -285.7509
  13   2.0000     -10.297844      -280.2186
  14   2.0000     -10.292684      -280.0782
  15   2.0000     -10.290450      -280.0174
  16   2.0000     -10.263412      -279.2816
  17   2.0000     -10.255702      -279.0718
  18   2.0000     -10.239195      -278.6227
  19   2.0000     -10.237903      -278.5875
  20   2.0000     -10.222951      -278.1806
  21   2.0000     -10.222855      -278.1780
  22   2.0000     -10.216468      -278.0042
  23   2.0000     -10.216080      -277.9937
  24   2.0000     -10.195190      -277.4252
  25   2.0000     -10.193868      -277.3893
  26   2.0000     -10.193397      -277.3764
  27   2.0000     -10.192818      -277.3607
  28   2.0000     -10.192225      -277.3445
  29   2.0000     -10.191508      -277.3250
  30   2.0000     -10.189162      -277.2612
  31   2.0000     -10.187087      -277.2047
  32   2.0000     -10.184697      -277.1397
  33   2.0000     -10.182625      -277.0833
  34   2.0000     -10.173114      -276.8245
  35   2.0000     -10.172151      -276.7983
  36   2.0000     -10.171450      -276.7792
  37   2.0000      -1.301322       -35.4108
  38   2.0000      -1.222132       -33.2559
  39   2.0000      -1.221660       -33.2431
  40   2.0000      -1.078970       -29.3603
  41   2.0000      -1.044225       -28.4148
  42   2.0000      -1.006932       -27.4000
  43   2.0000      -0.999542       -27.1989
  44   2.0000      -0.944690       -25.7063
  45   2.0000      -0.920197       -25.0398
  46   2.0000      -0.911050       -24.7909
  47   2.0000      -0.863740       -23.5036
  48   2.0000      -0.861658       -23.4469
  49   2.0000      -0.853973       -23.2378
  50   2.0000      -0.824154       -22.4264
  51   2.0000      -0.797541       -21.7022
  52   2.0000      -0.772121       -21.0105
  53   2.0000      -0.768175       -20.9031
  54   2.0000      -0.762008       -20.7353
  55   2.0000      -0.754564       -20.5327
  56   2.0000      -0.749311       -20.3898
  57   2.0000      -0.719278       -19.5726
  58   2.0000      -0.716959       -19.5094
  59   2.0000      -0.684270       -18.6199
  60   2.0000      -0.681050       -18.5323
  61   2.0000      -0.664730       -18.0882
  62   2.0000      -0.657855       -17.9012
  63   2.0000      -0.636790       -17.3279
  64   2.0000      -0.629732       -17.1359
  65   2.0000      -0.625358       -17.0169
  66   2.0000      -0.610662       -16.6170
  67   2.0000      -0.603575       -16.4241
  68   2.0000      -0.593353       -16.1459
  69   2.0000      -0.588054       -16.0018
  70   2.0000      -0.587127       -15.9765
  71   2.0000      -0.570155       -15.5147
  72   2.0000      -0.567553       -15.4439
  73   2.0000      -0.554923       -15.1002
  74   2.0000      -0.540496       -14.7076
  75   2.0000      -0.532233       -14.4828
  76   2.0000      -0.516719       -14.0606
  77   2.0000      -0.513527       -13.9738
  78   2.0000      -0.503488       -13.7006
  79   2.0000      -0.496499       -13.5104
  80   2.0000      -0.484373       -13.1805
  81   2.0000      -0.479932       -13.0596
  82   2.0000      -0.473050       -12.8723
  83   2.0000      -0.469102       -12.7649
  84   2.0000      -0.467146       -12.7117
  85   2.0000      -0.466410       -12.6917
  86   2.0000      -0.463309       -12.6073
  87   2.0000      -0.457264       -12.4428
  88   2.0000      -0.456749       -12.4288
  89   2.0000      -0.450844       -12.2681
  90   2.0000      -0.448052       -12.1921
  91   2.0000      -0.443118       -12.0578
  92   2.0000      -0.443017       -12.0551
  93   2.0000      -0.442192       -12.0327
  94   2.0000      -0.438304       -11.9269
  95   2.0000      -0.432768       -11.7762
  96   2.0000      -0.429691       -11.6925
  97   2.0000      -0.425725       -11.5846
  98   2.0000      -0.422998       -11.5104
  99   2.0000      -0.419997       -11.4287
 100   2.0000      -0.416779       -11.3411
 101   2.0000      -0.413795       -11.2599
 102   2.0000      -0.411428       -11.1955
 103   2.0000      -0.404292       -11.0013
 104   2.0000      -0.403061       -10.9678
 105   2.0000      -0.390519       -10.6266
 106   2.0000      -0.389711       -10.6046
 107   2.0000      -0.385322       -10.4851
 108   2.0000      -0.383768       -10.4429
 109   2.0000      -0.376943       -10.2572
 110   2.0000      -0.372954       -10.1486
 111   2.0000      -0.367001        -9.9866
 112   2.0000      -0.359543        -9.7837
 113   2.0000      -0.354241        -9.6394
 114   2.0000      -0.350979        -9.5506
 115   2.0000      -0.347499        -9.4559
 116   2.0000      -0.346384        -9.4256
 117   2.0000      -0.344591        -9.3768
 118   2.0000      -0.343603        -9.3499
 119   2.0000      -0.338666        -9.2156
 120   2.0000      -0.336767        -9.1639
 121   2.0000      -0.329668        -8.9707
 122   2.0000      -0.320858        -8.7310
 123   2.0000      -0.308409        -8.3922
 124   2.0000      -0.283629        -7.7179
 125   2.0000      -0.262325        -7.1382
 126   2.0000      -0.259965        -7.0740
 127   2.0000      -0.256367        -6.9761
 128   2.0000      -0.242529        -6.5995
 129   2.0000      -0.235258        -6.4017
 130   2.0000      -0.233604        -6.3567
 131   2.0000      -0.232127        -6.3165
 132   2.0000      -0.221789        -6.0352
 133   2.0000      -0.216609        -5.8942
 134   2.0000      -0.204169        -5.5557
 135   0.0000      -0.025675        -0.6986
 136   0.0000      -0.011837        -0.3221
 137   0.0000      -0.009845        -0.2679
 138   0.0000      -0.005877        -0.1599
 139   0.0000      -0.003660        -0.0996

MULLIKEN ATOMIC CHARGES
-----------------------
   0 C :   -0.530315
   1 C :    0.551816
   2 O :   -0.461564
   3 N :   -0.701232
   4 C :    0.260398
   5 C :   -0.119593
   6 C :   -0.155100
   7 C :   -0.114846
   8 C :    0.259205
   9 N :   -0.710795
  10 C :    0.551175
  11 N :   -0.402902
  12 C :    0.146915
  13 N :   -0.427123
  14 C :    0.555782
  15 N :   -0.452112
  16 C :   -0.132384
  17 C :   -0.299415
  18 C :    0.185979
  19 O :   -0.491061
  20 C :   -0.072624
  21 C :    0.106972
  22 C :   -0.168226
  23 C :   -0.170141
  24 C :    0.352061
  25 O :   -0.547067
  26 C :    1.085533
  27 F :   -0.292005
  28 F :   -0.279585
  29 F :   -0.292103
  30 C :   -0.191271
  31 C :   -0.158267
  32 C :   -0.315669
  33 C :   -0.101958
  34 N :   -0.469344
  35 C :    0.108199
  36 C :   -0.552615
  37 H :    0.196639
  38 H :    0.184237
  39 H :    0.148164
  40 H :    0.324125
  41 H :    0.141997
  42 H :    0.131651
  43 H :    0.134770
  44 H :    0.338422
  45 H :    0.171456
  46 H :    0.181950
  47 H :    0.139623
  48 H :    0.143900
  49 H :    0.155925
  50 H :    0.119041
  51 H :    0.137194
  52 H :    0.131628
  53 H :    0.131850
  54 H :    0.146075
  55 H :    0.150858
  56 H :    0.150653
  57 H :    0.146590
  58 H :    0.147822
  59 H :    0.160392
  60 H :    0.150835
  61 H :    0.161592
  62 H :    0.170039
  63 H :    0.147853
Sum of atomic charges:   -0.0000000

LOEWDIN ATOMIC CHARGES
----------------------
   0 C :   -0.379335
   1 C :    0.140206
   2 O :   -0.281327
   3 N :   -0.219740
   4 C :    0.027960
   5 C :   -0.123516
   6 C :   -0.130679
   7 C :   -0.124530
   8 C :    0.026868
   9 N :   -0.197689
  10 C :    0.115830
  11 N :   -0.199523
  12 C :    0.002353
  13 N :   -0.209904
  14 C :    0.116473
  15 N :   -0.102679
  16 C :   -0.151254
  17 C :   -0.241301
  18 C :   -0.003876
  19 O :   -0.224275
  20 C :   -0.086014
  21 C :   -0.036716
  22 C :   -0.125515
  23 C :   -0.141101
  24 C :    0.082652
  25 O :   -0.161263
  26 C :    0.359326
  27 F :   -0.105756
  28 F :   -0.087770
  29 F :   -0.105830
  30 C :   -0.158508
  31 C :   -0.116002
  32 C :   -0.244645
  33 C :   -0.144179
  34 N :   -0.218193
  35 C :   -0.047405
  36 C :   -0.365882
  37 H :    0.159458
  38 H :    0.154412
  39 H :    0.130294
  40 H :    0.253531
  41 H :    0.142394
  42 H :    0.134868
  43 H :    0.138927
  44 H :    0.265956
  45 H :    0.144875
  46 H :    0.149228
  47 H :    0.113704
  48 H :    0.125496
  49 H :    0.136237
  50 H :    0.109286
  51 H :    0.113581
  52 H :    0.112415
  53 H :    0.134944
  54 H :    0.143973
  55 H :    0.141156
  56 H :    0.144058
  57 H :    0.130647
  58 H :    0.126140
  59 H :    0.129689
  60 H :    0.125433
  61 H :    0.135432
  62 H :    0.139633
  63 H :    0.126973

  Mayer bond orders larger than 0.100000
B(  0-C ,  1-C ) :   0.9842 B(  0-C , 37-H ) :   0.9373 B(  0-C , 38-H ) :   0.9280
B(  0-C , 39-H ) :   0.9354 B(  1-C ,  2-O ) :   1.8625 B(  1-C ,  3-N ) :   1.0422
B(  3-N ,  4-C ) :   0.8483 B(  3-N , 40-H ) :   0.8259 B(  4-C ,  5-C ) :   1.4192
B(  4-C , 35-C ) :   1.3915 B(  5-C ,  6-C ) :   1.4336 B(  5-C , 41-H ) :   0.9167
B(  6-C ,  7-C ) :   1.4373 B(  6-C , 42-H ) :   0.9282 B(  7-C ,  8-C ) :   1.4115
B(  7-C , 43-H ) :   0.9176 B(  8-C ,  9-N ) :   0.8561 B(  8-C , 35-C ) :   1.3940
B(  9-N , 10-C ) :   1.0357 B(  9-N , 44-H ) :   0.8207 B( 10-C , 11-N ) :   1.3594
B( 10-C , 34-N ) :   1.3837 B( 11-N , 12-C ) :   1.4353 B( 12-C , 13-N ) :   1.4340
B( 12-C , 45-H ) :   0.9257 B( 13-N , 14-C ) :   1.3320 B( 14-C , 15-N ) :   1.0847
B( 14-C , 34-N ) :   1.3504 B( 15-N , 16-C ) :   0.9461 B( 15-N , 33-C ) :   0.9324
B( 16-C , 17-C ) :   0.9787 B( 16-C , 46-H ) :   0.9185 B( 16-C , 47-H ) :   0.9321
B( 17-C , 18-C ) :   0.9848 B( 17-C , 48-H ) :   0.9443 B( 17-C , 49-H ) :   0.9297
B( 18-C , 19-O ) :   0.8789 B( 18-C , 32-C ) :   0.9969 B( 18-C , 50-H ) :   0.9134
B( 19-O , 20-C ) :   0.9250 B( 20-C , 21-C ) :   0.9983 B( 20-C , 51-H ) :   0.9017
B( 20-C , 52-H ) :   0.9151 B( 21-C , 22-C ) :   1.4205 B( 21-C , 31-C ) :   1.4422
B( 22-C , 23-C ) :   1.4404 B( 22-C , 53-H ) :   0.9238 B( 23-C , 24-C ) :   1.4207
B( 23-C , 54-H ) :   0.9188 B( 24-C , 25-O ) :   0.8204 B( 24-C , 30-C ) :   1.3939
B( 25-O , 26-C ) :   0.9934 B( 26-C , 27-F ) :   0.9666 B( 26-C , 28-F ) :   1.0075
B( 26-C , 29-F ) :   0.9691 B( 30-C , 31-C ) :   1.4205 B( 30-C , 55-H ) :   0.9106
B( 31-C , 56-H ) :   0.9166 B( 32-C , 33-C ) :   0.9844 B( 32-C , 57-H ) :   0.9321
B( 32-C , 58-H ) :   0.9308 B( 33-C , 59-H ) :   0.9231 B( 33-C , 60-H ) :   0.9282
B( 35-C , 36-C ) :   0.9878 B( 36-C , 61-H ) :   0.9347 B( 36-C , 62-H ) :   0.9334
B( 36-C , 63-H ) :   0.9309

FINAL SINGLE POINT ENERGY     -1821.577665430668

DIPOLE MOMENT
-------------

Method             : SCF
Type of density    : Electron Density
Multiplicity       :   1
Irrep              :   0
Energy             : -1821.5776654306678211 Eh
Relativity type    :
Basis              : AO
                                X                 Y                 Z
Electronic contribution:     79.475972914       9.837060797       1.642705894
Nuclear contribution   :    -79.651150272      -8.700020648      -2.317904700
                        -----------------------------------------
Total Dipole Moment    :     -0.175177357       1.137040149      -0.675198806
                        -----------------------------------------
Magnitude (a.u.)       :      1.333956834
Magnitude (Debye)      :      3.390648811

Rotational constants in cm-1:             0.013287             0.000591             0.000581
Rotational constants in MHz :           398.325086            17.731400            17.421849

                             ****ORCA TERMINATED NORMALLY****
TOTAL RUN TIME: 0 days 0 hours 6 minutes 1 seconds 546 msec
