                         Program Version 6.0.0  -   RELEASE  -
|  1> ! B3LYP 6-31G* SP
|  2>
|  3> * xyz 0 1
|  4> C -3.4206 -2.3099 -1.3727
|  5> N -3.8520 -1.1102 -0.6357
|  6> C -3.2192 -0.7638 0.5364
|  7> O -2.2616 -1.4491 0.9886
|  8> C -3.6619 0.3609 1.2199
|  9> C -3.2497 0.9945 2.3775
| 10> C -2.0802 0.6649 3.2558
| 11> C -0.8139 1.1780 2.6393
| 12> O -0.6001 2.4201 2.6211
| 13> N 0.1410 0.2617 2.0819
| 14> C 1.1982 0.6368 1.1881
| 15> N 2.1620 -0.2259 0.8043
| 16> C 3.0341 0.3301 -0.0839
| 17> C 4.1756 -0.4473 -0.6361
| 18> C 4.2097 -1.8437 -0.4748
| 19> C 5.2773 -2.5910 -0.9739
| 20> C 6.3270 -1.9605 -1.6431
| 21> F 7.3591 -2.7108 -2.1066
| 22> C 6.3160 -0.5663 -1.8262
| 23> C 7.4718 0.1046 -2.5311
| 24> F 7.2252 1.4479 -2.7578
| 25> F 7.6928 -0.5074 -3.7520
| 26> F 8.6108 -0.0113 -1.7552
| 27> C 5.2426 0.1841 -1.3070
| 28> C 2.7432 1.6566 -0.4227
| 29> S 1.3658 2.1247 0.4206
| 30> C -4.0928 2.0943 2.5056
| 31> O -4.9620 2.1149 1.5120
| 32> C -4.7094 1.0825 0.7409
| 33> N -5.3699 0.7347 -0.3957
| 34> C -6.4944 1.5379 -0.8911
| 35> C -4.9351 -0.3744 -1.0867
| 36> O -5.5349 -0.7216 -2.1435
| 37> H -3.9900 -3.1924 -1.0127
| 38> H -3.5838 -2.1903 -2.4651
| 39> H -2.3337 -2.4978 -1.2383
| 40> H -2.0272 -0.4327 3.4130
| 41> H -2.2173 1.1351 4.2532
| 42> H 0.0625 -0.7497 2.3320
| 43> H 3.4080 -2.3626 0.0357
| 44> H 5.2909 -3.6650 -0.8389
| 45> H 5.2517 1.2591 -1.4108
| 46> H 3.2768 2.2833 -1.1228
| 47> H -4.0522 2.8360 3.2924
| 48> H -6.1989 2.0549 -1.8286
| 49> H -6.8130 2.3032 -0.1517
| 50> H -7.3682 0.8827 -1.0949
| 51> *
| 52>
| 53>                          ****END OF INPUT****

CARTESIAN COORDINATES (ANGSTROEM)
---------------------------------
  C     -3.420600   -2.309900   -1.372700
  N     -3.852000   -1.110200   -0.635700
  C     -3.219200   -0.763800    0.536400
  O     -2.261600   -1.449100    0.988600
  C     -3.661900    0.360900    1.219900
  C     -3.249700    0.994500    2.377500
  C     -2.080200    0.664900    3.255800
  C     -0.813900    1.178000    2.639300
  O     -0.600100    2.420100    2.621100
  N      0.141000    0.261700    2.081900
  C      1.198200    0.636800    1.188100
  N      2.162000   -0.225900    0.804300
  C      3.034100    0.330100   -0.083900
  C      4.175600   -0.447300   -0.636100
  C      4.209700   -1.843700   -0.474800
  C      5.277300   -2.591000   -0.973900
  C      6.327000   -1.960500   -1.643100
  F      7.359100   -2.710800   -2.106600
  C      6.316000   -0.566300   -1.826200
  C      7.471800    0.104600   -2.531100
  F      7.225200    1.447900   -2.757800
  F      7.692800   -0.507400   -3.752000
  F      8.610800   -0.011300   -1.755200
  C      5.242600    0.184100   -1.307000
  C      2.743200    1.656600   -0.422700
  S      1.365800    2.124700    0.420600
  C     -4.092800    2.094300    2.505600
  O     -4.962000    2.114900    1.512000
  C     -4.709400    1.082500    0.740900
  N     -5.369900    0.734700   -0.395700
  C     -6.494400    1.537900   -0.891100
  C     -4.935100   -0.374400   -1.086700
  O     -5.534900   -0.721600   -2.143500
  H     -3.990000   -3.192400   -1.012700
  H     -3.583800   -2.190300   -2.465100
  H     -2.333700   -2.497800   -1.238300
  H     -2.027200   -0.432700    3.413000
  H     -2.217300    1.135100    4.253200
  H      0.062500   -0.749700    2.332000
  H      3.408000   -2.362600    0.035700
  H      5.290900   -3.665000   -0.838900
  H      5.251700    1.259100   -1.410800
  H      3.276800    2.283300   -1.122800
  H     -4.052200    2.836000    3.292400
  H     -6.198900    2.054900   -1.828600
  H     -6.813000    2.303200   -0.151700
  H     -7.368200    0.882700   -1.094900

 Total Charge           Charge          ....    0
 Multiplicity           Mult            ....    1
 Number of Electrons    NEL             ....  246
 Basis Dimension        Dim             ....  494

ORBITAL ENERGIES
----------------

  NO   OCC          E(Eh)            E(eV)
   0   2.0000     -88.902119     -2419.1496
   1   2.0000     -24.719261      -672.6453
   2   2.0000     -24.710564      -672.4086
   3   2.0000     -24.710503      -672.4070
   4   2.0000     -24.707181      -672.3166
   5   2.0000     -19.260983      -524.1180
   6   2.0000     -19.131983      -520.6077
   7   2.0000     -19.122578      -520.3518
   8   2.0000     -19.117278      -520.2076
   9   2.0000     -14.423467      -392.4825
  10   2.0000     -14.405045      -391.9812
  11   2.0000     -14.391675      -391.6174
  12   2.0000     -14.330096      -389.9417
  13   2.0000     -10.433728      -283.9162
  14   2.0000     -10.339430      -281.3502
  15   2.0000     -10.312105      -280.6066
  16   2.0000     -10.310392      -280.5600
  17   2.0000     -10.299450      -280.2623
  18   2.0000     -10.289520      -279.9921
  19   2.0000     -10.282835      -279.8102
  20   2.0000     -10.252021      -278.9717
  21   2.0000     -10.246596      -278.8240
  22   2.0000     -10.227154      -278.2950
  23   2.0000     -10.225534      -278.2509
  24   2.0000     -10.217241      -278.0253
  25   2.0000     -10.215895      -277.9886
  26   2.0000     -10.213378      -277.9201
  27   2.0000     -10.208303      -277.7821
  28   2.0000     -10.207606      -277.7631
  29   2.0000     -10.206553      -277.7344
  30   2.0000     -10.198148      -277.5057
  31   2.0000     -10.197661      -277.4925
  32   2.0000     -10.196776      -277.4684
  33   2.0000      -7.978504      -217.1061
  34   2.0000      -5.941626      -161.6799
  35   2.0000      -5.937382      -161.5644
  36   2.0000      -5.935460      -161.5121
  37   2.0000      -1.275008       -34.6947
  38   2.0000      -1.219710       -33.1900
  39   2.0000      -1.201304       -32.6891
  40   2.0000      -1.196911       -32.5696
  41   2.0000      -1.188783       -32.3484
  42   2.0000      -1.076812       -29.3015
  43   2.0000      -1.033294       -28.1174
  44   2.0000      -1.028079       -27.9755
  45   2.0000      -0.984571       -26.7915
  46   2.0000      -0.976682       -26.5769
  47   2.0000      -0.947545       -25.7840
  48   2.0000      -0.914027       -24.8719
  49   2.0000      -0.873667       -23.7737
  50   2.0000      -0.862307       -23.4646
  51   2.0000      -0.810162       -22.0456
  52   2.0000      -0.802477       -21.8365
  53   2.0000      -0.790157       -21.5013
  54   2.0000      -0.776642       -21.1335
  55   2.0000      -0.765124       -20.8201
  56   2.0000      -0.752244       -20.4696
  57   2.0000      -0.727869       -19.8063
  58   2.0000      -0.717847       -19.5336
  59   2.0000      -0.693721       -18.8771
  60   2.0000      -0.674129       -18.3440
  61   2.0000      -0.653872       -17.7927
  62   2.0000      -0.637842       -17.3566
  63   2.0000      -0.633124       -17.2282
  64   2.0000      -0.623357       -16.9624
  65   2.0000      -0.618913       -16.8415
  66   2.0000      -0.592167       -16.1137
  67   2.0000      -0.582720       -15.8566
  68   2.0000      -0.568534       -15.4706
  69   2.0000      -0.564481       -15.3603
  70   2.0000      -0.560958       -15.2644
  71   2.0000      -0.554797       -15.0968
  72   2.0000      -0.549774       -14.9601
  73   2.0000      -0.535445       -14.5702
  74   2.0000      -0.525416       -14.2973
  75   2.0000      -0.518842       -14.1184
  76   2.0000      -0.515065       -14.0156
  77   2.0000      -0.498173       -13.5560
  78   2.0000      -0.495300       -13.4778
  79   2.0000      -0.490439       -13.3455
  80   2.0000      -0.487001       -13.2520
  81   2.0000      -0.470613       -12.8060
  82   2.0000      -0.467057       -12.7093
  83   2.0000      -0.465194       -12.6586
  84   2.0000      -0.463119       -12.6021
  85   2.0000      -0.456528       -12.4228
  86   2.0000      -0.453350       -12.3363
  87   2.0000      -0.442675       -12.0458
  88   2.0000      -0.442380       -12.0378
  89   2.0000      -0.441905       -12.0248
  90   2.0000      -0.436077       -11.8663
  91   2.0000      -0.434007       -11.8099
  92   2.0000      -0.427926       -11.6445
  93   2.0000      -0.417652       -11.3649
  94   2.0000      -0.414071       -11.2674
  95   2.0000      -0.412603       -11.2275
  96   2.0000      -0.411097       -11.1865
  97   2.0000      -0.409380       -11.1398
  98   2.0000      -0.407545       -11.0899
  99   2.0000      -0.404262       -11.0005
 100   2.0000      -0.402660       -10.9569
 101   2.0000      -0.396762       -10.7964
 102   2.0000      -0.392317       -10.6755
 103   2.0000      -0.389648       -10.6029
 104   2.0000      -0.385724       -10.4961
 105   2.0000      -0.381367       -10.3775
 106   2.0000      -0.373829       -10.1724
 107   2.0000      -0.363198        -9.8831
 108   2.0000      -0.352296        -9.5865
 109   2.0000      -0.349136        -9.5005
 110   2.0000      -0.336322        -9.1518
 111   2.0000      -0.314028        -8.5451
 112   2.0000      -0.296386        -8.0651
 113   2.0000      -0.291882        -7.9425
 114   2.0000      -0.284834        -7.7507
 115   2.0000      -0.275964        -7.5094
 116   2.0000      -0.274213        -7.4617
 117   2.0000      -0.268430        -7.3044
 118   2.0000      -0.264967        -7.2101
 119   2.0000      -0.258468        -7.0333
 120   2.0000      -0.251556        -6.8452
 121   2.0000      -0.221354        -6.0233
 122   2.0000      -0.210762        -5.7351
 123   0.0000      -0.042244        -1.1495
 124   0.0000      -0.031287        -0.8514
 125   0.0000      -0.028310        -0.7704
 126   0.0000      -0.024775        -0.6742
 127   0.0000      -0.010256        -0.2791

MULLIKEN ATOMIC CHARGES
-----------------------
   0 C :   -0.316594
   1 N :   -0.484266
   2 C :    0.514469
   3 O :   -0.519842
   4 C :    0.030234
   5 C :    0.054354
   6 C :   -0.428680
   7 C :    0.570386
   8 O :   -0.459789
   9 N :   -0.630082
  10 C :    0.264371
  11 N :   -0.435312
  12 C :    0.213907
  13 C :    0.116033
  14 C :   -0.149148
  15 C :   -0.207252
  16 C :    0.385704
  17 F :   -0.302353
  18 C :   -0.119586
  19 C :    0.917983
  20 F :   -0.306599
  21 F :   -0.299612
  22 F :   -0.297156
  23 C :   -0.206673
  24 C :   -0.405339
  25 S :    0.313148
  26 C :    0.009432
  27 O :   -0.383168
  28 C :    0.495904
  29 N :   -0.497432
  30 C :   -0.328867
  31 C :    0.679684
  32 O :   -0.501285
  33 H :    0.178454
  34 H :    0.196530
  35 H :    0.197716
  36 H :    0.178058
  37 H :    0.180206
  38 H :    0.368696
  39 H :    0.166168
  40 H :    0.153565
  41 H :    0.154251
  42 H :    0.182893
  43 H :    0.178173
  44 H :    0.192686
  45 H :    0.186511
  46 H :    0.199517
Sum of atomic charges:    0.0000000

LOEWDIN ATOMIC CHARGES
----------------------
   0 C :   -0.259976
   1 N :   -0.027403
   2 C :    0.113271
   3 O :   -0.313520
   4 C :   -0.114531
   5 C :   -0.026949
   6 C :   -0.236097
   7 C :    0.156354
   8 O :   -0.265615
   9 N :   -0.190257
  10 C :   -0.075168
  11 N :   -0.186075
  12 C :   -0.008566
  13 C :   -0.021682
  14 C :   -0.096190
  15 C :   -0.151638
  16 C :    0.130875
  17 F :   -0.094779
  18 C :   -0.097605
  19 C :    0.314697
  20 F :   -0.112426
  21 F :   -0.111368
  22 F :   -0.111981
  23 C :   -0.105883
  24 C :   -0.350578
  25 S :    0.425091
  26 C :   -0.078997
  27 O :   -0.001126
  28 C :    0.099695
  29 N :   -0.022045
  30 C :   -0.259260
  31 C :    0.144743
  32 O :   -0.309303
  33 H :    0.140625
  34 H :    0.153248
  35 H :    0.154156
  36 H :    0.148583
  37 H :    0.155118
  38 H :    0.283532
  39 H :    0.152517
  40 H :    0.148673
  41 H :    0.145175
  42 H :    0.161024
  43 H :    0.153709
  44 H :    0.147289
  45 H :    0.147469
  46 H :    0.153176

  Mayer bond orders larger than 0.100000
B(  0-C ,  1-N ) :   0.9166 B(  0-C , 33-H ) :   0.9404 B(  0-C , 34-H ) :   0.9261
B(  0-C , 35-H ) :   0.9234 B(  1-N ,  2-C ) :   0.9733 B(  1-N , 31-C ) :   1.0409
B(  2-C ,  3-O ) :   1.7552 B(  2-C ,  4-C ) :   1.0881 B(  4-C ,  5-C ) :   1.3096
B(  4-C , 28-C ) :   1.3601 B(  5-C ,  6-C ) :   1.0068 B(  5-C , 26-C ) :   1.5762
B(  6-C ,  7-C ) :   0.9441 B(  6-C , 36-H ) :   0.9072 B(  6-C , 37-H ) :   0.9153
B(  7-C ,  8-O ) :   1.8246 B(  7-C ,  9-N ) :   1.0388 B(  9-N , 10-C ) :   0.9528
B(  9-N , 38-H ) :   0.7974 B( 10-C , 11-N ) :   1.4796 B( 10-C , 24-C ) :   0.1067
B( 10-C , 25-S ) :   1.1797 B( 11-N , 12-C ) :   1.2892 B( 12-C , 13-C ) :   1.0527
B( 12-C , 24-C ) :   1.5159 B( 13-C , 14-C ) :   1.3994 B( 13-C , 23-C ) :   1.3862
B( 14-C , 15-C ) :   1.4034 B( 14-C , 39-H ) :   0.9102 B( 15-C , 16-C ) :   1.3839
B( 15-C , 40-H ) :   0.9191 B( 16-C , 17-F ) :   0.9527 B( 16-C , 18-C ) :   1.3217
B( 18-C , 19-C ) :   0.9652 B( 18-C , 23-C ) :   1.3999 B( 19-C , 20-F ) :   0.9428
B( 19-C , 21-F ) :   0.9647 B( 19-C , 22-F ) :   0.9800 B( 23-C , 41-H ) :   0.9072
B( 24-C , 25-S ) :   1.1110 B( 24-C , 42-H ) :   0.9012 B( 26-C , 27-O ) :   0.9987
B( 26-C , 43-H ) :   0.9246 B( 27-O , 28-C ) :   1.0764 B( 28-C , 29-N ) :   0.9890
B( 29-N , 30-C ) :   0.9229 B( 29-N , 31-C ) :   1.0438 B( 30-C , 44-H ) :   0.9329
B( 30-C , 45-H ) :   0.9291 B( 30-C , 46-H ) :   0.9289 B( 31-C , 32-O ) :   1.7963

FINAL SINGLE POINT ENERGY     -2087.063577664209

DIPOLE MOMENT
-------------

Method             : SCF
Type of density    : Electron Density
Multiplicity       :   1
Irrep              :   0
Energy             : -2087.0635776642093333 Eh
Relativity type    :
Basis              : AO
                                X                 Y                 Z
Electronic contribution:     54.204487145       2.114493875     -12.525200830
Nuclear contribution   :    -56.937528273      -1.839097626      13.511427238
                        -----------------------------------------
Total Dipole Moment    :     -2.733041127       0.275396249       0.986226408
                        -----------------------------------------
Magnitude (a.u.)       :      2.918561191
Magnitude (Debye)      :      7.418392998

Rotational constants in cm-1:             0.008500             0.001376             0.001300
Rotational constants in MHz :           254.835723            41.240910            38.973239

                             ****ORCA TERMINATED NORMALLY****
TOTAL RUN TIME: 0 days 0 hours 6 minutes 24 seconds 48 msec
