                         Program Version 6.0.0  -   RELEASE  -
|  1> ! B3LYP 6-31G* SP
|  2>
|  3> * xyz 0 1
|  4> C -2.6622 -3.3160 -1.3854
|  5> C -3.1330 -1.9663 -0.9530
|  6> O -3.8282 -1.1530 -1.7264
|  7> C -4.0623 -0.0592 -1.0374
|  8> C -3.5212 -0.1396 0.2090
|  9> C -2.9196 -1.3838 0.2976
| 10> C -2.1219 -1.9529 1.4369
| 11> C -0.6724 -1.6022 1.2807
| 12> O -0.3230 -0.3905 1.3350
| 13> N 0.3022 -2.6366 1.0726
| 14> C 1.6933 -2.3824 0.8394
| 15> N 2.2151 -1.1561 0.6239
| 16> C 3.5611 -1.2060 0.4179
| 17> C 4.3393 0.0142 0.1048
| 18> C 3.7364 1.0382 -0.6444
| 19> C 4.4563 2.1830 -0.9881
| 20> C 5.7818 2.3297 -0.5782
| 21> C 6.4042 1.3280 0.1897
| 22> C 7.8307 1.4815 0.6625
| 23> F 8.5789 0.3964 0.2344
| 24> F 7.8543 1.5304 2.0470
| 25> F 8.4138 2.6391 0.1694
| 26> C 5.6738 0.1723 0.5351
| 27> F 6.2544 -0.7735 1.3207
| 28> C 4.1097 -2.4917 0.4549
| 29> S 2.8664 -3.5824 0.7603
| 30> C -3.6520 0.9242 1.0947
| 31> O -3.1569 0.8545 2.2531
| 32> N -4.3376 2.0437 0.6799
| 33> C -4.5350 3.1688 1.6092
| 34> C -4.9107 2.0835 -0.5801
| 35> O -5.5962 3.0880 -0.9270
| 36> N -4.7480 1.0366 -1.4610
| 37> C -5.3562 1.0699 -2.7968
| 38> H -1.5676 -3.4040 -1.2196
| 39> H -2.8766 -3.4638 -2.4649
| 40> H -3.1878 -4.0993 -0.8018
| 41> H -2.2541 -3.0549 1.4618
| 42> H -2.4954 -1.5656 2.4065
| 43> H -0.0072 -3.6338 1.1114
| 44> H 2.7124 0.9422 -0.9857
| 45> H 3.9857 2.9587 -1.5800
| 46> H 6.3131 3.2304 -0.8610
| 47> H 5.1421 -2.7580 0.2719
| 48> H -5.4881 3.0317 2.1617
| 49> H -4.5643 4.1366 1.0643
| 50> H -3.6992 3.2451 2.3376
| 51> H -6.4472 0.8808 -2.7143
| 52> H -5.1911 2.0610 -3.2720
| 53> H -4.9103 0.3028 -3.4666
| 54> *
| 55>
| 56>                          ****END OF INPUT****

CARTESIAN COORDINATES (ANGSTROEM)
---------------------------------
  C     -2.662200   -3.316000   -1.385400
  C     -3.133000   -1.966300   -0.953000
  O     -3.828200   -1.153000   -1.726400
  C     -4.062300   -0.059200   -1.037400
  C     -3.521200   -0.139600    0.209000
  C     -2.919600   -1.383800    0.297600
  C     -2.121900   -1.952900    1.436900
  C     -0.672400   -1.602200    1.280700
  O     -0.323000   -0.390500    1.335000
  N      0.302200   -2.636600    1.072600
  C      1.693300   -2.382400    0.839400
  N      2.215100   -1.156100    0.623900
  C      3.561100   -1.206000    0.417900
  C      4.339300    0.014200    0.104800
  C      3.736400    1.038200   -0.644400
  C      4.456300    2.183000   -0.988100
  C      5.781800    2.329700   -0.578200
  C      6.404200    1.328000    0.189700
  C      7.830700    1.481500    0.662500
  F      8.578900    0.396400    0.234400
  F      7.854300    1.530400    2.047000
  F      8.413800    2.639100    0.169400
  C      5.673800    0.172300    0.535100
  F      6.254400   -0.773500    1.320700
  C      4.109700   -2.491700    0.454900
  S      2.866400   -3.582400    0.760300
  C     -3.652000    0.924200    1.094700
  O     -3.156900    0.854500    2.253100
  N     -4.337600    2.043700    0.679900
  C     -4.535000    3.168800    1.609200
  C     -4.910700    2.083500   -0.580100
  O     -5.596200    3.088000   -0.927000
  N     -4.748000    1.036600   -1.461000
  C     -5.356200    1.069900   -2.796800
  H     -1.567600   -3.404000   -1.219600
  H     -2.876600   -3.463800   -2.464900
  H     -3.187800   -4.099300   -0.801800
  H     -2.254100   -3.054900    1.461800
  H     -2.495400   -1.565600    2.406500
  H     -0.007200   -3.633800    1.111400
  H      2.712400    0.942200   -0.985700
  H      3.985700    2.958700   -1.580000
  H      6.313100    3.230400   -0.861000
  H      5.142100   -2.758000    0.271900
  H     -5.488100    3.031700    2.161700
  H     -4.564300    4.136600    1.064300
  H     -3.699200    3.245100    2.337600
  H     -6.447200    0.880800   -2.714300
  H     -5.191100    2.061000   -3.272000
  H     -4.910300    0.302800   -3.466600

 Total Charge           Charge          ....    0
 Multiplicity           Mult            ....    1
 Number of Electrons    NEL             ....  254
 Basis Dimension        Dim             ....  512

ORBITAL ENERGIES
----------------

  NO   OCC          E(Eh)            E(eV)
   0   2.0000     -88.909949     -2419.3627
   1   2.0000     -24.718880      -672.6349
   2   2.0000     -24.714310      -672.5106
   3   2.0000     -24.711191      -672.4257
   4   2.0000     -24.710042      -672.3944
   5   2.0000     -19.250845      -523.8421
   6   2.0000     -19.113477      -520.1042
   7   2.0000     -19.110974      -520.0360
   8   2.0000     -19.098850      -519.7061
   9   2.0000     -14.410962      -392.1422
  10   2.0000     -14.398143      -391.7934
  11   2.0000     -14.390454      -391.5842
  12   2.0000     -14.328828      -389.9072
  13   2.0000     -10.433714      -283.9158
  14   2.0000     -10.327342      -281.0213
  15   2.0000     -10.301716      -280.3240
  16   2.0000     -10.296197      -280.1738
  17   2.0000     -10.292350      -280.0691
  18   2.0000     -10.288166      -279.9552
  19   2.0000     -10.281553      -279.7753
  20   2.0000     -10.251784      -278.9652
  21   2.0000     -10.239181      -278.6223
  22   2.0000     -10.229539      -278.3599
  23   2.0000     -10.217469      -278.0315
  24   2.0000     -10.213164      -277.9143
  25   2.0000     -10.213106      -277.9128
  26   2.0000     -10.211553      -277.8705
  27   2.0000     -10.209181      -277.8059
  28   2.0000     -10.208260      -277.7809
  29   2.0000     -10.204265      -277.6722
  30   2.0000     -10.200079      -277.5583
  31   2.0000     -10.198161      -277.5061
  32   2.0000     -10.193090      -277.3681
  33   2.0000     -10.184211      -277.1265
  34   2.0000      -7.987736      -217.3573
  35   2.0000      -5.950786      -161.9291
  36   2.0000      -5.946696      -161.8178
  37   2.0000      -5.944572      -161.7600
  38   2.0000      -1.273379       -34.6504
  39   2.0000      -1.225993       -33.3610
  40   2.0000      -1.200334       -32.6627
  41   2.0000      -1.196279       -32.5524
  42   2.0000      -1.180051       -32.1108
  43   2.0000      -1.063567       -28.9411
  44   2.0000      -1.019001       -27.7284
  45   2.0000      -1.010620       -27.5004
  46   2.0000      -0.976342       -26.5676
  47   2.0000      -0.972842       -26.4724
  48   2.0000      -0.932041       -25.3621
  49   2.0000      -0.917944       -24.9785
  50   2.0000      -0.873705       -23.7747
  51   2.0000      -0.850697       -23.1486
  52   2.0000      -0.816677       -22.2229
  53   2.0000      -0.808715       -22.0063
  54   2.0000      -0.795289       -21.6409
  55   2.0000      -0.772519       -21.0213
  56   2.0000      -0.765892       -20.8410
  57   2.0000      -0.744397       -20.2561
  58   2.0000      -0.724613       -19.7177
  59   2.0000      -0.723145       -19.6778
  60   2.0000      -0.707905       -19.2631
  61   2.0000      -0.693411       -18.8687
  62   2.0000      -0.660584       -17.9754
  63   2.0000      -0.643733       -17.5169
  64   2.0000      -0.627370       -17.0716
  65   2.0000      -0.625131       -17.0107
  66   2.0000      -0.615257       -16.7420
  67   2.0000      -0.607720       -16.5369
  68   2.0000      -0.602242       -16.3878
  69   2.0000      -0.575494       -15.6600
  70   2.0000      -0.568465       -15.4687
  71   2.0000      -0.565425       -15.3860
  72   2.0000      -0.563589       -15.3360
  73   2.0000      -0.538979       -14.6664
  74   2.0000      -0.534304       -14.5392
  75   2.0000      -0.532155       -14.4807
  76   2.0000      -0.527162       -14.3448
  77   2.0000      -0.518989       -14.1224
  78   2.0000      -0.502738       -13.6802
  79   2.0000      -0.492877       -13.4119
  80   2.0000      -0.486514       -13.2387
  81   2.0000      -0.481127       -13.0921
  82   2.0000      -0.476623       -12.9696
  83   2.0000      -0.470752       -12.8098
  84   2.0000      -0.470392       -12.8000
  85   2.0000      -0.459863       -12.5135
  86   2.0000      -0.457982       -12.4623
  87   2.0000      -0.452256       -12.3065
  88   2.0000      -0.445560       -12.1243
  89   2.0000      -0.442913       -12.0523
  90   2.0000      -0.441972       -12.0267
  91   2.0000      -0.436722       -11.8838
  92   2.0000      -0.432411       -11.7665
  93   2.0000      -0.431822       -11.7505
  94   2.0000      -0.429190       -11.6789
  95   2.0000      -0.425447       -11.5770
  96   2.0000      -0.413079       -11.2404
  97   2.0000      -0.411801       -11.2057
  98   2.0000      -0.411689       -11.2026
  99   2.0000      -0.405586       -11.0366
 100   2.0000      -0.404327       -11.0023
 101   2.0000      -0.402377       -10.9492
 102   2.0000      -0.398387       -10.8407
 103   2.0000      -0.394947       -10.7471
 104   2.0000      -0.392182       -10.6718
 105   2.0000      -0.392052       -10.6683
 106   2.0000      -0.385459       -10.4889
 107   2.0000      -0.383858       -10.4453
 108   2.0000      -0.376185       -10.2365
 109   2.0000      -0.373506       -10.1636
 110   2.0000      -0.364237        -9.9114
 111   2.0000      -0.360779        -9.8173
 112   2.0000      -0.357379        -9.7248
 113   2.0000      -0.349020        -9.4973
 114   2.0000      -0.323615        -8.8060
 115   2.0000      -0.308109        -8.3841
 116   2.0000      -0.296174        -8.0593
 117   2.0000      -0.284766        -7.7489
 118   2.0000      -0.278842        -7.5877
 119   2.0000      -0.271886        -7.3984
 120   2.0000      -0.263389        -7.1672
 121   2.0000      -0.258548        -7.0354
 122   2.0000      -0.255033        -6.9398
 123   2.0000      -0.240924        -6.5559
 124   2.0000      -0.232549        -6.3280
 125   2.0000      -0.217235        -5.9113
 126   2.0000      -0.203852        -5.5471
 127   0.0000      -0.039396        -1.0720
 128   0.0000      -0.030206        -0.8220
 129   0.0000      -0.018976        -0.5164
 130   0.0000      -0.012600        -0.3429
 131   0.0000      -0.003269        -0.0890

MULLIKEN ATOMIC CHARGES
-----------------------
   0 C :   -0.538384
   1 C :    0.257550
   2 O :   -0.408233
   3 C :    0.479458
   4 C :    0.044377
   5 C :    0.041960
   6 C :   -0.439080
   7 C :    0.571288
   8 O :   -0.414933
   9 N :   -0.664984
  10 C :    0.249007
  11 N :   -0.362858
  12 C :    0.209370
  13 C :    0.026591
  14 C :   -0.137305
  15 C :   -0.131172
  16 C :   -0.151564
  17 C :   -0.114181
  18 C :    0.921086
  19 F :   -0.302489
  20 F :   -0.298513
  21 F :   -0.307088
  22 C :    0.326639
  23 F :   -0.298874
  24 C :   -0.375645
  25 S :    0.248079
  26 C :    0.515004
  27 O :   -0.494662
  28 N :   -0.483717
  29 C :   -0.314612
  30 C :    0.676248
  31 O :   -0.508098
  32 N :   -0.503868
  33 C :   -0.326828
  34 H :    0.170672
  35 H :    0.172060
  36 H :    0.173443
  37 H :    0.128479
  38 H :    0.226674
  39 H :    0.340435
  40 H :    0.171850
  41 H :    0.142608
  42 H :    0.159005
  43 H :    0.193660
  44 H :    0.173785
  45 H :    0.190436
  46 H :    0.201547
  47 H :    0.184879
  48 H :    0.201384
  49 H :    0.179514
Sum of atomic charges:    0.0000000

LOEWDIN ATOMIC CHARGES
----------------------
   0 C :   -0.363373
   1 C :    0.014517
   2 O :   -0.004053
   3 C :    0.091103
   4 C :   -0.102403
   5 C :   -0.034588
   6 C :   -0.240141
   7 C :    0.155048
   8 O :   -0.233818
   9 N :   -0.213619
  10 C :   -0.084330
  11 N :   -0.147938
  12 C :   -0.005113
  13 C :   -0.039565
  14 C :   -0.089289
  15 C :   -0.132604
  16 C :   -0.110176
  17 C :   -0.097163
  18 C :    0.317930
  19 F :   -0.115095
  20 F :   -0.112958
  21 F :   -0.112431
  22 C :    0.136459
  23 F :   -0.091033
  24 C :   -0.336449
  25 S :    0.385966
  26 C :    0.114005
  27 O :   -0.292314
  28 N :   -0.028658
  29 C :   -0.259608
  30 C :    0.143989
  31 O :   -0.316518
  32 N :   -0.025782
  33 C :   -0.259312
  34 H :    0.141662
  35 H :    0.146637
  36 H :    0.142147
  37 H :    0.121460
  38 H :    0.180418
  39 H :    0.262843
  40 H :    0.155333
  41 H :    0.139295
  42 H :    0.147634
  43 H :    0.167147
  44 H :    0.138155
  45 H :    0.149992
  46 H :    0.156074
  47 H :    0.141970
  48 H :    0.155116
  49 H :    0.143430

  Mayer bond orders larger than 0.100000
B(  0-C ,  1-C ) :   1.0269 B(  0-C , 34-H ) :   0.9293 B(  0-C , 35-H ) :   0.9379
B(  0-C , 36-H ) :   0.9303 B(  1-C ,  2-O ) :   0.9878 B(  1-C ,  5-C ) :   1.5436
B(  2-O ,  3-C ) :   1.0650 B(  3-C ,  4-C ) :   1.3744 B(  3-C , 32-N ) :   0.9727
B(  4-C ,  5-C ) :   1.3036 B(  4-C , 26-C ) :   1.0783 B(  5-C ,  6-C ) :   0.9999
B(  6-C ,  7-C ) :   0.9494 B(  6-C , 37-H ) :   0.9207 B(  6-C , 38-H ) :   0.8842
B(  7-C ,  8-O ) :   1.9143 B(  7-C ,  9-N ) :   0.9671 B(  9-N , 10-C ) :   0.9455
B(  9-N , 39-H ) :   0.8207 B( 10-C , 11-N ) :   1.5180 B( 10-C , 24-C ) :   0.1116
B( 10-C , 25-S ) :   1.1369 B( 11-N , 12-C ) :   1.2665 B( 12-C , 13-C ) :   1.0045
B( 12-C , 24-C ) :   1.5252 B( 13-C , 14-C ) :   1.4026 B( 13-C , 22-C ) :   1.3301
B( 14-C , 15-C ) :   1.4353 B( 14-C , 40-H ) :   0.9132 B( 15-C , 16-C ) :   1.4331
B( 15-C , 41-H ) :   0.9278 B( 16-C , 17-C ) :   1.4139 B( 16-C , 42-H ) :   0.9186
B( 17-C , 18-C ) :   0.9638 B( 17-C , 22-C ) :   1.3162 B( 18-C , 19-F ) :   0.9636
B( 18-C , 20-F ) :   0.9737 B( 18-C , 21-F ) :   0.9435 B( 22-C , 23-F ) :   0.9546
B( 24-C , 25-S ) :   1.1204 B( 24-C , 43-H ) :   0.9006 B( 26-C , 27-O ) :   1.7815
B( 26-C , 28-N ) :   0.9604 B( 28-N , 29-C ) :   0.9190 B( 28-N , 30-C ) :   1.0484
B( 29-C , 44-H ) :   0.9415 B( 29-C , 45-H ) :   0.9284 B( 29-C , 46-H ) :   0.9217
B( 30-C , 31-O ) :   1.7896 B( 30-C , 32-N ) :   1.0438 B( 32-N , 33-C ) :   0.9285
B( 33-C , 47-H ) :   0.9348 B( 33-C , 48-H ) :   0.9280 B( 33-C , 49-H ) :   0.9313

FINAL SINGLE POINT ENERGY     -2126.332165024292

DIPOLE MOMENT
-------------

Method             : SCF
Type of density    : Electron Density
Multiplicity       :   1
Irrep              :   0
Energy             : -2126.3321650242924079 Eh
Relativity type    :
Basis              : AO
                                X                 Y                 Z
Electronic contribution:     61.661773879       1.718542828      10.529679360
Nuclear contribution   :    -63.129879101      -3.943946761     -12.370881473
                        -----------------------------------------
Total Dipole Moment    :     -1.468105222      -2.225403933      -1.841202113
                        -----------------------------------------
Magnitude (a.u.)       :      3.240027906
Magnitude (Debye)      :      8.235496451

Rotational constants in cm-1:             0.006632             0.001435             0.001288
Rotational constants in MHz :           198.823982            43.033796            38.610707

                             ****ORCA TERMINATED NORMALLY****
TOTAL RUN TIME: 0 days 0 hours 5 minutes 47 seconds 671 msec
