                         Program Version 6.0.0  -   RELEASE  -
|  1> ! B3LYP 6-31G* SP
|  2>
|  3> * xyz 0 1
|  4> C 2.3927 -2.8578 -1.8938
|  5> C 2.4822 -1.3516 -2.1057
|  6> O 1.3654 -0.6964 -1.5101
|  7> C 0.0922 -0.6507 -2.0916
|  8> O -0.1048 -1.1364 -3.2385
|  9> C -1.0249 -0.0172 -1.3711
| 10> S -2.5530 0.2568 -2.0189
| 11> C -3.1533 0.9752 -0.6156
| 12> C -4.5203 1.5137 -0.4353
| 13> C -4.8993 2.0811 0.7961
| 14> C -6.1865 2.5979 0.9723
| 15> C -7.1094 2.5535 -0.0750
| 16> C -6.7468 1.9912 -1.3017
| 17> F -7.6442 1.9483 -2.3176
| 18> C -5.4597 1.4733 -1.4835
| 19> N -2.2059 1.0072 0.3501
| 20> C -1.0297 0.4623 -0.0588
| 21> C 0.0974 0.3747 0.8294
| 22> C 1.0565 0.2816 1.5535
| 23> C 2.2402 0.1456 2.4075
| 24> C 3.4307 -0.3382 1.5758
| 25> C 4.6679 -0.5514 2.4513
| 26> C 5.8220 -1.0155 1.6206
| 27> O 6.7753 -0.2322 1.3690
| 28> O 5.8270 -2.3058 1.1015
| 29> H 3.2969 -3.3479 -2.3150
| 30> H 1.4944 -3.2650 -2.4016
| 31> H 2.3312 -3.0850 -0.8079
| 32> H 3.4090 -0.9774 -1.6219
| 33> H 2.5412 -1.1155 -3.1907
| 34> H -4.2018 2.1272 1.6231
| 35> H -6.4689 3.0334 1.9229
| 36> H -8.1048 2.9558 0.0648
| 37> H -5.2044 1.0444 -2.4432
| 38> H 2.0156 -0.5831 3.2144
| 39> H 2.4695 1.1324 2.8637
| 40> H 3.6611 0.4171 0.7907
| 41> H 3.1663 -1.2976 1.0761
| 42> H 4.4537 -1.3180 3.2254
| 43> H 4.9345 0.3985 2.9652
| 44> H 6.5948 -2.6285 0.5239
| 45> *
| 46>
| 47>                          ****END OF INPUT****

CARTESIAN COORDINATES (ANGSTROEM)
---------------------------------
  C      2.392700   -2.857800   -1.893800
  C      2.482200   -1.351600   -2.105700
  O      1.365400   -0.696400   -1.510100
  C      0.092200   -0.650700   -2.091600
  O     -0.104800   -1.136400   -3.238500
  C     -1.024900   -0.017200   -1.371100
  S     -2.553000    0.256800   -2.018900
  C     -3.153300    0.975200   -0.615600
  C     -4.520300    1.513700   -0.435300
  C     -4.899300    2.081100    0.796100
  C     -6.186500    2.597900    0.972300
  C     -7.109400    2.553500   -0.075000
  C     -6.746800    1.991200   -1.301700
  F     -7.644200    1.948300   -2.317600
  C     -5.459700    1.473300   -1.483500
  N     -2.205900    1.007200    0.350100
  C     -1.029700    0.462300   -0.058800
  C      0.097400    0.374700    0.829400
  C      1.056500    0.281600    1.553500
  C      2.240200    0.145600    2.407500
  C      3.430700   -0.338200    1.575800
  C      4.667900   -0.551400    2.451300
  C      5.822000   -1.015500    1.620600
  O      6.775300   -0.232200    1.369000
  O      5.827000   -2.305800    1.101500
  H      3.296900   -3.347900   -2.315000
  H      1.494400   -3.265000   -2.401600
  H      2.331200   -3.085000   -0.807900
  H      3.409000   -0.977400   -1.621900
  H      2.541200   -1.115500   -3.190700
  H     -4.201800    2.127200    1.623100
  H     -6.468900    3.033400    1.922900
  H     -8.104800    2.955800    0.064800
  H     -5.204400    1.044400   -2.443200
  H      2.015600   -0.583100    3.214400
  H      2.469500    1.132400    2.863700
  H      3.661100    0.417100    0.790700
  H      3.166300   -1.297600    1.076100
  H      4.453700   -1.318000    3.225400
  H      4.934500    0.398500    2.965200
  H      6.594800   -2.628500    0.523900

 Total Charge           Charge          ....    0
 Multiplicity           Mult            ....    1
 Number of Electrons    NEL             ....  188
 Basis Dimension        Dim             ....  386

ORBITAL ENERGIES
----------------

  NO   OCC          E(Eh)            E(eV)
   0   2.0000     -88.914735     -2419.4930
   1   2.0000     -24.708097      -672.3415
   2   2.0000     -19.190648      -522.2041
   3   2.0000     -19.181343      -521.9509
   4   2.0000     -19.129118      -520.5298
   5   2.0000     -19.128719      -520.5189
   6   2.0000     -14.342399      -390.2765
   7   2.0000     -10.329297      -281.0745
   8   2.0000     -10.325032      -280.9584
   9   2.0000     -10.282456      -279.7998
  10   2.0000     -10.269364      -279.4436
  11   2.0000     -10.254870      -279.0492
  12   2.0000     -10.241003      -278.6719
  13   2.0000     -10.234573      -278.4969
  14   2.0000     -10.225801      -278.2582
  15   2.0000     -10.217460      -278.0312
  16   2.0000     -10.209135      -277.8047
  17   2.0000     -10.207045      -277.7478
  18   2.0000     -10.203596      -277.6540
  19   2.0000     -10.203193      -277.6430
  20   2.0000     -10.202315      -277.6191
  21   2.0000     -10.198257      -277.5087
  22   2.0000     -10.189463      -277.2694
  23   2.0000     -10.182610      -277.0829
  24   2.0000     -10.175538      -276.8905
  25   2.0000      -7.991210      -217.4519
  26   2.0000      -5.954062      -162.0183
  27   2.0000      -5.950059      -161.9093
  28   2.0000      -5.948508      -161.8671
  29   2.0000      -1.220999       -33.2251
  30   2.0000      -1.077292       -29.3146
  31   2.0000      -1.074149       -29.2291
  32   2.0000      -0.994207       -27.0537
  33   2.0000      -0.987310       -26.8661
  34   2.0000      -0.980537       -26.6818
  35   2.0000      -0.874806       -23.8047
  36   2.0000      -0.830525       -22.5997
  37   2.0000      -0.826098       -22.4793
  38   2.0000      -0.809239       -22.0205
  39   2.0000      -0.774874       -21.0854
  40   2.0000      -0.767022       -20.8717
  41   2.0000      -0.760045       -20.6819
  42   2.0000      -0.748972       -20.3806
  43   2.0000      -0.712066       -19.3763
  44   2.0000      -0.673206       -18.3189
  45   2.0000      -0.648195       -17.6383
  46   2.0000      -0.636910       -17.3312
  47   2.0000      -0.629494       -17.1294
  48   2.0000      -0.613188       -16.6857
  49   2.0000      -0.605868       -16.4865
  50   2.0000      -0.583733       -15.8842
  51   2.0000      -0.558724       -15.2037
  52   2.0000      -0.541264       -14.7285
  53   2.0000      -0.529582       -14.4107
  54   2.0000      -0.509689       -13.8693
  55   2.0000      -0.505897       -13.7661
  56   2.0000      -0.501064       -13.6346
  57   2.0000      -0.491816       -13.3830
  58   2.0000      -0.476541       -12.9673
  59   2.0000      -0.468873       -12.7587
  60   2.0000      -0.464629       -12.6432
  61   2.0000      -0.463748       -12.6192
  62   2.0000      -0.457932       -12.4610
  63   2.0000      -0.457164       -12.4401
  64   2.0000      -0.453030       -12.3276
  65   2.0000      -0.443433       -12.0664
  66   2.0000      -0.435989       -11.8639
  67   2.0000      -0.433623       -11.7995
  68   2.0000      -0.431432       -11.7399
  69   2.0000      -0.420967       -11.4551
  70   2.0000      -0.403986       -10.9930
  71   2.0000      -0.397025       -10.8036
  72   2.0000      -0.395984       -10.7753
  73   2.0000      -0.383186       -10.4270
  74   2.0000      -0.382051       -10.3961
  75   2.0000      -0.379609       -10.3297
  76   2.0000      -0.372416       -10.1339
  77   2.0000      -0.370196       -10.0735
  78   2.0000      -0.366795        -9.9810
  79   2.0000      -0.364780        -9.9262
  80   2.0000      -0.359166        -9.7734
  81   2.0000      -0.355826        -9.6825
  82   2.0000      -0.332455        -9.0466
  83   2.0000      -0.320527        -8.7220
  84   2.0000      -0.306154        -8.3309
  85   2.0000      -0.298850        -8.1321
  86   2.0000      -0.288045        -7.8381
  87   2.0000      -0.286126        -7.7859
  88   2.0000      -0.267877        -7.2893
  89   2.0000      -0.266490        -7.2516
  90   2.0000      -0.260871        -7.0987
  91   2.0000      -0.257532        -7.0078
  92   2.0000      -0.254045        -6.9129
  93   2.0000      -0.228576        -6.2199
  94   0.0000      -0.081625        -2.2211
  95   0.0000      -0.033951        -0.9239
  96   0.0000      -0.012616        -0.3433
  97   0.0000      -0.008674        -0.2360
  98   0.0000       0.024217         0.6590

MULLIKEN ATOMIC CHARGES
-----------------------
   0 C :   -0.461675
   1 C :   -0.022823
   2 O :   -0.475981
   3 C :    0.582054
   4 O :   -0.469177
   5 C :   -0.192039
   6 S :    0.308986
   7 C :    0.004852
   8 C :    0.147448
   9 C :   -0.157466
  10 C :   -0.117157
  11 C :   -0.198095
  12 C :    0.412972
  13 F :   -0.314154
  14 C :   -0.277872
  15 N :   -0.398896
  16 C :    0.075220
  17 C :    0.321828
  18 C :   -0.181500
  19 C :   -0.384667
  20 C :   -0.278844
  21 C :   -0.314571
  22 C :    0.566501
  23 O :   -0.447861
  24 O :   -0.613873
  25 H :    0.142040
  26 H :    0.177496
  27 H :    0.154964
  28 H :    0.152229
  29 H :    0.160126
  30 H :    0.170025
  31 H :    0.148626
  32 H :    0.151435
  33 H :    0.164479
  34 H :    0.173111
  35 H :    0.175301
  36 H :    0.169264
  37 H :    0.173451
  38 H :    0.162493
  39 H :    0.183396
  40 H :    0.428352
Sum of atomic charges:   -0.0000000

LOEWDIN ATOMIC CHARGES
----------------------
   0 C :   -0.373509
   1 C :   -0.092284
   2 O :   -0.165003
   3 C :    0.183620
   4 O :   -0.270219
   5 C :   -0.230217
   6 S :    0.449104
   7 C :   -0.108522
   8 C :   -0.023282
   9 C :   -0.110440
  10 C :   -0.116101
  11 C :   -0.146578
  12 C :    0.120627
  13 F :   -0.100317
  14 C :   -0.151139
  15 N :   -0.144483
  16 C :    0.010608
  17 C :   -0.051389
  18 C :   -0.014785
  19 C :   -0.226649
  20 C :   -0.214050
  21 C :   -0.242886
  22 C :    0.177645
  23 O :   -0.268996
  24 O :   -0.339560
  25 H :    0.129191
  26 H :    0.140121
  27 H :    0.127296
  28 H :    0.126962
  29 H :    0.127286
  30 H :    0.153481
  31 H :    0.141819
  32 H :    0.146561
  33 H :    0.151858
  34 H :    0.146632
  35 H :    0.147645
  36 H :    0.136476
  37 H :    0.136343
  38 H :    0.141199
  39 H :    0.151676
  40 H :    0.344255

  Mayer bond orders larger than 0.100000
B(  0-C ,  1-C ) :   1.0106 B(  0-C , 25-H ) :   0.9425 B(  0-C , 26-H ) :   0.9405
B(  0-C , 27-H ) :   0.9452 B(  1-C ,  2-O ) :   0.8648 B(  1-C , 28-H ) :   0.9350
B(  1-C , 29-H ) :   0.9238 B(  2-O ,  3-C ) :   1.0140 B(  3-C ,  4-O ) :   1.7599
B(  3-C ,  5-C ) :   1.0338 B(  5-C ,  6-S ) :   1.0848 B(  5-C , 16-C ) :   1.3791
B(  6-S ,  7-C ) :   1.1479 B(  7-C ,  8-C ) :   1.0159 B(  7-C , 15-N ) :   1.4451
B(  8-C ,  9-C ) :   1.4108 B(  8-C , 14-C ) :   1.3550 B(  9-C , 10-C ) :   1.4329
B(  9-C , 30-H ) :   0.9099 B( 10-C , 11-C ) :   1.4226 B( 10-C , 31-H ) :   0.9281
B( 11-C , 12-C ) :   1.3876 B( 11-C , 32-H ) :   0.9197 B( 12-C , 13-F ) :   0.9161
B( 12-C , 14-C ) :   1.3930 B( 14-C , 33-H ) :   0.9064 B( 15-N , 16-C ) :   1.2968
B( 16-C , 17-C ) :   0.9336 B( 17-C , 18-C ) :   2.3609 B( 18-C , 19-C ) :   1.0838
B( 19-C , 20-C ) :   0.9826 B( 19-C , 34-H ) :   0.9130 B( 19-C , 35-H ) :   0.9117
B( 20-C , 21-C ) :   0.9764 B( 20-C , 36-H ) :   0.9318 B( 20-C , 37-H ) :   0.9278
B( 21-C , 22-C ) :   0.9760 B( 21-C , 38-H ) :   0.9161 B( 21-C , 39-H ) :   0.9276
B( 22-C , 23-O ) :   1.9022 B( 22-C , 24-O ) :   1.0301 B( 24-O , 40-H ) :   0.7455

FINAL SINGLE POINT ENERGY     -1548.435450415910

DIPOLE MOMENT
-------------

Method             : SCF
Type of density    : Electron Density
Multiplicity       :   1
Irrep              :   0
Energy             : -1548.4354504159098269 Eh
Relativity type    :
Basis              : AO
                                X                 Y                 Z
Electronic contribution:    -31.923256619      10.588460911     -11.179448415
Nuclear contribution   :     31.868587941     -10.907353615      12.226604133
                        -----------------------------------------
Total Dipole Moment    :     -0.054668678      -0.318892704       1.047155718
                        -----------------------------------------
Magnitude (a.u.)       :      1.096000145
Magnitude (Debye)      :      2.785810977

Rotational constants in cm-1:             0.016033             0.002314             0.002056
Rotational constants in MHz :           480.647838            69.370677            61.628476

                             ****ORCA TERMINATED NORMALLY****
TOTAL RUN TIME: 0 days 0 hours 3 minutes 11 seconds 698 msec
