                         Program Version 6.0.0  -   RELEASE  -
|  1> ! B3LYP 6-31G* SP
|  2>
|  3> * xyz 0 1
|  4> C -2.2514 -1.7250 1.2063
|  5> C -1.5057 -0.6349 0.4156
|  6> C -0.8679 -1.1452 -0.8700
|  7> C -0.7491 -0.2666 -1.9656
|  8> C -0.0856 -0.6736 -3.1350
|  9> C 0.4932 -1.9419 -3.2055
| 10> F 1.1019 -2.3512 -4.3494
| 11> C 0.3853 -2.8205 -2.1228
| 12> C -0.2873 -2.4291 -0.9606
| 13> N -0.5135 0.0490 1.2803
| 14> C -0.9566 1.0786 2.2387
| 15> C -1.8543 2.1162 1.6031
| 16> C -1.4351 2.8152 0.4579
| 17> C -2.2702 3.7624 -0.1279
| 18> C -3.5225 4.0401 0.4317
| 19> F -4.3008 4.9793 -0.1617
| 20> C -3.9562 3.3640 1.5948
| 21> C -5.2751 3.6589 2.2186
| 22> O -5.6170 3.0989 3.3033
| 23> O -6.1585 4.5550 1.6179
| 24> C -3.1083 2.4032 2.1716
| 25> C 0.7030 -0.6495 1.6177
| 26> O 0.7852 -1.2416 2.7294
| 27> C 1.8490 -0.6950 0.6814
| 28> C 2.0727 0.3414 -0.2359
| 29> N 3.1255 0.2908 -1.0959
| 30> C 3.9884 -0.7579 -1.1082
| 31> C 5.0669 -0.7753 -2.0016
| 32> C 5.9501 -1.8611 -2.0135
| 33> C 5.7535 -2.9426 -1.1432
| 34> C 4.6802 -2.9310 -0.2443
| 35> C 3.7959 -1.8362 -0.2186
| 36> C 2.7229 -1.7925 0.6817
| 37> H -2.8586 -1.2474 2.0109
| 38> H -1.5437 -2.4347 1.6926
| 39> H -2.9401 -2.2908 0.5360
| 40> H -2.2908 0.0899 0.1057
| 41> H -1.1655 0.7302 -1.9196
| 42> H -0.0114 0.0100 -3.9752
| 43> H 0.8216 -3.8108 -2.1811
| 44> H -0.3280 -3.1223 -0.1295
| 45> H -1.4673 0.5767 3.0905
| 46> H -0.0712 1.6106 2.6568
| 47> H -0.4641 2.6243 0.0159
| 48> H -1.9409 4.2868 -1.0170
| 49> H -7.0280 4.8029 2.0748
| 50> H -3.4241 1.8768 3.0664
| 51> H 1.4153 1.1998 -0.2736
| 52> H 5.2259 0.0552 -2.6809
| 53> H 6.7828 -1.8682 -2.7049
| 54> H 6.4394 -3.7850 -1.1533
| 55> H 4.5359 -3.7703 0.4177
| 56> H 2.5540 -2.6159 1.3625
| 57> *
| 58>
| 59>                          ****END OF INPUT****

CARTESIAN COORDINATES (ANGSTROEM)
---------------------------------
  C     -2.251400   -1.725000    1.206300
  C     -1.505700   -0.634900    0.415600
  C     -0.867900   -1.145200   -0.870000
  C     -0.749100   -0.266600   -1.965600
  C     -0.085600   -0.673600   -3.135000
  C      0.493200   -1.941900   -3.205500
  F      1.101900   -2.351200   -4.349400
  C      0.385300   -2.820500   -2.122800
  C     -0.287300   -2.429100   -0.960600
  N     -0.513500    0.049000    1.280300
  C     -0.956600    1.078600    2.238700
  C     -1.854300    2.116200    1.603100
  C     -1.435100    2.815200    0.457900
  C     -2.270200    3.762400   -0.127900
  C     -3.522500    4.040100    0.431700
  F     -4.300800    4.979300   -0.161700
  C     -3.956200    3.364000    1.594800
  C     -5.275100    3.658900    2.218600
  O     -5.617000    3.098900    3.303300
  O     -6.158500    4.555000    1.617900
  C     -3.108300    2.403200    2.171600
  C      0.703000   -0.649500    1.617700
  O      0.785200   -1.241600    2.729400
  C      1.849000   -0.695000    0.681400
  C      2.072700    0.341400   -0.235900
  N      3.125500    0.290800   -1.095900
  C      3.988400   -0.757900   -1.108200
  C      5.066900   -0.775300   -2.001600
  C      5.950100   -1.861100   -2.013500
  C      5.753500   -2.942600   -1.143200
  C      4.680200   -2.931000   -0.244300
  C      3.795900   -1.836200   -0.218600
  C      2.722900   -1.792500    0.681700
  H     -2.858600   -1.247400    2.010900
  H     -1.543700   -2.434700    1.692600
  H     -2.940100   -2.290800    0.536000
  H     -2.290800    0.089900    0.105700
  H     -1.165500    0.730200   -1.919600
  H     -0.011400    0.010000   -3.975200
  H      0.821600   -3.810800   -2.181100
  H     -0.328000   -3.122300   -0.129500
  H     -1.467300    0.576700    3.090500
  H     -0.071200    1.610600    2.656800
  H     -0.464100    2.624300    0.015900
  H     -1.940900    4.286800   -1.017000
  H     -7.028000    4.802900    2.074800
  H     -3.424100    1.876800    3.066400
  H      1.415300    1.199800   -0.273600
  H      5.225900    0.055200   -2.680900
  H      6.782800   -1.868200   -2.704900
  H      6.439400   -3.785000   -1.153300
  H      4.535900   -3.770300    0.417700
  H      2.554000   -2.615900    1.362500

 Total Charge           Charge          ....    0
 Multiplicity           Mult            ....    1
 Number of Electrons    NEL             ....  232
 Basis Dimension        Dim             ....  502

ORBITAL ENERGIES
----------------

  NO   OCC          E(Eh)            E(eV)
   0   2.0000     -24.711750      -672.4409
   1   2.0000     -24.698251      -672.0736
   2   2.0000     -19.184487      -522.0364
   3   2.0000     -19.134462      -520.6752
   4   2.0000     -19.128824      -520.5218
   5   2.0000     -14.340328      -390.2202
   6   2.0000     -14.326952      -389.8562
   7   2.0000     -10.329831      -281.0890
   8   2.0000     -10.299264      -280.2572
   9   2.0000     -10.293271      -280.0942
  10   2.0000     -10.271591      -279.5042
  11   2.0000     -10.231488      -278.4129
  12   2.0000     -10.227949      -278.3166
  13   2.0000     -10.227461      -278.3034
  14   2.0000     -10.225804      -278.2583
  15   2.0000     -10.223684      -278.2006
  16   2.0000     -10.212745      -277.9029
  17   2.0000     -10.212204      -277.8882
  18   2.0000     -10.211438      -277.8673
  19   2.0000     -10.209825      -277.8235
  20   2.0000     -10.208079      -277.7760
  21   2.0000     -10.205542      -277.7069
  22   2.0000     -10.200427      -277.5677
  23   2.0000     -10.197924      -277.4996
  24   2.0000     -10.197590      -277.4905
  25   2.0000     -10.196741      -277.4674
  26   2.0000     -10.195906      -277.4447
  27   2.0000     -10.195869      -277.4437
  28   2.0000     -10.195755      -277.4406
  29   2.0000     -10.193465      -277.3783
  30   2.0000     -10.193123      -277.3690
  31   2.0000     -10.189660      -277.2747
  32   2.0000     -10.173972      -276.8479
  33   2.0000      -1.224767       -33.3276
  34   2.0000      -1.210584       -32.9417
  35   2.0000      -1.069112       -29.0920
  36   2.0000      -1.026955       -27.9449
  37   2.0000      -0.982877       -26.7454
  38   2.0000      -0.938974       -25.5508
  39   2.0000      -0.923329       -25.1251
  40   2.0000      -0.879103       -23.9216
  41   2.0000      -0.859756       -23.3951
  42   2.0000      -0.851976       -23.1834
  43   2.0000      -0.816274       -22.2119
  44   2.0000      -0.795404       -21.6440
  45   2.0000      -0.782984       -21.3061
  46   2.0000      -0.773561       -21.0497
  47   2.0000      -0.763684       -20.7809
  48   2.0000      -0.756280       -20.5794
  49   2.0000      -0.743819       -20.2403
  50   2.0000      -0.723043       -19.6750
  51   2.0000      -0.693731       -18.8774
  52   2.0000      -0.674198       -18.3459
  53   2.0000      -0.661220       -17.9927
  54   2.0000      -0.645084       -17.5536
  55   2.0000      -0.638048       -17.3622
  56   2.0000      -0.621793       -16.9198
  57   2.0000      -0.617857       -16.8127
  58   2.0000      -0.609779       -16.5929
  59   2.0000      -0.599768       -16.3205
  60   2.0000      -0.596840       -16.2408
  61   2.0000      -0.560620       -15.2552
  62   2.0000      -0.552589       -15.0367
  63   2.0000      -0.541375       -14.7316
  64   2.0000      -0.529869       -14.4185
  65   2.0000      -0.524517       -14.2728
  66   2.0000      -0.520736       -14.1700
  67   2.0000      -0.511228       -13.9112
  68   2.0000      -0.506505       -13.7827
  69   2.0000      -0.490777       -13.3547
  70   2.0000      -0.479099       -13.0370
  71   2.0000      -0.476959       -12.9787
  72   2.0000      -0.471437       -12.8285
  73   2.0000      -0.469283       -12.7699
  74   2.0000      -0.462091       -12.5741
  75   2.0000      -0.455253       -12.3881
  76   2.0000      -0.453804       -12.3486
  77   2.0000      -0.453507       -12.3406
  78   2.0000      -0.448985       -12.2175
  79   2.0000      -0.447962       -12.1897
  80   2.0000      -0.440399       -11.9839
  81   2.0000      -0.434157       -11.8140
  82   2.0000      -0.431258       -11.7351
  83   2.0000      -0.426927       -11.6173
  84   2.0000      -0.424428       -11.5493
  85   2.0000      -0.421578       -11.4717
  86   2.0000      -0.417926       -11.3724
  87   2.0000      -0.409672       -11.1477
  88   2.0000      -0.407481       -11.0881
  89   2.0000      -0.400669       -10.9028
  90   2.0000      -0.394692       -10.7401
  91   2.0000      -0.390414       -10.6237
  92   2.0000      -0.387192       -10.5360
  93   2.0000      -0.376139       -10.2352
  94   2.0000      -0.372335       -10.1317
  95   2.0000      -0.368093       -10.0163
  96   2.0000      -0.366837        -9.9821
  97   2.0000      -0.359668        -9.7871
  98   2.0000      -0.357885        -9.7385
  99   2.0000      -0.355739        -9.6801
 100   2.0000      -0.349019        -9.4973
 101   2.0000      -0.344113        -9.3638
 102   2.0000      -0.338676        -9.2158
 103   2.0000      -0.334626        -9.1056
 104   2.0000      -0.307044        -8.3551
 105   2.0000      -0.306422        -8.3382
 106   2.0000      -0.274397        -7.4667
 107   2.0000      -0.272162        -7.4059
 108   2.0000      -0.266074        -7.2402
 109   2.0000      -0.264330        -7.1928
 110   2.0000      -0.259766        -7.0686
 111   2.0000      -0.256773        -6.9872
 112   2.0000      -0.244974        -6.6661
 113   2.0000      -0.239806        -6.5254
 114   2.0000      -0.228280        -6.2118
 115   2.0000      -0.220838        -6.0093
 116   0.0000      -0.076664        -2.0861
 117   0.0000      -0.064031        -1.7424
 118   0.0000      -0.045673        -1.2428
 119   0.0000      -0.020164        -0.5487
 120   0.0000      -0.011263        -0.3065

MULLIKEN ATOMIC CHARGES
-----------------------
   0 C :   -0.448389
   1 C :   -0.050001
   2 C :    0.127874
   3 C :   -0.161328
   4 C :   -0.199516
   5 C :    0.415299
   6 F :   -0.318758
   7 C :   -0.209072
   8 C :   -0.159211
   9 N :   -0.443774
  10 C :   -0.200443
  11 C :    0.111142
  12 C :   -0.137386
  13 C :   -0.211333
  14 C :    0.383322
  15 F :   -0.294044
  16 C :   -0.009545
  17 C :    0.544246
  18 O :   -0.455784
  19 O :   -0.613327
  20 C :   -0.201342
  21 C :    0.418473
  22 O :   -0.438655
  23 C :    0.087348
  24 C :   -0.011591
  25 N :   -0.439010
  26 C :    0.221789
  27 C :   -0.143129
  28 C :   -0.127996
  29 C :   -0.131359
  30 C :   -0.197133
  31 C :    0.159017
  32 C :   -0.175831
  33 H :    0.147491
  34 H :    0.162487
  35 H :    0.147294
  36 H :    0.151387
  37 H :    0.135114
  38 H :    0.146914
  39 H :    0.145488
  40 H :    0.142432
  41 H :    0.156950
  42 H :    0.168485
  43 H :    0.162652
  44 H :    0.156164
  45 H :    0.428258
  46 H :    0.178181
  47 H :    0.157388
  48 H :    0.146102
  49 H :    0.139690
  50 H :    0.137202
  51 H :    0.137910
  52 H :    0.161861
Sum of atomic charges:    0.0000000

LOEWDIN ATOMIC CHARGES
----------------------
   0 C :   -0.365896
   1 C :   -0.050236
   2 C :   -0.033507
   3 C :   -0.119273
   4 C :   -0.151533
   5 C :    0.120875
   6 F :   -0.105481
   7 C :   -0.154903
   8 C :   -0.123073
   9 N :   -0.155856
  10 C :   -0.137889
  11 C :   -0.037805
  12 C :   -0.102661
  13 C :   -0.155567
  14 C :    0.141001
  15 F :   -0.084745
  16 C :   -0.083334
  17 C :    0.186728
  18 O :   -0.275571
  19 O :   -0.329414
  20 C :   -0.088535
  21 C :    0.152562
  22 O :   -0.239510
  23 C :   -0.071705
  24 C :   -0.048396
  25 N :   -0.131321
  26 C :    0.021744
  27 C :   -0.115334
  28 C :   -0.115088
  29 C :   -0.127579
  30 C :   -0.115158
  31 C :   -0.030280
  32 C :   -0.055267
  33 H :    0.127720
  34 H :    0.131339
  35 H :    0.128462
  36 H :    0.133695
  37 H :    0.135537
  38 H :    0.144289
  39 H :    0.143341
  40 H :    0.138704
  41 H :    0.122008
  42 H :    0.140708
  43 H :    0.142467
  44 H :    0.149056
  45 H :    0.345386
  46 H :    0.158908
  47 H :    0.135332
  48 H :    0.145286
  49 H :    0.137590
  50 H :    0.135735
  51 H :    0.136213
  52 H :    0.150234

  Mayer bond orders larger than 0.100000
B(  0-C ,  1-C ) :   0.9860 B(  0-C , 33-H ) :   0.9432 B(  0-C , 34-H ) :   0.9329
B(  0-C , 35-H ) :   0.9402 B(  1-C ,  2-C ) :   0.9800 B(  1-C ,  9-N ) :   0.9476
B(  1-C , 36-H ) :   0.9101 B(  2-C ,  3-C ) :   1.4259 B(  2-C ,  8-C ) :   1.4197
B(  3-C ,  4-C ) :   1.4144 B(  3-C , 37-H ) :   0.9205 B(  4-C ,  5-C ) :   1.3943
B(  4-C , 38-H ) :   0.9200 B(  5-C ,  6-F ) :   0.9169 B(  5-C ,  7-C ) :   1.3911
B(  7-C ,  8-C ) :   1.4168 B(  7-C , 39-H ) :   0.9206 B(  8-C , 40-H ) :   0.9197
B(  9-N , 10-C ) :   0.9398 B(  9-N , 21-C ) :   0.9815 B( 10-C , 11-C ) :   0.9671
B( 10-C , 41-H ) :   0.9161 B( 10-C , 42-H ) :   0.9235 B( 11-C , 12-C ) :   1.3932
B( 11-C , 20-C ) :   1.4180 B( 12-C , 13-C ) :   1.4293 B( 12-C , 43-H ) :   0.9110
B( 13-C , 14-C ) :   1.3724 B( 13-C , 44-H ) :   0.9181 B( 14-C , 15-F ) :   0.9553
B( 14-C , 16-C ) :   1.2944 B( 16-C , 17-C ) :   1.0024 B( 16-C , 20-C ) :   1.3710
B( 17-C , 18-O ) :   1.8467 B( 17-C , 19-O ) :   1.0311 B( 19-O , 45-H ) :   0.7448
B( 20-C , 46-H ) :   0.9017 B( 21-C , 22-O ) :   1.8455 B( 21-C , 23-C ) :   0.9807
B( 23-C , 24-C ) :   1.2707 B( 23-C , 32-C ) :   1.4258 B( 24-C , 25-N ) :   1.4966
B( 24-C , 47-H ) :   0.9143 B( 25-N , 26-C ) :   1.2492 B( 26-C , 27-C ) :   1.3097
B( 26-C , 31-C ) :   1.2481 B( 27-C , 28-C ) :   1.5140 B( 27-C , 30-C ) :   0.1068
B( 27-C , 48-H ) :   0.9171 B( 28-C , 29-C ) :   1.3424 B( 28-C , 49-H ) :   0.9290
B( 29-C , 30-C ) :   1.5182 B( 29-C , 50-H ) :   0.9293 B( 30-C , 31-C ) :   1.2723
B( 30-C , 51-H ) :   0.9244 B( 31-C , 32-C ) :   1.2774 B( 32-C , 52-H ) :   0.9124

FINAL SINGLE POINT ENERGY     -1536.746973064242

DIPOLE MOMENT
-------------

Method             : SCF
Type of density    : Electron Density
Multiplicity       :   1
Irrep              :   0
Energy             : -1536.7469730642415016 Eh
Relativity type    :
Basis              : AO
                                X                 Y                 Z
Electronic contribution:     -7.678482769      13.457623072      -6.276434636
Nuclear contribution   :      8.172389459     -13.639351896       5.537218600
                        -----------------------------------------
Total Dipole Moment    :      0.493906690      -0.181728823      -0.739216036
                        -----------------------------------------
Magnitude (a.u.)       :      0.907419160
Magnitude (Debye)      :      2.306476206

Rotational constants in cm-1:             0.009147             0.002084             0.002007
Rotational constants in MHz :           274.214787            62.467179            60.182851

                             ****ORCA TERMINATED NORMALLY****
TOTAL RUN TIME: 0 days 0 hours 6 minutes 6 seconds 799 msec
