                         Program Version 6.0.0  -   RELEASE  -
|  1> ! B3LYP 6-31G* SP
|  2>
|  3> * xyz 0 1
|  4> C 0.6016 1.4554 3.1832
|  5> C 0.3306 1.0857 1.7180
|  6> C -0.8924 1.7703 1.1211
|  7> C -2.0017 2.1581 1.9030
|  8> C -3.1301 2.7236 1.3015
|  9> C -3.1750 2.8977 -0.0826
| 10> F -4.2770 3.4314 -0.6635
| 11> C -2.0880 2.5123 -0.8689
| 12> C -0.9553 1.9520 -0.2731
| 13> N 0.2636 -0.3831 1.5679
| 14> C -0.9694 -1.1318 1.8700
| 15> C -1.8375 -1.2367 0.6417
| 16> C -1.3366 -1.8215 -0.5315
| 17> C -2.1231 -1.8720 -1.6841
| 18> C -3.4174 -1.3466 -1.6766
| 19> C -3.9461 -0.7771 -0.5061
| 20> C -5.3140 -0.2127 -0.5014
| 21> O -5.8109 0.2500 0.5620
| 22> O -6.0667 -0.1870 -1.6722
| 23> C -3.1521 -0.7413 0.6551
| 24> C 1.4881 -1.1183 1.3870
| 25> O 1.8201 -1.9860 2.2403
| 26> C 2.3478 -0.8812 0.2084
| 27> C 3.6426 -1.4138 0.1348
| 28> C 4.4166 -1.1754 -1.0044
| 29> C 5.7200 -1.6808 -1.1231
| 30> C 6.4661 -1.4239 -2.2783
| 31> C 5.9166 -0.6628 -3.3159
| 32> C 4.6181 -0.1548 -3.2038
| 33> C 3.8668 -0.4090 -2.0508
| 34> N 2.6045 0.0769 -1.9303
| 35> N 1.8722 -0.1534 -0.8388
| 36> H 1.5971 1.0663 3.4889
| 37> H 0.6063 2.5599 3.3077
| 38> H -0.1575 1.0112 3.8606
| 39> H 1.2110 1.4692 1.1558
| 40> H -2.0133 2.0123 2.9732
| 41> H -3.9771 3.0124 1.9102
| 42> H -2.1247 2.6400 -1.9427
| 43> H -0.1304 1.6491 -0.9035
| 44> H -1.5147 -0.6389 2.7028
| 45> H -0.7330 -2.1590 2.2215
| 46> H -0.3340 -2.2274 -0.5587
| 47> H -1.7262 -2.3159 -2.5883
| 48> H -4.0040 -1.3904 -2.5857
| 49> H -7.0052 0.1949 -1.6782
| 50> H -3.5471 -0.3067 1.5650
| 51> H 4.0436 -2.0013 0.9528
| 52> H 6.1578 -2.2734 -0.3281
| 53> H 7.4718 -1.8131 -2.3693
| 54> H 6.4977 -0.4668 -4.2075
| 55> H 4.1997 0.4335 -4.0109
| 56> *
| 57>
| 58>                          ****END OF INPUT****

CARTESIAN COORDINATES (ANGSTROEM)
---------------------------------
  C      0.601600    1.455400    3.183200
  C      0.330600    1.085700    1.718000
  C     -0.892400    1.770300    1.121100
  C     -2.001700    2.158100    1.903000
  C     -3.130100    2.723600    1.301500
  C     -3.175000    2.897700   -0.082600
  F     -4.277000    3.431400   -0.663500
  C     -2.088000    2.512300   -0.868900
  C     -0.955300    1.952000   -0.273100
  N      0.263600   -0.383100    1.567900
  C     -0.969400   -1.131800    1.870000
  C     -1.837500   -1.236700    0.641700
  C     -1.336600   -1.821500   -0.531500
  C     -2.123100   -1.872000   -1.684100
  C     -3.417400   -1.346600   -1.676600
  C     -3.946100   -0.777100   -0.506100
  C     -5.314000   -0.212700   -0.501400
  O     -5.810900    0.250000    0.562000
  O     -6.066700   -0.187000   -1.672200
  C     -3.152100   -0.741300    0.655100
  C      1.488100   -1.118300    1.387000
  O      1.820100   -1.986000    2.240300
  C      2.347800   -0.881200    0.208400
  C      3.642600   -1.413800    0.134800
  C      4.416600   -1.175400   -1.004400
  C      5.720000   -1.680800   -1.123100
  C      6.466100   -1.423900   -2.278300
  C      5.916600   -0.662800   -3.315900
  C      4.618100   -0.154800   -3.203800
  C      3.866800   -0.409000   -2.050800
  N      2.604500    0.076900   -1.930300
  N      1.872200   -0.153400   -0.838800
  H      1.597100    1.066300    3.488900
  H      0.606300    2.559900    3.307700
  H     -0.157500    1.011200    3.860600
  H      1.211000    1.469200    1.155800
  H     -2.013300    2.012300    2.973200
  H     -3.977100    3.012400    1.910200
  H     -2.124700    2.640000   -1.942700
  H     -0.130400    1.649100   -0.903500
  H     -1.514700   -0.638900    2.702800
  H     -0.733000   -2.159000    2.221500
  H     -0.334000   -2.227400   -0.558700
  H     -1.726200   -2.315900   -2.588300
  H     -4.004000   -1.390400   -2.585700
  H     -7.005200    0.194900   -1.678200
  H     -3.547100   -0.306700    1.565000
  H      4.043600   -2.001300    0.952800
  H      6.157800   -2.273400   -0.328100
  H      7.471800   -1.813100   -2.369300
  H      6.497700   -0.466800   -4.207500
  H      4.199700    0.433500   -4.010900

 Total Charge           Charge          ....    0
 Multiplicity           Mult            ....    1
 Number of Electrons    NEL             ....  224
 Basis Dimension        Dim             ....  488

ORBITAL ENERGIES
----------------

  NO   OCC          E(Eh)            E(eV)
   0   2.0000     -24.686290      -671.7481
   1   2.0000     -19.173228      -521.7300
   2   2.0000     -19.128693      -520.5182
   3   2.0000     -19.113095      -520.0938
   4   2.0000     -14.379696      -391.2914
   5   2.0000     -14.375565      -391.1790
   6   2.0000     -14.341718      -390.2580
   7   2.0000     -10.309834      -280.5448
   8   2.0000     -10.298802      -280.2447
   9   2.0000     -10.256024      -279.0806
  10   2.0000     -10.243068      -278.7280
  11   2.0000     -10.238847      -278.6132
  12   2.0000     -10.225360      -278.2462
  13   2.0000     -10.224085      -278.2115
  14   2.0000     -10.222072      -278.1567
  15   2.0000     -10.216858      -278.0149
  16   2.0000     -10.215333      -277.9733
  17   2.0000     -10.214631      -277.9543
  18   2.0000     -10.213738      -277.9300
  19   2.0000     -10.210404      -277.8392
  20   2.0000     -10.196676      -277.4656
  21   2.0000     -10.188105      -277.2324
  22   2.0000     -10.184266      -277.1280
  23   2.0000     -10.183839      -277.1164
  24   2.0000     -10.183166      -277.0980
  25   2.0000     -10.182843      -277.0892
  26   2.0000     -10.181626      -277.0561
  27   2.0000     -10.180883      -277.0359
  28   2.0000     -10.177339      -276.9395
  29   2.0000     -10.176554      -276.9181
  30   2.0000     -10.175035      -276.8768
  31   2.0000     -10.172188      -276.7993
  32   2.0000      -1.199362       -32.6363
  33   2.0000      -1.057425       -28.7740
  34   2.0000      -1.028682       -27.9919
  35   2.0000      -1.015929       -27.6448
  36   2.0000      -0.970746       -26.4154
  37   2.0000      -0.919466       -25.0199
  38   2.0000      -0.888546       -24.1786
  39   2.0000      -0.853187       -23.2164
  40   2.0000      -0.847110       -23.0510
  41   2.0000      -0.843922       -22.9643
  42   2.0000      -0.806397       -21.9432
  43   2.0000      -0.782411       -21.2905
  44   2.0000      -0.769389       -20.9361
  45   2.0000      -0.758922       -20.6513
  46   2.0000      -0.749925       -20.4065
  47   2.0000      -0.741146       -20.1676
  48   2.0000      -0.714125       -19.4323
  49   2.0000      -0.696240       -18.9457
  50   2.0000      -0.686325       -18.6758
  51   2.0000      -0.665274       -18.1030
  52   2.0000      -0.650226       -17.6936
  53   2.0000      -0.633670       -17.2430
  54   2.0000      -0.630776       -17.1643
  55   2.0000      -0.606797       -16.5118
  56   2.0000      -0.596829       -16.2405
  57   2.0000      -0.585192       -15.9239
  58   2.0000      -0.582923       -15.8621
  59   2.0000      -0.564908       -15.3719
  60   2.0000      -0.558526       -15.1983
  61   2.0000      -0.533553       -14.5187
  62   2.0000      -0.526895       -14.3375
  63   2.0000      -0.515396       -14.0246
  64   2.0000      -0.510620       -13.8947
  65   2.0000      -0.499518       -13.5926
  66   2.0000      -0.489453       -13.3187
  67   2.0000      -0.481535       -13.1032
  68   2.0000      -0.475840       -12.9483
  69   2.0000      -0.467322       -12.7165
  70   2.0000      -0.458176       -12.4676
  71   2.0000      -0.452595       -12.3157
  72   2.0000      -0.448138       -12.1945
  73   2.0000      -0.445239       -12.1156
  74   2.0000      -0.442600       -12.0438
  75   2.0000      -0.440365       -11.9829
  76   2.0000      -0.437664       -11.9094
  77   2.0000      -0.435888       -11.8611
  78   2.0000      -0.431534       -11.7426
  79   2.0000      -0.426157       -11.5963
  80   2.0000      -0.416250       -11.3267
  81   2.0000      -0.414154       -11.2697
  82   2.0000      -0.412415       -11.2224
  83   2.0000      -0.402345       -10.9484
  84   2.0000      -0.392968       -10.6932
  85   2.0000      -0.392738       -10.6870
  86   2.0000      -0.387558       -10.5460
  87   2.0000      -0.385321       -10.4851
  88   2.0000      -0.382145       -10.3987
  89   2.0000      -0.376780       -10.2527
  90   2.0000      -0.367631       -10.0037
  91   2.0000      -0.363856        -9.9010
  92   2.0000      -0.359049        -9.7702
  93   2.0000      -0.354695        -9.6517
  94   2.0000      -0.346244        -9.4218
  95   2.0000      -0.343512        -9.3474
  96   2.0000      -0.338358        -9.2072
  97   2.0000      -0.332849        -9.0573
  98   2.0000      -0.330752        -9.0002
  99   2.0000      -0.323127        -8.7927
 100   2.0000      -0.321390        -8.7455
 101   2.0000      -0.294168        -8.0047
 102   2.0000      -0.288303        -7.8451
 103   2.0000      -0.265663        -7.2291
 104   2.0000      -0.251570        -6.8456
 105   2.0000      -0.250493        -6.8163
 106   2.0000      -0.249625        -6.7927
 107   2.0000      -0.245716        -6.6863
 108   2.0000      -0.242797        -6.6068
 109   2.0000      -0.238130        -6.4799
 110   2.0000      -0.226117        -6.1530
 111   2.0000      -0.214463        -5.8358
 112   0.0000      -0.092544        -2.5182
 113   0.0000      -0.070212        -1.9106
 114   0.0000      -0.041022        -1.1163
 115   0.0000      -0.006689        -0.1820
 116   0.0000      -0.000823        -0.0224

MULLIKEN ATOMIC CHARGES
-----------------------
   0 C :   -0.438080
   1 C :   -0.051681
   2 C :    0.116834
   3 C :   -0.172112
   4 C :   -0.201590
   5 C :    0.413292
   6 F :   -0.321255
   7 C :   -0.209080
   8 C :   -0.152862
   9 N :   -0.393540
  10 C :   -0.255202
  11 C :    0.179911
  12 C :   -0.137731
  13 C :   -0.133177
  14 C :   -0.160644
  15 C :    0.083412
  16 C :    0.524204
  17 O :   -0.462370
  18 O :   -0.627040
  19 C :   -0.195559
  20 C :    0.471369
  21 O :   -0.451174
  22 C :    0.193166
  23 C :   -0.189480
  24 C :    0.177586
  25 C :   -0.193801
  26 C :   -0.126506
  27 C :   -0.125256
  28 C :   -0.142616
  29 C :    0.226253
  30 N :   -0.295218
  31 N :   -0.269673
  32 H :    0.151415
  33 H :    0.149848
  34 H :    0.147950
  35 H :    0.153805
  36 H :    0.130892
  37 H :    0.148110
  38 H :    0.142113
  39 H :    0.176552
  40 H :    0.149959
  41 H :    0.186018
  42 H :    0.131172
  43 H :    0.132770
  44 H :    0.151794
  45 H :    0.426380
  46 H :    0.157010
  47 H :    0.178039
  48 H :    0.149720
  49 H :    0.147997
  50 H :    0.149686
  51 H :    0.158386
Sum of atomic charges:   -0.0000000

LOEWDIN ATOMIC CHARGES
----------------------
   0 C :   -0.360833
   1 C :   -0.048184
   2 C :   -0.037887
   3 C :   -0.132494
   4 C :   -0.154414
   5 C :    0.116660
   6 F :   -0.104689
   7 C :   -0.155799
   8 C :   -0.110195
   9 N :   -0.103133
  10 C :   -0.142194
  11 C :   -0.026039
  12 C :   -0.100935
  13 C :   -0.129559
  14 C :   -0.107234
  15 C :   -0.058059
  16 C :    0.179739
  17 O :   -0.276852
  18 O :   -0.338494
  19 C :   -0.089718
  20 C :    0.134472
  21 O :   -0.255545
  22 C :   -0.043514
  23 C :   -0.065051
  24 C :   -0.019457
  25 C :   -0.111254
  26 C :   -0.113615
  27 C :   -0.110659
  28 C :   -0.105925
  29 C :    0.001359
  30 N :   -0.071948
  31 N :   -0.070500
  32 H :    0.129766
  33 H :    0.129449
  34 H :    0.124326
  35 H :    0.136847
  36 H :    0.133566
  37 H :    0.145197
  38 H :    0.142116
  39 H :    0.152558
  40 H :    0.126418
  41 H :    0.150247
  42 H :    0.134763
  43 H :    0.133915
  44 H :    0.144113
  45 H :    0.344471
  46 H :    0.149066
  47 H :    0.159258
  48 H :    0.141489
  49 H :    0.141164
  50 H :    0.142349
  51 H :    0.150874

  Mayer bond orders larger than 0.100000
B(  0-C ,  1-C ) :   0.9887 B(  0-C , 32-H ) :   0.9432 B(  0-C , 33-H ) :   0.9395
B(  0-C , 34-H ) :   0.9394 B(  1-C ,  2-C ) :   0.9824 B(  1-C ,  9-N ) :   0.9442
B(  1-C , 35-H ) :   0.9137 B(  2-C ,  3-C ) :   1.4234 B(  2-C ,  8-C ) :   1.4274
B(  3-C ,  4-C ) :   1.4103 B(  3-C , 36-H ) :   0.9213 B(  4-C ,  5-C ) :   1.3984
B(  4-C , 37-H ) :   0.9192 B(  5-C ,  6-F ) :   0.9120 B(  5-C ,  7-C ) :   1.3859
B(  7-C ,  8-C ) :   1.4208 B(  7-C , 38-H ) :   0.9217 B(  8-C , 39-H ) :   0.9036
B(  9-N , 10-C ) :   0.9479 B(  9-N , 20-C ) :   1.0310 B( 10-C , 11-C ) :   0.9455
B( 10-C , 40-H ) :   0.9230 B( 10-C , 41-H ) :   0.9151 B( 11-C , 12-C ) :   1.4065
B( 11-C , 19-C ) :   1.4126 B( 12-C , 13-C ) :   1.4462 B( 12-C , 42-H ) :   0.9199
B( 13-C , 14-C ) :   1.4247 B( 13-C , 43-H ) :   0.9297 B( 14-C , 15-C ) :   1.3891
B( 14-C , 44-H ) :   0.9187 B( 15-C , 16-C ) :   1.0134 B( 15-C , 19-C ) :   1.3826
B( 16-C , 17-O ) :   1.8444 B( 16-C , 18-O ) :   1.0169 B( 18-O , 45-H ) :   0.7465
B( 19-C , 46-H ) :   0.9026 B( 20-C , 21-O ) :   1.8380 B( 20-C , 22-C ) :   0.9731
B( 22-C , 23-C ) :   1.3905 B( 22-C , 31-N ) :   1.2364 B( 23-C , 24-C ) :   1.2725
B( 23-C , 47-H ) :   0.9062 B( 24-C , 25-C ) :   1.2801 B( 24-C , 29-C ) :   1.2359
B( 25-C , 26-C ) :   1.5167 B( 25-C , 28-C ) :   0.1076 B( 25-C , 48-H ) :   0.9219
B( 26-C , 27-C ) :   1.3378 B( 26-C , 49-H ) :   0.9275 B( 27-C , 28-C ) :   1.5187
B( 27-C , 50-H ) :   0.9274 B( 28-C , 29-C ) :   1.3043 B( 28-C , 51-H ) :   0.9133
B( 29-C , 30-N ) :   1.2220 B( 30-N , 31-N ) :   1.4289

FINAL SINGLE POINT ENERGY     -1453.563657524202

DIPOLE MOMENT
-------------

Method             : SCF
Type of density    : Electron Density
Multiplicity       :   1
Irrep              :   0
Energy             : -1453.5636575242015169 Eh
Relativity type    :
Basis              : AO
                                X                 Y                 Z
Electronic contribution:    -10.368952415       2.799678020      -7.246569503
Nuclear contribution   :     12.673139400      -3.214906187       6.246797786
                        -----------------------------------------
Total Dipole Moment    :      2.304186985      -0.415228167      -0.999771716
                        -----------------------------------------
Magnitude (a.u.)       :      2.545827091
Magnitude (Debye)      :      6.470978208

Rotational constants in cm-1:             0.008714             0.002555             0.002470
Rotational constants in MHz :           261.242440            76.609431            74.049823

                             ****ORCA TERMINATED NORMALLY****
TOTAL RUN TIME: 0 days 0 hours 9 minutes 4 seconds 786 msec
