                         Program Version 6.0.0  -   RELEASE  -
|  1> ! B3LYP 6-31G* SP
|  2>
|  3> * xyz 0 1
|  4> C 6.5588 -0.1082 -0.7037
|  5> C 5.8760 -1.2703 0.0053
|  6> N 4.4441 -1.2513 -0.2642
|  7> N 3.8696 -1.8545 -1.2901
|  8> N 2.5741 -1.5869 -1.2700
|  9> C 2.3962 -0.7903 -0.1950
| 10> C 1.0878 -0.2423 0.2048
| 11> S -0.3420 -0.5481 -0.6286
| 12> C -1.2971 0.3796 0.4033
| 13> C -2.7588 0.5867 0.2814
| 14> C -3.4373 1.3883 1.2166
| 15> C -4.8140 1.5966 1.1044
| 16> C -5.5315 1.0049 0.0635
| 17> C -4.8769 0.1873 -0.8684
| 18> C -5.6404 -0.4170 -2.0098
| 19> C -3.4900 -0.0063 -0.7654
| 20> N -0.5447 0.9271 1.3847
| 21> C 0.7703 0.5925 1.2868
| 22> O 1.6868 1.0731 2.2208
| 23> N 3.5617 -0.5655 0.4411
| 24> H 6.4032 -0.1859 -1.8008
| 25> H 6.1429 0.8565 -0.3429
| 26> H 7.6488 -0.1304 -0.4932
| 27> H 6.3112 -2.2294 -0.3496
| 28> H 6.0512 -1.1919 1.1000
| 29> H -2.9038 1.8591 2.0327
| 30> H -5.3256 2.2218 1.8249
| 31> H -6.5969 1.1836 -0.0152
| 32> H -5.1928 -1.3887 -2.3088
| 33> H -6.6975 -0.6010 -1.7222
| 34> H -5.6166 0.2752 -2.8772
| 35> H -2.9887 -0.6197 -1.5035
| 36> H 2.6719 0.8552 2.1946
| 37> *
| 38>
| 39>                          ****END OF INPUT****

CARTESIAN COORDINATES (ANGSTROEM)
---------------------------------
  C      6.558800   -0.108200   -0.703700
  C      5.876000   -1.270300    0.005300
  N      4.444100   -1.251300   -0.264200
  N      3.869600   -1.854500   -1.290100
  N      2.574100   -1.586900   -1.270000
  C      2.396200   -0.790300   -0.195000
  C      1.087800   -0.242300    0.204800
  S     -0.342000   -0.548100   -0.628600
  C     -1.297100    0.379600    0.403300
  C     -2.758800    0.586700    0.281400
  C     -3.437300    1.388300    1.216600
  C     -4.814000    1.596600    1.104400
  C     -5.531500    1.004900    0.063500
  C     -4.876900    0.187300   -0.868400
  C     -5.640400   -0.417000   -2.009800
  C     -3.490000   -0.006300   -0.765400
  N     -0.544700    0.927100    1.384700
  C      0.770300    0.592500    1.286800
  O      1.686800    1.073100    2.220800
  N      3.561700   -0.565500    0.441100
  H      6.403200   -0.185900   -1.800800
  H      6.142900    0.856500   -0.342900
  H      7.648800   -0.130400   -0.493200
  H      6.311200   -2.229400   -0.349600
  H      6.051200   -1.191900    1.100000
  H     -2.903800    1.859100    2.032700
  H     -5.325600    2.221800    1.824900
  H     -6.596900    1.183600   -0.015200
  H     -5.192800   -1.388700   -2.308800
  H     -6.697500   -0.601000   -1.722200
  H     -5.616600    0.275200   -2.877200
  H     -2.988700   -0.619700   -1.503500
  H      2.671900    0.855200    2.194600

 Total Charge           Charge          ....    0
 Multiplicity           Mult            ....    1
 Number of Electrons    NEL             ....  150
 Basis Dimension        Dim             ....  310

ORBITAL ENERGIES
----------------

  NO   OCC          E(Eh)            E(eV)
   0   2.0000     -88.896599     -2418.9995
   1   2.0000     -19.166784      -521.5547
   2   2.0000     -14.465394      -393.6234
   3   2.0000     -14.403845      -391.9485
   4   2.0000     -14.378311      -391.2537
   5   2.0000     -14.363712      -390.8565
   6   2.0000     -14.327467      -389.8702
   7   2.0000     -10.283333      -279.8237
   8   2.0000     -10.262150      -279.2473
   9   2.0000     -10.256994      -279.1070
  10   2.0000     -10.252915      -278.9960
  11   2.0000     -10.218003      -278.0460
  12   2.0000     -10.204526      -277.6793
  13   2.0000     -10.199930      -277.5542
  14   2.0000     -10.193229      -277.3719
  15   2.0000     -10.185866      -277.1715
  16   2.0000     -10.182139      -277.0701
  17   2.0000     -10.181230      -277.0453
  18   2.0000     -10.180595      -277.0281
  19   2.0000     -10.178310      -276.9659
  20   2.0000      -7.973441      -216.9684
  21   2.0000      -5.936361      -161.5366
  22   2.0000      -5.932431      -161.4297
  23   2.0000      -5.930513      -161.3775
  24   2.0000      -1.153017       -31.3752
  25   2.0000      -1.036090       -28.1934
  26   2.0000      -0.958181       -26.0734
  27   2.0000      -0.953904       -25.9570
  28   2.0000      -0.902464       -24.5573
  29   2.0000      -0.857270       -23.3275
  30   2.0000      -0.817521       -22.2459
  31   2.0000      -0.792758       -21.5721
  32   2.0000      -0.782755       -21.2998
  33   2.0000      -0.760939       -20.7062
  34   2.0000      -0.724133       -19.7047
  35   2.0000      -0.692741       -18.8504
  36   2.0000      -0.683257       -18.5924
  37   2.0000      -0.666433       -18.1346
  38   2.0000      -0.622643       -16.9430
  39   2.0000      -0.615680       -16.7535
  40   2.0000      -0.603990       -16.4354
  41   2.0000      -0.586459       -15.9584
  42   2.0000      -0.548387       -14.9224
  43   2.0000      -0.539079       -14.6691
  44   2.0000      -0.528158       -14.3719
  45   2.0000      -0.506534       -13.7835
  46   2.0000      -0.501094       -13.6355
  47   2.0000      -0.479299       -13.0424
  48   2.0000      -0.467841       -12.7306
  49   2.0000      -0.455207       -12.3868
  50   2.0000      -0.443484       -12.0678
  51   2.0000      -0.436306       -11.8725
  52   2.0000      -0.422968       -11.5096
  53   2.0000      -0.420577       -11.4445
  54   2.0000      -0.416610       -11.3365
  55   2.0000      -0.403043       -10.9674
  56   2.0000      -0.402807       -10.9609
  57   2.0000      -0.399715       -10.8768
  58   2.0000      -0.387847       -10.5538
  59   2.0000      -0.380307       -10.3487
  60   2.0000      -0.378114       -10.2890
  61   2.0000      -0.367347        -9.9960
  62   2.0000      -0.348078        -9.4717
  63   2.0000      -0.341963        -9.3053
  64   2.0000      -0.341309        -9.2875
  65   2.0000      -0.333448        -9.0736
  66   2.0000      -0.321621        -8.7518
  67   2.0000      -0.317423        -8.6375
  68   2.0000      -0.308996        -8.4082
  69   2.0000      -0.293500        -7.9866
  70   2.0000      -0.269886        -7.3440
  71   2.0000      -0.266640        -7.2556
  72   2.0000      -0.257003        -6.9934
  73   2.0000      -0.239971        -6.5299
  74   2.0000      -0.204300        -5.5593
  75   0.0000      -0.056794        -1.5454
  76   0.0000      -0.027451        -0.7470
  77   0.0000      -0.000042        -0.0012
  78   0.0000       0.010642         0.2896
  79   0.0000       0.039487         1.0745

MULLIKEN ATOMIC CHARGES
-----------------------
   0 C :   -0.444910
   1 C :   -0.147825
   2 N :   -0.023533
   3 N :   -0.059717
   4 N :   -0.320669
   5 C :    0.429467
   6 C :   -0.245897
   7 S :    0.291801
   8 C :   -0.015304
   9 C :    0.143034
  10 C :   -0.157657
  11 C :   -0.126957
  12 C :   -0.163261
  13 C :    0.164245
  14 C :   -0.524006
  15 C :   -0.238703
  16 N :   -0.405448
  17 C :    0.491255
  18 O :   -0.655730
  19 N :   -0.361264
  20 H :    0.176730
  21 H :    0.171268
  22 H :    0.160199
  23 H :    0.192517
  24 H :    0.185930
  25 H :    0.162752
  26 H :    0.133626
  27 H :    0.125047
  28 H :    0.156600
  29 H :    0.154873
  30 H :    0.167725
  31 H :    0.142417
  32 H :    0.441394
Sum of atomic charges:    0.0000000

LOEWDIN ATOMIC CHARGES
----------------------
   0 C :   -0.362240
   1 C :   -0.153242
   2 N :    0.097647
   3 N :   -0.068120
   4 N :   -0.122591
   5 C :    0.000054
   6 C :   -0.268854
   7 S :    0.419765
   8 C :   -0.112760
   9 C :   -0.027185
  10 C :   -0.110889
  11 C :   -0.123692
  12 C :   -0.128605
  13 C :   -0.017849
  14 C :   -0.351747
  15 C :   -0.129727
  16 N :   -0.162720
  17 C :    0.101192
  18 O :   -0.337449
  19 N :   -0.159920
  20 H :    0.140387
  21 H :    0.137546
  22 H :    0.136461
  23 H :    0.152313
  24 H :    0.148736
  25 H :    0.150244
  26 H :    0.134466
  27 H :    0.131051
  28 H :    0.133167
  29 H :    0.132349
  30 H :    0.139707
  31 H :    0.137678
  32 H :    0.344825

  Mayer bond orders larger than 0.100000
B(  0-C ,  1-C ) :   1.0031 B(  0-C , 20-H ) :   0.9434 B(  0-C , 21-H ) :   0.9443
B(  0-C , 22-H ) :   0.9416 B(  1-C ,  2-N ) :   0.8976 B(  1-C , 23-H ) :   0.9257
B(  1-C , 24-H ) :   0.9274 B(  2-N ,  3-N ) :   1.2491 B(  2-N , 19-N ) :   1.2197
B(  3-N ,  4-N ) :   1.4262 B(  3-N , 19-N ) :   0.1315 B(  4-N ,  5-C ) :   1.2865
B(  5-C ,  6-C ) :   1.0575 B(  5-C , 19-N ) :   1.3582 B(  6-C ,  7-S ) :   1.0782
B(  6-C ,  8-C ) :   0.1204 B(  6-C , 17-C ) :   1.3804 B(  7-S ,  8-C ) :   1.1503
B(  8-C ,  9-C ) :   1.0183 B(  8-C , 16-N ) :   1.4314 B(  9-C , 10-C ) :   1.4074
B(  9-C , 15-C ) :   1.3768 B( 10-C , 11-C ) :   1.4349 B( 10-C , 25-H ) :   0.9112
B( 11-C , 12-C ) :   1.4304 B( 11-C , 26-H ) :   0.9288 B( 12-C , 13-C ) :   1.4321
B( 12-C , 27-H ) :   0.9259 B( 13-C , 14-C ) :   0.9868 B( 13-C , 15-C ) :   1.4331
B( 14-C , 28-H ) :   0.9445 B( 14-C , 29-H ) :   0.9459 B( 14-C , 30-H ) :   0.9330
B( 15-C , 31-H ) :   0.9114 B( 16-N , 17-C ) :   1.3204 B( 17-C , 18-O ) :   1.0099
B( 18-O , 32-H ) :   0.7197

FINAL SINGLE POINT ENERGY     -1249.753182313365

DIPOLE MOMENT
-------------

Method             : SCF
Type of density    : Electron Density
Multiplicity       :   1
Irrep              :   0
Energy             : -1249.7531823133647322 Eh
Relativity type    :
Basis              : AO
                                X                 Y                 Z
Electronic contribution:      2.202607805      -1.979541098       3.796424862
Nuclear contribution   :     -1.192697723       1.931747843      -3.840980798
                        -----------------------------------------
Total Dipole Moment    :      1.009910082      -0.047793255      -0.044555936
                        -----------------------------------------
Magnitude (a.u.)       :      1.012021641
Magnitude (Debye)      :      2.572354582

Rotational constants in cm-1:             0.033155             0.004122             0.003720
Rotational constants in MHz :           993.971613           123.577360           111.510875

                             ****ORCA TERMINATED NORMALLY****
TOTAL RUN TIME: 0 days 0 hours 3 minutes 58 seconds 992 msec
