                         Program Version 6.0.0  -   RELEASE  -
|  1> ! B3LYP 6-31G* SP
|  2>
|  3> * xyz 0 1
|  4> C 0.4941 2.2442 1.5307
|  5> C 0.2927 1.2137 0.4077
|  6> C -0.5961 1.6799 -0.7410
|  7> C -1.4906 2.7668 -0.6192
|  8> C -2.3316 3.1185 -1.6784
|  9> C -2.2937 2.4001 -2.8737
| 10> F -3.1187 2.7378 -3.8952
| 11> C -1.4064 1.3329 -3.0166
| 12> C -0.5597 0.9748 -1.9630
| 13> F 0.2906 -0.0684 -2.1345
| 14> N -0.1715 -0.0875 0.9466
| 15> C -1.3652 -0.2053 1.8083
| 16> C -2.6248 0.2175 1.0962
| 17> C -3.4050 1.2688 1.6020
| 18> C -4.5560 1.6785 0.9266
| 19> C -4.9405 1.0442 -0.2569
| 20> C -4.1813 -0.0198 -0.7722
| 21> C -4.5804 -0.6767 -2.0363
| 22> O -3.9045 -1.6352 -2.4997
| 23> O -5.7057 -0.2385 -2.7304
| 24> C -3.0315 -0.4382 -0.0778
| 25> C 0.5357 -1.2947 0.5988
| 26> O -0.1139 -2.2956 0.1902
| 27> C 2.0034 -1.3932 0.7505
| 28> C 2.7286 -2.4087 0.1064
| 29> C 4.1164 -2.4858 0.2828
| 30> C 4.8682 -3.4887 -0.3498
| 31> C 6.2520 -3.5528 -0.1582
| 32> C 6.8932 -2.6193 0.6615
| 33> C 6.1547 -1.6160 1.2963
| 34> C 4.7660 -1.5433 1.1113
| 35> C 4.0029 -0.5519 1.7393
| 36> N 2.6586 -0.5045 1.5477
| 37> H 1.2237 1.8547 2.2709
| 38> H 0.8973 3.1894 1.1102
| 39> H -0.4528 2.4643 2.0632
| 40> H 1.3035 1.0874 -0.0382
| 41> H -1.5654 3.3388 0.2937
| 42> H -3.0220 3.9447 -1.5661
| 43> H -1.3770 0.7780 -3.9459
| 44> H -1.4998 -1.2552 2.1486
| 45> H -1.2100 0.3840 2.7357
| 46> H -3.1150 1.7829 2.5096
| 47> H -5.1464 2.4977 1.3159
| 48> H -5.8298 1.3894 -0.7691
| 49> H -5.9872 -0.6813 -3.5970
| 50> H -2.4357 -1.2552 -0.4627
| 51> H 2.2204 -3.1264 -0.5276
| 52> H 4.3873 -4.2219 -0.9863
| 53> H 6.8284 -4.3290 -0.6454
| 54> H 7.9644 -2.6749 0.8066
| 55> H 6.6656 -0.9016 1.9309
| 56> H 4.4706 0.1807 2.3845
| 57> *
| 58>
| 59>                          ****END OF INPUT****

CARTESIAN COORDINATES (ANGSTROEM)
---------------------------------
  C      0.494100    2.244200    1.530700
  C      0.292700    1.213700    0.407700
  C     -0.596100    1.679900   -0.741000
  C     -1.490600    2.766800   -0.619200
  C     -2.331600    3.118500   -1.678400
  C     -2.293700    2.400100   -2.873700
  F     -3.118700    2.737800   -3.895200
  C     -1.406400    1.332900   -3.016600
  C     -0.559700    0.974800   -1.963000
  F      0.290600   -0.068400   -2.134500
  N     -0.171500   -0.087500    0.946600
  C     -1.365200   -0.205300    1.808300
  C     -2.624800    0.217500    1.096200
  C     -3.405000    1.268800    1.602000
  C     -4.556000    1.678500    0.926600
  C     -4.940500    1.044200   -0.256900
  C     -4.181300   -0.019800   -0.772200
  C     -4.580400   -0.676700   -2.036300
  O     -3.904500   -1.635200   -2.499700
  O     -5.705700   -0.238500   -2.730400
  C     -3.031500   -0.438200   -0.077800
  C      0.535700   -1.294700    0.598800
  O     -0.113900   -2.295600    0.190200
  C      2.003400   -1.393200    0.750500
  C      2.728600   -2.408700    0.106400
  C      4.116400   -2.485800    0.282800
  C      4.868200   -3.488700   -0.349800
  C      6.252000   -3.552800   -0.158200
  C      6.893200   -2.619300    0.661500
  C      6.154700   -1.616000    1.296300
  C      4.766000   -1.543300    1.111300
  C      4.002900   -0.551900    1.739300
  N      2.658600   -0.504500    1.547700
  H      1.223700    1.854700    2.270900
  H      0.897300    3.189400    1.110200
  H     -0.452800    2.464300    2.063200
  H      1.303500    1.087400   -0.038200
  H     -1.565400    3.338800    0.293700
  H     -3.022000    3.944700   -1.566100
  H     -1.377000    0.778000   -3.945900
  H     -1.499800   -1.255200    2.148600
  H     -1.210000    0.384000    2.735700
  H     -3.115000    1.782900    2.509600
  H     -5.146400    2.497700    1.315900
  H     -5.829800    1.389400   -0.769100
  H     -5.987200   -0.681300   -3.597000
  H     -2.435700   -1.255200   -0.462700
  H      2.220400   -3.126400   -0.527600
  H      4.387300   -4.221900   -0.986300
  H      6.828400   -4.329000   -0.645400
  H      7.964400   -2.674900    0.806600
  H      6.665600   -0.901600    1.930900
  H      4.470600    0.180700    2.384500

 Total Charge           Charge          ....    0
 Multiplicity           Mult            ....    1
 Number of Electrons    NEL             ....  232
 Basis Dimension        Dim             ....  502

ORBITAL ENERGIES
----------------

  NO   OCC          E(Eh)            E(eV)
   0   2.0000     -24.700613      -672.1379
   1   2.0000     -24.695872      -672.0088
   2   2.0000     -19.173101      -521.7266
   3   2.0000     -19.114421      -520.1298
   4   2.0000     -19.112026      -520.0647
   5   2.0000     -14.337755      -390.1501
   6   2.0000     -14.334312      -390.0565
   7   2.0000     -10.309444      -280.5342
   8   2.0000     -10.285019      -279.8696
   9   2.0000     -10.268339      -279.4157
  10   2.0000     -10.267091      -279.3818
  11   2.0000     -10.229218      -278.3512
  12   2.0000     -10.229000      -278.3452
  13   2.0000     -10.225701      -278.2555
  14   2.0000     -10.216650      -278.0092
  15   2.0000     -10.207142      -277.7505
  16   2.0000     -10.204260      -277.6720
  17   2.0000     -10.201147      -277.5873
  18   2.0000     -10.200723      -277.5758
  19   2.0000     -10.200342      -277.5654
  20   2.0000     -10.199002      -277.5290
  21   2.0000     -10.198785      -277.5230
  22   2.0000     -10.198015      -277.5021
  23   2.0000     -10.192620      -277.3553
  24   2.0000     -10.191261      -277.3183
  25   2.0000     -10.188390      -277.2402
  26   2.0000     -10.186142      -277.1790
  27   2.0000     -10.186081      -277.1773
  28   2.0000     -10.184990      -277.1477
  29   2.0000     -10.183299      -277.1017
  30   2.0000     -10.182621      -277.0832
  31   2.0000     -10.180560      -277.0271
  32   2.0000     -10.170671      -276.7580
  33   2.0000      -1.212143       -32.9841
  34   2.0000      -1.208551       -32.8863
  35   2.0000      -1.057106       -28.7653
  36   2.0000      -1.011323       -27.5195
  37   2.0000      -0.970194       -26.4003
  38   2.0000      -0.938861       -25.5477
  39   2.0000      -0.912075       -24.8188
  40   2.0000      -0.869040       -23.6478
  41   2.0000      -0.855757       -23.2863
  42   2.0000      -0.853407       -23.2224
  43   2.0000      -0.798077       -21.7168
  44   2.0000      -0.783381       -21.3169
  45   2.0000      -0.781563       -21.2674
  46   2.0000      -0.765769       -20.8376
  47   2.0000      -0.750829       -20.4311
  48   2.0000      -0.748189       -20.3593
  49   2.0000      -0.741696       -20.1826
  50   2.0000      -0.718940       -19.5633
  51   2.0000      -0.688123       -18.7248
  52   2.0000      -0.659586       -17.9482
  53   2.0000      -0.650776       -17.7085
  54   2.0000      -0.646509       -17.5924
  55   2.0000      -0.635172       -17.2839
  56   2.0000      -0.617764       -16.8102
  57   2.0000      -0.616363       -16.7721
  58   2.0000      -0.592432       -16.1209
  59   2.0000      -0.589901       -16.0520
  60   2.0000      -0.582492       -15.8504
  61   2.0000      -0.560678       -15.2568
  62   2.0000      -0.548033       -14.9127
  63   2.0000      -0.534046       -14.5321
  64   2.0000      -0.522190       -14.2095
  65   2.0000      -0.514407       -13.9977
  66   2.0000      -0.506043       -13.7701
  67   2.0000      -0.501955       -13.6589
  68   2.0000      -0.486880       -13.2487
  69   2.0000      -0.485578       -13.2132
  70   2.0000      -0.481593       -13.1048
  71   2.0000      -0.478904       -13.0316
  72   2.0000      -0.466661       -12.6985
  73   2.0000      -0.462057       -12.5732
  74   2.0000      -0.459028       -12.4908
  75   2.0000      -0.448409       -12.2018
  76   2.0000      -0.442538       -12.0421
  77   2.0000      -0.440503       -11.9867
  78   2.0000      -0.436704       -11.8833
  79   2.0000      -0.436248       -11.8709
  80   2.0000      -0.433393       -11.7932
  81   2.0000      -0.430997       -11.7280
  82   2.0000      -0.424111       -11.5406
  83   2.0000      -0.420791       -11.4503
  84   2.0000      -0.419240       -11.4081
  85   2.0000      -0.416077       -11.3220
  86   2.0000      -0.414768       -11.2864
  87   2.0000      -0.401232       -10.9181
  88   2.0000      -0.394761       -10.7420
  89   2.0000      -0.389921       -10.6103
  90   2.0000      -0.386518       -10.5177
  91   2.0000      -0.379209       -10.3188
  92   2.0000      -0.372616       -10.1394
  93   2.0000      -0.370285       -10.0760
  94   2.0000      -0.365220        -9.9381
  95   2.0000      -0.362797        -9.8722
  96   2.0000      -0.358792        -9.7632
  97   2.0000      -0.356914        -9.7121
  98   2.0000      -0.351434        -9.5630
  99   2.0000      -0.345103        -9.3907
 100   2.0000      -0.342216        -9.3122
 101   2.0000      -0.337650        -9.1879
 102   2.0000      -0.330188        -8.9849
 103   2.0000      -0.327091        -8.9006
 104   2.0000      -0.300973        -8.1899
 105   2.0000      -0.294440        -8.0121
 106   2.0000      -0.271380        -7.3846
 107   2.0000      -0.264998        -7.2110
 108   2.0000      -0.256935        -6.9916
 109   2.0000      -0.253262        -6.8916
 110   2.0000      -0.249171        -6.7803
 111   2.0000      -0.243991        -6.6393
 112   2.0000      -0.240832        -6.5534
 113   2.0000      -0.227698        -6.1960
 114   2.0000      -0.222943        -6.0666
 115   2.0000      -0.213891        -5.8203
 116   0.0000      -0.068707        -1.8696
 117   0.0000      -0.049114        -1.3364
 118   0.0000      -0.042723        -1.1626
 119   0.0000      -0.009099        -0.2476
 120   0.0000      -0.000791        -0.0215

MULLIKEN ATOMIC CHARGES
-----------------------
   0 C :   -0.468962
   1 C :   -0.045542
   2 C :    0.056735
   3 C :   -0.138056
   4 C :   -0.212598
   5 C :    0.427836
   6 F :   -0.319155
   7 C :   -0.289743
   8 C :    0.397973
   9 F :   -0.310955
  10 N :   -0.409107
  11 C :   -0.230469
  12 C :    0.150588
  13 C :   -0.175924
  14 C :   -0.129181
  15 C :   -0.157128
  16 C :    0.087459
  17 C :    0.520739
  18 O :   -0.451940
  19 O :   -0.627858
  20 C :   -0.201618
  21 C :    0.493379
  22 O :   -0.458018
  23 C :    0.190316
  24 C :   -0.222704
  25 C :    0.173558
  26 C :   -0.186503
  27 C :   -0.129299
  28 C :   -0.123883
  29 C :   -0.202817
  30 C :    0.138891
  31 C :   -0.050043
  32 N :   -0.414334
  33 H :    0.176909
  34 H :    0.144477
  35 H :    0.137758
  36 H :    0.167212
  37 H :    0.139703
  38 H :    0.139407
  39 H :    0.161966
  40 H :    0.185544
  41 H :    0.148346
  42 H :    0.124911
  43 H :    0.128327
  44 H :    0.152035
  45 H :    0.426139
  46 H :    0.198870
  47 H :    0.170078
  48 H :    0.146392
  49 H :    0.140742
  50 H :    0.138779
  51 H :    0.139105
  52 H :    0.151662
Sum of atomic charges:   -0.0000000

LOEWDIN ATOMIC CHARGES
----------------------
   0 C :   -0.364968
   1 C :   -0.046631
   2 C :   -0.061094
   3 C :   -0.111602
   4 C :   -0.164558
   5 C :    0.119633
   6 F :   -0.102485
   7 C :   -0.182259
   8 C :    0.128246
   9 F :   -0.094405
  10 N :   -0.106073
  11 C :   -0.138654
  12 C :   -0.031104
  13 C :   -0.123566
  14 C :   -0.134718
  15 C :   -0.107017
  16 C :   -0.054905
  17 C :    0.178429
  18 O :   -0.268833
  19 O :   -0.339624
  20 C :   -0.079684
  21 C :    0.141469
  22 O :   -0.259912
  23 C :   -0.022485
  24 C :   -0.086523
  25 C :   -0.007410
  26 C :   -0.111349
  27 C :   -0.119070
  28 C :   -0.121173
  29 C :   -0.114851
  30 C :   -0.027351
  31 C :   -0.059339
  32 N :   -0.130262
  33 H :    0.141735
  34 H :    0.127644
  35 H :    0.117656
  36 H :    0.144888
  37 H :    0.140155
  38 H :    0.141194
  39 H :    0.155894
  40 H :    0.152702
  41 H :    0.122366
  42 H :    0.128544
  43 H :    0.131364
  44 H :    0.144036
  45 H :    0.344269
  46 H :    0.166435
  47 H :    0.155899
  48 H :    0.140891
  49 H :    0.137845
  50 H :    0.136837
  51 H :    0.137050
  52 H :    0.136727

  Mayer bond orders larger than 0.100000
B(  0-C ,  1-C ) :   0.9991 B(  0-C , 33-H ) :   0.9318 B(  0-C , 34-H ) :   0.9423
B(  0-C , 35-H ) :   0.9360 B(  1-C ,  2-C ) :   0.9400 B(  1-C , 10-N ) :   0.9492
B(  1-C , 36-H ) :   0.9139 B(  2-C ,  3-C ) :   1.4245 B(  2-C ,  8-C ) :   1.3455
B(  3-C ,  4-C ) :   1.4208 B(  3-C , 37-H ) :   0.9185 B(  4-C ,  5-C ) :   1.3937
B(  4-C , 38-H ) :   0.9208 B(  5-C ,  6-F ) :   0.9095 B(  5-C ,  7-C ) :   1.3709
B(  7-C ,  8-C ) :   1.3686 B(  7-C , 39-H ) :   0.9098 B(  8-C ,  9-F ) :   0.9091
B( 10-N , 11-C ) :   0.9618 B( 10-N , 21-C ) :   1.0245 B( 11-C , 12-C ) :   0.9553
B( 11-C , 40-H ) :   0.9154 B( 11-C , 41-H ) :   0.9224 B( 12-C , 13-C ) :   1.4234
B( 12-C , 20-C ) :   1.3989 B( 13-C , 14-C ) :   1.4253 B( 13-C , 42-H ) :   0.9232
B( 14-C , 15-C ) :   1.4397 B( 14-C , 43-H ) :   0.9302 B( 15-C , 16-C ) :   1.3768
B( 15-C , 44-H ) :   0.9189 B( 16-C , 17-C ) :   1.0093 B( 16-C , 20-C ) :   1.3802
B( 17-C , 18-O ) :   1.8572 B( 17-C , 19-O ) :   1.0138 B( 19-O , 45-H ) :   0.7465
B( 20-C , 46-H ) :   0.8839 B( 21-C , 22-O ) :   1.8059 B( 21-C , 23-C ) :   0.9783
B( 23-C , 24-C ) :   1.4229 B( 23-C , 32-N ) :   1.2545 B( 24-C , 25-C ) :   1.2588
B( 24-C , 31-C ) :   0.1001 B( 24-C , 47-H ) :   0.9075 B( 25-C , 26-C ) :   1.2890
B( 25-C , 30-C ) :   1.2956 B( 26-C , 27-C ) :   1.5107 B( 26-C , 29-C ) :   0.1055
B( 26-C , 48-H ) :   0.9228 B( 27-C , 28-C ) :   1.3476 B( 27-C , 49-H ) :   0.9285
B( 28-C , 29-C ) :   1.5108 B( 28-C , 50-H ) :   0.9292 B( 29-C , 30-C ) :   1.2906
B( 29-C , 51-H ) :   0.9233 B( 30-C , 31-C ) :   1.2334 B( 31-C , 32-N ) :   1.5048
B( 31-C , 52-H ) :   0.9268

FINAL SINGLE POINT ENERGY     -1536.761501554097

DIPOLE MOMENT
-------------

Method             : SCF
Type of density    : Electron Density
Multiplicity       :   1
Irrep              :   0
Energy             : -1536.7615015540968670 Eh
Relativity type    :
Basis              : AO
                                X                 Y                 Z
Electronic contribution:     -8.944589682      -2.587544324     -17.390511977
Nuclear contribution   :     10.385484934       3.460549799      18.228144331
                        -----------------------------------------
Total Dipole Moment    :      1.440895252       0.873005475       0.837632354
                        -----------------------------------------
Magnitude (a.u.)       :      1.881474328
Magnitude (Debye)      :      4.782327684

Rotational constants in cm-1:             0.009339             0.002314             0.002275
Rotational constants in MHz :           279.973382            69.377128            68.196725

                             ****ORCA TERMINATED NORMALLY****
TOTAL RUN TIME: 0 days 0 hours 6 minutes 16 seconds 856 msec
