                         Program Version 6.0.0  -   RELEASE  -
|  1> ! B3LYP 6-31G* SP
|  2>
|  3> * xyz 0 1
|  4> N 0.3635 -1.1552 -2.5649
|  5> C -0.9445 -0.7890 -2.1199
|  6> O -1.8514 -0.6149 -2.9777
|  7> C -1.2895 -0.6428 -0.6523
|  8> C -1.7638 -1.9436 -0.0201
|  9> C -2.6970 -1.8902 1.0321
| 10> C -3.1180 -3.0605 1.6699
| 11> C -2.6076 -4.2974 1.2720
| 12> C -1.6718 -4.3660 0.2381
| 13> C -1.2466 -3.1988 -0.4032
| 14> N -0.2054 -0.0025 0.1318
| 15> C -0.3304 1.4061 0.4412
| 16> O -0.1876 1.8016 1.6302
| 17> C -0.6407 2.3991 -0.6073
| 18> C -1.5068 3.4704 -0.3300
| 19> C -1.7965 4.4168 -1.3180
| 20> C -1.2152 4.3081 -2.5840
| 21> C -0.3372 3.2572 -2.8613
| 22> C -0.0454 2.3093 -1.8760
| 23> C 0.8267 -0.8184 0.8138
| 24> C 0.4588 -1.1061 2.2983
| 25> O 1.5238 -0.5593 3.0757
| 26> C 2.4707 0.0150 2.2555
| 27> C 3.6442 0.6496 2.6587
| 28> C 4.4866 1.1810 1.6681
| 29> C 4.1406 1.0659 0.3069
| 30> C 2.9513 0.4190 -0.0685
| 31> C 2.1298 -0.0969 0.9368
| 32> H 0.5591 -1.2414 -3.5868
| 33> H 1.1391 -1.3535 -1.9010
| 34> H -2.1728 0.0375 -0.6302
| 35> H -3.0923 -0.9386 1.3657
| 36> H -3.8369 -3.0072 2.4772
| 37> H -2.9330 -5.2023 1.7685
| 38> H -1.2703 -5.3248 -0.0633
| 39> H -0.5081 -3.2819 -1.1882
| 40> H -1.9683 3.5661 0.6452
| 41> H -2.4718 5.2346 -1.1019
| 42> H -1.4393 5.0419 -3.3473
| 43> H 0.1237 3.1812 -3.8376
| 44> H 0.6617 1.5221 -2.0974
| 45> H 1.0018 -1.7773 0.2854
| 46> H 0.3924 -2.2007 2.4773
| 47> H -0.5012 -0.6327 2.5937
| 48> H 3.8986 0.7318 3.7072
| 49> H 5.4040 1.6803 1.9513
| 50> H 4.7929 1.4774 -0.4523
| 51> H 2.6802 0.3301 -1.1112
| 52> *
| 53>
| 54>                          ****END OF INPUT****

CARTESIAN COORDINATES (ANGSTROEM)
---------------------------------
  N      0.363500   -1.155200   -2.564900
  C     -0.944500   -0.789000   -2.119900
  O     -1.851400   -0.614900   -2.977700
  C     -1.289500   -0.642800   -0.652300
  C     -1.763800   -1.943600   -0.020100
  C     -2.697000   -1.890200    1.032100
  C     -3.118000   -3.060500    1.669900
  C     -2.607600   -4.297400    1.272000
  C     -1.671800   -4.366000    0.238100
  C     -1.246600   -3.198800   -0.403200
  N     -0.205400   -0.002500    0.131800
  C     -0.330400    1.406100    0.441200
  O     -0.187600    1.801600    1.630200
  C     -0.640700    2.399100   -0.607300
  C     -1.506800    3.470400   -0.330000
  C     -1.796500    4.416800   -1.318000
  C     -1.215200    4.308100   -2.584000
  C     -0.337200    3.257200   -2.861300
  C     -0.045400    2.309300   -1.876000
  C      0.826700   -0.818400    0.813800
  C      0.458800   -1.106100    2.298300
  O      1.523800   -0.559300    3.075700
  C      2.470700    0.015000    2.255500
  C      3.644200    0.649600    2.658700
  C      4.486600    1.181000    1.668100
  C      4.140600    1.065900    0.306900
  C      2.951300    0.419000   -0.068500
  C      2.129800   -0.096900    0.936800
  H      0.559100   -1.241400   -3.586800
  H      1.139100   -1.353500   -1.901000
  H     -2.172800    0.037500   -0.630200
  H     -3.092300   -0.938600    1.365700
  H     -3.836900   -3.007200    2.477200
  H     -2.933000   -5.202300    1.768500
  H     -1.270300   -5.324800   -0.063300
  H     -0.508100   -3.281900   -1.188200
  H     -1.968300    3.566100    0.645200
  H     -2.471800    5.234600   -1.101900
  H     -1.439300    5.041900   -3.347300
  H      0.123700    3.181200   -3.837600
  H      0.661700    1.522100   -2.097400
  H      1.001800   -1.777300    0.285400
  H      0.392400   -2.200700    2.477300
  H     -0.501200   -0.632700    2.593700
  H      3.898600    0.731800    3.707200
  H      5.404000    1.680300    1.951300
  H      4.792900    1.477400   -0.452300
  H      2.680200    0.330100   -1.111200

 Total Charge           Charge          ....    0
 Multiplicity           Mult            ....    1
 Number of Electrons    NEL             ....  196
 Basis Dimension        Dim             ....  432

ORBITAL ENERGIES
----------------

  NO   OCC          E(Eh)            E(eV)
   0   2.0000     -19.156150      -521.2654
   1   2.0000     -19.118901      -520.2517
   2   2.0000     -19.112557      -520.0791
   3   2.0000     -14.362577      -390.8256
   4   2.0000     -14.352438      -390.5497
   5   2.0000     -10.294814      -280.1361
   6   2.0000     -10.290818      -280.0274
   7   2.0000     -10.243797      -278.7479
   8   2.0000     -10.234208      -278.4870
   9   2.0000     -10.230246      -278.3792
  10   2.0000     -10.225033      -278.2373
  11   2.0000     -10.208745      -277.7941
  12   2.0000     -10.197201      -277.4799
  13   2.0000     -10.194957      -277.4189
  14   2.0000     -10.194845      -277.4158
  15   2.0000     -10.193341      -277.3749
  16   2.0000     -10.193049      -277.3670
  17   2.0000     -10.192160      -277.3428
  18   2.0000     -10.189540      -277.2715
  19   2.0000     -10.189518      -277.2709
  20   2.0000     -10.189118      -277.2600
  21   2.0000     -10.186377      -277.1854
  22   2.0000     -10.186341      -277.1844
  23   2.0000     -10.185822      -277.1703
  24   2.0000     -10.182849      -277.0894
  25   2.0000     -10.177253      -276.9371
  26   2.0000     -10.176971      -276.9295
  27   2.0000     -10.175771      -276.8968
  28   2.0000      -1.055589       -28.7240
  29   2.0000      -1.017164       -27.6784
  30   2.0000      -1.011249       -27.5175
  31   2.0000      -0.926347       -25.2072
  32   2.0000      -0.883509       -24.0415
  33   2.0000      -0.861913       -23.4538
  34   2.0000      -0.855758       -23.2864
  35   2.0000      -0.845644       -23.0111
  36   2.0000      -0.793902       -21.6032
  37   2.0000      -0.772096       -21.0098
  38   2.0000      -0.754389       -20.5280
  39   2.0000      -0.753890       -20.5144
  40   2.0000      -0.746761       -20.3204
  41   2.0000      -0.738530       -20.0964
  42   2.0000      -0.723436       -19.6857
  43   2.0000      -0.700002       -19.0480
  44   2.0000      -0.644937       -17.5496
  45   2.0000      -0.625885       -17.0312
  46   2.0000      -0.620033       -16.8720
  47   2.0000      -0.610356       -16.6086
  48   2.0000      -0.606044       -16.4913
  49   2.0000      -0.599800       -16.3214
  50   2.0000      -0.585929       -15.9439
  51   2.0000      -0.577721       -15.7206
  52   2.0000      -0.554624       -15.0921
  53   2.0000      -0.532502       -14.4901
  54   2.0000      -0.530394       -14.4328
  55   2.0000      -0.524819       -14.2811
  56   2.0000      -0.504063       -13.7162
  57   2.0000      -0.499028       -13.5792
  58   2.0000      -0.484613       -13.1870
  59   2.0000      -0.480287       -13.0693
  60   2.0000      -0.471363       -12.8264
  61   2.0000      -0.467396       -12.7185
  62   2.0000      -0.466239       -12.6870
  63   2.0000      -0.454065       -12.3557
  64   2.0000      -0.443045       -12.0559
  65   2.0000      -0.440391       -11.9837
  66   2.0000      -0.438981       -11.9453
  67   2.0000      -0.431641       -11.7456
  68   2.0000      -0.430172       -11.7056
  69   2.0000      -0.423262       -11.5175
  70   2.0000      -0.413292       -11.2462
  71   2.0000      -0.408664       -11.1203
  72   2.0000      -0.402930       -10.9643
  73   2.0000      -0.398790       -10.8516
  74   2.0000      -0.390359       -10.6222
  75   2.0000      -0.381864       -10.3910
  76   2.0000      -0.378765       -10.3067
  77   2.0000      -0.369365       -10.0509
  78   2.0000      -0.368254       -10.0207
  79   2.0000      -0.359924        -9.7940
  80   2.0000      -0.356791        -9.7088
  81   2.0000      -0.354091        -9.6353
  82   2.0000      -0.352582        -9.5943
  83   2.0000      -0.348922        -9.4946
  84   2.0000      -0.346981        -9.4418
  85   2.0000      -0.338362        -9.2073
  86   2.0000      -0.327837        -8.9209
  87   2.0000      -0.304163        -8.2767
  88   2.0000      -0.271914        -7.3992
  89   2.0000      -0.265793        -7.2326
  90   2.0000      -0.263607        -7.1731
  91   2.0000      -0.259358        -7.0575
  92   2.0000      -0.252391        -6.8679
  93   2.0000      -0.251015        -6.8305
  94   2.0000      -0.243465        -6.6250
  95   2.0000      -0.243320        -6.6211
  96   2.0000      -0.221400        -6.0246
  97   2.0000      -0.207473        -5.6456
  98   0.0000      -0.044969        -1.2237
  99   0.0000      -0.022088        -0.6010
 100   0.0000      -0.014400        -0.3918
 101   0.0000      -0.007926        -0.2157
 102   0.0000      -0.002795        -0.0760

MULLIKEN ATOMIC CHARGES
-----------------------
   0 N :   -0.779234
   1 C :    0.573510
   2 O :   -0.471387
   3 C :   -0.155979
   4 C :    0.149320
   5 C :   -0.170287
   6 C :   -0.126085
   7 C :   -0.121066
   8 C :   -0.129652
   9 C :   -0.174955
  10 N :   -0.440472
  11 C :    0.430045
  12 O :   -0.445473
  13 C :    0.093641
  14 C :   -0.146032
  15 C :   -0.131223
  16 C :   -0.113056
  17 C :   -0.128544
  18 C :   -0.152224
  19 C :   -0.093512
  20 C :   -0.015334
  21 O :   -0.511078
  22 C :    0.374761
  23 C :   -0.188340
  24 C :   -0.123362
  25 C :   -0.144529
  26 C :   -0.184320
  27 C :    0.065149
  28 H :    0.351603
  29 H :    0.345235
  30 H :    0.194581
  31 H :    0.141685
  32 H :    0.138804
  33 H :    0.135425
  34 H :    0.135694
  35 H :    0.135665
  36 H :    0.152223
  37 H :    0.136057
  38 H :    0.135160
  39 H :    0.133163
  40 H :    0.146744
  41 H :    0.154480
  42 H :    0.140628
  43 H :    0.172003
  44 H :    0.139571
  45 H :    0.131958
  46 H :    0.122452
  47 H :    0.116588
Sum of atomic charges:    0.0000000

LOEWDIN ATOMIC CHARGES
----------------------
   0 N :   -0.408967
   1 C :    0.139819
   2 O :   -0.281443
   3 C :   -0.066592
   4 C :   -0.017957
   5 C :   -0.122983
   6 C :   -0.123588
   7 C :   -0.123456
   8 C :   -0.125818
   9 C :   -0.137019
  10 N :   -0.124956
  11 C :    0.149393
  12 O :   -0.250673
  13 C :   -0.053719
  14 C :   -0.097150
  15 C :   -0.127869
  16 C :   -0.112332
  17 C :   -0.124987
  18 C :   -0.110918
  19 C :   -0.058570
  20 C :   -0.084458
  21 O :   -0.170642
  22 C :    0.093063
  23 C :   -0.153195
  24 C :   -0.116454
  25 C :   -0.150175
  26 C :   -0.132699
  27 C :   -0.063842
  28 H :    0.265271
  29 H :    0.247608
  30 H :    0.163070
  31 H :    0.137299
  32 H :    0.136563
  33 H :    0.134897
  34 H :    0.134894
  35 H :    0.134589
  36 H :    0.145279
  37 H :    0.135317
  38 H :    0.134651
  39 H :    0.134227
  40 H :    0.138102
  41 H :    0.132658
  42 H :    0.118654
  43 H :    0.136695
  44 H :    0.141000
  45 H :    0.134399
  46 H :    0.129179
  47 H :    0.123835

  Mayer bond orders larger than 0.100000
B(  0-N ,  1-C ) :   1.0496 B(  0-N , 28-H ) :   0.8231 B(  0-N , 29-H ) :   0.8049
B(  1-C ,  2-O ) :   1.8606 B(  1-C ,  3-C ) :   0.9043 B(  3-C ,  4-C ) :   0.9645
B(  3-C , 10-N ) :   0.9245 B(  3-C , 30-H ) :   0.9028 B(  4-C ,  5-C ) :   1.4169
B(  4-C ,  9-C ) :   1.4240 B(  5-C ,  6-C ) :   1.4437 B(  5-C , 31-H ) :   0.9223
B(  6-C ,  7-C ) :   1.4491 B(  6-C , 32-H ) :   0.9278 B(  7-C ,  8-C ) :   1.4555
B(  7-C , 33-H ) :   0.9291 B(  8-C ,  9-C ) :   1.4364 B(  8-C , 34-H ) :   0.9286
B(  9-C , 35-H ) :   0.9113 B( 10-N , 11-C ) :   0.9999 B( 10-N , 19-C ) :   0.9213
B( 11-C , 12-O ) :   1.8355 B( 11-C , 13-C ) :   0.9735 B( 13-C , 14-C ) :   1.3946
B( 13-C , 18-C ) :   1.4019 B( 14-C , 15-C ) :   1.4412 B( 14-C , 36-H ) :   0.9194
B( 15-C , 16-C ) :   1.4398 B( 15-C , 37-H ) :   0.9293 B( 16-C , 17-C ) :   1.4533
B( 16-C , 38-H ) :   0.9296 B( 17-C , 18-C ) :   1.4359 B( 17-C , 39-H ) :   0.9293
B( 18-C , 40-H ) :   0.9083 B( 19-C , 20-C ) :   0.9444 B( 19-C , 27-C ) :   0.9913
B( 19-C , 41-H ) :   0.9120 B( 20-C , 21-O ) :   0.9139 B( 20-C , 42-H ) :   0.9257
B( 20-C , 43-H ) :   0.9225 B( 21-O , 22-C ) :   0.9308 B( 22-C , 23-C ) :   1.3932
B( 22-C , 27-C ) :   1.3791 B( 23-C , 24-C ) :   1.4460 B( 23-C , 44-H ) :   0.9193
B( 24-C , 25-C ) :   1.4373 B( 24-C , 45-H ) :   0.9311 B( 25-C , 26-C ) :   1.4278
B( 25-C , 46-H ) :   0.9315 B( 26-C , 27-C ) :   1.4300 B( 26-C , 47-H ) :   0.9180

FINAL SINGLE POINT ENERGY     -1222.889684358625

DIPOLE MOMENT
-------------

Method             : SCF
Type of density    : Electron Density
Multiplicity       :   1
Irrep              :   0
Energy             : -1222.8896843586253453 Eh
Relativity type    :
Basis              : AO
                                X                 Y                 Z
Electronic contribution:     -0.311307357       2.439089375       2.460934541
Nuclear contribution   :      0.767636190      -3.230340782      -3.147439764
                        -----------------------------------------
Total Dipole Moment    :      0.456328833      -0.791251407      -0.686505223
                        -----------------------------------------
Magnitude (a.u.)       :      1.142630392
Magnitude (Debye)      :      2.904335646

Rotational constants in cm-1:             0.006887             0.005894             0.004079
Rotational constants in MHz :           206.467067           176.685246           122.296651

                             ****ORCA TERMINATED NORMALLY****
TOTAL RUN TIME: 0 days 0 hours 8 minutes 42 seconds 598 msec
