                         Program Version 6.0.0  -   RELEASE  -
|  1> ! B3LYP 6-31G* SP
|  2>
|  3> * xyz 0 1
|  4> O 2.0257 0.3258 1.8421
|  5> C 1.6515 0.2350 0.6409
|  6> N 2.6051 0.4216 -0.4188
|  7> C 4.0272 0.2903 -0.2490
|  8> C 4.5752 -0.6233 0.6680
|  9> C 5.9614 -0.7486 0.7971
| 10> C 6.8240 0.0214 0.0088
| 11> O 8.2075 -0.1449 0.1832
| 12> C 9.2189 0.5568 -0.5366
| 13> F 10.4578 0.1345 -0.0951
| 14> F 9.1060 1.9174 -0.3135
| 15> F 9.1132 0.2900 -1.8899
| 16> C 6.2766 0.9224 -0.9245
| 17> C 4.8901 1.0472 -1.0545
| 18> N 0.2619 -0.0093 0.3431
| 19> C -0.7803 0.5251 1.2297
| 20> C -1.9413 -0.4662 1.3584
| 21> C -2.4729 -0.9049 -0.0282
| 22> C -1.3066 -1.4911 -0.8521
| 23> C -0.1417 -0.5034 -0.9793
| 24> C -3.5825 -1.9758 0.1136
| 25> C -4.8624 -1.4165 0.7628
| 26> O -5.8971 -2.3495 0.5713
| 27> C -5.2533 -0.0764 0.1721
| 28> C -6.5410 0.4478 0.3854
| 29> C -6.8931 1.6939 -0.1403
| 30> C -5.9619 2.4356 -0.8698
| 31> C -4.6706 1.9395 -1.0650
| 32> F -3.7655 2.6733 -1.7593
| 33> C -4.3067 0.6966 -0.5334
| 34> O -3.0015 0.2295 -0.7215
| 35> H 2.2525 0.7760 -1.3363
| 36> H 3.9361 -1.2571 1.2682
| 37> H 6.3687 -1.4551 1.5093
| 38> H 6.9092 1.5296 -1.5560
| 39> H 4.4863 1.7433 -1.7790
| 40> H -0.3800 0.7277 2.2462
| 41> H -1.1520 1.4878 0.8163
| 42> H -1.5924 -1.3561 1.9278
| 43> H -2.7457 0.0221 1.9479
| 44> H -1.6603 -1.7587 -1.8720
| 45> H -0.9339 -2.4210 -0.3673
| 46> H 0.6995 -1.0351 -1.4748
| 47> H -0.4378 0.3555 -1.6199
| 48> H -3.8427 -2.3591 -0.8990
| 49> H -3.2136 -2.8385 0.7113
| 50> H -4.6695 -1.2745 1.8522
| 51> H -6.4450 -2.3601 1.3993
| 52> H -7.2747 -0.1063 0.9566
| 53> H -7.8891 2.0861 0.0203
| 54> H -6.2392 3.3997 -1.2762
| 55> *
| 56>
| 57>                          ****END OF INPUT****

CARTESIAN COORDINATES (ANGSTROEM)
---------------------------------
  O      2.025700    0.325800    1.842100
  C      1.651500    0.235000    0.640900
  N      2.605100    0.421600   -0.418800
  C      4.027200    0.290300   -0.249000
  C      4.575200   -0.623300    0.668000
  C      5.961400   -0.748600    0.797100
  C      6.824000    0.021400    0.008800
  O      8.207500   -0.144900    0.183200
  C      9.218900    0.556800   -0.536600
  F     10.457800    0.134500   -0.095100
  F      9.106000    1.917400   -0.313500
  F      9.113200    0.290000   -1.889900
  C      6.276600    0.922400   -0.924500
  C      4.890100    1.047200   -1.054500
  N      0.261900   -0.009300    0.343100
  C     -0.780300    0.525100    1.229700
  C     -1.941300   -0.466200    1.358400
  C     -2.472900   -0.904900   -0.028200
  C     -1.306600   -1.491100   -0.852100
  C     -0.141700   -0.503400   -0.979300
  C     -3.582500   -1.975800    0.113600
  C     -4.862400   -1.416500    0.762800
  O     -5.897100   -2.349500    0.571300
  C     -5.253300   -0.076400    0.172100
  C     -6.541000    0.447800    0.385400
  C     -6.893100    1.693900   -0.140300
  C     -5.961900    2.435600   -0.869800
  C     -4.670600    1.939500   -1.065000
  F     -3.765500    2.673300   -1.759300
  C     -4.306700    0.696600   -0.533400
  O     -3.001500    0.229500   -0.721500
  H      2.252500    0.776000   -1.336300
  H      3.936100   -1.257100    1.268200
  H      6.368700   -1.455100    1.509300
  H      6.909200    1.529600   -1.556000
  H      4.486300    1.743300   -1.779000
  H     -0.380000    0.727700    2.246200
  H     -1.152000    1.487800    0.816300
  H     -1.592400   -1.356100    1.927800
  H     -2.745700    0.022100    1.947900
  H     -1.660300   -1.758700   -1.872000
  H     -0.933900   -2.421000   -0.367300
  H      0.699500   -1.035100   -1.474800
  H     -0.437800    0.355500   -1.619900
  H     -3.842700   -2.359100   -0.899000
  H     -3.213600   -2.838500    0.711300
  H     -4.669500   -1.274500    1.852200
  H     -6.445000   -2.360100    1.399300
  H     -7.274700   -0.106300    0.956600
  H     -7.889100    2.086100    0.020300
  H     -6.239200    3.399700   -1.276200

 Total Charge           Charge          ....    0
 Multiplicity           Mult            ....    1
 Number of Electrons    NEL             ....  228
 Basis Dimension        Dim             ....  474

ORBITAL ENERGIES
----------------

  NO   OCC          E(Eh)            E(eV)
   0   2.0000     -24.735393      -673.0843
   1   2.0000     -24.733328      -673.0281
   2   2.0000     -24.732826      -673.0144
   3   2.0000     -24.698292      -672.0747
   4   2.0000     -19.203995      -522.5673
   5   2.0000     -19.173228      -521.7301
   6   2.0000     -19.151389      -521.1358
   7   2.0000     -19.099312      -519.7187
   8   2.0000     -14.369006      -391.0005
   9   2.0000     -14.354121      -390.5955
  10   2.0000     -10.497208      -285.6436
  11   2.0000     -10.314761      -280.6789
  12   2.0000     -10.269872      -279.4574
  13   2.0000     -10.258976      -279.1609
  14   2.0000     -10.256980      -279.1066
  15   2.0000     -10.255868      -279.0764
  16   2.0000     -10.248562      -278.8776
  17   2.0000     -10.232928      -278.4521
  18   2.0000     -10.224104      -278.2120
  19   2.0000     -10.215546      -277.9791
  20   2.0000     -10.195445      -277.4322
  21   2.0000     -10.195440      -277.4320
  22   2.0000     -10.191827      -277.3337
  23   2.0000     -10.191550      -277.3262
  24   2.0000     -10.191387      -277.3217
  25   2.0000     -10.190214      -277.2898
  26   2.0000     -10.189494      -277.2702
  27   2.0000     -10.188773      -277.2506
  28   2.0000     -10.188307      -277.2379
  29   2.0000     -10.187490      -277.2157
  30   2.0000     -10.186241      -277.1817
  31   2.0000      -1.298166       -35.3249
  32   2.0000      -1.219033       -33.1716
  33   2.0000      -1.218536       -33.1580
  34   2.0000      -1.210990       -32.9527
  35   2.0000      -1.074066       -29.2268
  36   2.0000      -1.060150       -28.8481
  37   2.0000      -1.032228       -28.0884
  38   2.0000      -1.016428       -27.6584
  39   2.0000      -0.923664       -25.1342
  40   2.0000      -0.915335       -24.9075
  41   2.0000      -0.860114       -23.4049
  42   2.0000      -0.847030       -23.0489
  43   2.0000      -0.819194       -22.2914
  44   2.0000      -0.780246       -21.2316
  45   2.0000      -0.770049       -20.9541
  46   2.0000      -0.758942       -20.6519
  47   2.0000      -0.750266       -20.4158
  48   2.0000      -0.744686       -20.2639
  49   2.0000      -0.731682       -19.9101
  50   2.0000      -0.696766       -18.9600
  51   2.0000      -0.664787       -18.0898
  52   2.0000      -0.648035       -17.6339
  53   2.0000      -0.644138       -17.5279
  54   2.0000      -0.632195       -17.2029
  55   2.0000      -0.622243       -16.9321
  56   2.0000      -0.611623       -16.6431
  57   2.0000      -0.603491       -16.4218
  58   2.0000      -0.590267       -16.0620
  59   2.0000      -0.587536       -15.9877
  60   2.0000      -0.577591       -15.7171
  61   2.0000      -0.564708       -15.3665
  62   2.0000      -0.557699       -15.1758
  63   2.0000      -0.540847       -14.7172
  64   2.0000      -0.539400       -14.6778
  65   2.0000      -0.527738       -14.3605
  66   2.0000      -0.521715       -14.1966
  67   2.0000      -0.498870       -13.5749
  68   2.0000      -0.485535       -13.2121
  69   2.0000      -0.479088       -13.0366
  70   2.0000      -0.473756       -12.8916
  71   2.0000      -0.471610       -12.8332
  72   2.0000      -0.463996       -12.6260
  73   2.0000      -0.463675       -12.6172
  74   2.0000      -0.461397       -12.5552
  75   2.0000      -0.458158       -12.4671
  76   2.0000      -0.457357       -12.4453
  77   2.0000      -0.454393       -12.3647
  78   2.0000      -0.449737       -12.2380
  79   2.0000      -0.447482       -12.1766
  80   2.0000      -0.439218       -11.9517
  81   2.0000      -0.436317       -11.8728
  82   2.0000      -0.430547       -11.7158
  83   2.0000      -0.424785       -11.5590
  84   2.0000      -0.421420       -11.4674
  85   2.0000      -0.411982       -11.2106
  86   2.0000      -0.410743       -11.1769
  87   2.0000      -0.404323       -11.0022
  88   2.0000      -0.401383       -10.9222
  89   2.0000      -0.397962       -10.8291
  90   2.0000      -0.394303       -10.7295
  91   2.0000      -0.392118       -10.6701
  92   2.0000      -0.386343       -10.5129
  93   2.0000      -0.383123       -10.4253
  94   2.0000      -0.382046       -10.3960
  95   2.0000      -0.377997       -10.2858
  96   2.0000      -0.369984       -10.0678
  97   2.0000      -0.364426        -9.9165
  98   2.0000      -0.358880        -9.7656
  99   2.0000      -0.358033        -9.7426
 100   2.0000      -0.348245        -9.4762
 101   2.0000      -0.344056        -9.3622
 102   2.0000      -0.341848        -9.3022
 103   2.0000      -0.333437        -9.0733
 104   2.0000      -0.310598        -8.4518
 105   2.0000      -0.308163        -8.3855
 106   2.0000      -0.285445        -7.7673
 107   2.0000      -0.280315        -7.6278
 108   2.0000      -0.258285        -7.0283
 109   2.0000      -0.246169        -6.6986
 110   2.0000      -0.243009        -6.6126
 111   2.0000      -0.228075        -6.2062
 112   2.0000      -0.223084        -6.0704
 113   2.0000      -0.209151        -5.6913
 114   0.0000      -0.011530        -0.3137
 115   0.0000      -0.006046        -0.1645
 116   0.0000      -0.003884        -0.1057
 117   0.0000       0.005038         0.1371
 118   0.0000       0.040207         1.0941

MULLIKEN ATOMIC CHARGES
-----------------------
   0 O :   -0.490493
   1 C :    0.669562
   2 N :   -0.720670
   3 C :    0.351927
   4 C :   -0.133692
   5 C :   -0.182785
   6 C :    0.349130
   7 O :   -0.547691
   8 C :    1.084530
   9 F :   -0.280591
  10 F :   -0.292081
  11 F :   -0.293270
  12 C :   -0.191873
  13 C :   -0.187593
  14 N :   -0.438262
  15 C :   -0.127440
  16 C :   -0.289032
  17 C :    0.308395
  18 C :   -0.280024
  19 C :   -0.149309
  20 C :   -0.303803
  21 C :    0.058367
  22 O :   -0.619678
  23 C :    0.110066
  24 C :   -0.182356
  25 C :   -0.121206
  26 C :   -0.210662
  27 C :    0.352126
  28 F :   -0.313273
  29 C :    0.244112
  30 O :   -0.550746
  31 H :    0.330140
  32 H :    0.159627
  33 H :    0.149651
  34 H :    0.150943
  35 H :    0.131190
  36 H :    0.186410
  37 H :    0.151554
  38 H :    0.146809
  39 H :    0.144012
  40 H :    0.149390
  41 H :    0.149734
  42 H :    0.154374
  43 H :    0.150803
  44 H :    0.157337
  45 H :    0.140804
  46 H :    0.130336
  47 H :    0.401696
  48 H :    0.113983
  49 H :    0.133084
  50 H :    0.146440
Sum of atomic charges:    0.0000000

LOEWDIN ATOMIC CHARGES
----------------------
   0 O :   -0.308333
   1 C :    0.160518
   2 N :   -0.226176
   3 C :    0.037390
   4 C :   -0.120129
   5 C :   -0.136683
   6 C :    0.074048
   7 O :   -0.162135
   8 C :    0.358393
   9 F :   -0.088801
  10 F :   -0.105629
  11 F :   -0.106653
  12 C :   -0.157214
  13 C :   -0.144634
  14 N :   -0.126793
  15 C :   -0.147080
  16 C :   -0.237973
  17 C :    0.073297
  18 C :   -0.225128
  19 C :   -0.160868
  20 C :   -0.231954
  21 C :   -0.014788
  22 O :   -0.383373
  23 C :   -0.060042
  24 C :   -0.128774
  25 C :   -0.137610
  26 C :   -0.153459
  27 C :    0.097194
  28 F :   -0.101082
  29 C :    0.055906
  30 O :   -0.172165
  31 H :    0.256584
  32 H :    0.151131
  33 H :    0.146243
  34 H :    0.141941
  35 H :    0.133930
  36 H :    0.151084
  37 H :    0.120343
  38 H :    0.130456
  39 H :    0.128695
  40 H :    0.133565
  41 H :    0.133328
  42 H :    0.131866
  43 H :    0.117696
  44 H :    0.135565
  45 H :    0.130742
  46 H :    0.111901
  47 H :    0.318260
  48 H :    0.127273
  49 H :    0.134675
  50 H :    0.145454

  Mayer bond orders larger than 0.100000
B(  0-O ,  1-C ) :   1.7938 B(  1-C ,  2-N ) :   1.0002 B(  1-C , 14-N ) :   1.0564
B(  2-N ,  3-C ) :   0.8721 B(  2-N , 31-H ) :   0.8227 B(  3-C ,  4-C ) :   1.4169
B(  3-C , 13-C ) :   1.4069 B(  4-C ,  5-C ) :   1.4462 B(  4-C , 32-H ) :   0.9100
B(  5-C ,  6-C ) :   1.4083 B(  5-C , 33-H ) :   0.9185 B(  6-C ,  7-O ) :   0.8150
B(  6-C , 12-C ) :   1.3979 B(  7-O ,  8-C ) :   0.9970 B(  8-C ,  9-F ) :   1.0065
B(  8-C , 10-F ) :   0.9678 B(  8-C , 11-F ) :   0.9662 B( 12-C , 13-C ) :   1.4395
B( 12-C , 34-H ) :   0.9095 B( 13-C , 35-H ) :   0.9230 B( 14-N , 15-C ) :   0.9377
B( 14-N , 19-C ) :   0.9505 B( 15-C , 16-C ) :   0.9928 B( 15-C , 36-H ) :   0.9167
B( 15-C , 37-H ) :   0.9229 B( 16-C , 17-C ) :   0.9787 B( 16-C , 38-H ) :   0.9252
B( 16-C , 39-H ) :   0.9244 B( 17-C , 18-C ) :   1.0004 B( 17-C , 20-C ) :   0.9698
B( 17-C , 30-O ) :   0.8259 B( 18-C , 19-C ) :   0.9904 B( 18-C , 40-H ) :   0.9249
B( 18-C , 41-H ) :   0.9268 B( 19-C , 42-H ) :   0.9277 B( 19-C , 43-H ) :   0.9168
B( 20-C , 21-C ) :   0.9866 B( 20-C , 44-H ) :   0.9227 B( 20-C , 45-H ) :   0.9259
B( 21-C , 22-O ) :   0.9562 B( 21-C , 23-C ) :   0.9309 B( 21-C , 46-H ) :   0.9199
B( 22-O , 47-H ) :   0.7840 B( 23-C , 24-C ) :   1.4028 B( 23-C , 29-C ) :   1.3594
B( 24-C , 25-C ) :   1.4503 B( 24-C , 48-H ) :   0.9253 B( 25-C , 26-C ) :   1.4208
B( 25-C , 49-H ) :   0.9301 B( 26-C , 27-C ) :   1.4106 B( 26-C , 50-H ) :   0.9197
B( 27-C , 28-F ) :   0.9329 B( 27-C , 29-C ) :   1.2920 B( 29-C , 30-O ) :   0.9061

FINAL SINGLE POINT ENERGY     -1621.141562672896

DIPOLE MOMENT
-------------

Method             : SCF
Type of density    : Electron Density
Multiplicity       :   1
Irrep              :   0
Energy             : -1621.1415626728962707 Eh
Relativity type    :
Basis              : AO
                                X                 Y                 Z
Electronic contribution:     58.792362784      13.184886711      -8.359542896
Nuclear contribution   :    -60.759108038     -13.659703965       8.129332033
                        -----------------------------------------
Total Dipole Moment    :     -1.966745254      -0.474817253      -0.230210863
                        -----------------------------------------
Magnitude (a.u.)       :      2.036304339
Magnitude (Debye)      :      5.175874297

Rotational constants in cm-1:             0.016402             0.001222             0.001178
Rotational constants in MHz :           491.728617            36.620464            35.305183

                             ****ORCA TERMINATED NORMALLY****
TOTAL RUN TIME: 0 days 0 hours 6 minutes 45 seconds 973 msec
