                         Program Version 6.0.0  -   RELEASE  -
|  1> ! B3LYP 6-31G* SP
|  2>
|  3> * xyz 0 1
|  4> C 1.4508 3.1091 0.3059
|  5> C 2.6939 2.2869 0.2017
|  6> O 3.6691 2.3274 1.0910
|  7> C 4.5788 1.4596 0.7170
|  8> C 4.2124 0.8315 -0.4333
|  9> C 2.9869 1.3601 -0.7997
| 10> C 2.1147 0.9650 -1.9568
| 11> C 1.1985 -0.1525 -1.5585
| 12> O 1.6597 -1.3220 -1.4752
| 13> N -0.1806 0.1214 -1.2591
| 14> C -1.1390 -0.8524 -0.8183
| 15> N -2.4416 -0.5503 -0.6388
| 16> C -3.1732 -1.6200 -0.2121
| 17> C -4.6373 -1.5032 0.0338
| 18> C -5.2983 -0.2951 -0.2554
| 19> C -6.6720 -0.1609 -0.0383
| 20> C -7.4198 -1.2358 0.4751
| 21> O -8.8024 -1.1538 0.7104
| 22> C -9.6094 0.0012 0.4882
| 23> F -9.5868 0.3479 -0.8506
| 24> F -9.1542 1.0570 1.2571
| 25> F -10.9109 -0.2846 0.8503
| 26> C -6.7677 -2.4394 0.7642
| 27> F -7.4724 -3.4885 1.2566
| 28> C -5.3926 -2.5744 0.5497
| 29> C -2.4293 -2.7938 -0.0455
| 30> S -0.8300 -2.4624 -0.4463
| 31> C 5.0324 -0.1486 -0.9802
| 32> O 4.6813 -0.7619 -2.0253
| 33> N 6.2258 -0.4303 -0.3548
| 34> C 7.1097 -1.4811 -0.8882
| 35> C 6.5714 0.2251 0.8146
| 36> O 7.6641 -0.0473 1.3866
| 37> N 5.7379 1.1717 1.3651
| 38> C 6.1129 1.9002 2.5833
| 39> H 0.5863 2.4491 0.5195
| 40> H 1.2760 3.6552 -0.6437
| 41> H 1.5518 3.8459 1.1293
| 42> H 1.5248 1.8424 -2.2957
| 43> H 2.7368 0.6514 -2.8207
| 44> H -0.5255 1.0988 -1.3851
| 45> H -4.7553 0.5522 -0.6546
| 46> H -7.1393 0.7837 -0.2757
| 47> H -4.9333 -3.5205 0.7912
| 48> H -2.7907 -3.7593 0.2764
| 49> H 6.9253 -2.4316 -0.3459
| 50> H 6.9466 -1.6490 -1.9736
| 51> H 8.1751 -1.1946 -0.7727
| 52> H 6.5745 1.2136 3.3206
| 53> H 5.2293 2.3563 3.0730
| 54> H 6.8348 2.7005 2.3291
| 55> *
| 56>
| 57>                          ****END OF INPUT****

CARTESIAN COORDINATES (ANGSTROEM)
---------------------------------
  C      1.450800    3.109100    0.305900
  C      2.693900    2.286900    0.201700
  O      3.669100    2.327400    1.091000
  C      4.578800    1.459600    0.717000
  C      4.212400    0.831500   -0.433300
  C      2.986900    1.360100   -0.799700
  C      2.114700    0.965000   -1.956800
  C      1.198500   -0.152500   -1.558500
  O      1.659700   -1.322000   -1.475200
  N     -0.180600    0.121400   -1.259100
  C     -1.139000   -0.852400   -0.818300
  N     -2.441600   -0.550300   -0.638800
  C     -3.173200   -1.620000   -0.212100
  C     -4.637300   -1.503200    0.033800
  C     -5.298300   -0.295100   -0.255400
  C     -6.672000   -0.160900   -0.038300
  C     -7.419800   -1.235800    0.475100
  O     -8.802400   -1.153800    0.710400
  C     -9.609400    0.001200    0.488200
  F     -9.586800    0.347900   -0.850600
  F     -9.154200    1.057000    1.257100
  F    -10.910900   -0.284600    0.850300
  C     -6.767700   -2.439400    0.764200
  F     -7.472400   -3.488500    1.256600
  C     -5.392600   -2.574400    0.549700
  C     -2.429300   -2.793800   -0.045500
  S     -0.830000   -2.462400   -0.446300
  C      5.032400   -0.148600   -0.980200
  O      4.681300   -0.761900   -2.025300
  N      6.225800   -0.430300   -0.354800
  C      7.109700   -1.481100   -0.888200
  C      6.571400    0.225100    0.814600
  O      7.664100   -0.047300    1.386600
  N      5.737900    1.171700    1.365100
  C      6.112900    1.900200    2.583300
  H      0.586300    2.449100    0.519500
  H      1.276000    3.655200   -0.643700
  H      1.551800    3.845900    1.129300
  H      1.524800    1.842400   -2.295700
  H      2.736800    0.651400   -2.820700
  H     -0.525500    1.098800   -1.385100
  H     -4.755300    0.552200   -0.654600
  H     -7.139300    0.783700   -0.275700
  H     -4.933300   -3.520500    0.791200
  H     -2.790700   -3.759300    0.276400
  H      6.925300   -2.431600   -0.345900
  H      6.946600   -1.649000   -1.973600
  H      8.175100   -1.194600   -0.772700
  H      6.574500    1.213600    3.320600
  H      5.229300    2.356300    3.073000
  H      6.834800    2.700500    2.329100

 Total Charge           Charge          ....    0
 Multiplicity           Mult            ....    1
 Number of Electrons    NEL             ....  262
 Basis Dimension        Dim             ....  526

ORBITAL ENERGIES
----------------

  NO   OCC          E(Eh)            E(eV)
   0   2.0000     -88.904686     -2419.2195
   1   2.0000     -24.741044      -673.2380
   2   2.0000     -24.739666      -673.2005
   3   2.0000     -24.739299      -673.1906
   4   2.0000     -24.705251      -672.2641
   5   2.0000     -19.254853      -523.9512
   6   2.0000     -19.214016      -522.8400
   7   2.0000     -19.129444      -520.5386
   8   2.0000     -19.113393      -520.1019
   9   2.0000     -19.102142      -519.7957
  10   2.0000     -14.413452      -392.2100
  11   2.0000     -14.401815      -391.8933
  12   2.0000     -14.394275      -391.6881
  13   2.0000     -14.335671      -390.0934
  14   2.0000     -10.504893      -285.8527
  15   2.0000     -10.329978      -281.0930
  16   2.0000     -10.311917      -280.6015
  17   2.0000     -10.298918      -280.2478
  18   2.0000     -10.292995      -280.0866
  19   2.0000     -10.285637      -279.8864
  20   2.0000     -10.281345      -279.7696
  21   2.0000     -10.271652      -279.5059
  22   2.0000     -10.255937      -279.0782
  23   2.0000     -10.240262      -278.6517
  24   2.0000     -10.231642      -278.4171
  25   2.0000     -10.215584      -277.9802
  26   2.0000     -10.213539      -277.9245
  27   2.0000     -10.212115      -277.8858
  28   2.0000     -10.211872      -277.8792
  29   2.0000     -10.208565      -277.7892
  30   2.0000     -10.205979      -277.7188
  31   2.0000     -10.202557      -277.6257
  32   2.0000     -10.200945      -277.5818
  33   2.0000     -10.193830      -277.3882
  34   2.0000     -10.188438      -277.2415
  35   2.0000      -7.980709      -217.1661
  36   2.0000      -5.943831      -161.7399
  37   2.0000      -5.939539      -161.6231
  38   2.0000      -5.937741      -161.5741
  39   2.0000      -1.304618       -35.5005
  40   2.0000      -1.225436       -33.3458
  41   2.0000      -1.224463       -33.3193
  42   2.0000      -1.218462       -33.1560
  43   2.0000      -1.184708       -32.2375
  44   2.0000      -1.083268       -29.4772
  45   2.0000      -1.067343       -29.0439
  46   2.0000      -1.032321       -28.0909
  47   2.0000      -1.014405       -27.6034
  48   2.0000      -0.980589       -26.6832
  49   2.0000      -0.976346       -26.5677
  50   2.0000      -0.935649       -25.4603
  51   2.0000      -0.920395       -25.0452
  52   2.0000      -0.870559       -23.6891
  53   2.0000      -0.856128       -23.2964
  54   2.0000      -0.813075       -22.1249
  55   2.0000      -0.811633       -22.0857
  56   2.0000      -0.791298       -21.5323
  57   2.0000      -0.773359       -21.0442
  58   2.0000      -0.759664       -20.6715
  59   2.0000      -0.749527       -20.3957
  60   2.0000      -0.735527       -20.0147
  61   2.0000      -0.726794       -19.7771
  62   2.0000      -0.712932       -19.3999
  63   2.0000      -0.699187       -19.0259
  64   2.0000      -0.663946       -18.0669
  65   2.0000      -0.649115       -17.6633
  66   2.0000      -0.639680       -17.4066
  67   2.0000      -0.629549       -17.1309
  68   2.0000      -0.622621       -16.9424
  69   2.0000      -0.611747       -16.6465
  70   2.0000      -0.599463       -16.3122
  71   2.0000      -0.596750       -16.2384
  72   2.0000      -0.593233       -16.1427
  73   2.0000      -0.581463       -15.8224
  74   2.0000      -0.579135       -15.7591
  75   2.0000      -0.565298       -15.3825
  76   2.0000      -0.538615       -14.6565
  77   2.0000      -0.532547       -14.4914
  78   2.0000      -0.527353       -14.3500
  79   2.0000      -0.523340       -14.2408
  80   2.0000      -0.507132       -13.7998
  81   2.0000      -0.499788       -13.5999
  82   2.0000      -0.495178       -13.4745
  83   2.0000      -0.484592       -13.1864
  84   2.0000      -0.481143       -13.0926
  85   2.0000      -0.474184       -12.9032
  86   2.0000      -0.473480       -12.8840
  87   2.0000      -0.467660       -12.7257
  88   2.0000      -0.464258       -12.6331
  89   2.0000      -0.463314       -12.6074
  90   2.0000      -0.461278       -12.5520
  91   2.0000      -0.455645       -12.3987
  92   2.0000      -0.451166       -12.2768
  93   2.0000      -0.449214       -12.2237
  94   2.0000      -0.442442       -12.0395
  95   2.0000      -0.437637       -11.9087
  96   2.0000      -0.436513       -11.8781
  97   2.0000      -0.434993       -11.8368
  98   2.0000      -0.434399       -11.8206
  99   2.0000      -0.432730       -11.7752
 100   2.0000      -0.429885       -11.6978
 101   2.0000      -0.419359       -11.4113
 102   2.0000      -0.416525       -11.3342
 103   2.0000      -0.416198       -11.3253
 104   2.0000      -0.408685       -11.1209
 105   2.0000      -0.407280       -11.0827
 106   2.0000      -0.399229       -10.8636
 107   2.0000      -0.398518       -10.8442
 108   2.0000      -0.397314       -10.8115
 109   2.0000      -0.396237       -10.7822
 110   2.0000      -0.389350       -10.5947
 111   2.0000      -0.379665       -10.3312
 112   2.0000      -0.378465       -10.2985
 113   2.0000      -0.377770       -10.2796
 114   2.0000      -0.364879        -9.9289
 115   2.0000      -0.362408        -9.8616
 116   2.0000      -0.352234        -9.5848
 117   2.0000      -0.350717        -9.5435
 118   2.0000      -0.326645        -8.8885
 119   2.0000      -0.313460        -8.5297
 120   2.0000      -0.291641        -7.9360
 121   2.0000      -0.289190        -7.8692
 122   2.0000      -0.279923        -7.6171
 123   2.0000      -0.274772        -7.4769
 124   2.0000      -0.265170        -7.2156
 125   2.0000      -0.261024        -7.1028
 126   2.0000      -0.257015        -6.9937
 127   2.0000      -0.247580        -6.7370
 128   2.0000      -0.241433        -6.5697
 129   2.0000      -0.213074        -5.7980
 130   2.0000      -0.208305        -5.6683
 131   0.0000      -0.041500        -1.1293
 132   0.0000      -0.029848        -0.8122
 133   0.0000      -0.016208        -0.4410
 134   0.0000      -0.009187        -0.2500
 135   0.0000      -0.005944        -0.1617

MULLIKEN ATOMIC CHARGES
-----------------------
   0 C :   -0.545241
   1 C :    0.259601
   2 O :   -0.405898
   3 C :    0.481780
   4 C :    0.040842
   5 C :    0.034106
   6 C :   -0.438587
   7 C :    0.572712
   8 O :   -0.432503
   9 N :   -0.650452
  10 C :    0.260366
  11 N :   -0.442760
  12 C :    0.216126
  13 C :    0.138939
  14 C :   -0.177518
  15 C :   -0.183008
  16 C :    0.282130
  17 O :   -0.538965
  18 C :    1.088960
  19 F :   -0.290851
  20 F :   -0.291161
  21 F :   -0.277207
  22 C :    0.374476
  23 F :   -0.307119
  24 C :   -0.275037
  25 C :   -0.407647
  26 S :    0.328136
  27 C :    0.509818
  28 O :   -0.490937
  29 N :   -0.484262
  30 C :   -0.314748
  31 C :    0.677101
  32 O :   -0.506411
  33 N :   -0.504153
  34 C :   -0.329602
  35 H :    0.176890
  36 H :    0.174616
  37 H :    0.174823
  38 H :    0.138220
  39 H :    0.226687
  40 H :    0.349970
  41 H :    0.158252
  42 H :    0.160198
  43 H :    0.147152
  44 H :    0.183153
  45 H :    0.179294
  46 H :    0.199871
  47 H :    0.188495
  48 H :    0.205635
  49 H :    0.180561
  50 H :    0.185157
Sum of atomic charges:    0.0000000

LOEWDIN ATOMIC CHARGES
----------------------
   0 C :   -0.365191
   1 C :    0.015749
   2 O :   -0.001742
   3 C :    0.091277
   4 C :   -0.105414
   5 C :   -0.038919
   6 C :   -0.237998
   7 C :    0.155869
   8 O :   -0.244205
   9 N :   -0.204197
  10 C :   -0.081312
  11 N :   -0.191460
  12 C :   -0.007434
  13 C :   -0.016247
  14 C :   -0.117950
  15 C :   -0.151997
  16 C :    0.058666
  17 O :   -0.155136
  18 C :    0.360332
  19 F :   -0.104484
  20 F :   -0.104598
  21 F :   -0.085420
  22 C :    0.107855
  23 F :   -0.095027
  24 C :   -0.147375
  25 C :   -0.350428
  26 S :    0.436014
  27 C :    0.111874
  28 O :   -0.290724
  29 N :   -0.028731
  30 C :   -0.259964
  31 C :    0.143094
  32 O :   -0.313950
  33 N :   -0.024375
  34 C :   -0.260757
  35 H :    0.142596
  36 H :    0.143850
  37 H :    0.147928
  38 H :    0.126548
  39 H :    0.180278
  40 H :    0.270945
  41 H :    0.149229
  42 H :    0.146390
  43 H :    0.146719
  44 H :    0.160937
  45 H :    0.141178
  46 H :    0.155609
  47 H :    0.148552
  48 H :    0.157692
  49 H :    0.143895
  50 H :    0.141962

  Mayer bond orders larger than 0.100000
B(  0-C ,  1-C ) :   1.0266 B(  0-C , 35-H ) :   0.9244 B(  0-C , 36-H ) :   0.9318
B(  0-C , 37-H ) :   0.9366 B(  1-C ,  2-O ) :   0.9896 B(  1-C ,  5-C ) :   1.5422
B(  2-O ,  3-C ) :   1.0668 B(  3-C ,  4-C ) :   1.3746 B(  3-C , 33-N ) :   0.9766
B(  4-C ,  5-C ) :   1.3014 B(  4-C , 27-C ) :   1.0772 B(  5-C ,  6-C ) :   0.9950
B(  6-C ,  7-C ) :   0.9519 B(  6-C , 38-H ) :   0.9193 B(  6-C , 39-H ) :   0.8884
B(  7-C ,  8-O ) :   1.8430 B(  7-C ,  9-N ) :   1.0102 B(  9-N , 10-C ) :   0.9433
B(  9-N , 40-H ) :   0.8086 B( 10-C , 11-N ) :   1.4755 B( 10-C , 25-C ) :   0.1070
B( 10-C , 26-S ) :   1.1895 B( 11-N , 12-C ) :   1.2919 B( 12-C , 13-C ) :   1.0655
B( 12-C , 25-C ) :   1.5152 B( 13-C , 14-C ) :   1.3984 B( 13-C , 24-C ) :   1.3684
B( 14-C , 15-C ) :   1.4190 B( 14-C , 41-H ) :   0.9096 B( 15-C , 16-C ) :   1.3813
B( 15-C , 42-H ) :   0.9096 B( 16-C , 17-O ) :   0.8309 B( 16-C , 22-C ) :   1.3170
B( 17-O , 18-C ) :   0.9865 B( 18-C , 19-F ) :   0.9698 B( 18-C , 20-F ) :   0.9690
B( 18-C , 21-F ) :   1.0097 B( 22-C , 23-F ) :   0.9380 B( 22-C , 24-C ) :   1.3959
B( 24-C , 43-H ) :   0.9089 B( 25-C , 26-S ) :   1.1053 B( 25-C , 44-H ) :   0.9002
B( 27-C , 28-O ) :   1.7855 B( 27-C , 29-N ) :   0.9604 B( 29-N , 30-C ) :   0.9181
B( 29-N , 31-C ) :   1.0482 B( 30-C , 45-H ) :   0.9405 B( 30-C , 46-H ) :   0.9210
B( 30-C , 47-H ) :   0.9294 B( 31-C , 32-O ) :   1.7915 B( 31-C , 33-N ) :   1.0427
B( 33-N , 34-C ) :   0.9278 B( 34-C , 48-H ) :   0.9262 B( 34-C , 49-H ) :   0.9314
B( 34-C , 50-H ) :   0.9355

FINAL SINGLE POINT ENERGY     -2201.524788591659

DIPOLE MOMENT
-------------

Method             : SCF
Type of density    : Electron Density
Multiplicity       :   1
Irrep              :   0
Energy             : -2201.5247885916587620 Eh
Relativity type    :
Basis              : AO
                                X                 Y                 Z
Electronic contribution:    -72.280761653     -11.764656651       2.663698247
Nuclear contribution   :     72.892772038      13.947991383      -2.151435259
                        -----------------------------------------
Total Dipole Moment    :      0.612010385       2.183334732       0.512262988
                        -----------------------------------------
Magnitude (a.u.)       :      2.324633440
Magnitude (Debye)      :      5.908748629

Rotational constants in cm-1:             0.009786             0.000950             0.000915
Rotational constants in MHz :           293.383016            28.472163            27.432474

                             ****ORCA TERMINATED NORMALLY****
TOTAL RUN TIME: 0 days 0 hours 6 minutes 34 seconds 624 msec
