                         Program Version 6.0.0  -   RELEASE  -
|  1> ! B3LYP 6-31G* SP
|  2>
|  3> * xyz 0 1
|  4> C 3.0830 2.6499 2.0249
|  5> N 3.8850 1.5761 1.4061
|  6> C 3.7703 1.3342 0.0651
|  7> O 2.9879 2.0499 -0.6157
|  8> C 4.5218 0.3039 -0.5503
|  9> C 4.4107 -0.0394 -1.9428
| 10> C 3.4530 0.6212 -2.9207
| 11> C 2.0371 0.1789 -2.6827
| 12> O 1.1331 1.0473 -2.5528
| 13> N 1.7112 -1.2191 -2.6628
| 14> C 0.4394 -1.7292 -2.2455
| 15> N -0.5402 -0.9722 -1.7072
| 16> C -1.6349 -1.7118 -1.3737
| 17> C -2.8305 -1.0863 -0.7523
| 18> C -4.0695 -1.7467 -0.7153
| 19> C -5.1841 -1.1432 -0.1261
| 20> C -5.0979 0.1466 0.4465
| 21> C -6.3005 0.8474 1.1122
| 22> C -7.5958 0.0009 1.0705
| 23> C -6.5886 2.1795 0.3860
| 24> C -5.9736 1.1319 2.5942
| 25> C -3.8486 0.8016 0.3971
| 26> C -2.7372 0.1977 -0.1947
| 27> C -1.5118 -3.0790 -1.6459
| 28> S 0.0067 -3.3481 -2.3189
| 29> C 5.1936 -1.0867 -2.4556
| 30> C 6.0722 -1.7860 -1.6464
| 31> C 6.1937 -1.4638 -0.3035
| 32> C 5.4300 -0.4216 0.2751
| 33> N 5.5603 -0.1061 1.6121
| 34> C 6.5228 -0.8372 2.4661
| 35> C 4.7919 0.8878 2.1635
| 36> O 4.9219 1.1786 3.3871
| 37> H 2.0911 2.7495 1.5335
| 38> H 2.8705 2.4359 3.0943
| 39> H 3.6280 3.6144 1.9469
| 40> H 3.7106 0.3582 -3.9694
| 41> H 3.5511 1.7256 -2.8835
| 42> H 2.4403 -1.9083 -2.9536
| 43> H -4.1925 -2.7264 -1.1557
| 44> H -6.1063 -1.7047 -0.1329
| 45> H -8.4363 0.5417 1.5578
| 46> H -7.4592 -0.9595 1.6133
| 47> H -7.8980 -0.2087 0.0216
| 48> H -6.7807 1.9971 -0.6934
| 49> H -7.4813 2.6803 0.8199
| 50> H -5.7373 2.8863 0.4740
| 51> H -5.7257 0.1864 3.1236
| 52> H -5.1121 1.8246 2.6966
| 53> H -6.8413 1.6019 3.1062
| 54> H -3.7233 1.7891 0.8199
| 55> H -1.7980 0.7369 -0.2040
| 56> H -2.2404 -3.8507 -1.4406
| 57> H 5.1181 -1.3770 -3.4968
| 58> H 6.6637 -2.5916 -2.0639
| 59> H 6.8941 -2.0519 0.2711
| 60> H 7.5512 -0.7251 2.0605
| 61> H 6.2465 -1.9120 2.5121
| 62> H 6.5551 -0.4690 3.5116
| 63> *
| 64>
| 65>                          ****END OF INPUT****

CARTESIAN COORDINATES (ANGSTROEM)
---------------------------------
  C      3.083000    2.649900    2.024900
  N      3.885000    1.576100    1.406100
  C      3.770300    1.334200    0.065100
  O      2.987900    2.049900   -0.615700
  C      4.521800    0.303900   -0.550300
  C      4.410700   -0.039400   -1.942800
  C      3.453000    0.621200   -2.920700
  C      2.037100    0.178900   -2.682700
  O      1.133100    1.047300   -2.552800
  N      1.711200   -1.219100   -2.662800
  C      0.439400   -1.729200   -2.245500
  N     -0.540200   -0.972200   -1.707200
  C     -1.634900   -1.711800   -1.373700
  C     -2.830500   -1.086300   -0.752300
  C     -4.069500   -1.746700   -0.715300
  C     -5.184100   -1.143200   -0.126100
  C     -5.097900    0.146600    0.446500
  C     -6.300500    0.847400    1.112200
  C     -7.595800    0.000900    1.070500
  C     -6.588600    2.179500    0.386000
  C     -5.973600    1.131900    2.594200
  C     -3.848600    0.801600    0.397100
  C     -2.737200    0.197700   -0.194700
  C     -1.511800   -3.079000   -1.645900
  S      0.006700   -3.348100   -2.318900
  C      5.193600   -1.086700   -2.455600
  C      6.072200   -1.786000   -1.646400
  C      6.193700   -1.463800   -0.303500
  C      5.430000   -0.421600    0.275100
  N      5.560300   -0.106100    1.612100
  C      6.522800   -0.837200    2.466100
  C      4.791900    0.887800    2.163500
  O      4.921900    1.178600    3.387100
  H      2.091100    2.749500    1.533500
  H      2.870500    2.435900    3.094300
  H      3.628000    3.614400    1.946900
  H      3.710600    0.358200   -3.969400
  H      3.551100    1.725600   -2.883500
  H      2.440300   -1.908300   -2.953600
  H     -4.192500   -2.726400   -1.155700
  H     -6.106300   -1.704700   -0.132900
  H     -8.436300    0.541700    1.557800
  H     -7.459200   -0.959500    1.613300
  H     -7.898000   -0.208700    0.021600
  H     -6.780700    1.997100   -0.693400
  H     -7.481300    2.680300    0.819900
  H     -5.737300    2.886300    0.474000
  H     -5.725700    0.186400    3.123600
  H     -5.112100    1.824600    2.696600
  H     -6.841300    1.601900    3.106200
  H     -3.723300    1.789100    0.819900
  H     -1.798000    0.736900   -0.204000
  H     -2.240400   -3.850700   -1.440600
  H      5.118100   -1.377000   -3.496800
  H      6.663700   -2.591600   -2.063900
  H      6.894100   -2.051900    0.271100
  H      7.551200   -0.725100    2.060500
  H      6.246500   -1.912000    2.512100
  H      6.555100   -0.469000    3.511600

 Total Charge           Charge          ....    0
 Multiplicity           Mult            ....    1
 Number of Electrons    NEL             ....  244
 Basis Dimension        Dim             ....  518

ORBITAL ENERGIES
----------------

  NO   OCC          E(Eh)            E(eV)
   0   2.0000     -88.895517     -2418.9700
   1   2.0000     -19.109054      -519.9838
   2   2.0000     -19.108250      -519.9619
   3   2.0000     -19.103861      -519.8425
   4   2.0000     -14.403250      -391.9324
   5   2.0000     -14.393474      -391.6663
   6   2.0000     -14.383798      -391.4031
   7   2.0000     -14.316001      -389.5582
   8   2.0000     -10.324246      -280.9370
   9   2.0000     -10.290616      -280.0219
  10   2.0000     -10.289928      -280.0032
  11   2.0000     -10.279036      -279.7068
  12   2.0000     -10.261504      -279.2297
  13   2.0000     -10.234804      -278.5032
  14   2.0000     -10.227955      -278.3168
  15   2.0000     -10.215266      -277.9715
  16   2.0000     -10.214656      -277.9549
  17   2.0000     -10.214094      -277.9396
  18   2.0000     -10.210350      -277.8378
  19   2.0000     -10.204704      -277.6841
  20   2.0000     -10.199831      -277.5515
  21   2.0000     -10.198851      -277.5249
  22   2.0000     -10.196560      -277.4625
  23   2.0000     -10.189396      -277.2676
  24   2.0000     -10.181380      -277.0494
  25   2.0000     -10.178809      -276.9795
  26   2.0000     -10.171496      -276.7805
  27   2.0000     -10.168570      -276.7008
  28   2.0000     -10.166246      -276.6376
  29   2.0000     -10.164876      -276.6003
  30   2.0000     -10.162473      -276.5350
  31   2.0000     -10.160879      -276.4916
  32   2.0000     -10.159984      -276.4672
  33   2.0000      -7.973495      -216.9698
  34   2.0000      -5.936544      -161.5416
  35   2.0000      -5.932494      -161.4314
  36   2.0000      -5.930276      -161.3710
  37   2.0000      -1.067141       -29.0384
  38   2.0000      -1.019844       -27.7514
  39   2.0000      -1.007524       -27.4161
  40   2.0000      -0.971028       -26.4230
  41   2.0000      -0.963151       -26.2087
  42   2.0000      -0.936901       -25.4944
  43   2.0000      -0.905017       -24.6268
  44   2.0000      -0.873533       -23.7700
  45   2.0000      -0.844162       -22.9708
  46   2.0000      -0.806962       -21.9585
  47   2.0000      -0.799882       -21.7659
  48   2.0000      -0.798242       -21.7213
  49   2.0000      -0.789544       -21.4846
  50   2.0000      -0.751856       -20.4590
  51   2.0000      -0.744711       -20.2646
  52   2.0000      -0.729768       -19.8580
  53   2.0000      -0.726997       -19.7826
  54   2.0000      -0.709902       -19.3174
  55   2.0000      -0.695873       -18.9357
  56   2.0000      -0.670486       -18.2448
  57   2.0000      -0.669408       -18.2155
  58   2.0000      -0.655643       -17.8410
  59   2.0000      -0.654558       -17.8114
  60   2.0000      -0.621960       -16.9244
  61   2.0000      -0.612252       -16.6602
  62   2.0000      -0.605472       -16.4757
  63   2.0000      -0.586907       -15.9705
  64   2.0000      -0.577876       -15.7248
  65   2.0000      -0.573336       -15.6013
  66   2.0000      -0.550931       -14.9916
  67   2.0000      -0.538398       -14.6506
  68   2.0000      -0.532313       -14.4850
  69   2.0000      -0.519259       -14.1298
  70   2.0000      -0.509879       -13.8745
  71   2.0000      -0.502349       -13.6696
  72   2.0000      -0.490831       -13.3562
  73   2.0000      -0.486023       -13.2254
  74   2.0000      -0.477426       -12.9914
  75   2.0000      -0.465978       -12.6799
  76   2.0000      -0.460810       -12.5393
  77   2.0000      -0.458711       -12.4821
  78   2.0000      -0.450791       -12.2666
  79   2.0000      -0.447478       -12.1765
  80   2.0000      -0.442272       -12.0348
  81   2.0000      -0.438530       -11.9330
  82   2.0000      -0.430468       -11.7136
  83   2.0000      -0.427371       -11.6294
  84   2.0000      -0.426225       -11.5982
  85   2.0000      -0.418274       -11.3818
  86   2.0000      -0.417393       -11.3579
  87   2.0000      -0.411321       -11.1926
  88   2.0000      -0.408889       -11.1264
  89   2.0000      -0.402420       -10.9504
  90   2.0000      -0.401257       -10.9188
  91   2.0000      -0.399586       -10.8733
  92   2.0000      -0.392915       -10.6918
  93   2.0000      -0.384919       -10.4742
  94   2.0000      -0.383979       -10.4486
  95   2.0000      -0.382630       -10.4119
  96   2.0000      -0.381190       -10.3727
  97   2.0000      -0.373974       -10.1764
  98   2.0000      -0.370756       -10.0888
  99   2.0000      -0.363721        -9.8973
 100   2.0000      -0.361765        -9.8441
 101   2.0000      -0.359328        -9.7778
 102   2.0000      -0.352967        -9.6047
 103   2.0000      -0.348450        -9.4818
 104   2.0000      -0.342046        -9.3075
 105   2.0000      -0.336834        -9.1657
 106   2.0000      -0.319362        -8.6903
 107   2.0000      -0.318733        -8.6732
 108   2.0000      -0.308604        -8.3975
 109   2.0000      -0.303225        -8.2512
 110   2.0000      -0.294066        -8.0020
 111   2.0000      -0.280174        -7.6239
 112   2.0000      -0.271977        -7.4009
 113   2.0000      -0.270942        -7.3727
 114   2.0000      -0.264952        -7.2097
 115   2.0000      -0.260986        -7.1018
 116   2.0000      -0.244496        -6.6531
 117   2.0000      -0.235253        -6.4016
 118   2.0000      -0.234611        -6.3841
 119   2.0000      -0.232609        -6.3296
 120   2.0000      -0.220481        -5.9996
 121   2.0000      -0.196175        -5.3382
 122   0.0000      -0.059979        -1.6321
 123   0.0000      -0.029839        -0.8119
 124   0.0000      -0.020818        -0.5665
 125   0.0000      -0.004199        -0.1143
 126   0.0000       0.013728         0.3736

MULLIKEN ATOMIC CHARGES
-----------------------
   0 C :   -0.315587
   1 N :   -0.463059
   2 C :    0.500140
   3 O :   -0.471543
   4 C :    0.009833
   5 C :    0.100217
   6 C :   -0.423224
   7 C :    0.582413
   8 O :   -0.411207
   9 N :   -0.664627
  10 C :    0.256003
  11 N :   -0.373807
  12 C :    0.216153
  13 C :    0.120559
  14 C :   -0.180466
  15 C :   -0.197594
  16 C :    0.168255
  17 C :    0.037494
  18 C :   -0.451047
  19 C :   -0.434653
  20 C :   -0.433962
  21 C :   -0.186056
  22 C :   -0.174129
  23 C :   -0.398729
  24 S :    0.232044
  25 C :   -0.214328
  26 C :   -0.104609
  27 C :   -0.198447
  28 C :    0.320618
  29 N :   -0.511673
  30 C :   -0.336461
  31 C :    0.672327
  32 O :   -0.510113
  33 H :    0.202528
  34 H :    0.194268
  35 H :    0.176511
  36 H :    0.159105
  37 H :    0.220624
  38 H :    0.337270
  39 H :    0.117493
  40 H :    0.122821
  41 H :    0.137516
  42 H :    0.139296
  43 H :    0.140835
  44 H :    0.144963
  45 H :    0.133151
  46 H :    0.140765
  47 H :    0.142552
  48 H :    0.139530
  49 H :    0.133688
  50 H :    0.125510
  51 H :    0.167507
  52 H :    0.177760
  53 H :    0.131163
  54 H :    0.143571
  55 H :    0.142520
  56 H :    0.171042
  57 H :    0.171950
  58 H :    0.225326
Sum of atomic charges:    0.0000000

LOEWDIN ATOMIC CHARGES
----------------------
   0 C :   -0.258481
   1 N :   -0.020052
   2 C :    0.110793
   3 O :   -0.265996
   4 C :   -0.071367
   5 C :    0.030537
   6 C :   -0.238386
   7 C :    0.153087
   8 O :   -0.222968
   9 N :   -0.212829
  10 C :   -0.081618
  11 N :   -0.152334
  12 C :    0.001058
  13 C :   -0.024348
  14 C :   -0.127330
  15 C :   -0.142447
  16 C :   -0.002077
  17 C :   -0.035323
  18 C :   -0.347986
  19 C :   -0.342561
  20 C :   -0.342343
  21 C :   -0.131240
  22 C :   -0.111096
  23 C :   -0.354968
  24 S :    0.374585
  25 C :   -0.163661
  26 C :   -0.102073
  27 C :   -0.165581
  28 C :    0.055390
  29 N :   -0.027564
  30 C :   -0.265483
  31 C :    0.137090
  32 O :   -0.318755
  33 H :    0.156053
  34 H :    0.152137
  35 H :    0.140277
  36 H :    0.138262
  37 H :    0.175065
  38 H :    0.261211
  39 H :    0.126994
  40 H :    0.131760
  41 H :    0.122570
  42 H :    0.120849
  43 H :    0.121693
  44 H :    0.125195
  45 H :    0.118680
  46 H :    0.121300
  47 H :    0.123922
  48 H :    0.120748
  49 H :    0.118890
  50 H :    0.129607
  51 H :    0.151395
  52 H :    0.158553
  53 H :    0.131883
  54 H :    0.139830
  55 H :    0.140975
  56 H :    0.134853
  57 H :    0.134996
  58 H :    0.168629

  Mayer bond orders larger than 0.100000
B(  0-C ,  1-N ) :   0.9165 B(  0-C , 33-H ) :   0.9225 B(  0-C , 34-H ) :   0.9256
B(  0-C , 35-H ) :   0.9409 B(  1-N ,  2-C ) :   0.9911 B(  1-N , 31-C ) :   1.0459
B(  2-C ,  3-O ) :   1.7710 B(  2-C ,  4-C ) :   1.0519 B(  4-C ,  5-C ) :   1.3665
B(  4-C , 28-C ) :   1.2887 B(  5-C ,  6-C ) :   0.9775 B(  5-C , 25-C ) :   1.4198
B(  6-C ,  7-C ) :   0.9542 B(  6-C , 36-H ) :   0.9137 B(  6-C , 37-H ) :   0.8946
B(  7-C ,  8-O ) :   1.8977 B(  7-C ,  9-N ) :   0.9694 B(  9-N , 10-C ) :   0.9523
B(  9-N , 38-H ) :   0.8158 B( 10-C , 11-N ) :   1.5130 B( 10-C , 23-C ) :   0.1107
B( 10-C , 24-S ) :   1.1369 B( 11-N , 12-C ) :   1.2641 B( 12-C , 13-C ) :   1.0462
B( 12-C , 23-C ) :   1.5135 B( 13-C , 14-C ) :   1.4113 B( 13-C , 22-C ) :   1.3983
B( 14-C , 15-C ) :   1.4192 B( 14-C , 39-H ) :   0.9212 B( 15-C , 16-C ) :   1.4261
B( 15-C , 40-H ) :   0.9185 B( 16-C , 17-C ) :   0.9721 B( 16-C , 21-C ) :   1.3918
B( 17-C , 18-C ) :   0.9992 B( 17-C , 19-C ) :   0.9906 B( 17-C , 20-C ) :   0.9906
B( 18-C , 41-H ) :   0.9435 B( 18-C , 42-H ) :   0.9411 B( 18-C , 43-H ) :   0.9412
B( 19-C , 44-H ) :   0.9469 B( 19-C , 45-H ) :   0.9433 B( 19-C , 46-H ) :   0.9422
B( 20-C , 47-H ) :   0.9472 B( 20-C , 48-H ) :   0.9426 B( 20-C , 49-H ) :   0.9433
B( 21-C , 22-C ) :   1.4206 B( 21-C , 50-H ) :   0.9230 B( 22-C , 51-H ) :   0.9100
B( 23-C , 24-S ) :   1.1061 B( 23-C , 52-H ) :   0.9028 B( 25-C , 26-C ) :   1.4033
B( 25-C , 53-H ) :   0.9244 B( 26-C , 27-C ) :   1.4735 B( 26-C , 54-H ) :   0.9259
B( 27-C , 28-C ) :   1.3406 B( 27-C , 55-H ) :   0.9141 B( 28-C , 29-N ) :   0.9744
B( 29-N , 30-C ) :   0.9349 B( 29-N , 31-C ) :   1.0392 B( 30-C , 56-H ) :   0.9319
B( 30-C , 57-H ) :   0.9322 B( 30-C , 58-H ) :   0.9134 B( 31-C , 32-O ) :   1.7853

FINAL SINGLE POINT ENERGY     -1810.279358168863

DIPOLE MOMENT
-------------

Method             : SCF
Type of density    : Electron Density
Multiplicity       :   1
Irrep              :   0
Energy             : -1810.2793581688629274 Eh
Relativity type    :
Basis              : AO
                                X                 Y                 Z
Electronic contribution:     38.418722123     -11.925630868     -18.170546294
Nuclear contribution   :    -36.585625496       9.930893853      17.961368595
                        -----------------------------------------
Total Dipole Moment    :      1.833096626      -1.994737015      -0.209177699
                        -----------------------------------------
Magnitude (a.u.)       :      2.717162915
Magnitude (Debye)      :      6.906479264

Rotational constants in cm-1:             0.006293             0.001829             0.001587
Rotational constants in MHz :           188.673908            54.840343            47.567729

                             ****ORCA TERMINATED NORMALLY****
TOTAL RUN TIME: 0 days 0 hours 5 minutes 29 seconds 959 msec
