                         Program Version 6.0.0  -   RELEASE  -
|  1> ! B3LYP 6-31G* SP
|  2>
|  3> * xyz 0 1
|  4> C 7.0678 -0.8370 1.2641
|  5> C 6.3629 -1.8246 0.3406
|  6> N 5.2151 -1.1880 -0.3041
|  7> N 5.2638 -0.6195 -1.5055
|  8> C 4.0438 -0.0951 -1.7788
|  9> C 3.2166 -0.3406 -0.7035
| 10> C 1.8845 -0.0190 -0.4652
| 11> C 1.3158 -0.4189 0.7723
| 12> C -0.1218 -0.1262 1.1529
| 13> N -0.9095 0.4891 0.0769
| 14> C -0.9228 1.9250 -0.0593
| 15> N 0.2518 2.6070 0.0378
| 16> C 0.3280 3.9572 -0.0838
| 17> C -0.8285 4.7106 -0.3243
| 18> C -0.7592 6.2141 -0.4090
| 19> F 0.4215 6.6105 -1.0127
| 20> F -1.8144 6.7138 -1.1524
| 21> F -0.8146 6.7453 0.8656
| 22> C -2.0592 4.0416 -0.3732
| 23> C -2.1187 2.6503 -0.2459
| 24> Cl -3.7044 1.8930 -0.2335
| 25> S -1.5640 -0.5363 -1.1752
| 26> O -0.5305 -1.5509 -1.5773
| 27> O -1.9078 0.3006 -2.3763
| 28> C -3.0084 -1.3911 -0.6324
| 29> C -3.7017 -2.2056 -1.5352
| 30> C -4.8415 -2.9045 -1.1269
| 31> C -5.3058 -2.7992 0.1949
| 32> C -6.5110 -3.5415 0.6254
| 33> O -6.9374 -3.4367 1.8073
| 34> O -7.1866 -4.3652 -0.2720
| 35> C -4.6073 -1.9786 1.0982
| 36> C -3.4674 -1.2818 0.6876
| 37> C 2.1219 -1.1156 1.7137
| 38> C 3.4658 -1.4238 1.4336
| 39> C 3.9784 -1.0189 0.2024
| 40> H 7.4229 0.0412 0.6826
| 41> H 7.9416 -1.3304 1.7412
| 42> H 6.3739 -0.4913 2.0599
| 43> H 7.0780 -2.1755 -0.4351
| 44> H 6.0311 -2.7131 0.9214
| 45> H 3.7872 0.4287 -2.6907
| 46> H 1.3208 0.5115 -1.2205
| 47> H -0.1311 0.5365 2.0464
| 48> H -0.6037 -1.0803 1.4565
| 49> H 1.2922 4.4397 0.0082
| 50> H -2.9787 4.6008 -0.4973
| 51> H -3.3572 -2.3020 -2.5572
| 52> H -5.3572 -3.5269 -1.8470
| 53> H -8.0122 -4.8789 0.0132
| 54> H -4.9413 -1.8744 2.1228
| 55> H -2.9579 -0.6491 1.4003
| 56> H 1.7031 -1.4210 2.6651
| 57> H 4.0732 -1.9549 2.1551
| 58> *
| 59>
| 60>                          ****END OF INPUT****

CARTESIAN COORDINATES (ANGSTROEM)
---------------------------------
  C      7.067800   -0.837000    1.264100
  C      6.362900   -1.824600    0.340600
  N      5.215100   -1.188000   -0.304100
  N      5.263800   -0.619500   -1.505500
  C      4.043800   -0.095100   -1.778800
  C      3.216600   -0.340600   -0.703500
  C      1.884500   -0.019000   -0.465200
  C      1.315800   -0.418900    0.772300
  C     -0.121800   -0.126200    1.152900
  N     -0.909500    0.489100    0.076900
  C     -0.922800    1.925000   -0.059300
  N      0.251800    2.607000    0.037800
  C      0.328000    3.957200   -0.083800
  C     -0.828500    4.710600   -0.324300
  C     -0.759200    6.214100   -0.409000
  F      0.421500    6.610500   -1.012700
  F     -1.814400    6.713800   -1.152400
  F     -0.814600    6.745300    0.865600
  C     -2.059200    4.041600   -0.373200
  C     -2.118700    2.650300   -0.245900
  Cl    -3.704400    1.893000   -0.233500
  S     -1.564000   -0.536300   -1.175200
  O     -0.530500   -1.550900   -1.577300
  O     -1.907800    0.300600   -2.376300
  C     -3.008400   -1.391100   -0.632400
  C     -3.701700   -2.205600   -1.535200
  C     -4.841500   -2.904500   -1.126900
  C     -5.305800   -2.799200    0.194900
  C     -6.511000   -3.541500    0.625400
  O     -6.937400   -3.436700    1.807300
  O     -7.186600   -4.365200   -0.272000
  C     -4.607300   -1.978600    1.098200
  C     -3.467400   -1.281800    0.687600
  C      2.121900   -1.115600    1.713700
  C      3.465800   -1.423800    1.433600
  C      3.978400   -1.018900    0.202400
  H      7.422900    0.041200    0.682600
  H      7.941600   -1.330400    1.741200
  H      6.373900   -0.491300    2.059900
  H      7.078000   -2.175500   -0.435100
  H      6.031100   -2.713100    0.921400
  H      3.787200    0.428700   -2.690700
  H      1.320800    0.511500   -1.220500
  H     -0.131100    0.536500    2.046400
  H     -0.603700   -1.080300    1.456500
  H      1.292200    4.439700    0.008200
  H     -2.978700    4.600800   -0.497300
  H     -3.357200   -2.302000   -2.557200
  H     -5.357200   -3.526900   -1.847000
  H     -8.012200   -4.878900    0.013200
  H     -4.941300   -1.874400    2.122800
  H     -2.957900   -0.649100    1.400300
  H      1.703100   -1.421000    2.665100
  H      4.073200   -1.954900    2.155100

 Total Charge           Charge          ....    0
 Multiplicity           Mult            ....    1
 Number of Electrons    NEL             ....  276
 Basis Dimension        Dim             ....  548

ORBITAL ENERGIES
----------------

  NO   OCC          E(Eh)            E(eV)
   0   2.0000    -101.550196     -2763.3213
   1   2.0000     -89.111815     -2424.8558
   2   2.0000     -24.733119      -673.0224
   3   2.0000     -24.732668      -673.0101
   4   2.0000     -24.729823      -672.9327
   5   2.0000     -19.199526      -522.4457
   6   2.0000     -19.141720      -520.8727
   7   2.0000     -19.137138      -520.7480
   8   2.0000     -19.136393      -520.7277
   9   2.0000     -14.399121      -391.8200
  10   2.0000     -14.390272      -391.5792
  11   2.0000     -14.363519      -390.8512
  12   2.0000     -14.336725      -390.1221
  13   2.0000     -10.451218      -284.3921
  14   2.0000     -10.339186      -281.3435
  15   2.0000     -10.304730      -280.4060
  16   2.0000     -10.280217      -279.7389
  17   2.0000     -10.256160      -279.0843
  18   2.0000     -10.252977      -278.9977
  19   2.0000     -10.244218      -278.7594
  20   2.0000     -10.239112      -278.6204
  21   2.0000     -10.237338      -278.5721
  22   2.0000     -10.236280      -278.5433
  23   2.0000     -10.227959      -278.3169
  24   2.0000     -10.227857      -278.3141
  25   2.0000     -10.226438      -278.2755
  26   2.0000     -10.223142      -278.1858
  27   2.0000     -10.222614      -278.1715
  28   2.0000     -10.198139      -277.5055
  29   2.0000     -10.185304      -277.1562
  30   2.0000     -10.182337      -277.0755
  31   2.0000     -10.180738      -277.0320
  32   2.0000     -10.179866      -277.0082
  33   2.0000     -10.179333      -276.9937
  34   2.0000     -10.173770      -276.8423
  35   2.0000     -10.159372      -276.4506
  36   2.0000      -9.481630      -258.0083
  37   2.0000      -8.147578      -221.7069
  38   2.0000      -7.244893      -197.1436
  39   2.0000      -7.235158      -196.8787
  40   2.0000      -7.234793      -196.8687
  41   2.0000      -6.113201      -166.3487
  42   2.0000      -6.110300      -166.2697
  43   2.0000      -6.109887      -166.2585
  44   2.0000      -1.292968       -35.1835
  45   2.0000      -1.218089       -33.1459
  46   2.0000      -1.217177       -33.1211
  47   2.0000      -1.096086       -29.8260
  48   2.0000      -1.084160       -29.5015
  49   2.0000      -1.045950       -28.4617
  50   2.0000      -0.998612       -27.1736
  51   2.0000      -0.990071       -26.9412
  52   2.0000      -0.973271       -26.4840
  53   2.0000      -0.935239       -25.4492
  54   2.0000      -0.897099       -24.4113
  55   2.0000      -0.892823       -24.2950
  56   2.0000      -0.848927       -23.1005
  57   2.0000      -0.838728       -22.8230
  58   2.0000      -0.836619       -22.7656
  59   2.0000      -0.814382       -22.1605
  60   2.0000      -0.786672       -21.4064
  61   2.0000      -0.782862       -21.3028
  62   2.0000      -0.771242       -20.9866
  63   2.0000      -0.751824       -20.4582
  64   2.0000      -0.732037       -19.9197
  65   2.0000      -0.730447       -19.8765
  66   2.0000      -0.710823       -19.3425
  67   2.0000      -0.694054       -18.8862
  68   2.0000      -0.666784       -18.1441
  69   2.0000      -0.657459       -17.8904
  70   2.0000      -0.649222       -17.6662
  71   2.0000      -0.640180       -17.4202
  72   2.0000      -0.632944       -17.2233
  73   2.0000      -0.616384       -16.7727
  74   2.0000      -0.603727       -16.4282
  75   2.0000      -0.589317       -16.0361
  76   2.0000      -0.584604       -15.9079
  77   2.0000      -0.583755       -15.8848
  78   2.0000      -0.572564       -15.5803
  79   2.0000      -0.571016       -15.5381
  80   2.0000      -0.568103       -15.4589
  81   2.0000      -0.550902       -14.9908
  82   2.0000      -0.532510       -14.4903
  83   2.0000      -0.519794       -14.1443
  84   2.0000      -0.517296       -14.0763
  85   2.0000      -0.495871       -13.4933
  86   2.0000      -0.490192       -13.3388
  87   2.0000      -0.485973       -13.2240
  88   2.0000      -0.480557       -13.0766
  89   2.0000      -0.474918       -12.9232
  90   2.0000      -0.467042       -12.7089
  91   2.0000      -0.464518       -12.6402
  92   2.0000      -0.462958       -12.5977
  93   2.0000      -0.461018       -12.5449
  94   2.0000      -0.459374       -12.5002
  95   2.0000      -0.454937       -12.3795
  96   2.0000      -0.454686       -12.3726
  97   2.0000      -0.449152       -12.2220
  98   2.0000      -0.444854       -12.1051
  99   2.0000      -0.441825       -12.0227
 100   2.0000      -0.438755       -11.9391
 101   2.0000      -0.435754       -11.8575
 102   2.0000      -0.432995       -11.7824
 103   2.0000      -0.429711       -11.6930
 104   2.0000      -0.428634       -11.6637
 105   2.0000      -0.424624       -11.5546
 106   2.0000      -0.423451       -11.5227
 107   2.0000      -0.417161       -11.3515
 108   2.0000      -0.410449       -11.1689
 109   2.0000      -0.406758       -11.0684
 110   2.0000      -0.396570       -10.7912
 111   2.0000      -0.395096       -10.7511
 112   2.0000      -0.391533       -10.6541
 113   2.0000      -0.386801       -10.5254
 114   2.0000      -0.379403       -10.3241
 115   2.0000      -0.374186       -10.1821
 116   2.0000      -0.370884       -10.0923
 117   2.0000      -0.368336       -10.0229
 118   2.0000      -0.355378        -9.6703
 119   2.0000      -0.343115        -9.3366
 120   2.0000      -0.340781        -9.2731
 121   2.0000      -0.336847        -9.1661
 122   2.0000      -0.326474        -8.8838
 123   2.0000      -0.323365        -8.7992
 124   2.0000      -0.321651        -8.7526
 125   2.0000      -0.311533        -8.4772
 126   2.0000      -0.310615        -8.4523
 127   2.0000      -0.294514        -8.0141
 128   2.0000      -0.289103        -7.8669
 129   2.0000      -0.285613        -7.7719
 130   2.0000      -0.283560        -7.7161
 131   2.0000      -0.278390        -7.5754
 132   2.0000      -0.270174        -7.3518
 133   2.0000      -0.269200        -7.3253
 134   2.0000      -0.266953        -7.2642
 135   2.0000      -0.258517        -7.0346
 136   2.0000      -0.225635        -6.1398
 137   2.0000      -0.196527        -5.3478
 138   0.0000      -0.086247        -2.3469
 139   0.0000      -0.064200        -1.7470
 140   0.0000      -0.052811        -1.4371
 141   0.0000      -0.036181        -0.9845
 142   0.0000      -0.016254        -0.4423

MULLIKEN ATOMIC CHARGES
-----------------------
   0 C :   -0.440753
   1 C :   -0.147365
   2 N :   -0.320791
   3 N :   -0.262407
   4 C :   -0.045036
   5 C :    0.051699
   6 C :   -0.168733
   7 C :    0.135924
   8 C :   -0.224850
   9 N :   -0.651312
  10 C :    0.440684
  11 N :   -0.387038
  12 C :   -0.000479
  13 C :   -0.029005
  14 C :    0.902924
  15 F :   -0.300088
  16 F :   -0.300800
  17 F :   -0.291997
  18 C :   -0.129678
  19 C :   -0.091093
  20 Cl:    0.025775
  21 S :    1.229389
  22 O :   -0.515145
  23 O :   -0.542331
  24 C :   -0.099202
  25 C :   -0.140756
  26 C :   -0.148367
  27 C :    0.082715
  28 C :    0.529150
  29 O :   -0.444380
  30 O :   -0.623087
  31 C :   -0.138287
  32 C :   -0.153409
  33 C :   -0.192829
  34 C :   -0.171461
  35 C :    0.346928
  36 H :    0.170435
  37 H :    0.145112
  38 H :    0.155556
  39 H :    0.177836
  40 H :    0.157375
  41 H :    0.147144
  42 H :    0.147419
  43 H :    0.179744
  44 H :    0.169562
  45 H :    0.184939
  46 H :    0.189142
  47 H :    0.190265
  48 H :    0.177988
  49 H :    0.435382
  50 H :    0.179973
  51 H :    0.170362
  52 H :    0.112745
  53 H :    0.124512
Sum of atomic charges:    0.0000000

LOEWDIN ATOMIC CHARGES
----------------------
   0 C :   -0.365014
   1 C :   -0.150654
   2 N :    0.046168
   3 N :   -0.120295
   4 C :   -0.128794
   5 C :   -0.060976
   6 C :   -0.094052
   7 C :   -0.045928
   8 C :   -0.147248
   9 N :   -0.278408
  10 C :    0.072438
  11 N :   -0.114188
  12 C :   -0.045114
  13 C :   -0.082408
  14 C :    0.312322
  15 F :   -0.108251
  16 F :   -0.109203
  17 F :   -0.109613
  18 C :   -0.088445
  19 C :   -0.095311
  20 Cl:    0.067581
  21 S :    1.260558
  22 O :   -0.547351
  23 O :   -0.564309
  24 C :   -0.157691
  25 C :   -0.091512
  26 C :   -0.095413
  27 C :   -0.039681
  28 C :    0.180428
  29 O :   -0.260500
  30 O :   -0.333973
  31 C :   -0.086587
  32 C :   -0.118413
  33 C :   -0.138737
  34 C :   -0.155329
  35 C :    0.001227
  36 H :    0.137094
  37 H :    0.127573
  38 H :    0.128693
  39 H :    0.144652
  40 H :    0.130681
  41 H :    0.140148
  42 H :    0.144043
  43 H :    0.145734
  44 H :    0.138961
  45 H :    0.153285
  46 H :    0.163339
  47 H :    0.163444
  48 H :    0.157817
  49 H :    0.350722
  50 H :    0.160203
  51 H :    0.150643
  52 H :    0.125558
  53 H :    0.130086

  Mayer bond orders larger than 0.100000
B(  0-C ,  1-C ) :   1.0036 B(  0-C , 36-H ) :   0.9462 B(  0-C , 37-H ) :   0.9442
B(  0-C , 38-H ) :   0.9468 B(  1-C ,  2-N ) :   0.9451 B(  1-C , 39-H ) :   0.9303
B(  1-C , 40-H ) :   0.9308 B(  2-N ,  3-N ) :   1.2221 B(  2-N , 35-C ) :   0.9761
B(  3-N ,  4-C ) :   1.4795 B(  4-C ,  5-C ) :   1.2653 B(  4-C , 41-H ) :   0.9325
B(  5-C ,  6-C ) :   1.3238 B(  5-C , 35-C ) :   1.3101 B(  6-C ,  7-C ) :   1.4748
B(  6-C , 34-C ) :   0.1043 B(  6-C , 42-H ) :   0.9028 B(  7-C ,  8-C ) :   0.9550
B(  7-C , 33-C ) :   1.3338 B(  8-C ,  9-N ) :   0.9111 B(  8-C , 43-H ) :   0.9151
B(  8-C , 44-H ) :   0.9155 B(  9-N , 10-C ) :   0.9267 B(  9-N , 21-S ) :   0.7540
B( 10-C , 11-N ) :   1.3914 B( 10-C , 19-C ) :   1.3263 B( 11-N , 12-C ) :   1.4065
B( 12-C , 13-C ) :   1.3619 B( 12-C , 45-H ) :   0.9171 B( 13-C , 14-C ) :   0.9739
B( 13-C , 18-C ) :   1.4050 B( 14-C , 15-F ) :   0.9519 B( 14-C , 16-F ) :   0.9505
B( 14-C , 17-F ) :   0.9896 B( 18-C , 19-C ) :   1.4057 B( 18-C , 46-H ) :   0.9076
B( 19-C , 20-Cl) :   1.0424 B( 21-S , 22-O ) :   1.6730 B( 21-S , 23-O ) :   1.6296
B( 21-S , 24-C ) :   0.8115 B( 24-C , 25-C ) :   1.4151 B( 24-C , 32-C ) :   1.3738
B( 25-C , 26-C ) :   1.4237 B( 25-C , 47-H ) :   0.9104 B( 26-C , 27-C ) :   1.3808
B( 26-C , 48-H ) :   0.9129 B( 27-C , 28-C ) :   1.0075 B( 27-C , 31-C ) :   1.4083
B( 28-C , 29-O ) :   1.8627 B( 28-C , 30-O ) :   1.0263 B( 30-O , 49-H ) :   0.7410
B( 31-C , 32-C ) :   1.4263 B( 31-C , 50-H ) :   0.9087 B( 32-C , 51-H ) :   0.9123
B( 33-C , 34-C ) :   1.4876 B( 33-C , 52-H ) :   0.9286 B( 34-C , 35-C ) :   1.3311
B( 34-C , 53-H ) :   0.9181

FINAL SINGLE POINT ENERGY     -2563.899406977330

DIPOLE MOMENT
-------------

Method             : SCF
Type of density    : Electron Density
Multiplicity       :   1
Irrep              :   0
Energy             : -2563.8994069773302726 Eh
Relativity type    :
Basis              : AO
                                X                 Y                 Z
Electronic contribution:    -34.348049103      40.516423591      -9.995091718
Nuclear contribution   :     33.573592652     -41.190015632      11.508312071
                        -----------------------------------------
Total Dipole Moment    :     -0.774456451      -0.673592041       1.513220353
                        -----------------------------------------
Magnitude (a.u.)       :      1.828481575
Magnitude (Debye)      :      4.647630809

Rotational constants in cm-1:             0.003093             0.002141             0.001383
Rotational constants in MHz :            92.735956            64.200202            41.469891

                             ****ORCA TERMINATED NORMALLY****
TOTAL RUN TIME: 0 days 0 hours 6 minutes 56 seconds 764 msec
