                         Program Version 6.0.0  -   RELEASE  -
|  1> ! B3LYP 6-31G* SP
|  2>
|  3> * xyz 0 1
|  4> O 0.9000 0.9338 0.8352
|  5> C 1.0167 -0.2861 0.5327
|  6> N 2.2286 -0.9829 0.8742
|  7> C 3.3012 -0.3361 1.6406
|  8> C 3.9962 0.7169 0.7996
|  9> C 4.3549 0.4561 -0.5370
| 10> C 5.0103 1.4304 -1.2957
| 11> C 5.3207 2.6686 -0.7285
| 12> C 4.9785 2.9342 0.5997
| 13> C 4.3228 1.9633 1.3628
| 14> C 4.3097 -1.3754 2.1595
| 15> F 5.2818 -0.7504 2.9211
| 16> F 4.9192 -2.0381 1.1081
| 17> F 3.6558 -2.3016 2.9525
| 18> N -0.0600 -0.9540 -0.1651
| 19> C -0.0878 -2.4287 -0.2092
| 20> C -1.4697 -2.9877 -0.5565
| 21> C -2.0349 -2.2955 -1.7564
| 22> C -2.8079 -3.0051 -2.6893
| 23> C -3.3559 -2.3473 -3.7927
| 24> C -3.1456 -0.9782 -3.9655
| 25> C -2.3916 -0.2623 -3.0322
| 26> C -1.8329 -0.9139 -1.9179
| 27> C -1.0528 -0.1239 -0.8871
| 28> C -2.0059 0.5717 0.0701
| 29> C -2.3926 -0.0155 1.2889
| 30> C -3.2948 0.6336 2.1361
| 31> C -3.8488 1.8723 1.7738
| 32> C -4.7864 2.5974 2.7061
| 33> F -4.0563 3.4504 3.5129
| 34> F -5.7099 3.3364 1.9867
| 35> F -5.4770 1.7021 3.5052
| 36> C -3.4459 2.4710 0.5694
| 37> C -2.5420 1.8234 -0.2767
| 38> H 2.3779 -1.9557 0.5253
| 39> H 2.8423 0.1429 2.5349
| 40> H 4.1259 -0.4991 -0.9922
| 41> H 5.2797 1.2241 -2.3235
| 42> H 5.8293 3.4211 -1.3173
| 43> H 5.2235 3.8924 1.0393
| 44> H 4.0699 2.1843 2.3924
| 45> H 0.6496 -2.7824 -0.9622
| 46> H 0.1969 -2.8400 0.7838
| 47> H -1.3720 -4.0794 -0.7444
| 48> H -2.1652 -2.8559 0.2976
| 49> H -2.9853 -4.0659 -2.5630
| 50> H -3.9466 -2.8988 -4.5127
| 51> H -3.5723 -0.4697 -4.8204
| 52> H -2.2448 0.8002 -3.1779
| 53> H -0.4827 0.6539 -1.4455
| 54> H -1.9838 -0.9646 1.6030
| 55> H -3.5563 0.1667 3.0773
| 56> H -3.8289 3.4424 0.2828
| 57> H -2.2547 2.3049 -1.2027
| 58> *
| 59>
| 60>                          ****END OF INPUT****

CARTESIAN COORDINATES (ANGSTROEM)
---------------------------------
  O      0.900000    0.933800    0.835200
  C      1.016700   -0.286100    0.532700
  N      2.228600   -0.982900    0.874200
  C      3.301200   -0.336100    1.640600
  C      3.996200    0.716900    0.799600
  C      4.354900    0.456100   -0.537000
  C      5.010300    1.430400   -1.295700
  C      5.320700    2.668600   -0.728500
  C      4.978500    2.934200    0.599700
  C      4.322800    1.963300    1.362800
  C      4.309700   -1.375400    2.159500
  F      5.281800   -0.750400    2.921100
  F      4.919200   -2.038100    1.108100
  F      3.655800   -2.301600    2.952500
  N     -0.060000   -0.954000   -0.165100
  C     -0.087800   -2.428700   -0.209200
  C     -1.469700   -2.987700   -0.556500
  C     -2.034900   -2.295500   -1.756400
  C     -2.807900   -3.005100   -2.689300
  C     -3.355900   -2.347300   -3.792700
  C     -3.145600   -0.978200   -3.965500
  C     -2.391600   -0.262300   -3.032200
  C     -1.832900   -0.913900   -1.917900
  C     -1.052800   -0.123900   -0.887100
  C     -2.005900    0.571700    0.070100
  C     -2.392600   -0.015500    1.288900
  C     -3.294800    0.633600    2.136100
  C     -3.848800    1.872300    1.773800
  C     -4.786400    2.597400    2.706100
  F     -4.056300    3.450400    3.512900
  F     -5.709900    3.336400    1.986700
  F     -5.477000    1.702100    3.505200
  C     -3.445900    2.471000    0.569400
  C     -2.542000    1.823400   -0.276700
  H      2.377900   -1.955700    0.525300
  H      2.842300    0.142900    2.534900
  H      4.125900   -0.499100   -0.992200
  H      5.279700    1.224100   -2.323500
  H      5.829300    3.421100   -1.317300
  H      5.223500    3.892400    1.039300
  H      4.069900    2.184300    2.392400
  H      0.649600   -2.782400   -0.962200
  H      0.196900   -2.840000    0.783800
  H     -1.372000   -4.079400   -0.744400
  H     -2.165200   -2.855900    0.297600
  H     -2.985300   -4.065900   -2.563000
  H     -3.946600   -2.898800   -4.512700
  H     -3.572300   -0.469700   -4.820400
  H     -2.244800    0.800200   -3.177900
  H     -0.482700    0.653900   -1.445500
  H     -1.983800   -0.964600    1.603000
  H     -3.556300    0.166700    3.077300
  H     -3.828900    3.442400    0.282800
  H     -2.254700    2.304900   -1.202700

 Total Charge           Charge          ....    0
 Multiplicity           Mult            ....    1
 Number of Electrons    NEL             ....  246
 Basis Dimension        Dim             ....  516

ORBITAL ENERGIES
----------------

  NO   OCC          E(Eh)            E(eV)
   0   2.0000     -24.731137      -672.9685
   1   2.0000     -24.727135      -672.8595
   2   2.0000     -24.726861      -672.8521
   3   2.0000     -24.710107      -672.3962
   4   2.0000     -24.709238      -672.3726
   5   2.0000     -24.704790      -672.2515
   6   2.0000     -19.104113      -519.8494
   7   2.0000     -14.367454      -390.9583
   8   2.0000     -14.361275      -390.7902
   9   2.0000     -10.443474      -284.1814
  10   2.0000     -10.423987      -283.6511
  11   2.0000     -10.319518      -280.8084
  12   2.0000     -10.255495      -279.0662
  13   2.0000     -10.239542      -278.6321
  14   2.0000     -10.234773      -278.5023
  15   2.0000     -10.202811      -277.6326
  16   2.0000     -10.202261      -277.6176
  17   2.0000     -10.201090      -277.5858
  18   2.0000     -10.199551      -277.5439
  19   2.0000     -10.199082      -277.5311
  20   2.0000     -10.194389      -277.4034
  21   2.0000     -10.192293      -277.3464
  22   2.0000     -10.192146      -277.3424
  23   2.0000     -10.191600      -277.3275
  24   2.0000     -10.189446      -277.2689
  25   2.0000     -10.188449      -277.2418
  26   2.0000     -10.187930      -277.2277
  27   2.0000     -10.186743      -277.1954
  28   2.0000     -10.186383      -277.1856
  29   2.0000     -10.183259      -277.1006
  30   2.0000     -10.182037      -277.0673
  31   2.0000     -10.181413      -277.0503
  32   2.0000     -10.180383      -277.0223
  33   2.0000     -10.179872      -277.0084
  34   2.0000      -1.288439       -35.0602
  35   2.0000      -1.269023       -34.5319
  36   2.0000      -1.215067       -33.0637
  37   2.0000      -1.211984       -32.9798
  38   2.0000      -1.195123       -32.5209
  39   2.0000      -1.192930       -32.4613
  40   2.0000      -1.020907       -27.7803
  41   2.0000      -0.932239       -25.3675
  42   2.0000      -0.920239       -25.0410
  43   2.0000      -0.863687       -23.5021
  44   2.0000      -0.859764       -23.3954
  45   2.0000      -0.848062       -23.0769
  46   2.0000      -0.805368       -21.9152
  47   2.0000      -0.793718       -21.5982
  48   2.0000      -0.778479       -21.1835
  49   2.0000      -0.759971       -20.6799
  50   2.0000      -0.749358       -20.3911
  51   2.0000      -0.741086       -20.1660
  52   2.0000      -0.738246       -20.0887
  53   2.0000      -0.729102       -19.8399
  54   2.0000      -0.697805       -18.9882
  55   2.0000      -0.669674       -18.2228
  56   2.0000      -0.655853       -17.8467
  57   2.0000      -0.648822       -17.6553
  58   2.0000      -0.620959       -16.8972
  59   2.0000      -0.610230       -16.6052
  60   2.0000      -0.609133       -16.5753
  61   2.0000      -0.601914       -16.3789
  62   2.0000      -0.597329       -16.2541
  63   2.0000      -0.587901       -15.9976
  64   2.0000      -0.577954       -15.7269
  65   2.0000      -0.574108       -15.6223
  66   2.0000      -0.564668       -15.3654
  67   2.0000      -0.559729       -15.2310
  68   2.0000      -0.557395       -15.1675
  69   2.0000      -0.551131       -14.9970
  70   2.0000      -0.544889       -14.8272
  71   2.0000      -0.528321       -14.3763
  72   2.0000      -0.517213       -14.0741
  73   2.0000      -0.505514       -13.7557
  74   2.0000      -0.500266       -13.6129
  75   2.0000      -0.478278       -13.0146
  76   2.0000      -0.476069       -12.9545
  77   2.0000      -0.471332       -12.8256
  78   2.0000      -0.467528       -12.7221
  79   2.0000      -0.461568       -12.5599
  80   2.0000      -0.456141       -12.4122
  81   2.0000      -0.454807       -12.3759
  82   2.0000      -0.454488       -12.3672
  83   2.0000      -0.445171       -12.1137
  84   2.0000      -0.438305       -11.9269
  85   2.0000      -0.437929       -11.9166
  86   2.0000      -0.434832       -11.8324
  87   2.0000      -0.432009       -11.7556
  88   2.0000      -0.429143       -11.6776
  89   2.0000      -0.426751       -11.6125
  90   2.0000      -0.422040       -11.4843
  91   2.0000      -0.419560       -11.4168
  92   2.0000      -0.416994       -11.3470
  93   2.0000      -0.415622       -11.3097
  94   2.0000      -0.412756       -11.2317
  95   2.0000      -0.410140       -11.1605
  96   2.0000      -0.408078       -11.1044
  97   2.0000      -0.407076       -11.0771
  98   2.0000      -0.403640       -10.9836
  99   2.0000      -0.399397       -10.8681
 100   2.0000      -0.389862       -10.6087
 101   2.0000      -0.388426       -10.5696
 102   2.0000      -0.387971       -10.5572
 103   2.0000      -0.382359       -10.4045
 104   2.0000      -0.374987       -10.2039
 105   2.0000      -0.362111        -9.8535
 106   2.0000      -0.356680        -9.7057
 107   2.0000      -0.352663        -9.5965
 108   2.0000      -0.348786        -9.4910
 109   2.0000      -0.346922        -9.4402
 110   2.0000      -0.343556        -9.3486
 111   2.0000      -0.340344        -9.2612
 112   2.0000      -0.339560        -9.2399
 113   2.0000      -0.338021        -9.1980
 114   2.0000      -0.267135        -7.2691
 115   2.0000      -0.263611        -7.1732
 116   2.0000      -0.254746        -6.9320
 117   2.0000      -0.250673        -6.8212
 118   2.0000      -0.249019        -6.7762
 119   2.0000      -0.244867        -6.6632
 120   2.0000      -0.241481        -6.5710
 121   2.0000      -0.236412        -6.4331
 122   2.0000      -0.232492        -6.3264
 123   0.0000      -0.025574        -0.6959
 124   0.0000      -0.013694        -0.3726
 125   0.0000      -0.005322        -0.1448
 126   0.0000      -0.002976        -0.0810
 127   0.0000       0.000441         0.0120

MULLIKEN ATOMIC CHARGES
-----------------------
   0 O :   -0.498480
   1 C :    0.726679
   2 N :   -0.663053
   3 C :   -0.133860
   4 C :    0.173210
   5 C :   -0.157596
   6 C :   -0.127472
   7 C :   -0.121685
   8 C :   -0.127061
   9 C :   -0.157171
  10 C :    0.917874
  11 F :   -0.296954
  12 F :   -0.301465
  13 F :   -0.302219
  14 N :   -0.476070
  15 C :   -0.138877
  16 C :   -0.368495
  17 C :    0.123488
  18 C :   -0.186478
  19 C :   -0.121839
  20 C :   -0.127543
  21 C :   -0.174815
  22 C :    0.116946
  23 C :   -0.130964
  24 C :    0.224529
  25 C :   -0.167888
  26 C :   -0.159423
  27 C :   -0.015564
  28 C :    0.891607
  29 F :   -0.297469
  30 F :   -0.307753
  31 F :   -0.308283
  32 C :   -0.158853
  33 C :   -0.170565
  34 H :    0.331698
  35 H :    0.193606
  36 H :    0.119353
  37 H :    0.128209
  38 H :    0.128247
  39 H :    0.131070
  40 H :    0.132433
  41 H :    0.140430
  42 H :    0.152281
  43 H :    0.153489
  44 H :    0.168899
  45 H :    0.125906
  46 H :    0.130631
  47 H :    0.132446
  48 H :    0.129766
  49 H :    0.170877
  50 H :    0.129158
  51 H :    0.146740
  52 H :    0.148132
  53 H :    0.130193
Sum of atomic charges:    0.0000000

LOEWDIN ATOMIC CHARGES
----------------------
   0 O :   -0.310302
   1 C :    0.170900
   2 N :   -0.253491
   3 C :   -0.075548
   4 C :   -0.023889
   5 C :   -0.123752
   6 C :   -0.128579
   7 C :   -0.125743
   8 C :   -0.125758
   9 C :   -0.117065
  10 C :    0.307123
  11 F :   -0.104930
  12 F :   -0.114050
  13 F :   -0.114902
  14 N :   -0.124043
  15 C :   -0.154172
  16 C :   -0.226894
  17 C :   -0.024672
  18 C :   -0.130796
  19 C :   -0.126221
  20 C :   -0.127933
  21 C :   -0.124960
  22 C :   -0.017191
  23 C :   -0.033466
  24 C :    0.012183
  25 C :   -0.127146
  26 C :   -0.111020
  27 C :   -0.075263
  28 C :    0.309348
  29 F :   -0.115172
  30 F :   -0.116112
  31 F :   -0.115888
  32 C :   -0.108658
  33 C :   -0.125507
  34 H :    0.250946
  35 H :    0.158693
  36 H :    0.128452
  37 H :    0.131484
  38 H :    0.131468
  39 H :    0.133079
  40 H :    0.133900
  41 H :    0.112338
  42 H :    0.125966
  43 H :    0.136049
  44 H :    0.137977
  45 H :    0.131080
  46 H :    0.132943
  47 H :    0.134004
  48 H :    0.131909
  49 H :    0.145380
  50 H :    0.132842
  51 H :    0.141022
  52 H :    0.141695
  53 H :    0.132342

  Mayer bond orders larger than 0.100000
B(  0-O ,  1-C ) :   1.7702 B(  1-C ,  2-N ) :   1.0205 B(  1-C , 14-N ) :   1.0378
B(  2-N ,  3-C ) :   0.9055 B(  2-N , 34-H ) :   0.8081 B(  3-C ,  4-C ) :   0.9289
B(  3-C , 10-C ) :   0.9377 B(  3-C , 35-H ) :   0.8988 B(  4-C ,  5-C ) :   1.4196
B(  4-C ,  9-C ) :   1.4300 B(  5-C ,  6-C ) :   1.4470 B(  5-C , 36-H ) :   0.9222
B(  6-C ,  7-C ) :   1.4494 B(  6-C , 37-H ) :   0.9301 B(  7-C ,  8-C ) :   1.4566
B(  7-C , 38-H ) :   0.9302 B(  8-C ,  9-C ) :   1.4414 B(  8-C , 39-H ) :   0.9291
B(  9-C , 40-H ) :   0.9233 B( 10-C , 11-F ) :   0.9679 B( 10-C , 12-F ) :   0.9554
B( 10-C , 13-F ) :   0.9680 B( 14-N , 15-C ) :   0.9407 B( 14-N , 23-C ) :   0.9161
B( 15-C , 16-C ) :   0.9991 B( 15-C , 41-H ) :   0.9205 B( 15-C , 42-H ) :   0.9232
B( 16-C , 17-C ) :   0.9882 B( 16-C , 43-H ) :   0.9307 B( 16-C , 44-H ) :   0.9121
B( 17-C , 18-C ) :   1.4149 B( 17-C , 22-C ) :   1.4431 B( 18-C , 19-C ) :   1.4459
B( 18-C , 45-H ) :   0.9245 B( 19-C , 20-C ) :   1.4422 B( 19-C , 46-H ) :   0.9292
B( 20-C , 21-C ) :   1.4457 B( 20-C , 47-H ) :   0.9291 B( 21-C , 22-C ) :   1.4020
B( 21-C , 48-H ) :   0.9216 B( 22-C , 23-C ) :   0.9530 B( 23-C , 24-C ) :   0.9264
B( 23-C , 49-H ) :   0.9121 B( 24-C , 25-C ) :   1.4237 B( 24-C , 33-C ) :   1.4110
B( 25-C , 26-C ) :   1.4277 B( 25-C , 50-H ) :   0.9161 B( 26-C , 27-C ) :   1.4116
B( 26-C , 51-H ) :   0.9207 B( 27-C , 28-C ) :   0.9816 B( 27-C , 32-C ) :   1.4088
B( 28-C , 29-F ) :   0.9860 B( 28-C , 30-F ) :   0.9467 B( 28-C , 31-F ) :   0.9445
B( 32-C , 33-C ) :   1.4315 B( 32-C , 52-H ) :   0.9205 B( 33-C , 53-H ) :   0.9222

FINAL SINGLE POINT ENERGY     -1747.551822405112

DIPOLE MOMENT
-------------

Method             : SCF
Type of density    : Electron Density
Multiplicity       :   1
Irrep              :   0
Energy             : -1747.5518224051115794 Eh
Relativity type    :
Basis              : AO
                                X                 Y                 Z
Electronic contribution:     -3.778521439       8.829217785      30.893292694
Nuclear contribution   :      4.095036579     -10.232918757     -32.335409913
                        -----------------------------------------
Total Dipole Moment    :      0.316515140      -1.403700972      -1.442117219
                        -----------------------------------------
Magnitude (a.u.)       :      2.037218772
Magnitude (Debye)      :      5.178198601

Rotational constants in cm-1:             0.004679             0.002208             0.001845
Rotational constants in MHz :           140.262672            66.201361            55.317854

                             ****ORCA TERMINATED NORMALLY****
TOTAL RUN TIME: 0 days 0 hours 9 minutes 4 seconds 212 msec
