                         Program Version 6.0.0  -   RELEASE  -
|  1> ! B3LYP 6-31G* SP
|  2>
|  3> * xyz 0 1
|  4> C 0.1047 -1.0852 -2.4673
|  5> C -1.0564 -0.9558 -1.4836
|  6> C -0.9284 -1.9344 -0.3374
|  7> C -0.9741 -3.3130 -0.6026
|  8> C -0.8036 -4.2388 0.4320
|  9> C -0.8283 -5.6202 0.1858
| 10> C -0.6484 -6.5210 1.2408
| 11> C -0.4436 -6.0492 2.5414
| 12> C -0.4188 -4.6738 2.7943
| 13> C -0.5979 -3.7660 1.7441
| 14> N -0.5843 -2.4305 1.9878
| 15> C -0.7519 -1.5093 1.0003
| 16> N -0.7664 -0.1196 1.3509
| 17> C 0.4503 0.5029 1.8745
| 18> C 1.4616 0.6667 0.7741
| 19> C 1.3523 1.7312 -0.1322
| 20> C 2.2644 1.8591 -1.1827
| 21> C 3.2950 0.9267 -1.3494
| 22> O 4.1768 1.0993 -2.4285
| 23> C 5.2589 0.2298 -2.7542
| 24> F 5.8918 0.7067 -3.8857
| 25> F 6.1709 0.1944 -1.7143
| 26> F 4.7859 -1.0449 -3.0115
| 27> C 3.4032 -0.1445 -0.4410
| 28> C 2.4868 -0.2761 0.6066
| 29> S -2.2970 0.6839 1.5380
| 30> O -3.3790 -0.1147 0.8647
| 31> O -2.6282 0.7933 3.0001
| 32> C -2.2332 2.2895 0.8146
| 33> C -2.5780 2.4745 -0.5303
| 34> C -2.4802 3.7398 -1.1160
| 35> C -2.0406 4.8420 -0.3623
| 36> C -1.9281 6.1780 -0.9876
| 37> O -1.5431 7.1699 -0.3108
| 38> O -2.2445 6.3524 -2.3322
| 39> C -1.7094 4.6531 0.9914
| 40> C -1.8072 3.3865 1.5742
| 41> H 1.0733 -0.9915 -1.9358
| 42> H 0.0711 -2.0643 -2.9888
| 43> H 0.0381 -0.2801 -3.2290
| 44> H -1.0729 0.0899 -1.1218
| 45> H -2.0139 -1.1377 -2.0172
| 46> H -1.1329 -3.6624 -1.6162
| 47> H -0.9845 -6.0008 -0.8165
| 48> H -0.6673 -7.5864 1.0501
| 49> H -0.3054 -6.7503 3.3544
| 50> H -0.2622 -4.3168 3.8047
| 51> H 0.8640 -0.1187 2.6986
| 52> H 0.2238 1.4963 2.3149
| 53> H 0.5595 2.4600 -0.0292
| 54> H 2.1661 2.6845 -1.8761
| 55> H 4.1819 -0.8872 -0.5391
| 56> H 2.5738 -1.1167 1.2838
| 57> H -2.9189 1.6406 -1.1296
| 58> H -2.7466 3.8530 -2.1593
| 59> H -2.1706 7.2624 -2.7707
| 60> H -1.3691 5.4824 1.5994
| 61> H -1.5391 3.2610 2.6153
| 62> *
| 63>
| 64>                          ****END OF INPUT****

CARTESIAN COORDINATES (ANGSTROEM)
---------------------------------
  C      0.104700   -1.085200   -2.467300
  C     -1.056400   -0.955800   -1.483600
  C     -0.928400   -1.934400   -0.337400
  C     -0.974100   -3.313000   -0.602600
  C     -0.803600   -4.238800    0.432000
  C     -0.828300   -5.620200    0.185800
  C     -0.648400   -6.521000    1.240800
  C     -0.443600   -6.049200    2.541400
  C     -0.418800   -4.673800    2.794300
  C     -0.597900   -3.766000    1.744100
  N     -0.584300   -2.430500    1.987800
  C     -0.751900   -1.509300    1.000300
  N     -0.766400   -0.119600    1.350900
  C      0.450300    0.502900    1.874500
  C      1.461600    0.666700    0.774100
  C      1.352300    1.731200   -0.132200
  C      2.264400    1.859100   -1.182700
  C      3.295000    0.926700   -1.349400
  O      4.176800    1.099300   -2.428500
  C      5.258900    0.229800   -2.754200
  F      5.891800    0.706700   -3.885700
  F      6.170900    0.194400   -1.714300
  F      4.785900   -1.044900   -3.011500
  C      3.403200   -0.144500   -0.441000
  C      2.486800   -0.276100    0.606600
  S     -2.297000    0.683900    1.538000
  O     -3.379000   -0.114700    0.864700
  O     -2.628200    0.793300    3.000100
  C     -2.233200    2.289500    0.814600
  C     -2.578000    2.474500   -0.530300
  C     -2.480200    3.739800   -1.116000
  C     -2.040600    4.842000   -0.362300
  C     -1.928100    6.178000   -0.987600
  O     -1.543100    7.169900   -0.310800
  O     -2.244500    6.352400   -2.332200
  C     -1.709400    4.653100    0.991400
  C     -1.807200    3.386500    1.574200
  H      1.073300   -0.991500   -1.935800
  H      0.071100   -2.064300   -2.988800
  H      0.038100   -0.280100   -3.229000
  H     -1.072900    0.089900   -1.121800
  H     -2.013900   -1.137700   -2.017200
  H     -1.132900   -3.662400   -1.616200
  H     -0.984500   -6.000800   -0.816500
  H     -0.667300   -7.586400    1.050100
  H     -0.305400   -6.750300    3.354400
  H     -0.262200   -4.316800    3.804700
  H      0.864000   -0.118700    2.698600
  H      0.223800    1.496300    2.314900
  H      0.559500    2.460000   -0.029200
  H      2.166100    2.684500   -1.876100
  H      4.181900   -0.887200   -0.539100
  H      2.573800   -1.116700    1.283800
  H     -2.918900    1.640600   -1.129600
  H     -2.746600    3.853000   -2.159300
  H     -2.170600    7.262400   -2.770700
  H     -1.369100    5.482400    1.599400
  H     -1.539100    3.261000    2.615300

 Total Charge           Charge          ....    0
 Multiplicity           Mult            ....    1
 Number of Electrons    NEL             ....  274
 Basis Dimension        Dim             ....  564

ORBITAL ENERGIES
----------------

  NO   OCC          E(Eh)            E(eV)
   0   2.0000     -89.100113     -2424.5373
   1   2.0000     -24.745319      -673.3544
   2   2.0000     -24.743225      -673.2974
   3   2.0000     -24.742985      -673.2909
   4   2.0000     -19.218138      -522.9521
   5   2.0000     -19.202947      -522.5388
   6   2.0000     -19.145190      -520.9671
   7   2.0000     -19.128053      -520.5008
   8   2.0000     -19.123940      -520.3889
   9   2.0000     -14.372812      -391.1041
  10   2.0000     -14.327334      -389.8666
  11   2.0000     -10.508448      -285.9494
  12   2.0000     -10.342645      -281.4377
  13   2.0000     -10.275323      -279.6058
  14   2.0000     -10.263989      -279.2973
  15   2.0000     -10.251258      -278.9509
  16   2.0000     -10.241158      -278.6761
  17   2.0000     -10.236315      -278.5443
  18   2.0000     -10.229429      -278.3569
  19   2.0000     -10.228408      -278.3291
  20   2.0000     -10.226328      -278.2725
  21   2.0000     -10.226133      -278.2672
  22   2.0000     -10.218787      -278.0673
  23   2.0000     -10.204378      -277.6752
  24   2.0000     -10.203675      -277.6561
  25   2.0000     -10.203143      -277.6416
  26   2.0000     -10.202906      -277.6352
  27   2.0000     -10.202733      -277.6305
  28   2.0000     -10.201932      -277.6087
  29   2.0000     -10.198298      -277.5098
  30   2.0000     -10.194831      -277.4154
  31   2.0000     -10.190285      -277.2918
  32   2.0000     -10.189726      -277.2765
  33   2.0000     -10.189496      -277.2703
  34   2.0000     -10.184697      -277.1397
  35   2.0000     -10.183834      -277.1162
  36   2.0000     -10.172367      -276.8042
  37   2.0000      -8.135955      -221.3906
  38   2.0000      -6.100943      -166.0151
  39   2.0000      -6.099055      -165.9637
  40   2.0000      -6.098530      -165.9495
  41   2.0000      -1.308194       -35.5978
  42   2.0000      -1.228908       -33.4403
  43   2.0000      -1.228456       -33.4280
  44   2.0000      -1.088103       -29.6088
  45   2.0000      -1.087758       -29.5994
  46   2.0000      -1.084608       -29.5137
  47   2.0000      -1.001973       -27.2651
  48   2.0000      -0.963500       -26.2182
  49   2.0000      -0.962483       -26.1905
  50   2.0000      -0.917621       -24.9697
  51   2.0000      -0.899170       -24.4677
  52   2.0000      -0.871394       -23.7118
  53   2.0000      -0.845615       -23.0104
  54   2.0000      -0.821223       -22.3466
  55   2.0000      -0.814856       -22.1734
  56   2.0000      -0.791304       -21.5325
  57   2.0000      -0.785492       -21.3743
  58   2.0000      -0.773141       -21.0382
  59   2.0000      -0.765855       -20.8400
  60   2.0000      -0.748492       -20.3675
  61   2.0000      -0.732972       -19.9452
  62   2.0000      -0.723587       -19.6898
  63   2.0000      -0.712188       -19.3796
  64   2.0000      -0.685600       -18.6561
  65   2.0000      -0.665509       -18.1094
  66   2.0000      -0.649876       -17.6840
  67   2.0000      -0.644690       -17.5429
  68   2.0000      -0.639418       -17.3994
  69   2.0000      -0.628139       -17.0925
  70   2.0000      -0.621630       -16.9154
  71   2.0000      -0.606224       -16.4962
  72   2.0000      -0.600346       -16.3362
  73   2.0000      -0.598984       -16.2992
  74   2.0000      -0.595562       -16.2061
  75   2.0000      -0.592214       -16.1150
  76   2.0000      -0.579945       -15.7811
  77   2.0000      -0.564276       -15.3547
  78   2.0000      -0.546070       -14.8593
  79   2.0000      -0.532578       -14.4922
  80   2.0000      -0.523700       -14.2506
  81   2.0000      -0.503911       -13.7121
  82   2.0000      -0.498683       -13.5699
  83   2.0000      -0.495103       -13.4724
  84   2.0000      -0.494329       -13.4514
  85   2.0000      -0.483729       -13.1629
  86   2.0000      -0.480785       -13.0828
  87   2.0000      -0.474236       -12.9046
  88   2.0000      -0.473650       -12.8887
  89   2.0000      -0.468680       -12.7534
  90   2.0000      -0.466673       -12.6988
  91   2.0000      -0.465271       -12.6607
  92   2.0000      -0.458336       -12.4720
  93   2.0000      -0.455920       -12.4062
  94   2.0000      -0.451069       -12.2742
  95   2.0000      -0.449962       -12.2441
  96   2.0000      -0.448640       -12.2081
  97   2.0000      -0.442390       -12.0381
  98   2.0000      -0.440942       -11.9987
  99   2.0000      -0.438225       -11.9247
 100   2.0000      -0.434695       -11.8287
 101   2.0000      -0.428913       -11.6713
 102   2.0000      -0.423244       -11.5171
 103   2.0000      -0.420508       -11.4426
 104   2.0000      -0.419026       -11.4023
 105   2.0000      -0.415719       -11.3123
 106   2.0000      -0.412067       -11.2129
 107   2.0000      -0.410947       -11.1824
 108   2.0000      -0.407208       -11.0807
 109   2.0000      -0.398872       -10.8539
 110   2.0000      -0.393134       -10.6977
 111   2.0000      -0.389876       -10.6091
 112   2.0000      -0.380091       -10.3428
 113   2.0000      -0.377649       -10.2763
 114   2.0000      -0.375900       -10.2287
 115   2.0000      -0.367831       -10.0092
 116   2.0000      -0.360096        -9.7987
 117   2.0000      -0.355354        -9.6697
 118   2.0000      -0.353294        -9.6136
 119   2.0000      -0.346791        -9.4367
 120   2.0000      -0.341976        -9.3056
 121   2.0000      -0.337773        -9.1913
 122   2.0000      -0.327352        -8.9077
 123   2.0000      -0.324061        -8.8182
 124   2.0000      -0.310726        -8.4553
 125   2.0000      -0.300686        -8.1821
 126   2.0000      -0.296698        -8.0736
 127   2.0000      -0.292187        -7.9508
 128   2.0000      -0.286792        -7.8040
 129   2.0000      -0.281657        -7.6643
 130   2.0000      -0.274942        -7.4815
 131   2.0000      -0.269370        -7.3299
 132   2.0000      -0.264290        -7.1917
 133   2.0000      -0.251937        -6.8556
 134   2.0000      -0.248048        -6.7497
 135   2.0000      -0.236206        -6.4275
 136   2.0000      -0.222340        -6.0502
 137   0.0000      -0.092431        -2.5152
 138   0.0000      -0.062897        -1.7115
 139   0.0000      -0.041994        -1.1427
 140   0.0000      -0.024831        -0.6757
 141   0.0000      -0.018547        -0.5047

MULLIKEN ATOMIC CHARGES
-----------------------
   0 C :   -0.441248
   1 C :   -0.339126
   2 C :    0.179733
   3 C :   -0.214739
   4 C :    0.176327
   5 C :   -0.204947
   6 C :   -0.128729
   7 C :   -0.131659
   8 C :   -0.145966
   9 C :    0.206909
  10 N :   -0.446737
  11 C :    0.330427
  12 N :   -0.612883
  13 C :   -0.250502
  14 C :    0.169434
  15 C :   -0.168003
  16 C :   -0.171995
  17 C :    0.355538
  18 O :   -0.545317
  19 C :    1.086570
  20 F :   -0.278309
  21 F :   -0.290499
  22 F :   -0.290985
  23 C :   -0.192730
  24 C :   -0.173598
  25 S :    1.210099
  26 O :   -0.551035
  27 O :   -0.523614
  28 C :   -0.137661
  29 C :   -0.139085
  30 C :   -0.150912
  31 C :    0.082801
  32 C :    0.529869
  33 O :   -0.440913
  34 O :   -0.622964
  35 C :   -0.140398
  36 C :   -0.153361
  37 H :    0.162335
  38 H :    0.139089
  39 H :    0.138717
  40 H :    0.141555
  41 H :    0.154734
  42 H :    0.139222
  43 H :    0.132541
  44 H :    0.133701
  45 H :    0.136048
  46 H :    0.145900
  47 H :    0.188669
  48 H :    0.166964
  49 H :    0.142734
  50 H :    0.149839
  51 H :    0.156384
  52 H :    0.152986
  53 H :    0.190581
  54 H :    0.176827
  55 H :    0.436520
  56 H :    0.185060
  57 H :    0.189803
Sum of atomic charges:    0.0000000

LOEWDIN ATOMIC CHARGES
----------------------
   0 C :   -0.355917
   1 C :   -0.231747
   2 C :   -0.013256
   3 C :   -0.093382
   4 C :   -0.022663
   5 C :   -0.122658
   6 C :   -0.125331
   7 C :   -0.124552
   8 C :   -0.113311
   9 C :    0.014645
  10 N :   -0.120497
  11 C :    0.052340
  12 N :   -0.280331
  13 C :   -0.145549
  14 C :   -0.038928
  15 C :   -0.121460
  16 C :   -0.139434
  17 C :    0.086876
  18 O :   -0.159434
  19 C :    0.359933
  20 F :   -0.086804
  21 F :   -0.104324
  22 F :   -0.104673
  23 C :   -0.159686
  24 C :   -0.121434
  25 S :    1.261321
  26 O :   -0.572237
  27 O :   -0.564006
  28 C :   -0.175609
  29 C :   -0.102266
  30 C :   -0.099361
  31 C :   -0.038135
  32 C :    0.179781
  33 O :   -0.257275
  34 O :   -0.333472
  35 C :   -0.086813
  36 C :   -0.109623
  37 H :    0.132586
  38 H :    0.118833
  39 H :    0.122380
  40 H :    0.125632
  41 H :    0.132705
  42 H :    0.137959
  43 H :    0.133383
  44 H :    0.134354
  45 H :    0.135984
  46 H :    0.145085
  47 H :    0.143956
  48 H :    0.139988
  49 H :    0.139962
  50 H :    0.145644
  51 H :    0.143890
  52 H :    0.143402
  53 H :    0.162138
  54 H :    0.156641
  55 H :    0.351427
  56 H :    0.162495
  57 H :    0.160827

  Mayer bond orders larger than 0.100000
B(  0-C ,  1-C ) :   0.9989 B(  0-C , 37-H ) :   0.9374 B(  0-C , 38-H ) :   0.9486
B(  0-C , 39-H ) :   0.9492 B(  1-C ,  2-C ) :   0.9838 B(  1-C , 40-H ) :   0.9187
B(  1-C , 41-H ) :   0.9292 B(  2-C ,  3-C ) :   1.4542 B(  2-C , 11-C ) :   1.3032
B(  3-C ,  4-C ) :   1.2941 B(  3-C , 42-H ) :   0.9170 B(  4-C ,  5-C ) :   1.2801
B(  4-C ,  9-C ) :   1.2471 B(  5-C ,  6-C ) :   1.5154 B(  5-C ,  8-C ) :   0.1082
B(  5-C , 43-H ) :   0.9248 B(  6-C ,  7-C ) :   1.3448 B(  6-C , 44-H ) :   0.9299
B(  7-C ,  8-C ) :   1.5192 B(  7-C , 45-H ) :   0.9295 B(  8-C ,  9-C ) :   1.2997
B(  8-C , 46-H ) :   0.9174 B(  9-C , 10-N ) :   1.2519 B( 10-N , 11-C ) :   1.4453
B( 11-C , 12-N ) :   0.8825 B( 12-N , 13-C ) :   0.9199 B( 12-N , 25-S ) :   0.8054
B( 13-C , 14-C ) :   0.9434 B( 13-C , 47-H ) :   0.9154 B( 13-C , 48-H ) :   0.9210
B( 14-C , 15-C ) :   1.4188 B( 14-C , 24-C ) :   1.4397 B( 15-C , 16-C ) :   1.4444
B( 15-C , 49-H ) :   0.9165 B( 16-C , 17-C ) :   1.4110 B( 16-C , 50-H ) :   0.9181
B( 17-C , 18-O ) :   0.8265 B( 17-C , 23-C ) :   1.3927 B( 18-O , 19-C ) :   0.9885
B( 19-C , 20-F ) :   1.0088 B( 19-C , 21-F ) :   0.9694 B( 19-C , 22-F ) :   0.9689
B( 23-C , 24-C ) :   1.4190 B( 23-C , 51-H ) :   0.9087 B( 24-C , 52-H ) :   0.9185
B( 25-S , 26-O ) :   1.6085 B( 25-S , 27-O ) :   1.6734 B( 25-S , 28-C ) :   0.8090
B( 28-C , 29-C ) :   1.3957 B( 28-C , 36-C ) :   1.3770 B( 29-C , 30-C ) :   1.4149
B( 29-C , 53-H ) :   0.9056 B( 30-C , 31-C ) :   1.3822 B( 30-C , 54-H ) :   0.9138
B( 31-C , 32-C ) :   1.0063 B( 31-C , 35-C ) :   1.4023 B( 32-C , 33-O ) :   1.8648
B( 32-C , 34-O ) :   1.0276 B( 34-O , 55-H ) :   0.7403 B( 35-C , 36-C ) :   1.4156
B( 35-C , 56-H ) :   0.9084 B( 36-C , 57-H ) :   0.9071

FINAL SINGLE POINT ENERGY     -2185.600170928491

DIPOLE MOMENT
-------------

Method             : SCF
Type of density    : Electron Density
Multiplicity       :   1
Irrep              :   0
Energy             : -2185.6001709284914796 Eh
Relativity type    :
Basis              : AO
                                X                 Y                 Z
Electronic contribution:     25.036975767      10.557468251      -8.058066221
Nuclear contribution   :    -24.133895006     -10.493628227       6.448894933
                        -----------------------------------------
Total Dipole Moment    :      0.903080761       0.063840024      -1.609171288
                        -----------------------------------------
Magnitude (a.u.)       :      1.846364710
Magnitude (Debye)      :      4.693086127

Rotational constants in cm-1:             0.003108             0.002550             0.001583
Rotational constants in MHz :            93.179362            76.457558            47.466061

                             ****ORCA TERMINATED NORMALLY****
TOTAL RUN TIME: 0 days 0 hours 8 minutes 12 seconds 955 msec
