                         Program Version 6.0.0  -   RELEASE  -
|  1> ! B3LYP def2-TZVP SP
|  2>
|  3> * xyz 0 1
|  4> C -5.7862 0.3547 3.1846
|  5> N -5.1635 0.0602 1.8790
|  6> C -3.8167 -0.1656 1.8077
|  7> O -3.1431 -0.1759 2.8747
|  8> C -3.1940 -0.4278 0.5628
|  9> C -1.7706 -0.5566 0.4021
| 10> C -0.7886 -0.2365 1.5283
| 11> C 0.6252 0.0125 1.0787
| 12> O 1.5124 -0.8497 1.3226
| 13> N 0.9449 1.2127 0.3572
| 14> C 2.2501 1.5139 -0.1521
| 15> N 3.3268 0.7136 -0.0012
| 16> C 4.4420 1.2342 -0.5868
| 17> C 5.7430 0.5142 -0.5457
| 18> C 5.7910 -0.8164 -0.0852
| 19> C 7.0038 -1.5099 -0.0359
| 20> C 8.1859 -0.8863 -0.4419
| 21> Br 9.8415 -1.8361 -0.3727
| 22> C 8.1552 0.4343 -0.8961
| 23> C 6.9448 1.1329 -0.9475
| 24> C 4.2372 2.4680 -1.2163
| 25> S 2.6225 2.8994 -1.0206
| 26> C -1.2695 -1.0085 -0.8350
| 27> C -2.1103 -1.2149 -1.9160
| 28> C -3.4725 -0.9869 -1.7983
| 29> C -4.0455 -0.5915 -0.5672
| 30> N -5.4048 -0.3867 -0.4499
| 31> C -6.2887 -0.5165 -1.6296
| 32> C -5.9509 -0.0680 0.7682
| 33> O -7.1999 0.0974 0.8745
| 34> H -6.6844 0.9982 3.0708
| 35> H -5.0927 0.9157 3.8472
| 36> H -6.0776 -0.5947 3.6812
| 37> H -0.7992 -1.0695 2.2643
| 38> H -1.1036 0.6966 2.0406
| 39> H 0.1791 1.8986 0.1724
| 40> H 4.8900 -1.3263 0.2327
| 41> H 7.0230 -2.5327 0.3180
| 42> H 9.0703 0.9226 -1.2066
| 43> H 6.9636 2.1575 -1.2899
| 44> H 4.9663 3.0542 -1.7568
| 45> H -0.2140 -1.1922 -0.9852
| 46> H -1.6989 -1.5429 -2.8624
| 47> H -4.0682 -1.1521 -2.6841
| 48> H -7.3447 -0.2487 -1.4213
| 49> H -5.9489 0.1677 -2.4361
| 50> H -6.2816 -1.5663 -1.9928
| 51> *
| 52>
| 53>                          ****END OF INPUT****

CARTESIAN COORDINATES (ANGSTROEM)
---------------------------------
  C     -5.786200    0.354700    3.184600
  N     -5.163500    0.060200    1.879000
  C     -3.816700   -0.165600    1.807700
  O     -3.143100   -0.175900    2.874700
  C     -3.194000   -0.427800    0.562800
  C     -1.770600   -0.556600    0.402100
  C     -0.788600   -0.236500    1.528300
  C      0.625200    0.012500    1.078700
  O      1.512400   -0.849700    1.322600
  N      0.944900    1.212700    0.357200
  C      2.250100    1.513900   -0.152100
  N      3.326800    0.713600   -0.001200
  C      4.442000    1.234200   -0.586800
  C      5.743000    0.514200   -0.545700
  C      5.791000   -0.816400   -0.085200
  C      7.003800   -1.509900   -0.035900
  C      8.185900   -0.886300   -0.441900
  Br     9.841500   -1.836100   -0.372700
  C      8.155200    0.434300   -0.896100
  C      6.944800    1.132900   -0.947500
  C      4.237200    2.468000   -1.216300
  S      2.622500    2.899400   -1.020600
  C     -1.269500   -1.008500   -0.835000
  C     -2.110300   -1.214900   -1.916000
  C     -3.472500   -0.986900   -1.798300
  C     -4.045500   -0.591500   -0.567200
  N     -5.404800   -0.386700   -0.449900
  C     -6.288700   -0.516500   -1.629600
  C     -5.950900   -0.068000    0.768200
  O     -7.199900    0.097400    0.874500
  H     -6.684400    0.998200    3.070800
  H     -5.092700    0.915700    3.847200
  H     -6.077600   -0.594700    3.681200
  H     -0.799200   -1.069500    2.264300
  H     -1.103600    0.696600    2.040600
  H      0.179100    1.898600    0.172400
  H      4.890000   -1.326300    0.232700
  H      7.023000   -2.532700    0.318000
  H      9.070300    0.922600   -1.206600
  H      6.963600    2.157500   -1.289900
  H      4.966300    3.054200   -1.756800
  H     -0.214000   -1.192200   -0.985200
  H     -1.698900   -1.542900   -2.862400
  H     -4.068200   -1.152100   -2.684100
  H     -7.344700   -0.248700   -1.421300
  H     -5.948900    0.167700   -2.436100
  H     -6.281600   -1.566300   -1.992800

 Total Charge           Charge          ....    0
 Multiplicity           Mult            ....    1
 Number of Electrons    NEL             ....  246
 Basis Dimension        Dim             .... 1055

ORBITAL ENERGIES
----------------

  NO   OCC          E(Eh)            E(eV)
   0   2.0000    -482.854113    -13139.1284
   1   2.0000     -88.905902     -2419.2526
   2   2.0000     -62.501403     -1700.7496
   3   2.0000     -56.316875     -1532.4601
   4   2.0000     -56.314426     -1532.3934
   5   2.0000     -56.314394     -1532.3926
   6   2.0000     -19.103334      -519.8281
   7   2.0000     -19.102789      -519.8133
   8   2.0000     -19.100250      -519.7442
   9   2.0000     -14.399538      -391.8313
  10   2.0000     -14.393717      -391.6729
  11   2.0000     -14.386982      -391.4897
  12   2.0000     -14.316446      -389.5703
  13   2.0000     -10.325113      -280.9606
  14   2.0000     -10.297114      -280.1987
  15   2.0000     -10.294548      -280.1289
  16   2.0000     -10.286408      -279.9074
  17   2.0000     -10.261164      -279.2205
  18   2.0000     -10.235537      -278.5231
  19   2.0000     -10.230571      -278.3880
  20   2.0000     -10.230175      -278.3772
  21   2.0000     -10.223341      -278.1913
  22   2.0000     -10.220317      -278.1090
  23   2.0000     -10.216313      -278.0000
  24   2.0000     -10.205765      -277.7130
  25   2.0000     -10.205474      -277.7051
  26   2.0000     -10.201805      -277.6052
  27   2.0000     -10.201629      -277.6004
  28   2.0000     -10.197681      -277.4930
  29   2.0000     -10.194499      -277.4064
  30   2.0000     -10.188718      -277.2491
  31   2.0000     -10.187644      -277.2199
  32   2.0000     -10.184479      -277.1338
  33   2.0000     -10.180754      -277.0324
  34   2.0000      -8.692228      -236.5276
  35   2.0000      -7.983434      -217.2403
  36   2.0000      -6.521609      -177.4620
  37   2.0000      -6.510883      -177.1701
  38   2.0000      -6.510512      -177.1600
  39   2.0000      -5.945508      -161.7855
  40   2.0000      -5.941652      -161.6806
  41   2.0000      -5.940645      -161.6532
  42   2.0000      -2.636237       -71.7356
  43   2.0000      -2.633280       -71.6552
  44   2.0000      -2.633016       -71.6480
  45   2.0000      -2.624138       -71.4064
  46   2.0000      -2.624128       -71.4061
  47   2.0000      -1.081155       -29.4197
  48   2.0000      -1.036039       -28.1921
  49   2.0000      -1.029772       -28.0215
  50   2.0000      -0.983516       -26.7628
  51   2.0000      -0.980607       -26.6837
  52   2.0000      -0.953160       -25.9368
  53   2.0000      -0.923411       -25.1273
  54   2.0000      -0.882424       -24.0120
  55   2.0000      -0.872426       -23.7399
  56   2.0000      -0.819080       -22.2883
  57   2.0000      -0.810041       -22.0423
  58   2.0000      -0.807054       -21.9611
  59   2.0000      -0.798433       -21.7265
  60   2.0000      -0.762854       -20.7583
  61   2.0000      -0.755928       -20.5699
  62   2.0000      -0.754914       -20.5422
  63   2.0000      -0.737669       -20.0730
  64   2.0000      -0.721329       -19.6284
  65   2.0000      -0.707236       -19.2449
  66   2.0000      -0.670172       -18.2363
  67   2.0000      -0.664503       -18.0821
  68   2.0000      -0.635844       -17.3022
  69   2.0000      -0.629672       -17.1342
  70   2.0000      -0.620984       -16.8978
  71   2.0000      -0.605328       -16.4718
  72   2.0000      -0.594835       -16.1863
  73   2.0000      -0.585094       -15.9212
  74   2.0000      -0.559451       -15.2234
  75   2.0000      -0.554185       -15.0801
  76   2.0000      -0.531837       -14.4720
  77   2.0000      -0.527332       -14.3494
  78   2.0000      -0.517620       -14.0852
  79   2.0000      -0.506643       -13.7864
  80   2.0000      -0.500266       -13.6129
  81   2.0000      -0.494505       -13.4562
  82   2.0000      -0.474037       -12.8992
  83   2.0000      -0.473413       -12.8822
  84   2.0000      -0.469939       -12.7877
  85   2.0000      -0.464087       -12.6284
  86   2.0000      -0.461666       -12.5626
  87   2.0000      -0.460993       -12.5443
  88   2.0000      -0.457517       -12.4497
  89   2.0000      -0.446046       -12.1375
  90   2.0000      -0.444035       -12.0828
  91   2.0000      -0.438590       -11.9346
  92   2.0000      -0.429008       -11.6739
  93   2.0000      -0.426905       -11.6167
  94   2.0000      -0.421018       -11.4565
  95   2.0000      -0.414724       -11.2852
  96   2.0000      -0.414277       -11.2731
  97   2.0000      -0.406677       -11.0663
  98   2.0000      -0.400825       -10.9070
  99   2.0000      -0.396660       -10.7937
 100   2.0000      -0.394317       -10.7299
 101   2.0000      -0.388671       -10.5763
 102   2.0000      -0.385741       -10.4965
 103   2.0000      -0.382970       -10.4211
 104   2.0000      -0.380724       -10.3600
 105   2.0000      -0.369594       -10.0572
 106   2.0000      -0.357752        -9.7349
 107   2.0000      -0.352761        -9.5991
 108   2.0000      -0.331337        -9.0161
 109   2.0000      -0.329437        -8.9644
 110   2.0000      -0.311526        -8.4771
 111   2.0000      -0.293526        -7.9873
 112   2.0000      -0.292414        -7.9570
 113   2.0000      -0.291433        -7.9303
 114   2.0000      -0.288066        -7.8387
 115   2.0000      -0.283933        -7.7262
 116   2.0000      -0.278496        -7.5783
 117   2.0000      -0.267677        -7.2839
 118   2.0000      -0.264378        -7.1941
 119   2.0000      -0.254809        -6.9337
 120   2.0000      -0.246559        -6.7092
 121   2.0000      -0.245720        -6.6864
 122   2.0000      -0.218377        -5.9423
 123   0.0000      -0.078038        -2.1235
 124   0.0000      -0.052318        -1.4236
 125   0.0000      -0.039239        -1.0677
 126   0.0000      -0.036167        -0.9842
 127   0.0000      -0.020731        -0.5641

MULLIKEN ATOMIC CHARGES
-----------------------
   0 C :   -0.262632
   1 N :   -0.076812
   2 C :    0.238501
   3 O :   -0.419857
   4 C :   -0.013268
   5 C :   -0.076177
   6 C :   -0.102077
   7 C :    0.308864
   8 O :   -0.333869
   9 N :   -0.292256
  10 C :    0.197748
  11 N :   -0.212269
  12 C :    0.140707
  13 C :    0.143584
  14 C :   -0.225028
  15 C :   -0.122980
  16 C :    0.098104
  17 Br:   -0.087403
  18 C :   -0.151780
  19 C :   -0.182525
  20 C :   -0.230998
  21 S :    0.028039
  22 C :   -0.164995
  23 C :   -0.112789
  24 C :   -0.216015
  25 C :    0.165134
  26 N :   -0.056177
  27 C :   -0.315801
  28 C :    0.315756
  29 O :   -0.440659
  30 H :    0.161420
  31 H :    0.155572
  32 H :    0.132065
  33 H :    0.134791
  34 H :    0.135721
  35 H :    0.233228
  36 H :    0.164929
  37 H :    0.125222
  38 H :    0.120098
  39 H :    0.099638
  40 H :    0.141501
  41 H :    0.136680
  42 H :    0.124169
  43 H :    0.130494
  44 H :    0.190270
  45 H :    0.136113
  46 H :    0.138021
Sum of atomic charges:   -0.0000000

LOEWDIN ATOMIC CHARGES
----------------------
   0 C :   -0.244437
   1 N :    0.254453
   2 C :   -0.349008
   3 O :    0.045580
   4 C :   -0.066789
   5 C :   -0.055858
   6 C :   -0.175065
   7 C :   -0.360645
   8 O :    0.067547
   9 N :    0.118242
  10 C :   -0.509479
  11 N :    0.141236
  12 C :   -0.236324
  13 C :   -0.101611
  14 C :   -0.075812
  15 C :   -0.137517
  16 C :   -0.368123
  17 Br:    0.325658
  18 C :   -0.142801
  19 C :   -0.093485
  20 C :   -0.403018
  21 S :    0.745546
  22 C :   -0.112091
  23 C :   -0.119837
  24 C :   -0.122622
  25 C :   -0.118323
  26 N :    0.247009
  27 C :   -0.250876
  28 C :   -0.416684
  29 O :    0.001536
  30 H :    0.134187
  31 H :    0.133443
  32 H :    0.127793
  33 H :    0.176597
  34 H :    0.165804
  35 H :    0.201110
  36 H :    0.159840
  37 H :    0.147171
  38 H :    0.145783
  39 H :    0.143746
  40 H :    0.129964
  41 H :    0.157988
  42 H :    0.150098
  43 H :    0.148873
  44 H :    0.142000
  45 H :    0.124481
  46 H :    0.124718

  Mayer bond orders larger than 0.100000
B(  0-C ,  1-N ) :   0.8932 B(  0-C , 30-H ) :   0.9551 B(  0-C , 31-H ) :   0.9563
B(  0-C , 32-H ) :   0.9676 B(  1-N ,  2-C ) :   1.1875 B(  1-N , 28-C ) :   1.1490
B(  2-C ,  3-O ) :   1.9204 B(  2-C ,  4-C ) :   1.0413 B(  4-C ,  5-C ) :   1.2837
B(  4-C , 25-C ) :   1.2684 B(  5-C ,  6-C ) :   1.0050 B(  5-C , 22-C ) :   1.4454
B(  6-C ,  7-C ) :   0.9377 B(  6-C , 33-H ) :   0.9106 B(  6-C , 34-H ) :   0.9829
B(  7-C ,  8-O ) :   2.0071 B(  7-C ,  9-N ) :   1.0295 B(  9-N , 10-C ) :   1.0673
B(  9-N , 35-H ) :   0.9013 B( 10-C , 11-N ) :   1.5270 B( 10-C , 21-S ) :   1.3176
B( 11-N , 12-C ) :   1.3730 B( 11-N , 13-C ) :  -0.1085 B( 12-C , 13-C ) :   0.9498
B( 12-C , 20-C ) :   1.5431 B( 13-C , 14-C ) :   1.3796 B( 13-C , 19-C ) :   1.3358
B( 14-C , 15-C ) :   1.3889 B( 14-C , 36-H ) :   0.9449 B( 15-C , 16-C ) :   1.3305
B( 15-C , 37-H ) :   0.9796 B( 16-C , 17-Br) :   1.0202 B( 16-C , 18-C ) :   1.3444
B( 18-C , 19-C ) :   1.4416 B( 18-C , 38-H ) :   0.9739 B( 19-C , 39-H ) :   0.9574
B( 20-C , 21-S ) :   1.2814 B( 20-C , 40-H ) :   0.9197 B( 22-C , 23-C ) :   1.3744
B( 22-C , 41-H ) :   0.9666 B( 23-C , 24-C ) :   1.4518 B( 23-C , 42-H ) :   0.9685
B( 24-C , 25-C ) :   1.2971 B( 24-C , 43-H ) :   0.9574 B( 25-C , 26-N ) :   1.1660
B( 26-N , 27-C ) :   0.8948 B( 26-N , 28-C ) :   1.1529 B( 27-C , 44-H ) :   0.9532
B( 27-C , 45-H ) :   0.9619 B( 27-C , 46-H ) :   0.9613 B( 28-C , 29-O ) :   1.9176

FINAL SINGLE POINT ENERGY     -4227.130269964127

DIPOLE MOMENT
-------------

Method             : SCF
Type of density    : Electron Density
Multiplicity       :   1
Irrep              :   0
Energy             : -4227.1302699641273648 Eh
Relativity type    :
Basis              : AO
                                X                 Y                 Z
Electronic contribution:    112.669970692     -16.164289822      -4.336074613
Nuclear contribution   :   -114.233520177      17.433231972       2.425530373
                        -----------------------------------------
Total Dipole Moment    :     -1.563549485       1.268942150      -1.910544239
                        -----------------------------------------
Magnitude (a.u.)       :      2.775802670
Magnitude (Debye)      :      7.055529675

Rotational constants in cm-1:             0.011527             0.001056             0.001039
Rotational constants in MHz :           345.569671            31.653535            31.146219

                             ****ORCA TERMINATED NORMALLY****
TOTAL RUN TIME: 0 days 0 hours 17 minutes 48 seconds 576 msec
