                         Program Version 6.0.0  -   RELEASE  -
|  1> ! B3LYP 6-31G* SP
|  2>
|  3> * xyz 0 1
|  4> C -3.8403 2.5610 -0.2735
|  5> N -4.5016 1.2837 0.0423
|  6> C -3.9120 0.4158 0.9334
|  7> O -2.8051 0.6875 1.4744
|  8> C -4.5689 -0.7696 1.2357
|  9> C -4.2678 -1.8416 2.0548
| 10> C -3.0271 -2.0769 2.8628
| 11> C -1.8886 -2.4585 1.9646
| 12> O -1.9406 -3.5501 1.3355
| 13> N -0.7479 -1.5939 1.8408
| 14> C 0.1978 -1.6498 0.7640
| 15> N 1.3061 -0.8805 0.7348
| 16> C 2.0316 -1.0577 -0.4054
| 17> C 3.2971 -0.3142 -0.6395
| 18> C 3.8711 -0.2251 -1.9224
| 19> C 5.0624 0.4805 -2.1234
| 20> Cl 5.7283 0.5956 -3.7460
| 21> C 5.6995 1.1070 -1.0416
| 22> O 6.8894 1.8107 -1.2334
| 23> C 8.1490 1.1480 -1.2439
| 24> C 9.2618 2.1627 -1.4666
| 25> F 9.2520 3.1011 -0.4503
| 26> F 9.0785 2.8017 -2.6795
| 27> F 10.4846 1.5167 -1.4754
| 28> C 5.1272 1.0388 0.2357
| 29> Cl 5.8981 1.8292 1.6023
| 30> C 3.9360 0.3332 0.4339
| 31> C 1.4840 -1.9842 -1.2991
| 32> S 0.0583 -2.5775 -0.6327
| 33> C -5.3372 -2.7197 1.9064
| 34> O -6.2256 -2.2120 1.0715
| 35> C -5.7708 -1.0486 0.6662
| 36> N -6.3751 -0.1978 -0.2059
| 37> C -7.6934 -0.5146 -0.7695
| 38> C -5.7431 0.9910 -0.4980
| 39> O -6.3075 1.8223 -1.2649
| 40> H -4.1250 3.3236 0.4817
| 41> H -4.1224 2.9255 -1.2852
| 42> H -2.7348 2.4480 -0.2790
| 43> H -2.7850 -1.1598 3.4399
| 44> H -3.2031 -2.8944 3.5946
| 45> H -0.6095 -0.8491 2.5614
| 46> H 3.3919 -0.6803 -2.7778
| 47> H 8.1715 0.3903 -2.0567
| 48> H 8.3072 0.6335 -0.2715
| 49> H 3.5165 0.2863 1.4313
| 50> H 1.8957 -2.2935 -2.2491
| 51> H -5.4402 -3.6816 2.3912
| 52> H -7.7224 -0.2595 -1.8508
| 53> H -7.9243 -1.5983 -0.6825
| 54> H -8.4764 0.0646 -0.2357
| 55> *
| 56>
| 57>                          ****END OF INPUT****

CARTESIAN COORDINATES (ANGSTROEM)
---------------------------------
  C     -3.840300    2.561000   -0.273500
  N     -4.501600    1.283700    0.042300
  C     -3.912000    0.415800    0.933400
  O     -2.805100    0.687500    1.474400
  C     -4.568900   -0.769600    1.235700
  C     -4.267800   -1.841600    2.054800
  C     -3.027100   -2.076900    2.862800
  C     -1.888600   -2.458500    1.964600
  O     -1.940600   -3.550100    1.335500
  N     -0.747900   -1.593900    1.840800
  C      0.197800   -1.649800    0.764000
  N      1.306100   -0.880500    0.734800
  C      2.031600   -1.057700   -0.405400
  C      3.297100   -0.314200   -0.639500
  C      3.871100   -0.225100   -1.922400
  C      5.062400    0.480500   -2.123400
  Cl     5.728300    0.595600   -3.746000
  C      5.699500    1.107000   -1.041600
  O      6.889400    1.810700   -1.233400
  C      8.149000    1.148000   -1.243900
  C      9.261800    2.162700   -1.466600
  F      9.252000    3.101100   -0.450300
  F      9.078500    2.801700   -2.679500
  F     10.484600    1.516700   -1.475400
  C      5.127200    1.038800    0.235700
  Cl     5.898100    1.829200    1.602300
  C      3.936000    0.333200    0.433900
  C      1.484000   -1.984200   -1.299100
  S      0.058300   -2.577500   -0.632700
  C     -5.337200   -2.719700    1.906400
  O     -6.225600   -2.212000    1.071500
  C     -5.770800   -1.048600    0.666200
  N     -6.375100   -0.197800   -0.205900
  C     -7.693400   -0.514600   -0.769500
  C     -5.743100    0.991000   -0.498000
  O     -6.307500    1.822300   -1.264900
  H     -4.125000    3.323600    0.481700
  H     -4.122400    2.925500   -1.285200
  H     -2.734800    2.448000   -0.279000
  H     -2.785000   -1.159800    3.439900
  H     -3.203100   -2.894400    3.594600
  H     -0.609500   -0.849100    2.561400
  H      3.391900   -0.680300   -2.777800
  H      8.171500    0.390300   -2.056700
  H      8.307200    0.633500   -0.271500
  H      3.516500    0.286300    1.431300
  H      1.895700   -2.293500   -2.249100
  H     -5.440200   -3.681600    2.391200
  H     -7.722400   -0.259500   -1.850800
  H     -7.924300   -1.598300   -0.682500
  H     -8.476400    0.064600   -0.235700

 Total Charge           Charge          ....    0
 Multiplicity           Mult            ....    1
 Number of Electrons    NEL             ....  286
 Basis Dimension        Dim             ....  546

ORBITAL ENERGIES
----------------

  NO   OCC          E(Eh)            E(eV)
   0   2.0000    -101.539096     -2763.0193
   1   2.0000    -101.534239     -2762.8871
   2   2.0000     -88.905504     -2419.2418
   3   2.0000     -24.722386      -672.7303
   4   2.0000     -24.713427      -672.4866
   5   2.0000     -24.713239      -672.4814
   6   2.0000     -19.260961      -524.1174
   7   2.0000     -19.177573      -521.8483
   8   2.0000     -19.134577      -520.6783
   9   2.0000     -19.121904      -520.3335
  10   2.0000     -19.116148      -520.1768
  11   2.0000     -14.423019      -392.4703
  12   2.0000     -14.404261      -391.9599
  13   2.0000     -14.393517      -391.6675
  14   2.0000     -14.333101      -390.0235
  15   2.0000     -10.434121      -283.9269
  16   2.0000     -10.339146      -281.3425
  17   2.0000     -10.314212      -280.6640
  18   2.0000     -10.310103      -280.5522
  19   2.0000     -10.298464      -280.2354
  20   2.0000     -10.292840      -280.0824
  21   2.0000     -10.270726      -279.4807
  22   2.0000     -10.263141      -279.2743
  23   2.0000     -10.260746      -279.2091
  24   2.0000     -10.258212      -279.1401
  25   2.0000     -10.252481      -278.9842
  26   2.0000     -10.246330      -278.8168
  27   2.0000     -10.231804      -278.4215
  28   2.0000     -10.224463      -278.2218
  29   2.0000     -10.218490      -278.0593
  30   2.0000     -10.218265      -278.0531
  31   2.0000     -10.213916      -277.9348
  32   2.0000     -10.210929      -277.8535
  33   2.0000     -10.208999      -277.8010
  34   2.0000     -10.203036      -277.6387
  35   2.0000     -10.196502      -277.4609
  36   2.0000      -9.470310      -257.7002
  37   2.0000      -9.465480      -257.5688
  38   2.0000      -7.981881      -217.1980
  39   2.0000      -7.233615      -196.8367
  40   2.0000      -7.228810      -196.7059
  41   2.0000      -7.223879      -196.5717
  42   2.0000      -7.223494      -196.5613
  43   2.0000      -7.219084      -196.4413
  44   2.0000      -7.218594      -196.4279
  45   2.0000      -5.945016      -161.7721
  46   2.0000      -5.940750      -161.6560
  47   2.0000      -5.938827      -161.6037
  48   2.0000      -1.276779       -34.7429
  49   2.0000      -1.204465       -32.7752
  50   2.0000      -1.198986       -32.6261
  51   2.0000      -1.188602       -32.3435
  52   2.0000      -1.075969       -29.2786
  53   2.0000      -1.066126       -29.0108
  54   2.0000      -1.035141       -28.1676
  55   2.0000      -1.027060       -27.9477
  56   2.0000      -0.984026       -26.7767
  57   2.0000      -0.979871       -26.6636
  58   2.0000      -0.946563       -25.7573
  59   2.0000      -0.916856       -24.9489
  60   2.0000      -0.903101       -24.5746
  61   2.0000      -0.875677       -23.8284
  62   2.0000      -0.862511       -23.4701
  63   2.0000      -0.834682       -22.7129
  64   2.0000      -0.811472       -22.0813
  65   2.0000      -0.802604       -21.8400
  66   2.0000      -0.793789       -21.6001
  67   2.0000      -0.768969       -20.9247
  68   2.0000      -0.759884       -20.6775
  69   2.0000      -0.749581       -20.3971
  70   2.0000      -0.738969       -20.1084
  71   2.0000      -0.726600       -19.7718
  72   2.0000      -0.716044       -19.4845
  73   2.0000      -0.673880       -18.3372
  74   2.0000      -0.658594       -17.9213
  75   2.0000      -0.653313       -17.7775
  76   2.0000      -0.634817       -17.2742
  77   2.0000      -0.628400       -17.0996
  78   2.0000      -0.622160       -16.9298
  79   2.0000      -0.614790       -16.7293
  80   2.0000      -0.590353       -16.0643
  81   2.0000      -0.578476       -15.7411
  82   2.0000      -0.572904       -15.5895
  83   2.0000      -0.570362       -15.5203
  84   2.0000      -0.561503       -15.2793
  85   2.0000      -0.551661       -15.0115
  86   2.0000      -0.546840       -14.8803
  87   2.0000      -0.535238       -14.5646
  88   2.0000      -0.532117       -14.4796
  89   2.0000      -0.524060       -14.2604
  90   2.0000      -0.517219       -14.0743
  91   2.0000      -0.503303       -13.6956
  92   2.0000      -0.500440       -13.6177
  93   2.0000      -0.494919       -13.4674
  94   2.0000      -0.488091       -13.2816
  95   2.0000      -0.482492       -13.1293
  96   2.0000      -0.467696       -12.7266
  97   2.0000      -0.464419       -12.6375
  98   2.0000      -0.462649       -12.5893
  99   2.0000      -0.461764       -12.5652
 100   2.0000      -0.454763       -12.3747
 101   2.0000      -0.446089       -12.1387
 102   2.0000      -0.443369       -12.0647
 103   2.0000      -0.443124       -12.0580
 104   2.0000      -0.442097       -12.0301
 105   2.0000      -0.438494       -11.9320
 106   2.0000      -0.435523       -11.8512
 107   2.0000      -0.434659       -11.8277
 108   2.0000      -0.428435       -11.6583
 109   2.0000      -0.416722       -11.3396
 110   2.0000      -0.416446       -11.3321
 111   2.0000      -0.414239       -11.2720
 112   2.0000      -0.410665       -11.1748
 113   2.0000      -0.409187       -11.1345
 114   2.0000      -0.406939       -11.0734
 115   2.0000      -0.404911       -11.0182
 116   2.0000      -0.396475       -10.7886
 117   2.0000      -0.394669       -10.7395
 118   2.0000      -0.390473       -10.6253
 119   2.0000      -0.388715       -10.5775
 120   2.0000      -0.384552       -10.4642
 121   2.0000      -0.380599       -10.3566
 122   2.0000      -0.371754       -10.1159
 123   2.0000      -0.364320        -9.9136
 124   2.0000      -0.360488        -9.8094
 125   2.0000      -0.355322        -9.6688
 126   2.0000      -0.336017        -9.1435
 127   2.0000      -0.334202        -9.0941
 128   2.0000      -0.320431        -8.7194
 129   2.0000      -0.314228        -8.5506
 130   2.0000      -0.311974        -8.4892
 131   2.0000      -0.295965        -8.0536
 132   2.0000      -0.293421        -7.9844
 133   2.0000      -0.288138        -7.8406
 134   2.0000      -0.284246        -7.7347
 135   2.0000      -0.278676        -7.5831
 136   2.0000      -0.273038        -7.4297
 137   2.0000      -0.266601        -7.2546
 138   2.0000      -0.258376        -7.0308
 139   2.0000      -0.252844        -6.8802
 140   2.0000      -0.250426        -6.8144
 141   2.0000      -0.221488        -6.0270
 142   2.0000      -0.215223        -5.8565
 143   0.0000      -0.046263        -1.2589
 144   0.0000      -0.036305        -0.9879
 145   0.0000      -0.027978        -0.7613
 146   0.0000      -0.024820        -0.6754
 147   0.0000      -0.010969        -0.2985

MULLIKEN ATOMIC CHARGES
-----------------------
   0 C :   -0.316718
   1 N :   -0.483936
   2 C :    0.512839
   3 O :   -0.517136
   4 C :    0.029884
   5 C :    0.061776
   6 C :   -0.428036
   7 C :    0.574932
   8 O :   -0.459346
   9 N :   -0.626337
  10 C :    0.268220
  11 N :   -0.433215
  12 C :    0.210717
  13 C :    0.145631
  14 C :   -0.193958
  15 C :   -0.115277
  16 Cl:    0.011318
  17 C :    0.350749
  18 O :   -0.509197
  19 C :   -0.118234
  20 C :    0.914930
  21 F :   -0.294320
  22 F :   -0.294857
  23 F :   -0.301234
  24 C :   -0.108404
  25 Cl:    0.014387
  26 C :   -0.185061
  27 C :   -0.402640
  28 S :    0.316748
  29 C :    0.005995
  30 O :   -0.383952
  31 C :    0.496799
  32 N :   -0.498120
  33 C :   -0.329596
  34 C :    0.679092
  35 O :   -0.500895
  36 H :    0.178879
  37 H :    0.197371
  38 H :    0.197634
  39 H :    0.175773
  40 H :    0.179605
  41 H :    0.366308
  42 H :    0.154349
  43 H :    0.170711
  44 H :    0.169469
  45 H :    0.179878
  46 H :    0.182434
  47 H :    0.175530
  48 H :    0.204492
  49 H :    0.185675
  50 H :    0.188350
Sum of atomic charges:   -0.0000000

LOEWDIN ATOMIC CHARGES
----------------------
   0 C :   -0.259855
   1 N :   -0.027789
   2 C :    0.112414
   3 O :   -0.310515
   4 C :   -0.114032
   5 C :   -0.025191
   6 C :   -0.235438
   7 C :    0.157918
   8 O :   -0.263685
   9 N :   -0.187560
  10 C :   -0.071627
  11 N :   -0.184674
  12 C :   -0.008874
  13 C :   -0.008032
  14 C :   -0.129054
  15 C :   -0.098694
  16 Cl:    0.054890
  17 C :    0.055658
  18 O :   -0.184665
  19 C :   -0.115720
  20 C :    0.303328
  21 F :   -0.109173
  22 F :   -0.109371
  23 F :   -0.111132
  24 C :   -0.096215
  25 Cl:    0.057311
  26 C :   -0.117382
  27 C :   -0.348046
  28 S :    0.427485
  29 C :   -0.080191
  30 O :   -0.001425
  31 C :    0.100003
  32 N :   -0.022683
  33 C :   -0.259783
  34 C :    0.145269
  35 O :   -0.309951
  36 H :    0.140921
  37 H :    0.153934
  38 H :    0.153866
  39 H :    0.147342
  40 H :    0.154845
  41 H :    0.282734
  42 H :    0.146583
  43 H :    0.137123
  44 H :    0.136850
  45 H :    0.160967
  46 H :    0.161086
  47 H :    0.152433
  48 H :    0.156940
  49 H :    0.146758
  50 H :    0.144099

  Mayer bond orders larger than 0.100000
B(  0-C ,  1-N ) :   0.9159 B(  0-C , 36-H ) :   0.9402 B(  0-C , 37-H ) :   0.9252
B(  0-C , 38-H ) :   0.9243 B(  1-N ,  2-C ) :   0.9727 B(  1-N , 34-C ) :   1.0407
B(  2-C ,  3-O ) :   1.7600 B(  2-C ,  4-C ) :   1.0872 B(  4-C ,  5-C ) :   1.3110
B(  4-C , 31-C ) :   1.3616 B(  5-C ,  6-C ) :   1.0109 B(  5-C , 29-C ) :   1.5759
B(  6-C ,  7-C ) :   0.9414 B(  6-C , 39-H ) :   0.9086 B(  6-C , 40-H ) :   0.9142
B(  7-C ,  8-O ) :   1.8275 B(  7-C ,  9-N ) :   1.0328 B(  9-N , 10-C ) :   0.9577
B(  9-N , 41-H ) :   0.8014 B( 10-C , 11-N ) :   1.4790 B( 10-C , 27-C ) :   0.1051
B( 10-C , 28-S ) :   1.1784 B( 11-N , 12-C ) :   1.2900 B( 12-C , 13-C ) :   1.0565
B( 12-C , 27-C ) :   1.5161 B( 13-C , 14-C ) :   1.3947 B( 13-C , 26-C ) :   1.3922
B( 14-C , 15-C ) :   1.3956 B( 14-C , 42-H ) :   0.9111 B( 15-C , 16-Cl) :   1.0403
B( 15-C , 17-C ) :   1.3345 B( 17-C , 18-O ) :   0.9398 B( 17-C , 24-C ) :   1.3409
B( 18-O , 19-C ) :   0.8963 B( 19-C , 20-C ) :   0.9651 B( 19-C , 43-H ) :   0.9027
B( 19-C , 44-H ) :   0.9061 B( 20-C , 21-F ) :   0.9847 B( 20-C , 22-F ) :   0.9840
B( 20-C , 23-F ) :   0.9610 B( 24-C , 25-Cl) :   1.0473 B( 24-C , 26-C ) :   1.3718
B( 26-C , 45-H ) :   0.9029 B( 27-C , 28-S ) :   1.1120 B( 27-C , 46-H ) :   0.9017
B( 29-C , 30-O ) :   0.9991 B( 29-C , 47-H ) :   0.9252 B( 30-O , 31-C ) :   1.0749
B( 31-C , 32-N ) :   0.9894 B( 32-N , 33-C ) :   0.9234 B( 32-N , 34-C ) :   1.0414
B( 33-C , 48-H ) :   0.9269 B( 33-C , 49-H ) :   0.9297 B( 33-C , 50-H ) :   0.9342
B( 34-C , 35-O ) :   1.7976

FINAL SINGLE POINT ENERGY     -3021.367688381909

DIPOLE MOMENT
-------------

Method             : SCF
Type of density    : Electron Density
Multiplicity       :   1
Irrep              :   0
Energy             : -3021.3676883819093746 Eh
Relativity type    :
Basis              : AO
                                X                 Y                 Z
Electronic contribution:     70.376953016      11.964336033     -10.215824145
Nuclear contribution   :    -73.089135910     -13.548723784      10.951808609
                        -----------------------------------------
Total Dipole Moment    :     -2.712182894      -1.584387751       0.735984464
                        -----------------------------------------
Magnitude (a.u.)       :      3.226126738
Magnitude (Debye)      :      8.200162490

Rotational constants in cm-1:             0.007085             0.000908             0.000885
Rotational constants in MHz :           212.392333            27.210001            26.524249

                             ****ORCA TERMINATED NORMALLY****
TOTAL RUN TIME: 0 days 0 hours 5 minutes 17 seconds 557 msec
