                         Program Version 6.0.0  -   RELEASE  -
|  1> ! B3LYP 6-31G* SP
|  2>
|  3> * xyz 0 1
|  4> C 4.6133 1.1353 0.5206
|  5> C 3.4993 1.3786 -0.5069
|  6> C 2.9815 0.0498 -1.0725
|  7> C 2.3609 2.2569 0.0611
|  8> C 1.6553 1.6418 1.2441
|  9> O 2.1536 1.7918 2.3922
| 10> C 0.4079 0.8630 1.0896
| 11> S -0.4616 0.6499 -0.3377
| 12> C -1.6521 -0.3055 0.3793
| 13> C -2.8194 -0.8992 -0.3121
| 14> C -3.7459 -1.6771 0.4070
| 15> C -4.8501 -2.2412 -0.2391
| 16> C -5.0422 -2.0364 -1.6069
| 17> C -4.1300 -1.2664 -2.3323
| 18> F -4.3176 -1.0683 -3.6604
| 19> C -3.0236 -0.6997 -1.6908
| 20> N -1.4036 -0.4687 1.6993
| 21> C -0.2710 0.1736 2.0944
| 22> O 0.1667 0.1321 3.4143
| 23> H 4.2556 0.4902 1.3510
| 24> H 4.9690 2.1009 0.9389
| 25> H 5.4752 0.6318 0.0328
| 26> H 3.9514 1.9418 -1.3535
| 27> H 3.8116 -0.5058 -1.5585
| 28> H 2.2001 0.2382 -1.8388
| 29> H 2.5563 -0.5863 -0.2675
| 30> H 1.6330 2.4845 -0.7463
| 31> H 2.7846 3.2369 0.3719
| 32> H -3.6181 -1.8501 1.4682
| 33> H -5.5576 -2.8381 0.3219
| 34> H -5.8980 -2.4748 -2.1039
| 35> H -2.3316 -0.1079 -2.2755
| 36> H -0.3531 -0.3809 4.1161
| 37> *
| 38>
| 39>                          ****END OF INPUT****

CARTESIAN COORDINATES (ANGSTROEM)
---------------------------------
  C      4.613300    1.135300    0.520600
  C      3.499300    1.378600   -0.506900
  C      2.981500    0.049800   -1.072500
  C      2.360900    2.256900    0.061100
  C      1.655300    1.641800    1.244100
  O      2.153600    1.791800    2.392200
  C      0.407900    0.863000    1.089600
  S     -0.461600    0.649900   -0.337700
  C     -1.652100   -0.305500    0.379300
  C     -2.819400   -0.899200   -0.312100
  C     -3.745900   -1.677100    0.407000
  C     -4.850100   -2.241200   -0.239100
  C     -5.042200   -2.036400   -1.606900
  C     -4.130000   -1.266400   -2.332300
  F     -4.317600   -1.068300   -3.660400
  C     -3.023600   -0.699700   -1.690800
  N     -1.403600   -0.468700    1.699300
  C     -0.271000    0.173600    2.094400
  O      0.166700    0.132100    3.414300
  H      4.255600    0.490200    1.351000
  H      4.969000    2.100900    0.938900
  H      5.475200    0.631800    0.032800
  H      3.951400    1.941800   -1.353500
  H      3.811600   -0.505800   -1.558500
  H      2.200100    0.238200   -1.838800
  H      2.556300   -0.586300   -0.267500
  H      1.633000    2.484500   -0.746300
  H      2.784600    3.236900    0.371900
  H     -3.618100   -1.850100    1.468200
  H     -5.557600   -2.838100    0.321900
  H     -5.898000   -2.474800   -2.103900
  H     -2.331600   -0.107900   -2.275500
  H     -0.353100   -0.380900    4.116100

 Total Charge           Charge          ....    0
 Multiplicity           Mult            ....    1
 Number of Electrons    NEL             ....  146
 Basis Dimension        Dim             ....  298

ORBITAL ENERGIES
----------------

  NO   OCC          E(Eh)            E(eV)
   0   2.0000     -88.910924     -2419.3893
   1   2.0000     -24.709250      -672.3729
   2   2.0000     -19.178598      -521.8762
   3   2.0000     -19.116292      -520.1808
   4   2.0000     -14.343053      -390.2943
   5   2.0000     -10.294132      -280.1176
   6   2.0000     -10.283640      -279.8321
   7   2.0000     -10.270513      -279.4749
   8   2.0000     -10.269266      -279.4409
   9   2.0000     -10.226833      -278.2863
  10   2.0000     -10.218399      -278.0568
  11   2.0000     -10.208003      -277.7739
  12   2.0000     -10.204722      -277.6846
  13   2.0000     -10.203222      -277.6438
  14   2.0000     -10.199719      -277.5485
  15   2.0000     -10.189118      -277.2600
  16   2.0000     -10.182584      -277.0822
  17   2.0000     -10.168028      -276.6861
  18   2.0000     -10.159098      -276.4431
  19   2.0000      -7.987939      -217.3629
  20   2.0000      -5.950850      -161.9309
  21   2.0000      -5.946872      -161.8226
  22   2.0000      -5.945075      -161.7737
  23   2.0000      -1.222580       -33.2681
  24   2.0000      -1.048846       -28.5405
  25   2.0000      -1.001636       -27.2559
  26   2.0000      -0.969830       -26.3904
  27   2.0000      -0.875146       -23.8139
  28   2.0000      -0.827114       -22.5069
  29   2.0000      -0.803629       -21.8678
  30   2.0000      -0.793929       -21.6039
  31   2.0000      -0.761052       -20.7093
  32   2.0000      -0.739402       -20.1202
  33   2.0000      -0.709446       -19.3050
  34   2.0000      -0.672966       -18.3123
  35   2.0000      -0.654708       -17.8155
  36   2.0000      -0.632650       -17.2153
  37   2.0000      -0.617709       -16.8087
  38   2.0000      -0.592517       -16.1232
  39   2.0000      -0.571872       -15.5614
  40   2.0000      -0.544616       -14.8198
  41   2.0000      -0.537333       -14.6216
  42   2.0000      -0.515607       -14.0304
  43   2.0000      -0.505472       -13.7546
  44   2.0000      -0.486604       -13.2412
  45   2.0000      -0.475558       -12.9406
  46   2.0000      -0.466423       -12.6920
  47   2.0000      -0.465437       -12.6652
  48   2.0000      -0.454567       -12.3694
  49   2.0000      -0.445207       -12.1147
  50   2.0000      -0.442046       -12.0287
  51   2.0000      -0.429450       -11.6859
  52   2.0000      -0.415705       -11.3119
  53   2.0000      -0.409240       -11.1360
  54   2.0000      -0.396877       -10.7996
  55   2.0000      -0.385394       -10.4871
  56   2.0000      -0.384610       -10.4658
  57   2.0000      -0.381218       -10.3735
  58   2.0000      -0.376360       -10.2413
  59   2.0000      -0.364362        -9.9148
  60   2.0000      -0.362832        -9.8732
  61   2.0000      -0.357353        -9.7241
  62   2.0000      -0.357097        -9.7171
  63   2.0000      -0.350906        -9.5486
  64   2.0000      -0.327803        -8.9200
  65   2.0000      -0.324068        -8.8183
  66   2.0000      -0.318765        -8.6740
  67   2.0000      -0.292792        -7.9673
  68   2.0000      -0.285697        -7.7742
  69   2.0000      -0.274685        -7.4746
  70   2.0000      -0.256878        -6.9900
  71   2.0000      -0.232785        -6.3344
  72   2.0000      -0.223227        -6.0743
  73   0.0000      -0.078059        -2.1241
  74   0.0000      -0.020148        -0.5483
  75   0.0000      -0.014028        -0.3817
  76   0.0000       0.015502         0.4218
  77   0.0000       0.031348         0.8530

MULLIKEN ATOMIC CHARGES
-----------------------
   0 C :   -0.430870
   1 C :   -0.066681
   2 C :   -0.446630
   3 C :   -0.357991
   4 C :    0.416683
   5 O :   -0.434378
   6 C :   -0.267429
   7 S :    0.284464
   8 C :   -0.021154
   9 C :    0.158292
  10 C :   -0.158957
  11 C :   -0.116416
  12 C :   -0.199494
  13 C :    0.413543
  14 F :   -0.314486
  15 C :   -0.279513
  16 N :   -0.424481
  17 C :    0.505928
  18 O :   -0.613381
  19 H :    0.160798
  20 H :    0.144677
  21 H :    0.132144
  22 H :    0.127661
  23 H :    0.143016
  24 H :    0.140296
  25 H :    0.150550
  26 H :    0.139409
  27 H :    0.166631
  28 H :    0.162904
  29 H :    0.148124
  30 H :    0.151358
  31 H :    0.161477
  32 H :    0.423908
Sum of atomic charges:   -0.0000000

LOEWDIN ATOMIC CHARGES
----------------------
   0 C :   -0.355032
   1 C :   -0.116261
   2 C :   -0.358763
   3 C :   -0.247578
   4 C :    0.127006
   5 O :   -0.231717
   6 C :   -0.273538
   7 S :    0.403647
   8 C :   -0.108045
   9 C :   -0.022153
  10 C :   -0.113276
  11 C :   -0.116047
  12 C :   -0.147984
  13 C :    0.120357
  14 F :   -0.100485
  15 C :   -0.151942
  16 N :   -0.183513
  17 C :    0.114802
  18 O :   -0.309103
  19 H :    0.131829
  20 H :    0.125985
  21 H :    0.119149
  22 H :    0.118674
  23 H :    0.125081
  24 H :    0.121398
  25 H :    0.125430
  26 H :    0.124870
  27 H :    0.144292
  28 H :    0.150482
  29 H :    0.141591
  30 H :    0.146550
  31 H :    0.150475
  32 H :    0.343821

  Mayer bond orders larger than 0.100000
B(  0-C ,  1-C ) :   1.0142 B(  0-C , 19-H ) :   0.9387 B(  0-C , 20-H ) :   0.9483
B(  0-C , 21-H ) :   0.9463 B(  1-C ,  2-C ) :   1.0112 B(  1-C ,  3-C ) :   0.9878
B(  1-C , 22-H ) :   0.9308 B(  2-C , 23-H ) :   0.9477 B(  2-C , 24-H ) :   0.9437
B(  2-C , 25-H ) :   0.9398 B(  3-C ,  4-C ) :   0.9664 B(  3-C , 26-H ) :   0.9161
B(  3-C , 27-H ) :   0.9233 B(  4-C ,  5-O ) :   1.8480 B(  4-C ,  6-C ) :   1.0061
B(  6-C ,  7-S ) :   1.0669 B(  6-C ,  8-C ) :   0.1132 B(  6-C , 17-C ) :   1.3950
B(  7-S ,  8-C ) :   1.1682 B(  8-C ,  9-C ) :   1.0232 B(  8-C , 16-N ) :   1.4343
B(  9-C , 10-C ) :   1.4079 B(  9-C , 15-C ) :   1.3575 B( 10-C , 11-C ) :   1.4338
B( 10-C , 28-H ) :   0.9117 B( 11-C , 12-C ) :   1.4233 B( 11-C , 29-H ) :   0.9282
B( 12-C , 13-C ) :   1.3869 B( 12-C , 30-H ) :   0.9197 B( 13-C , 14-F ) :   0.9159
B( 13-C , 15-C ) :   1.3924 B( 15-C , 31-H ) :   0.9065 B( 16-N , 17-C ) :   1.2986
B( 17-C , 18-O ) :   1.0256 B( 18-O , 32-H ) :   0.7541

FINAL SINGLE POINT ENERGY     -1244.565986769578

DIPOLE MOMENT
-------------

Method             : SCF
Type of density    : Electron Density
Multiplicity       :   1
Irrep              :   0
Energy             : -1244.5659867695781031 Eh
Relativity type    :
Basis              : AO
                                X                 Y                 Z
Electronic contribution:    -26.101944254      -3.563901870      -2.104999516
Nuclear contribution   :     25.179711480       2.896949450       1.559740242
                        -----------------------------------------
Total Dipole Moment    :     -0.922232775      -0.666952420      -0.545259274
                        -----------------------------------------
Magnitude (a.u.)       :      1.262000989
Magnitude (Debye)      :      3.207751591

Rotational constants in cm-1:             0.023268             0.005534             0.004708
Rotational constants in MHz :           697.569103           165.897307           141.145883

                             ****ORCA TERMINATED NORMALLY****
TOTAL RUN TIME: 0 days 0 hours 3 minutes 55 seconds 834 msec
