                         Program Version 6.0.0  -   RELEASE  -
|  1> ! B3LYP 6-31G* SP
|  2>
|  3> * xyz 0 1
|  4> C 0.5917 -2.1992 -3.4764
|  5> C 1.0966 -1.8208 -2.1011
|  6> C 0.7935 -0.5520 -1.5569
|  7> N -0.1421 0.3406 -2.1861
|  8> C -1.5666 -0.0075 -2.3023
|  9> C -2.0823 -0.6613 -1.0437
| 10> C -2.6832 -1.9303 -1.1010
| 11> C -3.1510 -2.5446 0.0646
| 12> C -3.0119 -1.9024 1.3112
| 13> O -3.4259 -2.4887 2.5176
| 14> C -4.0762 -3.7524 2.6421
| 15> F -5.2870 -3.7303 1.9739
| 16> F -4.3091 -4.0049 3.9796
| 17> F -3.2750 -4.7577 2.1334
| 18> C -2.4309 -0.6294 1.3612
| 19> C -1.9760 -0.0074 0.1943
| 20> S 0.3620 1.9571 -2.5690
| 21> O 1.8575 2.0738 -2.4571
| 22> O -0.0288 2.2793 -3.9844
| 23> C -0.3978 3.0916 -1.4563
| 24> C -1.6011 3.7201 -1.8002
| 25> C -2.2161 4.6021 -0.9062
| 26> C -1.6348 4.8662 0.3484
| 27> C -2.2692 5.8138 1.2916
| 28> O -3.3620 6.3715 0.9985
| 29> O -1.6577 6.1073 2.5067
| 30> C -0.4303 4.2252 0.6892
| 31> C 0.1824 3.3456 -0.2084
| 32> N 1.3454 -0.1725 -0.3745
| 33> C 2.1499 -0.9817 0.3602
| 34> O 2.6911 -0.5256 1.5721
| 35> C 2.5422 0.8088 2.0572
| 36> C 3.5129 1.7404 1.3266
| 37> C 2.8171 0.8204 3.5591
| 38> C 2.4180 -2.2842 -0.0873
| 39> C 3.2101 -3.1591 0.6792
| 40> C 3.4540 -4.4601 0.2379
| 41> C 2.9170 -4.9010 -0.9684
| 42> C 2.1302 -4.0471 -1.7440
| 43> C 1.8780 -2.7196 -1.3268
| 44> H -0.2994 -2.8558 -3.3796
| 45> H 1.3822 -2.7174 -4.0592
| 46> H 0.3289 -1.3030 -4.0764
| 47> H -2.1734 0.9015 -2.4966
| 48> H -1.7132 -0.6732 -3.1781
| 49> H -2.7843 -2.4493 -2.0470
| 50> H -3.6084 -3.5211 -0.0163
| 51> H -2.3257 -0.1214 2.3125
| 52> H -1.5275 0.9756 0.2582
| 53> H -2.0643 3.5274 -2.7609
| 54> H -3.1423 5.0786 -1.2018
| 55> H -2.0750 6.7655 3.1521
| 56> H 0.0422 4.4042 1.6459
| 57> H 1.1078 2.8614 0.0702
| 58> H 1.4976 1.1583 1.8976
| 59> H 4.5631 1.4134 1.4920
| 60> H 3.3091 1.7262 0.2357
| 61> H 3.3912 2.7819 1.6922
| 62> H 2.0998 0.1448 4.0715
| 63> H 2.6920 1.8447 3.9692
| 64> H 3.8507 0.4668 3.7672
| 65> H 3.6376 -2.8443 1.6230
| 66> H 4.0591 -5.1290 0.8356
| 67> H 3.1034 -5.9139 -1.3032
| 68> H 1.7135 -4.4459 -2.6582
| 69> *
| 70>
| 71>                          ****END OF INPUT****

CARTESIAN COORDINATES (ANGSTROEM)
---------------------------------
  C      0.591700   -2.199200   -3.476400
  C      1.096600   -1.820800   -2.101100
  C      0.793500   -0.552000   -1.556900
  N     -0.142100    0.340600   -2.186100
  C     -1.566600   -0.007500   -2.302300
  C     -2.082300   -0.661300   -1.043700
  C     -2.683200   -1.930300   -1.101000
  C     -3.151000   -2.544600    0.064600
  C     -3.011900   -1.902400    1.311200
  O     -3.425900   -2.488700    2.517600
  C     -4.076200   -3.752400    2.642100
  F     -5.287000   -3.730300    1.973900
  F     -4.309100   -4.004900    3.979600
  F     -3.275000   -4.757700    2.133400
  C     -2.430900   -0.629400    1.361200
  C     -1.976000   -0.007400    0.194300
  S      0.362000    1.957100   -2.569000
  O      1.857500    2.073800   -2.457100
  O     -0.028800    2.279300   -3.984400
  C     -0.397800    3.091600   -1.456300
  C     -1.601100    3.720100   -1.800200
  C     -2.216100    4.602100   -0.906200
  C     -1.634800    4.866200    0.348400
  C     -2.269200    5.813800    1.291600
  O     -3.362000    6.371500    0.998500
  O     -1.657700    6.107300    2.506700
  C     -0.430300    4.225200    0.689200
  C      0.182400    3.345600   -0.208400
  N      1.345400   -0.172500   -0.374500
  C      2.149900   -0.981700    0.360200
  O      2.691100   -0.525600    1.572100
  C      2.542200    0.808800    2.057200
  C      3.512900    1.740400    1.326600
  C      2.817100    0.820400    3.559100
  C      2.418000   -2.284200   -0.087300
  C      3.210100   -3.159100    0.679200
  C      3.454000   -4.460100    0.237900
  C      2.917000   -4.901000   -0.968400
  C      2.130200   -4.047100   -1.744000
  C      1.878000   -2.719600   -1.326800
  H     -0.299400   -2.855800   -3.379600
  H      1.382200   -2.717400   -4.059200
  H      0.328900   -1.303000   -4.076400
  H     -2.173400    0.901500   -2.496600
  H     -1.713200   -0.673200   -3.178100
  H     -2.784300   -2.449300   -2.047000
  H     -3.608400   -3.521100   -0.016300
  H     -2.325700   -0.121400    2.312500
  H     -1.527500    0.975600    0.258200
  H     -2.064300    3.527400   -2.760900
  H     -3.142300    5.078600   -1.201800
  H     -2.075000    6.765500    3.152100
  H      0.042200    4.404200    1.645900
  H      1.107800    2.861400    0.070200
  H      1.497600    1.158300    1.897600
  H      4.563100    1.413400    1.492000
  H      3.309100    1.726200    0.235700
  H      3.391200    2.781900    1.692200
  H      2.099800    0.144800    4.071500
  H      2.692000    1.844700    3.969200
  H      3.850700    0.466800    3.767200
  H      3.637600   -2.844300    1.623000
  H      4.059100   -5.129000    0.835600
  H      3.103400   -5.913900   -1.303200
  H      1.713500   -4.445900   -2.658200

 Total Charge           Charge          ....    0
 Multiplicity           Mult            ....    1
 Number of Electrons    NEL             ....  298
 Basis Dimension        Dim             ....  614

ORBITAL ENERGIES
----------------

  NO   OCC          E(Eh)            E(eV)
   0   2.0000     -89.097900     -2424.4771
   1   2.0000     -24.743268      -673.2986
   2   2.0000     -24.741648      -673.2545
   3   2.0000     -24.740746      -673.2299
   4   2.0000     -19.215162      -522.8711
   5   2.0000     -19.199289      -522.4392
   6   2.0000     -19.176321      -521.8142
   7   2.0000     -19.140596      -520.8421
   8   2.0000     -19.126016      -520.4454
   9   2.0000     -19.124433      -520.4023
  10   2.0000     -14.377278      -391.2256
  11   2.0000     -14.327881      -389.8815
  12   2.0000     -10.506187      -285.8879
  13   2.0000     -10.338118      -281.3145
  14   2.0000     -10.287212      -279.9293
  15   2.0000     -10.271892      -279.5124
  16   2.0000     -10.262824      -279.2656
  17   2.0000     -10.243861      -278.7496
  18   2.0000     -10.243191      -278.7314
  19   2.0000     -10.240825      -278.6670
  20   2.0000     -10.235158      -278.5128
  21   2.0000     -10.223258      -278.1890
  22   2.0000     -10.220734      -278.1203
  23   2.0000     -10.220411      -278.1115
  24   2.0000     -10.220170      -278.1050
  25   2.0000     -10.205593      -277.7083
  26   2.0000     -10.203704      -277.6569
  27   2.0000     -10.201077      -277.5854
  28   2.0000     -10.200687      -277.5748
  29   2.0000     -10.200304      -277.5644
  30   2.0000     -10.199863      -277.5524
  31   2.0000     -10.199651      -277.5466
  32   2.0000     -10.199325      -277.5377
  33   2.0000     -10.193478      -277.3786
  34   2.0000     -10.191756      -277.3318
  35   2.0000     -10.191459      -277.3237
  36   2.0000     -10.188721      -277.2492
  37   2.0000     -10.182575      -277.0819
  38   2.0000     -10.178364      -276.9674
  39   2.0000     -10.168843      -276.7083
  40   2.0000      -8.133575      -221.3258
  41   2.0000      -6.098547      -165.9499
  42   2.0000      -6.096586      -165.8965
  43   2.0000      -6.096318      -165.8892
  44   2.0000      -1.306575       -35.5537
  45   2.0000      -1.227289       -33.3962
  46   2.0000      -1.226530       -33.3756
  47   2.0000      -1.085045       -29.5256
  48   2.0000      -1.083993       -29.4969
  49   2.0000      -1.083157       -29.4742
  50   2.0000      -1.058292       -28.7976
  51   2.0000      -0.997704       -27.1489
  52   2.0000      -0.963035       -26.2055
  53   2.0000      -0.959650       -26.1134
  54   2.0000      -0.912313       -24.8253
  55   2.0000      -0.892664       -24.2906
  56   2.0000      -0.867656       -23.6101
  57   2.0000      -0.860570       -23.4173
  58   2.0000      -0.811007       -22.0686
  59   2.0000      -0.805571       -21.9207
  60   2.0000      -0.790455       -21.5094
  61   2.0000      -0.786145       -21.3921
  62   2.0000      -0.778990       -21.1974
  63   2.0000      -0.763798       -20.7840
  64   2.0000      -0.761716       -20.7273
  65   2.0000      -0.740815       -20.1586
  66   2.0000      -0.731651       -19.9092
  67   2.0000      -0.711823       -19.3697
  68   2.0000      -0.695831       -18.9345
  69   2.0000      -0.685421       -18.6512
  70   2.0000      -0.677772       -18.4431
  71   2.0000      -0.657203       -17.8834
  72   2.0000      -0.644201       -17.5296
  73   2.0000      -0.640840       -17.4381
  74   2.0000      -0.636706       -17.3257
  75   2.0000      -0.626709       -17.0536
  76   2.0000      -0.617512       -16.8033
  77   2.0000      -0.608283       -16.5522
  78   2.0000      -0.598534       -16.2869
  79   2.0000      -0.596229       -16.2242
  80   2.0000      -0.594096       -16.1662
  81   2.0000      -0.576658       -15.6916
  82   2.0000      -0.571024       -15.5384
  83   2.0000      -0.562940       -15.3184
  84   2.0000      -0.544407       -14.8141
  85   2.0000      -0.534331       -14.5399
  86   2.0000      -0.528946       -14.3934
  87   2.0000      -0.514514       -14.0006
  88   2.0000      -0.502161       -13.6645
  89   2.0000      -0.493560       -13.4305
  90   2.0000      -0.491271       -13.3682
  91   2.0000      -0.482208       -13.1216
  92   2.0000      -0.478177       -13.0119
  93   2.0000      -0.474010       -12.8985
  94   2.0000      -0.472242       -12.8504
  95   2.0000      -0.470586       -12.8053
  96   2.0000      -0.469273       -12.7696
  97   2.0000      -0.463501       -12.6125
  98   2.0000      -0.462351       -12.5812
  99   2.0000      -0.455646       -12.3988
 100   2.0000      -0.453135       -12.3304
 101   2.0000      -0.450473       -12.2580
 102   2.0000      -0.447669       -12.1817
 103   2.0000      -0.445738       -12.1291
 104   2.0000      -0.445030       -12.1099
 105   2.0000      -0.440455       -11.9854
 106   2.0000      -0.438094       -11.9212
 107   2.0000      -0.435328       -11.8459
 108   2.0000      -0.434059       -11.8113
 109   2.0000      -0.427344       -11.6286
 110   2.0000      -0.423820       -11.5327
 111   2.0000      -0.422687       -11.5019
 112   2.0000      -0.418527       -11.3887
 113   2.0000      -0.415346       -11.3021
 114   2.0000      -0.409302       -11.1377
 115   2.0000      -0.405005       -11.0207
 116   2.0000      -0.400920       -10.9096
 117   2.0000      -0.397146       -10.8069
 118   2.0000      -0.396016       -10.7762
 119   2.0000      -0.389810       -10.6073
 120   2.0000      -0.388473       -10.5709
 121   2.0000      -0.386768       -10.5245
 122   2.0000      -0.378641       -10.3033
 123   2.0000      -0.377890       -10.2829
 124   2.0000      -0.372567       -10.1381
 125   2.0000      -0.370341       -10.0775
 126   2.0000      -0.364833        -9.9276
 127   2.0000      -0.358698        -9.7607
 128   2.0000      -0.353442        -9.6177
 129   2.0000      -0.352569        -9.5939
 130   2.0000      -0.349737        -9.5168
 131   2.0000      -0.345434        -9.3997
 132   2.0000      -0.328029        -8.9261
 133   2.0000      -0.323458        -8.8017
 134   2.0000      -0.320686        -8.7263
 135   2.0000      -0.316478        -8.6118
 136   2.0000      -0.305963        -8.3257
 137   2.0000      -0.297312        -8.0903
 138   2.0000      -0.287376        -7.8199
 139   2.0000      -0.281435        -7.6582
 140   2.0000      -0.277528        -7.5519
 141   2.0000      -0.274216        -7.4618
 142   2.0000      -0.273980        -7.4554
 143   2.0000      -0.267302        -7.2737
 144   2.0000      -0.264684        -7.2024
 145   2.0000      -0.259180        -7.0527
 146   2.0000      -0.252329        -6.8662
 147   2.0000      -0.240188        -6.5359
 148   2.0000      -0.207539        -5.6474
 149   0.0000      -0.085470        -2.3258
 150   0.0000      -0.051275        -1.3953
 151   0.0000      -0.036086        -0.9819
 152   0.0000      -0.028480        -0.7750
 153   0.0000      -0.017457        -0.4750

MULLIKEN ATOMIC CHARGES
-----------------------
   0 C :   -0.550529
   1 C :    0.078708
   2 C :    0.366869
   3 N :   -0.621949
   4 C :   -0.227430
   5 C :    0.141881
   6 C :   -0.179709
   7 C :   -0.185962
   8 C :    0.354274
   9 O :   -0.545734
  10 C :    1.086077
  11 F :   -0.291313
  12 F :   -0.278761
  13 F :   -0.290015
  14 C :   -0.173179
  15 C :   -0.145098
  16 S :    1.213513
  17 O :   -0.541725
  18 O :   -0.538706
  19 C :   -0.137420
  20 C :   -0.153289
  21 C :   -0.138724
  22 C :    0.082399
  23 C :    0.528711
  24 O :   -0.443482
  25 O :   -0.623233
  26 C :   -0.154355
  27 C :   -0.144743
  28 N :   -0.466603
  29 C :    0.438343
  30 O :   -0.509868
  31 C :    0.163215
  32 C :   -0.471211
  33 C :   -0.448494
  34 C :    0.066018
  35 C :   -0.185081
  36 C :   -0.127926
  37 C :   -0.116326
  38 C :   -0.207644
  39 C :    0.138985
  40 H :    0.152890
  41 H :    0.164410
  42 H :    0.189093
  43 H :    0.178722
  44 H :    0.168045
  45 H :    0.138370
  46 H :    0.152872
  47 H :    0.148355
  48 H :    0.149099
  49 H :    0.185359
  50 H :    0.181778
  51 H :    0.435033
  52 H :    0.170288
  53 H :    0.206170
  54 H :    0.131987
  55 H :    0.148096
  56 H :    0.195157
  57 H :    0.132963
  58 H :    0.152349
  59 H :    0.145650
  60 H :    0.152404
  61 H :    0.154699
  62 H :    0.133637
  63 H :    0.135197
  64 H :    0.136890
Sum of atomic charges:    0.0000000

LOEWDIN ATOMIC CHARGES
----------------------
   0 C :   -0.360436
   1 C :   -0.038337
   2 C :    0.048521
   3 N :   -0.277716
   4 C :   -0.143854
   5 C :   -0.041976
   6 C :   -0.123127
   7 C :   -0.158682
   8 C :    0.088075
   9 O :   -0.159912
  10 C :    0.359102
  11 F :   -0.104918
  12 F :   -0.087068
  13 F :   -0.103506
  14 C :   -0.137439
  15 C :   -0.110488
  16 S :    1.265537
  17 O :   -0.566618
  18 O :   -0.570798
  19 C :   -0.177627
  20 C :   -0.110714
  21 C :   -0.086038
  22 C :   -0.038973
  23 C :    0.179654
  24 O :   -0.259765
  25 O :   -0.333900
  26 C :   -0.102309
  27 C :   -0.102416
  28 N :   -0.169480
  29 C :    0.137102
  30 O :   -0.167662
  31 C :   -0.001504
  32 C :   -0.374770
  33 C :   -0.358361
  34 C :   -0.041290
  35 C :   -0.102378
  36 C :   -0.131966
  37 C :   -0.114904
  38 C :   -0.128504
  39 C :    0.002811
  40 H :    0.130306
  41 H :    0.137106
  42 H :    0.147664
  43 H :    0.145881
  44 H :    0.131630
  45 H :    0.135956
  46 H :    0.142455
  47 H :    0.145135
  48 H :    0.143482
  49 H :    0.159202
  50 H :    0.161005
  51 H :    0.350236
  52 H :    0.153678
  53 H :    0.165704
  54 H :    0.114457
  55 H :    0.129046
  56 H :    0.146111
  57 H :    0.123620
  58 H :    0.129556
  59 H :    0.130766
  60 H :    0.129556
  61 H :    0.146205
  62 H :    0.134478
  63 H :    0.135233
  64 H :    0.138171

  Mayer bond orders larger than 0.100000
B(  0-C ,  1-C ) :   0.9965 B(  0-C , 40-H ) :   0.9255 B(  0-C , 41-H ) :   0.9300
B(  0-C , 42-H ) :   0.9288 B(  1-C ,  2-C ) :   1.4595 B(  1-C , 39-C ) :   1.2551
B(  2-C ,  3-N ) :   0.8703 B(  2-C , 28-N ) :   1.2433 B(  3-N ,  4-C ) :   0.9129
B(  3-N , 16-S ) :   0.8016 B(  4-C ,  5-C ) :   0.9577 B(  4-C , 43-H ) :   0.9134
B(  4-C , 44-H ) :   0.9173 B(  5-C ,  6-C ) :   1.4362 B(  5-C , 15-C ) :   1.4171
B(  6-C ,  7-C ) :   1.4281 B(  6-C , 45-H ) :   0.9199 B(  7-C ,  8-C ) :   1.3989
B(  7-C , 46-H ) :   0.9092 B(  8-C ,  9-O ) :   0.8254 B(  8-C , 14-C ) :   1.4096
B(  9-O , 10-C ) :   0.9890 B( 10-C , 11-F ) :   0.9715 B( 10-C , 12-F ) :   1.0084
B( 10-C , 13-F ) :   0.9680 B( 14-C , 15-C ) :   1.4478 B( 14-C , 47-H ) :   0.9187
B( 15-C , 48-H ) :   0.9120 B( 16-S , 17-O ) :   1.6230 B( 16-S , 18-O ) :   1.6521
B( 16-S , 19-C ) :   0.8091 B( 19-C , 20-C ) :   1.3804 B( 19-C , 27-C ) :   1.3994
B( 20-C , 21-C ) :   1.4141 B( 20-C , 49-H ) :   0.9083 B( 21-C , 22-C ) :   1.4052
B( 21-C , 50-H ) :   0.9095 B( 22-C , 23-C ) :   1.0076 B( 22-C , 26-C ) :   1.3775
B( 23-C , 24-O ) :   1.8636 B( 23-C , 25-O ) :   1.0265 B( 25-O , 51-H ) :   0.7413
B( 26-C , 27-C ) :   1.4148 B( 26-C , 52-H ) :   0.9159 B( 27-C , 53-H ) :   0.8931
B( 28-N , 29-C ) :   1.3935 B( 29-C , 30-O ) :   0.9744 B( 29-C , 34-C ) :   1.2241
B( 30-O , 31-C ) :   0.8499 B( 31-C , 32-C ) :   1.0027 B( 31-C , 33-C ) :   1.0122
B( 31-C , 54-H ) :   0.9161 B( 32-C , 55-H ) :   0.9425 B( 32-C , 56-H ) :   0.9237
B( 32-C , 57-H ) :   0.9415 B( 33-C , 58-H ) :   0.9468 B( 33-C , 59-H ) :   0.9431
B( 33-C , 60-H ) :   0.9439 B( 34-C , 35-C ) :   1.2967 B( 34-C , 39-C ) :   1.2994
B( 35-C , 36-C ) :   1.4931 B( 35-C , 38-C ) :   0.1048 B( 35-C , 61-H ) :   0.9161
B( 36-C , 37-C ) :   1.3612 B( 36-C , 62-H ) :   0.9302 B( 37-C , 38-C ) :   1.5038
B( 37-C , 63-H ) :   0.9296 B( 38-C , 39-C ) :   1.2958 B( 38-C , 64-H ) :   0.9171

FINAL SINGLE POINT ENERGY     -2339.363603489125

DIPOLE MOMENT
-------------

Method             : SCF
Type of density    : Electron Density
Multiplicity       :   1
Irrep              :   0
Energy             : -2339.3636034891246709 Eh
Relativity type    :
Basis              : AO
                                X                 Y                 Z
Electronic contribution:    -35.675621402     -15.063474126       9.213956784
Nuclear contribution   :     35.445686016      14.229288437      -7.783671452
                        -----------------------------------------
Total Dipole Moment    :     -0.229935386      -0.834185688       1.430285332
                        -----------------------------------------
Magnitude (a.u.)       :      1.671661501
Magnitude (Debye)      :      4.249025860

Rotational constants in cm-1:             0.002867             0.002138             0.001673
Rotational constants in MHz :            85.965209            64.101900            50.147334

                             ****ORCA TERMINATED NORMALLY****
TOTAL RUN TIME: 0 days 0 hours 14 minutes 34 seconds 441 msec
