                         Program Version 6.0.0  -   RELEASE  -
|  1> ! B3LYP 6-31G* SP
|  2>
|  3> * xyz 0 1
|  4> O 5.8608 0.3367 -1.8769
|  5> C 5.4129 1.2891 -1.1820
|  6> O 6.0011 2.5445 -1.2910
|  7> C 4.2786 1.0740 -0.2566
|  8> C 3.7597 2.1452 0.4926
|  9> C 2.6904 1.9438 1.3713
| 10> C 2.1252 0.6694 1.5160
| 11> S 0.7457 0.4134 2.5820
| 12> O 0.9131 -0.8791 3.3326
| 13> O 0.6705 1.5301 3.5859
| 14> N -0.7050 0.3631 1.6213
| 15> C -1.7761 1.3427 1.8191
| 16> C -1.6548 2.4756 0.8337
| 17> C -2.4779 2.5236 -0.3031
| 18> C -2.3526 3.5678 -1.2243
| 19> C -1.3930 4.5806 -1.0234
| 20> O -1.2267 5.6561 -1.9109
| 21> C -2.0025 5.8857 -3.0835
| 22> F -3.3345 6.0271 -2.7481
| 23> F -1.8479 4.8359 -3.9723
| 24> F -1.5684 7.0509 -3.6864
| 25> C -0.5697 4.5240 0.1070
| 26> C -0.6989 3.4831 1.0303
| 27> C -0.7890 -0.5833 0.5484
| 28> C -0.7820 -1.9570 0.8122
| 29> C -0.8504 -2.8780 -0.2500
| 30> C -0.8651 -4.2808 -0.0341
| 31> C -0.8073 -4.8801 1.3568
| 32> C -1.7936 -6.0114 1.6375
| 33> C -2.0452 -4.6357 2.2157
| 34> C -0.8489 -5.1424 -1.1455
| 35> C -0.8871 -4.6347 -2.4471
| 36> C -0.9219 -3.2596 -2.6635
| 37> C -0.8976 -2.3775 -1.5760
| 38> C -0.9108 -0.9940 -1.7898
| 39> N -0.8590 -0.1412 -0.7358
| 40> C 2.6356 -0.4001 0.7695
| 41> C 3.7035 -0.2014 -0.1105
| 42> H 6.7808 2.7022 -1.9193
| 43> H 4.1762 3.1406 0.3982
| 44> H 2.3055 2.7845 1.9341
| 45> H -2.7624 0.8374 1.7198
| 46> H -1.7429 1.7471 2.8528
| 47> H -3.2185 1.7516 -0.4783
| 48> H -3.0051 3.5759 -2.0856
| 49> H 0.1720 5.2955 0.2750
| 50> H -0.0614 3.4715 1.9039
| 51> H -0.7309 -2.2875 1.8370
| 52> H 0.1592 -4.9274 1.9034
| 53> H -1.4565 -6.7493 2.3918
| 54> H -2.5121 -6.2725 0.8289
| 55> H -2.8775 -4.0848 1.7243
| 56> H -1.8365 -4.5549 3.3051
| 57> H -0.8076 -6.2155 -1.0055
| 58> H -0.8849 -5.3120 -3.2912
| 59> H -0.9519 -2.8857 -3.6814
| 60> H -0.9581 -0.5890 -2.7951
| 61> H 2.2034 -1.3878 0.8634
| 62> H 4.0776 -1.0463 -0.6757
| 63> *
| 64>
| 65>                          ****END OF INPUT****

CARTESIAN COORDINATES (ANGSTROEM)
---------------------------------
  O      5.860800    0.336700   -1.876900
  C      5.412900    1.289100   -1.182000
  O      6.001100    2.544500   -1.291000
  C      4.278600    1.074000   -0.256600
  C      3.759700    2.145200    0.492600
  C      2.690400    1.943800    1.371300
  C      2.125200    0.669400    1.516000
  S      0.745700    0.413400    2.582000
  O      0.913100   -0.879100    3.332600
  O      0.670500    1.530100    3.585900
  N     -0.705000    0.363100    1.621300
  C     -1.776100    1.342700    1.819100
  C     -1.654800    2.475600    0.833700
  C     -2.477900    2.523600   -0.303100
  C     -2.352600    3.567800   -1.224300
  C     -1.393000    4.580600   -1.023400
  O     -1.226700    5.656100   -1.910900
  C     -2.002500    5.885700   -3.083500
  F     -3.334500    6.027100   -2.748100
  F     -1.847900    4.835900   -3.972300
  F     -1.568400    7.050900   -3.686400
  C     -0.569700    4.524000    0.107000
  C     -0.698900    3.483100    1.030300
  C     -0.789000   -0.583300    0.548400
  C     -0.782000   -1.957000    0.812200
  C     -0.850400   -2.878000   -0.250000
  C     -0.865100   -4.280800   -0.034100
  C     -0.807300   -4.880100    1.356800
  C     -1.793600   -6.011400    1.637500
  C     -2.045200   -4.635700    2.215700
  C     -0.848900   -5.142400   -1.145500
  C     -0.887100   -4.634700   -2.447100
  C     -0.921900   -3.259600   -2.663500
  C     -0.897600   -2.377500   -1.576000
  C     -0.910800   -0.994000   -1.789800
  N     -0.859000   -0.141200   -0.735800
  C      2.635600   -0.400100    0.769500
  C      3.703500   -0.201400   -0.110500
  H      6.780800    2.702200   -1.919300
  H      4.176200    3.140600    0.398200
  H      2.305500    2.784500    1.934100
  H     -2.762400    0.837400    1.719800
  H     -1.742900    1.747100    2.852800
  H     -3.218500    1.751600   -0.478300
  H     -3.005100    3.575900   -2.085600
  H      0.172000    5.295500    0.275000
  H     -0.061400    3.471500    1.903900
  H     -0.730900   -2.287500    1.837000
  H      0.159200   -4.927400    1.903400
  H     -1.456500   -6.749300    2.391800
  H     -2.512100   -6.272500    0.828900
  H     -2.877500   -4.084800    1.724300
  H     -1.836500   -4.554900    3.305100
  H     -0.807600   -6.215500   -1.005500
  H     -0.884900   -5.312000   -3.291200
  H     -0.951900   -2.885700   -3.681400
  H     -0.958100   -0.589000   -2.795100
  H      2.203400   -1.387800    0.863400
  H      4.077600   -1.046300   -0.675700

 Total Charge           Charge          ....    0
 Multiplicity           Mult            ....    1
 Number of Electrons    NEL             ....  280
 Basis Dimension        Dim             ....  578

ORBITAL ENERGIES
----------------

  NO   OCC          E(Eh)            E(eV)
   0   2.0000     -89.102210     -2424.5944
   1   2.0000     -24.737794      -673.1496
   2   2.0000     -24.735481      -673.0866
   3   2.0000     -24.735289      -673.0814
   4   2.0000     -19.206986      -522.6487
   5   2.0000     -19.195355      -522.3322
   6   2.0000     -19.136551      -520.7320
   7   2.0000     -19.133357      -520.6451
   8   2.0000     -19.127636      -520.4894
   9   2.0000     -14.374082      -391.1387
  10   2.0000     -14.335370      -390.0852
  11   2.0000     -10.499821      -285.7146
  12   2.0000     -10.334206      -281.2080
  13   2.0000     -10.265036      -279.3258
  14   2.0000     -10.261132      -279.2196
  15   2.0000     -10.242354      -278.7086
  16   2.0000     -10.232516      -278.4409
  17   2.0000     -10.230542      -278.3872
  18   2.0000     -10.230002      -278.3725
  19   2.0000     -10.219353      -278.0827
  20   2.0000     -10.219321      -278.0819
  21   2.0000     -10.215933      -277.9897
  22   2.0000     -10.215909      -277.9890
  23   2.0000     -10.209677      -277.8194
  24   2.0000     -10.208140      -277.7776
  25   2.0000     -10.204148      -277.6690
  26   2.0000     -10.201218      -277.5892
  27   2.0000     -10.199194      -277.5342
  28   2.0000     -10.198057      -277.5032
  29   2.0000     -10.197618      -277.4913
  30   2.0000     -10.196265      -277.4545
  31   2.0000     -10.189733      -277.2767
  32   2.0000     -10.189042      -277.2579
  33   2.0000     -10.188729      -277.2494
  34   2.0000     -10.188435      -277.2414
  35   2.0000     -10.187909      -277.2271
  36   2.0000     -10.187537      -277.2170
  37   2.0000     -10.186378      -277.1854
  38   2.0000      -8.137923      -221.4441
  39   2.0000      -6.103009      -166.0713
  40   2.0000      -6.101100      -166.0194
  41   2.0000      -6.100381      -165.9998
  42   2.0000      -1.300809       -35.3968
  43   2.0000      -1.221669       -33.2433
  44   2.0000      -1.220975       -33.2244
  45   2.0000      -1.087882       -29.6028
  46   2.0000      -1.080241       -29.3948
  47   2.0000      -1.077296       -29.3147
  48   2.0000      -0.993723       -27.0406
  49   2.0000      -0.968029       -26.3414
  50   2.0000      -0.965655       -26.2768
  51   2.0000      -0.916997       -24.9528
  52   2.0000      -0.888784       -24.1850
  53   2.0000      -0.877696       -23.8833
  54   2.0000      -0.856741       -23.3131
  55   2.0000      -0.850048       -23.1310
  56   2.0000      -0.807040       -21.9607
  57   2.0000      -0.797133       -21.6911
  58   2.0000      -0.781458       -21.2646
  59   2.0000      -0.775025       -21.0895
  60   2.0000      -0.774118       -21.0648
  61   2.0000      -0.750951       -20.4344
  62   2.0000      -0.739349       -20.1187
  63   2.0000      -0.727780       -19.8039
  64   2.0000      -0.702706       -19.1216
  65   2.0000      -0.674407       -18.3515
  66   2.0000      -0.663947       -18.0669
  67   2.0000      -0.651577       -17.7303
  68   2.0000      -0.637598       -17.3499
  69   2.0000      -0.634019       -17.2525
  70   2.0000      -0.630408       -17.1543
  71   2.0000      -0.619406       -16.8549
  72   2.0000      -0.613300       -16.6887
  73   2.0000      -0.597058       -16.2468
  74   2.0000      -0.592867       -16.1327
  75   2.0000      -0.587934       -15.9985
  76   2.0000      -0.586019       -15.9464
  77   2.0000      -0.574279       -15.6269
  78   2.0000      -0.567131       -15.4324
  79   2.0000      -0.563258       -15.3270
  80   2.0000      -0.542537       -14.7632
  81   2.0000      -0.532204       -14.4820
  82   2.0000      -0.516053       -14.0425
  83   2.0000      -0.509344       -13.8600
  84   2.0000      -0.494908       -13.4671
  85   2.0000      -0.490264       -13.3408
  86   2.0000      -0.487770       -13.2729
  87   2.0000      -0.486640       -13.2422
  88   2.0000      -0.480717       -13.0810
  89   2.0000      -0.474089       -12.9006
  90   2.0000      -0.471477       -12.8295
  91   2.0000      -0.466407       -12.6916
  92   2.0000      -0.464490       -12.6394
  93   2.0000      -0.462986       -12.5985
  94   2.0000      -0.460200       -12.5227
  95   2.0000      -0.456125       -12.4118
  96   2.0000      -0.448224       -12.1968
  97   2.0000      -0.444867       -12.1054
  98   2.0000      -0.442816       -12.0496
  99   2.0000      -0.441631       -12.0174
 100   2.0000      -0.441050       -12.0016
 101   2.0000      -0.438593       -11.9347
 102   2.0000      -0.431053       -11.7295
 103   2.0000      -0.429143       -11.6776
 104   2.0000      -0.422859       -11.5066
 105   2.0000      -0.419712       -11.4209
 106   2.0000      -0.416785       -11.3413
 107   2.0000      -0.414677       -11.2839
 108   2.0000      -0.413092       -11.2408
 109   2.0000      -0.405552       -11.0356
 110   2.0000      -0.400347       -10.8940
 111   2.0000      -0.398441       -10.8421
 112   2.0000      -0.389672       -10.6035
 113   2.0000      -0.385262       -10.4835
 114   2.0000      -0.382647       -10.4123
 115   2.0000      -0.375184       -10.2093
 116   2.0000      -0.372598       -10.1389
 117   2.0000      -0.369253       -10.0479
 118   2.0000      -0.366875        -9.9832
 119   2.0000      -0.358166        -9.7462
 120   2.0000      -0.352172        -9.5831
 121   2.0000      -0.341849        -9.3022
 122   2.0000      -0.339611        -9.2413
 123   2.0000      -0.328851        -8.9485
 124   2.0000      -0.320528        -8.7220
 125   2.0000      -0.314370        -8.5544
 126   2.0000      -0.308979        -8.4078
 127   2.0000      -0.301438        -8.2026
 128   2.0000      -0.291311        -7.9270
 129   2.0000      -0.290560        -7.9065
 130   2.0000      -0.284689        -7.7468
 131   2.0000      -0.277871        -7.5613
 132   2.0000      -0.275571        -7.4987
 133   2.0000      -0.273187        -7.4338
 134   2.0000      -0.272104        -7.4043
 135   2.0000      -0.263299        -7.1647
 136   2.0000      -0.253687        -6.9032
 137   2.0000      -0.249735        -6.7956
 138   2.0000      -0.226487        -6.1630
 139   2.0000      -0.222657        -6.0588
 140   0.0000      -0.081455        -2.2165
 141   0.0000      -0.065940        -1.7943
 142   0.0000      -0.037821        -1.0292
 143   0.0000      -0.027834        -0.7574
 144   0.0000      -0.008645        -0.2352

MULLIKEN ATOMIC CHARGES
-----------------------
   0 O :   -0.445956
   1 C :    0.528334
   2 O :   -0.622344
   3 C :    0.083709
   4 C :   -0.144488
   5 C :   -0.139486
   6 C :   -0.120448
   7 S :    1.219756
   8 O :   -0.536980
   9 O :   -0.556406
  10 N :   -0.596545
  11 C :   -0.255808
  12 C :    0.181100
  13 C :   -0.141466
  14 C :   -0.193171
  15 C :    0.351354
  16 O :   -0.546853
  17 C :    1.084776
  18 F :   -0.290988
  19 F :   -0.292918
  20 F :   -0.280838
  21 C :   -0.173532
  22 C :   -0.184132
  23 C :    0.346690
  24 C :   -0.229005
  25 C :    0.125316
  26 C :    0.074259
  27 C :   -0.184694
  28 C :   -0.312778
  29 C :   -0.302371
  30 C :   -0.176030
  31 C :   -0.125665
  32 C :   -0.200679
  33 C :    0.129234
  34 C :   -0.053546
  35 N :   -0.385518
  36 C :   -0.142369
  37 C :   -0.140029
  38 H :    0.434254
  39 H :    0.172983
  40 H :    0.181142
  41 H :    0.166496
  42 H :    0.202503
  43 H :    0.130645
  44 H :    0.146553
  45 H :    0.141638
  46 H :    0.162496
  47 H :    0.189813
  48 H :    0.168308
  49 H :    0.151263
  50 H :    0.153767
  51 H :    0.156760
  52 H :    0.158276
  53 H :    0.142552
  54 H :    0.137186
  55 H :    0.138103
  56 H :    0.156772
  57 H :    0.179720
  58 H :    0.179285
Sum of atomic charges:   -0.0000000

LOEWDIN ATOMIC CHARGES
----------------------
   0 O :   -0.262080
   1 C :    0.179727
   2 O :   -0.332925
   3 C :   -0.037717
   4 C :   -0.097642
   5 C :   -0.099156
   6 C :   -0.170337
   7 S :    1.267800
   8 O :   -0.570227
   9 O :   -0.577453
  10 N :   -0.273917
  11 C :   -0.144539
  12 C :   -0.033980
  13 C :   -0.107848
  14 C :   -0.161477
  15 C :    0.084889
  16 O :   -0.161034
  17 C :    0.357575
  18 F :   -0.103630
  19 F :   -0.106665
  20 F :   -0.089280
  21 C :   -0.143361
  22 C :   -0.126777
  23 C :    0.025105
  24 C :   -0.128365
  25 C :   -0.007400
  26 C :   -0.005098
  27 C :   -0.139856
  28 C :   -0.252559
  29 C :   -0.251357
  30 C :   -0.116855
  31 C :   -0.126432
  32 C :   -0.117169
  33 C :   -0.032115
  34 C :   -0.053851
  35 N :   -0.129604
  36 C :   -0.103384
  37 C :   -0.085195
  38 H :    0.350064
  39 H :    0.155028
  40 H :    0.157384
  41 H :    0.136615
  42 H :    0.157701
  43 H :    0.134169
  44 H :    0.139388
  45 H :    0.141717
  46 H :    0.144014
  47 H :    0.163719
  48 H :    0.142764
  49 H :    0.134629
  50 H :    0.135764
  51 H :    0.135455
  52 H :    0.136261
  53 H :    0.140086
  54 H :    0.136044
  55 H :    0.136718
  56 H :    0.139202
  57 H :    0.157540
  58 H :    0.159928

  Mayer bond orders larger than 0.100000
B(  0-O ,  1-C ) :   1.8618 B(  1-C ,  2-O ) :   1.0272 B(  1-C ,  3-C ) :   1.0075
B(  2-O , 38-H ) :   0.7416 B(  3-C ,  4-C ) :   1.3848 B(  3-C , 37-C ) :   1.4028
B(  4-C ,  5-C ) :   1.4176 B(  4-C , 39-H ) :   0.9145 B(  5-C ,  6-C ) :   1.4002
B(  5-C , 40-H ) :   0.9091 B(  6-C ,  7-S ) :   0.8145 B(  6-C , 36-C ) :   1.3782
B(  7-S ,  8-O ) :   1.6523 B(  7-S ,  9-O ) :   1.5762 B(  7-S , 10-N ) :   0.8171
B( 10-N , 11-C ) :   0.9259 B( 10-N , 23-C ) :   0.8972 B( 11-C , 12-C ) :   0.9468
B( 11-C , 41-H ) :   0.9239 B( 11-C , 42-H ) :   0.9125 B( 12-C , 13-C ) :   1.4342
B( 12-C , 22-C ) :   1.4433 B( 13-C , 14-C ) :   1.4347 B( 13-C , 43-H ) :   0.9214
B( 14-C , 15-C ) :   1.3937 B( 14-C , 44-H ) :   0.9107 B( 15-C , 16-O ) :   0.8190
B( 15-C , 21-C ) :   1.4197 B( 16-O , 17-C ) :   0.9955 B( 17-C , 18-F ) :   0.9700
B( 17-C , 19-F ) :   0.9667 B( 17-C , 20-F ) :   1.0061 B( 21-C , 22-C ) :   1.4291
B( 21-C , 45-H ) :   0.9200 B( 22-C , 46-H ) :   0.9034 B( 23-C , 24-C ) :   1.4409
B( 23-C , 35-N ) :   1.3145 B( 24-C , 25-C ) :   1.2763 B( 24-C , 34-C ) :   0.1022
B( 24-C , 47-H ) :   0.8865 B( 25-C , 26-C ) :   1.2736 B( 25-C , 33-C ) :   1.2759
B( 26-C , 27-C ) :   1.0197 B( 26-C , 30-C ) :   1.4870 B( 27-C , 28-C ) :   0.9437
B( 27-C , 29-C ) :   0.9255 B( 27-C , 48-H ) :   0.9171 B( 28-C , 29-C ) :   0.9619
B( 28-C , 49-H ) :   0.9422 B( 28-C , 50-H ) :   0.9412 B( 29-C , 51-H ) :   0.9443
B( 29-C , 52-H ) :   0.9416 B( 30-C , 31-C ) :   1.3242 B( 30-C , 53-H ) :   0.9212
B( 31-C , 32-C ) :   1.5102 B( 31-C , 54-H ) :   0.9288 B( 32-C , 33-C ) :   1.2849
B( 32-C , 55-H ) :   0.9240 B( 33-C , 34-C ) :   1.2351 B( 34-C , 35-N ) :   1.4910
B( 34-C , 56-H ) :   0.9252 B( 36-C , 37-C ) :   1.4251 B( 36-C , 57-H ) :   0.9085
B( 37-C , 58-H ) :   0.9097

FINAL SINGLE POINT ENERGY     -2223.641845665337

DIPOLE MOMENT
-------------

Method             : SCF
Type of density    : Electron Density
Multiplicity       :   1
Irrep              :   0
Energy             : -2223.6418456653368594 Eh
Relativity type    :
Basis              : AO
                                X                 Y                 Z
Electronic contribution:     -1.195531814      47.702107783     -19.598235495
Nuclear contribution   :      0.944170980     -48.750388574      18.301358810
                        -----------------------------------------
Total Dipole Moment    :     -0.251360834      -1.048280791      -1.296876685
                        -----------------------------------------
Magnitude (a.u.)       :      1.686405652
Magnitude (Debye)      :      4.286502513

Rotational constants in cm-1:             0.003365             0.001958             0.001654
Rotational constants in MHz :           100.877202            58.702878            49.572198

                             ****ORCA TERMINATED NORMALLY****
TOTAL RUN TIME: 0 days 0 hours 7 minutes 47 seconds 67 msec
