                         Program Version 6.0.0  -   RELEASE  -
|  1> ! B3LYP 6-31G* SP
|  2>
|  3> * xyz 0 1
|  4> C -2.4786 1.5052 -2.1056
|  5> C -1.7732 2.2769 -1.0121
|  6> C -1.1888 1.5974 0.0821
|  7> N -1.1641 0.1662 0.1419
|  8> C -0.2150 -0.5820 -0.6860
|  9> C 1.1420 -0.6004 -0.0372
| 10> C 2.0078 0.4933 -0.1849
| 11> C 3.2539 0.4970 0.4465
| 12> C 3.6479 -0.5868 1.2475
| 13> C 5.0082 -0.5890 1.8917
| 14> C 6.0143 -1.3049 0.9819
| 15> C 7.4707 -0.9332 1.2158
| 16> C 6.7438 -0.4193 -0.0184
| 17> C 2.7834 -1.6873 1.3894
| 18> F 3.1471 -2.7597 2.1381
| 19> C 1.5364 -1.6880 0.7568
| 20> S -2.0102 -0.6338 1.4289
| 21> O -3.0648 0.2781 1.9898
| 22> O -1.0460 -0.9847 2.5264
| 23> C -2.7952 -2.0798 0.8052
| 24> C -2.2810 -3.3512 1.0880
| 25> C -2.8970 -4.4915 0.5637
| 26> C -4.0376 -4.3748 -0.2520
| 27> C -4.6947 -5.5773 -0.8101
| 28> O -4.2248 -6.7251 -0.5841
| 29> O -5.8403 -5.4520 -1.5922
| 30> C -4.5447 -3.0948 -0.5350
| 31> C -3.9248 -1.9565 -0.0121
| 32> N -0.6246 2.3000 1.0990
| 33> C -0.5669 3.6534 1.1039
| 34> C -1.0822 4.3819 0.0295
| 35> C -0.9987 5.7827 0.0198
| 36> C -1.5047 6.5077 -1.0591
| 37> C -2.0948 5.8425 -2.1337
| 38> C -2.1881 4.4483 -2.1353
| 39> C -1.6890 3.6934 -1.0510
| 40> H -2.6463 0.4431 -1.8395
| 41> H -3.4823 1.9393 -2.2905
| 42> H -1.8780 1.5449 -3.0380
| 43> H -0.5836 -1.6179 -0.8446
| 44> H -0.1399 -0.1209 -1.6947
| 45> H 1.7173 1.3440 -0.7894
| 46> H 3.9116 1.3467 0.3115
| 47> H 5.3225 0.4554 2.1175
| 48> H 4.9662 -1.1230 2.8652
| 49> H 5.8405 -2.3569 0.6669
| 50> H 7.6639 -0.1519 1.9825
| 51> H 8.1947 -1.7488 1.0022
| 52> H 7.0320 -0.9338 -0.9597
| 53> H 6.5011 0.6645 0.0177
| 54> H 0.8779 -2.5378 0.8850
| 55> H -1.4016 -3.4629 1.7087
| 56> H -2.4802 -5.4631 0.7967
| 57> H -6.2982 -6.2687 -1.9799
| 58> H -5.4183 -2.9712 -1.1631
| 59> H -4.3237 -0.9775 -0.2476
| 60> H -0.1033 4.1572 1.9428
| 61> H -0.5402 6.3155 0.8442
| 62> H -1.4361 7.5880 -1.0642
| 63> H -2.4801 6.4090 -2.9713
| 64> H -2.6416 3.9752 -2.9953
| 65> *
| 66>
| 67>                          ****END OF INPUT****

CARTESIAN COORDINATES (ANGSTROEM)
---------------------------------
  C     -2.478600    1.505200   -2.105600
  C     -1.773200    2.276900   -1.012100
  C     -1.188800    1.597400    0.082100
  N     -1.164100    0.166200    0.141900
  C     -0.215000   -0.582000   -0.686000
  C      1.142000   -0.600400   -0.037200
  C      2.007800    0.493300   -0.184900
  C      3.253900    0.497000    0.446500
  C      3.647900   -0.586800    1.247500
  C      5.008200   -0.589000    1.891700
  C      6.014300   -1.304900    0.981900
  C      7.470700   -0.933200    1.215800
  C      6.743800   -0.419300   -0.018400
  C      2.783400   -1.687300    1.389400
  F      3.147100   -2.759700    2.138100
  C      1.536400   -1.688000    0.756800
  S     -2.010200   -0.633800    1.428900
  O     -3.064800    0.278100    1.989800
  O     -1.046000   -0.984700    2.526400
  C     -2.795200   -2.079800    0.805200
  C     -2.281000   -3.351200    1.088000
  C     -2.897000   -4.491500    0.563700
  C     -4.037600   -4.374800   -0.252000
  C     -4.694700   -5.577300   -0.810100
  O     -4.224800   -6.725100   -0.584100
  O     -5.840300   -5.452000   -1.592200
  C     -4.544700   -3.094800   -0.535000
  C     -3.924800   -1.956500   -0.012100
  N     -0.624600    2.300000    1.099000
  C     -0.566900    3.653400    1.103900
  C     -1.082200    4.381900    0.029500
  C     -0.998700    5.782700    0.019800
  C     -1.504700    6.507700   -1.059100
  C     -2.094800    5.842500   -2.133700
  C     -2.188100    4.448300   -2.135300
  C     -1.689000    3.693400   -1.051000
  H     -2.646300    0.443100   -1.839500
  H     -3.482300    1.939300   -2.290500
  H     -1.878000    1.544900   -3.038000
  H     -0.583600   -1.617900   -0.844600
  H     -0.139900   -0.120900   -1.694700
  H      1.717300    1.344000   -0.789400
  H      3.911600    1.346700    0.311500
  H      5.322500    0.455400    2.117500
  H      4.966200   -1.123000    2.865200
  H      5.840500   -2.356900    0.666900
  H      7.663900   -0.151900    1.982500
  H      8.194700   -1.748800    1.002200
  H      7.032000   -0.933800   -0.959700
  H      6.501100    0.664500    0.017700
  H      0.877900   -2.537800    0.885000
  H     -1.401600   -3.462900    1.708700
  H     -2.480200   -5.463100    0.796700
  H     -6.298200   -6.268700   -1.979900
  H     -5.418300   -2.971200   -1.163100
  H     -4.323700   -0.977500   -0.247600
  H     -0.103300    4.157200    1.942800
  H     -0.540200    6.315500    0.844200
  H     -1.436100    7.588000   -1.064200
  H     -2.480100    6.409000   -2.971300
  H     -2.641600    3.975200   -2.995300

 Total Charge           Charge          ....    0
 Multiplicity           Mult            ....    1
 Number of Electrons    NEL             ....  264
 Basis Dimension        Dim             ....  558

ORBITAL ENERGIES
----------------

  NO   OCC          E(Eh)            E(eV)
   0   2.0000     -89.092067     -2424.3184
   1   2.0000     -24.690261      -671.8562
   2   2.0000     -19.198812      -522.4262
   3   2.0000     -19.140456      -520.8383
   4   2.0000     -19.118167      -520.2318
   5   2.0000     -19.114197      -520.1237
   6   2.0000     -14.367194      -390.9512
   7   2.0000     -14.325105      -389.8059
   8   2.0000     -10.338042      -281.3124
   9   2.0000     -10.258585      -279.1503
  10   2.0000     -10.255652      -279.0705
  11   2.0000     -10.244535      -278.7680
  12   2.0000     -10.235305      -278.5168
  13   2.0000     -10.235184      -278.5135
  14   2.0000     -10.223736      -278.2020
  15   2.0000     -10.222584      -278.1707
  16   2.0000     -10.220709      -278.1196
  17   2.0000     -10.220661      -278.1183
  18   2.0000     -10.220140      -278.1041
  19   2.0000     -10.209916      -277.8259
  20   2.0000     -10.206469      -277.7321
  21   2.0000     -10.198551      -277.5167
  22   2.0000     -10.197959      -277.5006
  23   2.0000     -10.196809      -277.4693
  24   2.0000     -10.196398      -277.4581
  25   2.0000     -10.195159      -277.4244
  26   2.0000     -10.190884      -277.3080
  27   2.0000     -10.187353      -277.2120
  28   2.0000     -10.185335      -277.1571
  29   2.0000     -10.183124      -277.0969
  30   2.0000     -10.179652      -277.0024
  31   2.0000     -10.179180      -276.9896
  32   2.0000     -10.178502      -276.9711
  33   2.0000     -10.175416      -276.8871
  34   2.0000     -10.174362      -276.8585
  35   2.0000     -10.173037      -276.8224
  36   2.0000      -8.127830      -221.1695
  37   2.0000      -6.092936      -165.7972
  38   2.0000      -6.090851      -165.7405
  39   2.0000      -6.090412      -165.7285
  40   2.0000      -1.202656       -32.7259
  41   2.0000      -1.083332       -29.4790
  42   2.0000      -1.076261       -29.2866
  43   2.0000      -0.997559       -27.1449
  44   2.0000      -0.959028       -26.0965
  45   2.0000      -0.953532       -25.9469
  46   2.0000      -0.911843       -24.8125
  47   2.0000      -0.893019       -24.3003
  48   2.0000      -0.863814       -23.5056
  49   2.0000      -0.855439       -23.2777
  50   2.0000      -0.841204       -22.8903
  51   2.0000      -0.811192       -22.0737
  52   2.0000      -0.806617       -21.9492
  53   2.0000      -0.781939       -21.2777
  54   2.0000      -0.779605       -21.2141
  55   2.0000      -0.771435       -20.9918
  56   2.0000      -0.744390       -20.2559
  57   2.0000      -0.737357       -20.0645
  58   2.0000      -0.724414       -19.7123
  59   2.0000      -0.714162       -19.4333
  60   2.0000      -0.692457       -18.8427
  61   2.0000      -0.663886       -18.0652
  62   2.0000      -0.653893       -17.7933
  63   2.0000      -0.643855       -17.5202
  64   2.0000      -0.639312       -17.3966
  65   2.0000      -0.619653       -16.8616
  66   2.0000      -0.609029       -16.5725
  67   2.0000      -0.598186       -16.2775
  68   2.0000      -0.595059       -16.1924
  69   2.0000      -0.583910       -15.8890
  70   2.0000      -0.577329       -15.7099
  71   2.0000      -0.560401       -15.2493
  72   2.0000      -0.557659       -15.1747
  73   2.0000      -0.542452       -14.7609
  74   2.0000      -0.529473       -14.4077
  75   2.0000      -0.523579       -14.2473
  76   2.0000      -0.506544       -13.7838
  77   2.0000      -0.500197       -13.6111
  78   2.0000      -0.494651       -13.4601
  79   2.0000      -0.493270       -13.4225
  80   2.0000      -0.487302       -13.2602
  81   2.0000      -0.475776       -12.9465
  82   2.0000      -0.475650       -12.9431
  83   2.0000      -0.468741       -12.7551
  84   2.0000      -0.467122       -12.7110
  85   2.0000      -0.463075       -12.6009
  86   2.0000      -0.451424       -12.2839
  87   2.0000      -0.450381       -12.2555
  88   2.0000      -0.449312       -12.2264
  89   2.0000      -0.445892       -12.1333
  90   2.0000      -0.444610       -12.0984
  91   2.0000      -0.438822       -11.9410
  92   2.0000      -0.435746       -11.8572
  93   2.0000      -0.432682       -11.7739
  94   2.0000      -0.430111       -11.7039
  95   2.0000      -0.421890       -11.4802
  96   2.0000      -0.415141       -11.2966
  97   2.0000      -0.413503       -11.2520
  98   2.0000      -0.411181       -11.1888
  99   2.0000      -0.404460       -11.0059
 100   2.0000      -0.398892       -10.8544
 101   2.0000      -0.394176       -10.7261
 102   2.0000      -0.388473       -10.5709
 103   2.0000      -0.386955       -10.5296
 104   2.0000      -0.384088       -10.4516
 105   2.0000      -0.374293       -10.1850
 106   2.0000      -0.371360       -10.1052
 107   2.0000      -0.368649       -10.0314
 108   2.0000      -0.364873        -9.9287
 109   2.0000      -0.361764        -9.8441
 110   2.0000      -0.353532        -9.6201
 111   2.0000      -0.353011        -9.6059
 112   2.0000      -0.349182        -9.5017
 113   2.0000      -0.339737        -9.2447
 114   2.0000      -0.334392        -9.0993
 115   2.0000      -0.323120        -8.7926
 116   2.0000      -0.315641        -8.5890
 117   2.0000      -0.304940        -8.2978
 118   2.0000      -0.297444        -8.0938
 119   2.0000      -0.288594        -7.8530
 120   2.0000      -0.283989        -7.7277
 121   2.0000      -0.278994        -7.5918
 122   2.0000      -0.277147        -7.5415
 123   2.0000      -0.273615        -7.4455
 124   2.0000      -0.270364        -7.3570
 125   2.0000      -0.266459        -7.2507
 126   2.0000      -0.265442        -7.2230
 127   2.0000      -0.245978        -6.6934
 128   2.0000      -0.243421        -6.6238
 129   2.0000      -0.236603        -6.4383
 130   2.0000      -0.226109        -6.1527
 131   2.0000      -0.218057        -5.9336
 132   0.0000      -0.087190        -2.3726
 133   0.0000      -0.059820        -1.6278
 134   0.0000      -0.034480        -0.9382
 135   0.0000      -0.028840        -0.7848
 136   0.0000      -0.001452        -0.0395

MULLIKEN ATOMIC CHARGES
-----------------------
   0 C :   -0.544055
   1 C :    0.095661
   2 C :    0.329430
   3 N :   -0.602635
   4 C :   -0.286640
   5 C :    0.214271
   6 C :   -0.162221
   7 C :   -0.160914
   8 C :    0.089158
   9 C :   -0.365239
  10 C :   -0.068755
  11 C :   -0.313325
  12 C :   -0.303164
  13 C :    0.357693
  14 F :   -0.319185
  15 C :   -0.225472
  16 S :    1.210592
  17 O :   -0.539243
  18 O :   -0.526643
  19 C :   -0.141017
  20 C :   -0.151459
  21 C :   -0.138674
  22 C :    0.083548
  23 C :    0.528988
  24 O :   -0.442125
  25 O :   -0.623984
  26 C :   -0.148037
  27 C :   -0.140889
  28 N :   -0.358583
  29 C :   -0.049638
  30 C :    0.135347
  31 C :   -0.201704
  32 C :   -0.127324
  33 C :   -0.120558
  34 C :   -0.200759
  35 C :    0.124168
  36 H :    0.168429
  37 H :    0.166089
  38 H :    0.160745
  39 H :    0.163249
  40 H :    0.169580
  41 H :    0.121941
  42 H :    0.126193
  43 H :    0.137145
  44 H :    0.156357
  45 H :    0.147015
  46 H :    0.145379
  47 H :    0.144362
  48 H :    0.143343
  49 H :    0.141779
  50 H :    0.127447
  51 H :    0.197682
  52 H :    0.183540
  53 H :    0.434993
  54 H :    0.173237
  55 H :    0.180537
  56 H :    0.155976
  57 H :    0.140986
  58 H :    0.135781
  59 H :    0.136402
  60 H :    0.135199
Sum of atomic charges:    0.0000000

LOEWDIN ATOMIC CHARGES
----------------------
   0 C :   -0.361743
   1 C :   -0.017154
   2 C :    0.036685
   3 N :   -0.279680
   4 C :   -0.148997
   5 C :   -0.030140
   6 C :   -0.132615
   7 C :   -0.123090
   8 C :   -0.037039
   9 C :   -0.211521
  10 C :   -0.130012
  11 C :   -0.259540
  12 C :   -0.258861
  13 C :    0.113564
  14 F :   -0.106146
  15 C :   -0.145371
  16 S :    1.262613
  17 O :   -0.569394
  18 O :   -0.563549
  19 C :   -0.175260
  20 C :   -0.106616
  21 C :   -0.084920
  22 C :   -0.037789
  23 C :    0.179902
  24 O :   -0.258319
  25 O :   -0.334833
  26 C :   -0.099798
  27 C :   -0.102338
  28 N :   -0.107913
  29 C :   -0.055006
  30 C :   -0.028837
  31 C :   -0.110383
  32 C :   -0.127320
  33 C :   -0.118099
  34 C :   -0.126335
  35 C :   -0.007128
  36 H :    0.136904
  37 H :    0.138601
  38 H :    0.136077
  39 H :    0.133674
  40 H :    0.137708
  41 H :    0.129290
  42 H :    0.131818
  43 H :    0.126724
  44 H :    0.133240
  45 H :    0.132999
  46 H :    0.129624
  47 H :    0.130174
  48 H :    0.129967
  49 H :    0.127048
  50 H :    0.135749
  51 H :    0.163952
  52 H :    0.161787
  53 H :    0.350420
  54 H :    0.154828
  55 H :    0.156781
  56 H :    0.139282
  57 H :    0.138074
  58 H :    0.135360
  59 H :    0.135973
  60 H :    0.136928

  Mayer bond orders larger than 0.100000
B(  0-C ,  1-C ) :   0.9973 B(  0-C , 36-H ) :   0.9297 B(  0-C , 37-H ) :   0.9291
B(  0-C , 38-H ) :   0.9271 B(  1-C ,  2-C ) :   1.4385 B(  1-C , 29-C ) :   0.1020
B(  1-C , 35-C ) :   1.2658 B(  2-C ,  3-N ) :   0.8925 B(  2-C , 28-N ) :   1.2848
B(  3-N ,  4-C ) :   0.9369 B(  3-N , 16-S ) :   0.8000 B(  4-C ,  5-C ) :   0.9346
B(  4-C , 39-H ) :   0.9248 B(  4-C , 40-H ) :   0.9231 B(  5-C ,  6-C ) :   1.4298
B(  5-C , 15-C ) :   1.4089 B(  6-C ,  7-C ) :   1.4348 B(  6-C , 41-H ) :   0.9229
B(  7-C ,  8-C ) :   1.4245 B(  7-C , 42-H ) :   0.9247 B(  8-C ,  9-C ) :   0.9630
B(  8-C , 13-C ) :   1.3597 B(  9-C , 10-C ) :   1.0055 B(  9-C , 43-H ) :   0.9312
B(  9-C , 44-H ) :   0.9259 B( 10-C , 11-C ) :   0.9485 B( 10-C , 12-C ) :   0.9563
B( 10-C , 45-H ) :   0.9331 B( 11-C , 12-C ) :   0.9621 B( 11-C , 46-H ) :   0.9453
B( 11-C , 47-H ) :   0.9470 B( 12-C , 48-H ) :   0.9470 B( 12-C , 49-H ) :   0.9452
B( 13-C , 14-F ) :   0.9172 B( 13-C , 15-C ) :   1.3816 B( 15-C , 50-H ) :   0.9102
B( 16-S , 17-O ) :   1.6409 B( 16-S , 18-O ) :   1.6549 B( 16-S , 19-C ) :   0.8074
B( 19-C , 20-C ) :   1.3871 B( 19-C , 27-C ) :   1.3891 B( 20-C , 21-C ) :   1.4119
B( 20-C , 51-H ) :   0.9026 B( 21-C , 22-C ) :   1.4051 B( 21-C , 52-H ) :   0.9091
B( 22-C , 23-C ) :   1.0072 B( 22-C , 26-C ) :   1.3807 B( 23-C , 24-O ) :   1.8648
B( 23-C , 25-O ) :   1.0251 B( 25-O , 53-H ) :   0.7412 B( 26-C , 27-C ) :   1.4240
B( 26-C , 54-H ) :   0.9146 B( 27-C , 55-H ) :   0.9104 B( 28-N , 29-C ) :   1.4979
B( 29-C , 30-C ) :   1.2297 B( 29-C , 56-H ) :   0.9262 B( 30-C , 31-C ) :   1.2846
B( 30-C , 35-C ) :   1.2907 B( 31-C , 32-C ) :   1.5125 B( 31-C , 34-C ) :   0.1061
B( 31-C , 57-H ) :   0.9229 B( 32-C , 33-C ) :   1.3531 B( 32-C , 58-H ) :   0.9293
B( 33-C , 34-C ) :   1.5096 B( 33-C , 59-H ) :   0.9292 B( 34-C , 35-C ) :   1.2931
B( 34-C , 60-H ) :   0.9174

FINAL SINGLE POINT ENERGY     -1989.315714263790

DIPOLE MOMENT
-------------

Method             : SCF
Type of density    : Electron Density
Multiplicity       :   1
Irrep              :   0
Energy             : -1989.3157142637896868 Eh
Relativity type    :
Basis              : AO
                                X                 Y                 Z
Electronic contribution:    -24.072137307     -14.181486139      11.175280728
Nuclear contribution   :     23.564870383      15.130339149     -14.094798090
                        -----------------------------------------
Total Dipole Moment    :     -0.507266924       0.948853010      -2.919517361
                        -----------------------------------------
Magnitude (a.u.)       :      3.111466437
Magnitude (Debye)      :      7.908719168

Rotational constants in cm-1:             0.003133             0.002469             0.001524
Rotational constants in MHz :            93.932274            74.004679            45.690832

                             ****ORCA TERMINATED NORMALLY****
TOTAL RUN TIME: 0 days 0 hours 13 minutes 14 seconds 481 msec
