                         Program Version 6.0.0  -   RELEASE  -
|  1> ! B3LYP 6-31G* SP
|  2>
|  3> * xyz 0 1
|  4> C -6.5231 -1.7461 -2.1432
|  5> N -5.9796 -0.6396 -1.3321
|  6> C -5.1360 -0.9112 -0.2864
|  7> O -4.8469 -2.1107 -0.0297
|  8> C -4.5856 0.1403 0.4852
|  9> C -3.7114 -0.0440 1.6079
| 10> C -3.2632 -1.3930 2.1404
| 11> C -2.1319 -1.9552 1.3267
| 12> O -2.3058 -3.0286 0.6897
| 13> N -0.8624 -1.2805 1.3004
| 14> C 0.3230 -1.7749 0.6588
| 15> N 1.4793 -1.0790 0.6458
| 16> C 2.4844 -1.7492 0.0148
| 17> C 3.8431 -1.1636 -0.1144
| 18> C 4.0372 0.2087 0.1155
| 19> C 5.3108 0.7809 0.0246
| 20> F 5.4335 2.1085 0.2711
| 21> C 6.4258 -0.0209 -0.3048
| 22> O 7.7357 0.4775 -0.4112
| 23> C 8.1372 1.8202 -0.1539
| 24> C 9.6397 1.9552 -0.3611
| 25> F 10.3116 1.0932 0.4883
| 26> F 10.0296 3.2533 -0.0860
| 27> F 9.9618 1.6528 -1.6715
| 28> C 6.2316 -1.3876 -0.5345
| 29> F 7.2919 -2.1781 -0.8352
| 30> C 4.9586 -1.9561 -0.4366
| 31> C 2.1164 -3.0025 -0.4857
| 32> S 0.4960 -3.2591 -0.1159
| 33> C -3.2098 1.0893 2.2691
| 34> C -3.5668 2.3617 1.8486
| 35> N -4.4028 2.5172 0.7977
| 36> C -4.9262 1.4648 0.1086
| 37> N -5.7671 1.6993 -0.9475
| 38> C -6.0773 3.0867 -1.3448
| 39> C -6.2584 0.6544 -1.6828
| 40> O -6.9721 0.8859 -2.7008
| 41> H -7.5220 -1.4909 -2.5579
| 42> H -5.8276 -1.9723 -2.9791
| 43> H -6.6715 -2.6632 -1.5337
| 44> H -4.1133 -2.1017 2.2071
| 45> H -2.9068 -1.2979 3.1893
| 46> H -0.7778 -0.3746 1.8136
| 47> H 3.1991 0.8470 0.3639
| 48> H 7.8936 2.0874 0.8964
| 49> H 7.6149 2.5106 -0.8504
| 50> H 4.8613 -3.0209 -0.5859
| 51> H 2.7404 -3.6935 -1.0347
| 52> H -2.5387 0.9909 3.1141
| 53> H -3.1788 3.2321 2.3604
| 54> H -5.2677 3.4775 -1.9978
| 55> H -6.1818 3.7445 -0.4555
| 56> H -7.0444 3.1546 -1.8872
| 57> *
| 58>
| 59>                          ****END OF INPUT****

CARTESIAN COORDINATES (ANGSTROEM)
---------------------------------
  C     -6.523100   -1.746100   -2.143200
  N     -5.979600   -0.639600   -1.332100
  C     -5.136000   -0.911200   -0.286400
  O     -4.846900   -2.110700   -0.029700
  C     -4.585600    0.140300    0.485200
  C     -3.711400   -0.044000    1.607900
  C     -3.263200   -1.393000    2.140400
  C     -2.131900   -1.955200    1.326700
  O     -2.305800   -3.028600    0.689700
  N     -0.862400   -1.280500    1.300400
  C      0.323000   -1.774900    0.658800
  N      1.479300   -1.079000    0.645800
  C      2.484400   -1.749200    0.014800
  C      3.843100   -1.163600   -0.114400
  C      4.037200    0.208700    0.115500
  C      5.310800    0.780900    0.024600
  F      5.433500    2.108500    0.271100
  C      6.425800   -0.020900   -0.304800
  O      7.735700    0.477500   -0.411200
  C      8.137200    1.820200   -0.153900
  C      9.639700    1.955200   -0.361100
  F     10.311600    1.093200    0.488300
  F     10.029600    3.253300   -0.086000
  F      9.961800    1.652800   -1.671500
  C      6.231600   -1.387600   -0.534500
  F      7.291900   -2.178100   -0.835200
  C      4.958600   -1.956100   -0.436600
  C      2.116400   -3.002500   -0.485700
  S      0.496000   -3.259100   -0.115900
  C     -3.209800    1.089300    2.269100
  C     -3.566800    2.361700    1.848600
  N     -4.402800    2.517200    0.797700
  C     -4.926200    1.464800    0.108600
  N     -5.767100    1.699300   -0.947500
  C     -6.077300    3.086700   -1.344800
  C     -6.258400    0.654400   -1.682800
  O     -6.972100    0.885900   -2.700800
  H     -7.522000   -1.490900   -2.557900
  H     -5.827600   -1.972300   -2.979100
  H     -6.671500   -2.663200   -1.533700
  H     -4.113300   -2.101700    2.207100
  H     -2.906800   -1.297900    3.189300
  H     -0.777800   -0.374600    1.813600
  H      3.199100    0.847000    0.363900
  H      7.893600    2.087400    0.896400
  H      7.614900    2.510600   -0.850400
  H      4.861300   -3.020900   -0.585900
  H      2.740400   -3.693500   -1.034700
  H     -2.538700    0.990900    3.114100
  H     -3.178800    3.232100    2.360400
  H     -5.267700    3.477500   -1.997800
  H     -6.181800    3.744500   -0.455500
  H     -7.044400    3.154600   -1.887200

 Total Charge           Charge          ....    0
 Multiplicity           Mult            ....    1
 Number of Electrons    NEL             ....  276
 Basis Dimension        Dim             ....  554

ORBITAL ENERGIES
----------------

  NO   OCC          E(Eh)            E(eV)
   0   2.0000     -88.905471     -2419.2409
   1   2.0000     -24.727015      -672.8563
   2   2.0000     -24.720205      -672.6710
   3   2.0000     -24.718368      -672.6210
   4   2.0000     -24.717720      -672.6033
   5   2.0000     -24.706282      -672.2921
   6   2.0000     -19.187517      -522.1189
   7   2.0000     -19.132414      -520.6195
   8   2.0000     -19.119217      -520.2603
   9   2.0000     -19.118264      -520.2344
  10   2.0000     -14.411607      -392.1598
  11   2.0000     -14.404077      -391.9549
  12   2.0000     -14.401988      -391.8980
  13   2.0000     -14.351264      -390.5178
  14   2.0000     -14.335934      -390.1006
  15   2.0000     -10.438081      -284.0346
  16   2.0000     -10.334138      -281.2062
  17   2.0000     -10.315277      -280.6929
  18   2.0000     -10.302165      -280.3361
  19   2.0000     -10.297532      -280.2101
  20   2.0000     -10.294725      -280.1337
  21   2.0000     -10.284955      -279.8679
  22   2.0000     -10.282999      -279.8146
  23   2.0000     -10.271932      -279.5135
  24   2.0000     -10.268358      -279.4162
  25   2.0000     -10.253828      -279.0208
  26   2.0000     -10.251712      -278.9633
  27   2.0000     -10.232510      -278.4407
  28   2.0000     -10.228647      -278.3356
  29   2.0000     -10.228413      -278.3293
  30   2.0000     -10.222957      -278.1808
  31   2.0000     -10.218254      -278.0528
  32   2.0000     -10.215195      -277.9696
  33   2.0000     -10.214759      -277.9577
  34   2.0000     -10.209571      -277.8165
  35   2.0000     -10.201592      -277.5994
  36   2.0000     -10.197063      -277.4762
  37   2.0000      -7.981493      -217.1875
  38   2.0000      -5.944607      -161.7610
  39   2.0000      -5.940333      -161.6447
  40   2.0000      -5.938516      -161.5952
  41   2.0000      -1.281285       -34.8655
  42   2.0000      -1.233692       -33.5705
  43   2.0000      -1.218729       -33.1633
  44   2.0000      -1.208934       -32.8968
  45   2.0000      -1.203755       -32.7558
  46   2.0000      -1.078294       -29.3419
  47   2.0000      -1.065826       -29.0026
  48   2.0000      -1.034667       -28.1547
  49   2.0000      -1.029349       -28.0100
  50   2.0000      -0.995183       -27.0803
  51   2.0000      -0.981419       -26.7058
  52   2.0000      -0.948292       -25.8043
  53   2.0000      -0.937164       -25.5015
  54   2.0000      -0.921555       -25.0768
  55   2.0000      -0.874984       -23.8095
  56   2.0000      -0.851430       -23.1686
  57   2.0000      -0.813517       -22.1369
  58   2.0000      -0.806445       -21.9445
  59   2.0000      -0.802016       -21.8240
  60   2.0000      -0.773617       -21.0512
  61   2.0000      -0.763342       -20.7716
  62   2.0000      -0.758887       -20.6504
  63   2.0000      -0.743571       -20.2336
  64   2.0000      -0.722213       -19.6524
  65   2.0000      -0.719126       -19.5684
  66   2.0000      -0.676063       -18.3966
  67   2.0000      -0.674365       -18.3504
  68   2.0000      -0.665403       -18.1065
  69   2.0000      -0.642994       -17.4968
  70   2.0000      -0.636009       -17.3067
  71   2.0000      -0.631485       -17.1836
  72   2.0000      -0.624139       -16.9837
  73   2.0000      -0.592565       -16.1245
  74   2.0000      -0.585059       -15.9203
  75   2.0000      -0.580385       -15.7931
  76   2.0000      -0.575493       -15.6600
  77   2.0000      -0.573085       -15.5944
  78   2.0000      -0.563359       -15.3298
  79   2.0000      -0.559005       -15.2113
  80   2.0000      -0.543449       -14.7880
  81   2.0000      -0.538101       -14.6425
  82   2.0000      -0.531121       -14.4525
  83   2.0000      -0.523142       -14.2354
  84   2.0000      -0.513625       -13.9765
  85   2.0000      -0.511699       -13.9240
  86   2.0000      -0.504479       -13.7276
  87   2.0000      -0.499736       -13.5985
  88   2.0000      -0.494637       -13.4598
  89   2.0000      -0.492917       -13.4130
  90   2.0000      -0.488303       -13.2874
  91   2.0000      -0.473222       -12.8770
  92   2.0000      -0.467929       -12.7330
  93   2.0000      -0.467591       -12.7238
  94   2.0000      -0.464030       -12.6269
  95   2.0000      -0.459228       -12.4962
  96   2.0000      -0.455812       -12.4033
  97   2.0000      -0.451859       -12.2957
  98   2.0000      -0.448298       -12.1988
  99   2.0000      -0.448093       -12.1932
 100   2.0000      -0.442154       -12.0316
 101   2.0000      -0.439300       -11.9539
 102   2.0000      -0.433064       -11.7843
 103   2.0000      -0.428972       -11.6729
 104   2.0000      -0.424201       -11.5431
 105   2.0000      -0.418737       -11.3944
 106   2.0000      -0.417428       -11.3588
 107   2.0000      -0.411652       -11.2016
 108   2.0000      -0.411050       -11.1852
 109   2.0000      -0.406363       -11.0577
 110   2.0000      -0.403437       -10.9781
 111   2.0000      -0.400232       -10.8909
 112   2.0000      -0.399429       -10.8690
 113   2.0000      -0.396854       -10.7989
 114   2.0000      -0.393714       -10.7135
 115   2.0000      -0.387596       -10.5470
 116   2.0000      -0.386742       -10.5238
 117   2.0000      -0.384772       -10.4702
 118   2.0000      -0.379820       -10.3354
 119   2.0000      -0.376993       -10.2585
 120   2.0000      -0.370689       -10.0870
 121   2.0000      -0.358033        -9.7426
 122   2.0000      -0.340243        -9.2585
 123   2.0000      -0.335431        -9.1275
 124   2.0000      -0.332738        -9.0543
 125   2.0000      -0.313147        -8.5212
 126   2.0000      -0.302427        -8.2295
 127   2.0000      -0.287239        -7.8162
 128   2.0000      -0.285258        -7.7623
 129   2.0000      -0.281002        -7.6464
 130   2.0000      -0.279145        -7.5959
 131   2.0000      -0.272315        -7.4101
 132   2.0000      -0.258813        -7.0427
 133   2.0000      -0.253381        -6.8949
 134   2.0000      -0.250637        -6.8202
 135   2.0000      -0.249354        -6.7853
 136   2.0000      -0.244114        -6.6427
 137   2.0000      -0.211694        -5.7605
 138   0.0000      -0.079592        -2.1658
 139   0.0000      -0.046884        -1.2758
 140   0.0000      -0.037175        -1.0116
 141   0.0000      -0.024730        -0.6729
 142   0.0000      -0.009166        -0.2494

MULLIKEN ATOMIC CHARGES
-----------------------
   0 C :   -0.315440
   1 N :   -0.467388
   2 C :    0.493682
   3 O :   -0.468933
   4 C :    0.016879
   5 C :    0.130934
   6 C :   -0.424561
   7 C :    0.576609
   8 O :   -0.421934
   9 N :   -0.648919
  10 C :    0.259927
  11 N :   -0.439367
  12 C :    0.208233
  13 C :    0.151098
  14 C :   -0.271074
  15 C :    0.368950
  16 F :   -0.314546
  17 C :    0.228073
  18 O :   -0.519874
  19 C :   -0.118836
  20 C :    0.917806
  21 F :   -0.296174
  22 F :   -0.300973
  23 F :   -0.295520
  24 C :    0.381193
  25 F :   -0.303797
  26 C :   -0.280029
  27 C :   -0.404390
  28 S :    0.326937
  29 C :   -0.223497
  30 C :    0.042455
  31 N :   -0.439578
  32 C :    0.423984
  33 N :   -0.475934
  34 C :   -0.316602
  35 C :    0.678511
  36 O :   -0.499692
  37 H :    0.195489
  38 H :    0.183479
  39 H :    0.198446
  40 H :    0.226748
  41 H :    0.167048
  42 H :    0.350336
  43 H :    0.166307
  44 H :    0.172556
  45 H :    0.174135
  46 H :    0.148904
  47 H :    0.183890
  48 H :    0.136989
  49 H :    0.165002
  50 H :    0.178247
  51 H :    0.191386
  52 H :    0.202825
Sum of atomic charges:   -0.0000000

LOEWDIN ATOMIC CHARGES
----------------------
   0 C :   -0.258480
   1 N :   -0.021595
   2 C :    0.109603
   3 O :   -0.266222
   4 C :   -0.080486
   5 C :    0.050317
   6 C :   -0.238309
   7 C :    0.154787
   8 O :   -0.231350
   9 N :   -0.202846
  10 C :   -0.078504
  11 N :   -0.191310
  12 C :   -0.007654
  13 C :   -0.015542
  14 C :   -0.147555
  15 C :    0.086768
  16 F :   -0.096299
  17 C :    0.036560
  18 O :   -0.178178
  19 C :   -0.119623
  20 C :    0.301470
  21 F :   -0.110884
  22 F :   -0.110070
  23 F :   -0.109931
  24 C :    0.111392
  25 F :   -0.089890
  26 C :   -0.155549
  27 C :   -0.350486
  28 S :    0.433976
  29 C :   -0.178953
  30 C :   -0.039042
  31 N :   -0.156938
  32 C :    0.083954
  33 N :   -0.017806
  34 C :   -0.260116
  35 C :    0.138244
  36 O :   -0.307493
  37 H :    0.152840
  38 H :    0.143934
  39 H :    0.154349
  40 H :    0.178229
  41 H :    0.141287
  42 H :    0.270730
  43 H :    0.157296
  44 H :    0.139597
  45 H :    0.140187
  46 H :    0.147566
  47 H :    0.162054
  48 H :    0.135613
  49 H :    0.143548
  50 H :    0.140531
  51 H :    0.149706
  52 H :    0.156577

  Mayer bond orders larger than 0.100000
B(  0-C ,  1-N ) :   0.9146 B(  0-C , 37-H ) :   0.9258 B(  0-C , 38-H ) :   0.9392
B(  0-C , 39-H ) :   0.9232 B(  1-N ,  2-C ) :   0.9952 B(  1-N , 35-C ) :   1.0402
B(  2-C ,  3-O ) :   1.7750 B(  2-C ,  4-C ) :   1.0439 B(  4-C ,  5-C ) :   1.3832
B(  4-C , 32-C ) :   1.2521 B(  5-C ,  6-C ) :   0.9796 B(  5-C , 29-C ) :   1.4051
B(  6-C ,  7-C ) :   0.9505 B(  6-C , 40-H ) :   0.8928 B(  6-C , 41-H ) :   0.9144
B(  7-C ,  8-O ) :   1.8364 B(  7-C ,  9-N ) :   1.0117 B(  9-N , 10-C ) :   0.9504
B(  9-N , 42-H ) :   0.8026 B( 10-C , 11-N ) :   1.4765 B( 10-C , 27-C ) :   0.1075
B( 10-C , 28-S ) :   1.1880 B( 11-N , 12-C ) :   1.2928 B( 12-C , 13-C ) :   1.0588
B( 12-C , 27-C ) :   1.5171 B( 13-C , 14-C ) :   1.3736 B( 13-C , 26-C ) :   1.3656
B( 14-C , 15-C ) :   1.3728 B( 14-C , 43-H ) :   0.9027 B( 15-C , 16-F ) :   0.8811
B( 15-C , 17-C ) :   1.2879 B( 17-C , 18-O ) :   0.9048 B( 17-C , 24-C ) :   1.2979
B( 18-O , 19-C ) :   0.8888 B( 19-C , 20-C ) :   0.9552 B( 19-C , 44-H ) :   0.9078
B( 19-C , 45-H ) :   0.9068 B( 20-C , 21-F ) :   0.9812 B( 20-C , 22-F ) :   0.9608
B( 20-C , 23-F ) :   0.9822 B( 24-C , 25-F ) :   0.9364 B( 24-C , 26-C ) :   1.3998
B( 26-C , 46-H ) :   0.9095 B( 27-C , 28-S ) :   1.1048 B( 27-C , 47-H ) :   0.9015
B( 29-C , 30-C ) :   1.3863 B( 29-C , 48-H ) :   0.9199 B( 30-C , 31-N ) :   1.4426
B( 30-C , 49-H ) :   0.9261 B( 31-N , 32-C ) :   1.3398 B( 32-C , 33-N ) :   1.0193
B( 33-N , 34-C ) :   0.9195 B( 33-N , 35-C ) :   1.0376 B( 34-C , 50-H ) :   0.9394
B( 34-C , 51-H ) :   0.9258 B( 34-C , 52-H ) :   0.9223 B( 35-C , 36-O ) :   1.7968

FINAL SINGLE POINT ENERGY     -2318.951744983096

DIPOLE MOMENT
-------------

Method             : SCF
Type of density    : Electron Density
Multiplicity       :   1
Irrep              :   0
Energy             : -2318.9517449830955229 Eh
Relativity type    :
Basis              : AO
                                X                 Y                 Z
Electronic contribution:     73.074165368       1.994732084      -1.086970554
Nuclear contribution   :    -74.544738349      -0.799620955       2.462361391
                        -----------------------------------------
Total Dipole Moment    :     -1.470572982       1.195111128       1.375390837
                        -----------------------------------------
Magnitude (a.u.)       :      2.341490008
Magnitude (Debye)      :      5.951594620

Rotational constants in cm-1:             0.006431             0.000914             0.000855
Rotational constants in MHz :           192.807580            27.401241            25.633572

                             ****ORCA TERMINATED NORMALLY****
TOTAL RUN TIME: 0 days 0 hours 5 minutes 9 seconds 803 msec
