                         Program Version 6.0.0  -   RELEASE  -
|  1> ! B3LYP 6-31G* SP
|  2>
|  3> * xyz 0 1
|  4> C -2.7292 1.4114 2.5613
|  5> N -3.5282 0.8429 1.4587
|  6> C -3.0416 0.8813 0.1787
|  7> O -1.9085 1.3925 -0.0293
|  8> C -3.8047 0.3648 -0.8959
|  9> C -3.3770 0.3525 -2.2644
| 10> C -2.0287 0.8579 -2.7448
| 11> C -0.9273 -0.0967 -2.3792
| 12> O -1.0618 -1.3231 -2.6393
| 13> N 0.2925 0.4006 -1.8067
| 14> C 1.2928 -0.4185 -1.1849
| 15> N 2.4683 0.0810 -0.7494
| 16> C 3.2478 -0.8665 -0.1550
| 17> C 4.5854 -0.5303 0.4001
| 18> C 4.9518 0.8158 0.5743
| 19> C 6.2043 1.1542 1.0934
| 20> C 7.1241 0.1527 1.4489
| 21> C 8.4837 0.4980 2.0079
| 22> F 8.6543 1.8659 2.1359
| 23> F 8.6306 -0.0804 3.2557
| 24> F 9.4658 0.0096 1.1653
| 25> C 6.7652 -1.1944 1.2683
| 26> F 7.6336 -2.1869 1.5905
| 27> C 5.5112 -1.5313 0.7491
| 28> C 2.6703 -2.1402 -0.1064
| 29> S 1.1548 -2.0574 -0.8298
| 30> C -4.2289 -0.1952 -3.2370
| 31> C -5.4706 -0.6974 -2.8772
| 32> N -5.8608 -0.6736 -1.5829
| 33> C -5.0796 -0.1717 -0.5855
| 34> N -5.5382 -0.1854 0.7052
| 35> C -6.8842 -0.7159 0.9960
| 36> C -4.7823 0.3545 1.7114
| 37> O -5.2483 0.4077 2.8856
| 38> H -2.9380 2.4983 2.6507
| 39> H -1.6414 1.2607 2.3913
| 40> H -2.9581 0.9151 3.5285
| 41> H -2.0190 0.9728 -3.8504
| 42> H -1.8365 1.8785 -2.3552
| 43> H 0.4593 1.4319 -1.8193
| 44> H 4.2661 1.6131 0.3162
| 45> H 6.4472 2.2018 1.2150
| 46> H 5.2816 -2.5781 0.6093
| 47> H 3.0918 -3.0307 0.3374
| 48> H -3.9340 -0.2360 -4.2786
| 49> H -6.1278 -1.1130 -3.6293
| 50> H -7.0898 -1.6274 0.3949
| 51> H -6.9910 -1.0216 2.0583
| 52> H -7.6473 0.0566 0.7638
| 53> *
| 54>
| 55>                          ****END OF INPUT****

CARTESIAN COORDINATES (ANGSTROEM)
---------------------------------
  C     -2.729200    1.411400    2.561300
  N     -3.528200    0.842900    1.458700
  C     -3.041600    0.881300    0.178700
  O     -1.908500    1.392500   -0.029300
  C     -3.804700    0.364800   -0.895900
  C     -3.377000    0.352500   -2.264400
  C     -2.028700    0.857900   -2.744800
  C     -0.927300   -0.096700   -2.379200
  O     -1.061800   -1.323100   -2.639300
  N      0.292500    0.400600   -1.806700
  C      1.292800   -0.418500   -1.184900
  N      2.468300    0.081000   -0.749400
  C      3.247800   -0.866500   -0.155000
  C      4.585400   -0.530300    0.400100
  C      4.951800    0.815800    0.574300
  C      6.204300    1.154200    1.093400
  C      7.124100    0.152700    1.448900
  C      8.483700    0.498000    2.007900
  F      8.654300    1.865900    2.135900
  F      8.630600   -0.080400    3.255700
  F      9.465800    0.009600    1.165300
  C      6.765200   -1.194400    1.268300
  F      7.633600   -2.186900    1.590500
  C      5.511200   -1.531300    0.749100
  C      2.670300   -2.140200   -0.106400
  S      1.154800   -2.057400   -0.829800
  C     -4.228900   -0.195200   -3.237000
  C     -5.470600   -0.697400   -2.877200
  N     -5.860800   -0.673600   -1.582900
  C     -5.079600   -0.171700   -0.585500
  N     -5.538200   -0.185400    0.705200
  C     -6.884200   -0.715900    0.996000
  C     -4.782300    0.354500    1.711400
  O     -5.248300    0.407700    2.885600
  H     -2.938000    2.498300    2.650700
  H     -1.641400    1.260700    2.391300
  H     -2.958100    0.915100    3.528500
  H     -2.019000    0.972800   -3.850400
  H     -1.836500    1.878500   -2.355200
  H      0.459300    1.431900   -1.819300
  H      4.266100    1.613100    0.316200
  H      6.447200    2.201800    1.215000
  H      5.281600   -2.578100    0.609300
  H      3.091800   -3.030700    0.337400
  H     -3.934000   -0.236000   -4.278600
  H     -6.127800   -1.113000   -3.629300
  H     -7.089800   -1.627400    0.394900
  H     -6.991000   -1.021600    2.058300
  H     -7.647300    0.056600    0.763800

 Total Charge           Charge          ....    0
 Multiplicity           Mult            ....    1
 Number of Electrons    NEL             ....  252
 Basis Dimension        Dim             ....  510

ORBITAL ENERGIES
----------------

  NO   OCC          E(Eh)            E(eV)
   0   2.0000     -88.906147     -2419.2593
   1   2.0000     -24.717424      -672.5953
   2   2.0000     -24.708990      -672.3658
   3   2.0000     -24.708884      -672.3629
   4   2.0000     -24.708783      -672.3602
   5   2.0000     -19.137550      -520.7592
   6   2.0000     -19.127538      -520.4868
   7   2.0000     -19.119394      -520.2652
   8   2.0000     -14.410526      -392.1303
   9   2.0000     -14.407443      -392.0465
  10   2.0000     -14.395176      -391.7127
  11   2.0000     -14.346911      -390.3993
  12   2.0000     -14.334491      -390.0613
  13   2.0000     -10.431422      -283.8534
  14   2.0000     -10.335371      -281.2397
  15   2.0000     -10.318640      -280.7845
  16   2.0000     -10.308124      -280.4983
  17   2.0000     -10.294541      -280.1287
  18   2.0000     -10.292871      -280.0833
  19   2.0000     -10.285253      -279.8760
  20   2.0000     -10.247965      -278.8613
  21   2.0000     -10.247752      -278.8555
  22   2.0000     -10.230752      -278.3929
  23   2.0000     -10.227473      -278.3037
  24   2.0000     -10.227267      -278.2981
  25   2.0000     -10.226345      -278.2730
  26   2.0000     -10.221188      -278.1327
  27   2.0000     -10.215561      -277.9795
  28   2.0000     -10.213860      -277.9333
  29   2.0000     -10.210524      -277.8425
  30   2.0000     -10.207443      -277.7586
  31   2.0000     -10.203651      -277.6555
  32   2.0000     -10.200649      -277.5738
  33   2.0000     -10.190748      -277.3043
  34   2.0000      -7.982387      -217.2118
  35   2.0000      -5.945514      -161.7857
  36   2.0000      -5.941259      -161.6699
  37   2.0000      -5.939366      -161.6184
  38   2.0000      -1.273225       -34.6462
  39   2.0000      -1.221216       -33.2310
  40   2.0000      -1.199500       -32.6401
  41   2.0000      -1.195420       -32.5290
  42   2.0000      -1.080200       -29.3937
  43   2.0000      -1.038878       -28.2693
  44   2.0000      -1.035141       -28.1676
  45   2.0000      -0.993903       -27.0455
  46   2.0000      -0.980528       -26.6815
  47   2.0000      -0.951988       -25.9049
  48   2.0000      -0.934172       -25.4201
  49   2.0000      -0.917807       -24.9748
  50   2.0000      -0.873423       -23.7671
  51   2.0000      -0.847625       -23.0651
  52   2.0000      -0.813594       -22.1390
  53   2.0000      -0.803504       -21.8645
  54   2.0000      -0.798101       -21.7174
  55   2.0000      -0.768533       -20.9128
  56   2.0000      -0.756953       -20.5977
  57   2.0000      -0.748590       -20.3702
  58   2.0000      -0.734648       -19.9908
  59   2.0000      -0.721246       -19.6261
  60   2.0000      -0.688775       -18.7425
  61   2.0000      -0.674778       -18.3617
  62   2.0000      -0.673110       -18.3162
  63   2.0000      -0.641507       -17.4563
  64   2.0000      -0.636863       -17.3299
  65   2.0000      -0.625220       -17.0131
  66   2.0000      -0.616704       -16.7814
  67   2.0000      -0.588520       -16.0144
  68   2.0000      -0.579889       -15.7796
  69   2.0000      -0.570097       -15.5131
  70   2.0000      -0.563281       -15.3277
  71   2.0000      -0.562748       -15.3132
  72   2.0000      -0.562059       -15.2944
  73   2.0000      -0.558101       -15.1867
  74   2.0000      -0.535223       -14.5642
  75   2.0000      -0.524136       -14.2625
  76   2.0000      -0.516928       -14.0663
  77   2.0000      -0.514021       -13.9872
  78   2.0000      -0.502573       -13.6757
  79   2.0000      -0.499776       -13.5996
  80   2.0000      -0.493395       -13.4260
  81   2.0000      -0.490242       -13.3402
  82   2.0000      -0.471868       -12.8402
  83   2.0000      -0.469899       -12.7866
  84   2.0000      -0.466292       -12.6885
  85   2.0000      -0.465979       -12.6799
  86   2.0000      -0.462432       -12.5834
  87   2.0000      -0.452434       -12.3114
  88   2.0000      -0.442778       -12.0486
  89   2.0000      -0.441339       -12.0094
  90   2.0000      -0.440826       -11.9955
  91   2.0000      -0.435910       -11.8617
  92   2.0000      -0.430478       -11.7139
  93   2.0000      -0.427107       -11.6222
  94   2.0000      -0.426084       -11.5943
  95   2.0000      -0.418502       -11.3880
  96   2.0000      -0.417570       -11.3627
  97   2.0000      -0.412150       -11.2152
  98   2.0000      -0.410383       -11.1671
  99   2.0000      -0.406823       -11.0702
 100   2.0000      -0.401412       -10.9230
 101   2.0000      -0.398705       -10.8493
 102   2.0000      -0.395346       -10.7579
 103   2.0000      -0.393285       -10.7018
 104   2.0000      -0.391573       -10.6552
 105   2.0000      -0.390555       -10.6275
 106   2.0000      -0.387760       -10.5515
 107   2.0000      -0.377762       -10.2794
 108   2.0000      -0.375960       -10.2304
 109   2.0000      -0.366720        -9.9790
 110   2.0000      -0.362010        -9.8508
 111   2.0000      -0.346248        -9.4219
 112   2.0000      -0.328582        -8.9412
 113   2.0000      -0.317595        -8.6422
 114   2.0000      -0.297102        -8.0846
 115   2.0000      -0.294429        -8.0118
 116   2.0000      -0.288608        -7.8534
 117   2.0000      -0.279819        -7.6143
 118   2.0000      -0.279470        -7.6048
 119   2.0000      -0.276321        -7.5191
 120   2.0000      -0.271561        -7.3895
 121   2.0000      -0.263734        -7.1766
 122   2.0000      -0.254950        -6.9375
 123   2.0000      -0.251206        -6.8357
 124   2.0000      -0.247326        -6.7301
 125   2.0000      -0.216655        -5.8955
 126   0.0000      -0.077613        -2.1120
 127   0.0000      -0.047865        -1.3025
 128   0.0000      -0.040499        -1.1020
 129   0.0000      -0.030160        -0.8207
 130   0.0000      -0.009466        -0.2576

MULLIKEN ATOMIC CHARGES
-----------------------
   0 C :   -0.316349
   1 N :   -0.467082
   2 C :    0.507477
   3 O :   -0.509371
   4 C :    0.014988
   5 C :    0.163860
   6 C :   -0.436196
   7 C :    0.587036
   8 O :   -0.459453
   9 N :   -0.626835
  10 C :    0.266294
  11 N :   -0.435468
  12 C :    0.210789
  13 C :    0.145647
  14 C :   -0.173286
  15 C :   -0.155016
  16 C :   -0.114875
  17 C :    0.918057
  18 F :   -0.306934
  19 F :   -0.299815
  20 F :   -0.299228
  21 C :    0.385659
  22 F :   -0.302817
  23 C :   -0.269541
  24 C :   -0.400849
  25 S :    0.320031
  26 C :   -0.194377
  27 C :    0.041448
  28 N :   -0.441051
  29 C :    0.424019
  30 N :   -0.475195
  31 C :   -0.316299
  32 C :    0.677804
  33 O :   -0.499862
  34 H :    0.179540
  35 H :    0.195913
  36 H :    0.200124
  37 H :    0.182499
  38 H :    0.186247
  39 H :    0.360515
  40 H :    0.158608
  41 H :    0.159995
  42 H :    0.145586
  43 H :    0.184211
  44 H :    0.146404
  45 H :    0.164845
  46 H :    0.192217
  47 H :    0.203428
  48 H :    0.176658
Sum of atomic charges:   -0.0000000

LOEWDIN ATOMIC CHARGES
----------------------
   0 C :   -0.258703
   1 N :   -0.019662
   2 C :    0.115198
   3 O :   -0.296774
   4 C :   -0.082596
   5 C :    0.065357
   6 C :   -0.241596
   7 C :    0.160799
   8 O :   -0.262654
   9 N :   -0.186878
  10 C :   -0.073603
  11 N :   -0.185582
  12 C :   -0.009575
  13 C :    0.002614
  14 C :   -0.124143
  15 C :   -0.107735
  16 C :   -0.101648
  17 C :    0.313425
  18 F :   -0.112065
  19 F :   -0.112858
  20 F :   -0.112793
  21 C :    0.134371
  22 F :   -0.094426
  23 C :   -0.153273
  24 C :   -0.345604
  25 S :    0.429810
  26 C :   -0.153339
  27 C :   -0.036675
  28 N :   -0.157098
  29 C :    0.082918
  30 N :   -0.016976
  31 C :   -0.259882
  32 C :    0.138523
  33 O :   -0.308330
  34 H :    0.141740
  35 H :    0.152755
  36 H :    0.155380
  37 H :    0.151485
  38 H :    0.152461
  39 H :    0.279457
  40 H :    0.149223
  41 H :    0.148139
  42 H :    0.145375
  43 H :    0.161900
  44 H :    0.143040
  45 H :    0.143717
  46 H :    0.150078
  47 H :    0.156909
  48 H :    0.139791

  Mayer bond orders larger than 0.100000
B(  0-C ,  1-N ) :   0.9153 B(  0-C , 34-H ) :   0.9399 B(  0-C , 35-H ) :   0.9245
B(  0-C , 36-H ) :   0.9242 B(  1-N ,  2-C ) :   1.0093 B(  1-N , 32-C ) :   1.0328
B(  2-C ,  3-O ) :   1.7335 B(  2-C ,  4-C ) :   1.0563 B(  4-C ,  5-C ) :   1.3683
B(  4-C , 29-C ) :   1.2531 B(  5-C ,  6-C ) :   0.9979 B(  5-C , 26-C ) :   1.4301
B(  6-C ,  7-C ) :   0.9394 B(  6-C , 37-H ) :   0.9097 B(  6-C , 38-H ) :   0.9008
B(  7-C ,  8-O ) :   1.8308 B(  7-C ,  9-N ) :   1.0273 B(  9-N , 10-C ) :   0.9560
B(  9-N , 39-H ) :   0.8067 B( 10-C , 11-N ) :   1.4797 B( 10-C , 24-C ) :   0.1044
B( 10-C , 25-S ) :   1.1782 B( 11-N , 12-C ) :   1.2896 B( 12-C , 13-C ) :   1.0579
B( 12-C , 24-C ) :   1.5148 B( 13-C , 14-C ) :   1.3998 B( 13-C , 23-C ) :   1.3660
B( 14-C , 15-C ) :   1.4139 B( 14-C , 40-H ) :   0.9116 B( 15-C , 16-C ) :   1.4042
B( 15-C , 41-H ) :   0.9192 B( 16-C , 17-C ) :   0.9679 B( 16-C , 21-C ) :   1.3197
B( 17-C , 18-F ) :   0.9450 B( 17-C , 19-F ) :   0.9699 B( 17-C , 20-F ) :   0.9724
B( 21-C , 22-F ) :   0.9470 B( 21-C , 23-C ) :   1.3848 B( 23-C , 42-H ) :   0.9100
B( 24-C , 25-S ) :   1.1135 B( 24-C , 43-H ) :   0.9008 B( 26-C , 27-C ) :   1.3847
B( 26-C , 44-H ) :   0.9173 B( 27-C , 28-N ) :   1.4368 B( 27-C , 45-H ) :   0.9259
B( 28-N , 29-C ) :   1.3443 B( 29-C , 30-N ) :   1.0143 B( 30-N , 31-C ) :   0.9194
B( 30-N , 32-C ) :   1.0440 B( 31-C , 46-H ) :   0.9264 B( 31-C , 47-H ) :   0.9217
B( 31-C , 48-H ) :   0.9396 B( 32-C , 33-O ) :   1.7978

FINAL SINGLE POINT ENERGY     -2105.315156685233

DIPOLE MOMENT
-------------

Method             : SCF
Type of density    : Electron Density
Multiplicity       :   1
Irrep              :   0
Energy             : -2105.3151566852325232 Eh
Relativity type    :
Basis              : AO
                                X                 Y                 Z
Electronic contribution:     61.794246696      -4.474735694       9.107497962
Nuclear contribution   :    -64.095096101       5.070975866     -10.383190003
                        -----------------------------------------
Total Dipole Moment    :     -2.300849406       0.596240171      -1.275692042
                        -----------------------------------------
Magnitude (a.u.)       :      2.697554543
Magnitude (Debye)      :      6.856638743

Rotational constants in cm-1:             0.009161             0.001200             0.001135
Rotational constants in MHz :           274.638289            35.969350            34.031772

                             ****ORCA TERMINATED NORMALLY****
TOTAL RUN TIME: 0 days 0 hours 8 minutes 17 seconds 67 msec
