                         Program Version 6.0.0  -   RELEASE  -
|  1> ! B3LYP 6-31G* SP
|  2>
|  3> * xyz 0 1
|  4> C -0.7982 0.7091 -2.8030
|  5> C -1.7326 -0.2809 -2.1013
|  6> C -2.1129 -1.4342 -3.0397
|  7> N -1.1450 -0.7859 -0.8366
|  8> C -0.1164 -1.7965 -0.8768
|  9> O -0.3865 -2.9609 -0.4742
| 10> C 1.2438 -1.5107 -1.3851
| 11> C 1.9088 -2.4958 -2.1358
| 12> C 3.2005 -2.2730 -2.6133
| 13> C 3.8479 -1.0699 -2.3389
| 14> C 3.2085 -0.0868 -1.5820
| 15> C 1.9036 -0.2965 -1.0903
| 16> O 1.2441 0.6673 -0.3081
| 17> C 1.8284 1.8696 0.1940
| 18> C 2.7850 1.5601 1.3124
| 19> C 4.1100 2.0249 1.2730
| 20> C 4.9887 1.7343 2.3213
| 21> C 4.5500 0.9846 3.4163
| 22> C 3.2306 0.5262 3.4663
| 23> C 2.3487 0.8148 2.4205
| 24> C -1.8271 -0.5672 0.4574
| 25> C -3.1972 -1.2680 0.4889
| 26> C -3.8689 -1.1721 1.8738
| 27> C -3.3762 0.0136 2.7271
| 28> C -3.0051 1.2548 1.8869
| 29> N -4.1916 1.8740 1.2863
| 30> C -1.9428 0.9389 0.8017
| 31> H -0.5000 1.5163 -2.1023
| 32> H -1.3240 1.1783 -3.6616
| 33> H 0.1083 0.2020 -3.1922
| 34> H -2.6726 0.2709 -1.8886
| 35> H -2.6577 -1.0416 -3.9247
| 36> H -2.7768 -2.1497 -2.5100
| 37> H -1.2093 -1.9755 -3.3928
| 38> H 1.4212 -3.4361 -2.3629
| 39> H 3.7005 -3.0349 -3.1973
| 40> H 4.8500 -0.8993 -2.7107
| 41> H 3.7426 0.8308 -1.3859
| 42> H 1.0207 2.5158 0.5954
| 43> H 2.3090 2.4394 -0.6299
| 44> H 4.4640 2.6086 0.4325
| 45> H 6.0100 2.0909 2.2852
| 46> H 5.2315 0.7609 4.2268
| 47> H 2.8908 -0.0516 4.3161
| 48> H 1.3279 0.4554 2.4714
| 49> H -1.2115 -1.0263 1.2666
| 50> H -3.8706 -0.8192 -0.2710
| 51> H -3.0729 -2.3393 0.2196
| 52> H -4.9693 -1.0933 1.7351
| 53> H -3.6810 -2.1116 2.4383
| 54> H -4.1530 0.2790 3.4768
| 55> H -2.4756 -0.3049 3.2975
| 56> H -2.5602 2.0021 2.5820
| 57> H -4.8504 2.1516 2.0498
| 58> H -4.6892 1.1859 0.6786
| 59> H -0.9526 1.2735 1.1751
| 60> H -2.1483 1.5486 -0.1022
| 61> *
| 62>
| 63>                          ****END OF INPUT****

CARTESIAN COORDINATES (ANGSTROEM)
---------------------------------
  C     -0.798200    0.709100   -2.803000
  C     -1.732600   -0.280900   -2.101300
  C     -2.112900   -1.434200   -3.039700
  N     -1.145000   -0.785900   -0.836600
  C     -0.116400   -1.796500   -0.876800
  O     -0.386500   -2.960900   -0.474200
  C      1.243800   -1.510700   -1.385100
  C      1.908800   -2.495800   -2.135800
  C      3.200500   -2.273000   -2.613300
  C      3.847900   -1.069900   -2.338900
  C      3.208500   -0.086800   -1.582000
  C      1.903600   -0.296500   -1.090300
  O      1.244100    0.667300   -0.308100
  C      1.828400    1.869600    0.194000
  C      2.785000    1.560100    1.312400
  C      4.110000    2.024900    1.273000
  C      4.988700    1.734300    2.321300
  C      4.550000    0.984600    3.416300
  C      3.230600    0.526200    3.466300
  C      2.348700    0.814800    2.420500
  C     -1.827100   -0.567200    0.457400
  C     -3.197200   -1.268000    0.488900
  C     -3.868900   -1.172100    1.873800
  C     -3.376200    0.013600    2.727100
  C     -3.005100    1.254800    1.886900
  N     -4.191600    1.874000    1.286300
  C     -1.942800    0.938900    0.801700
  H     -0.500000    1.516300   -2.102300
  H     -1.324000    1.178300   -3.661600
  H      0.108300    0.202000   -3.192200
  H     -2.672600    0.270900   -1.888600
  H     -2.657700   -1.041600   -3.924700
  H     -2.776800   -2.149700   -2.510000
  H     -1.209300   -1.975500   -3.392800
  H      1.421200   -3.436100   -2.362900
  H      3.700500   -3.034900   -3.197300
  H      4.850000   -0.899300   -2.710700
  H      3.742600    0.830800   -1.385900
  H      1.020700    2.515800    0.595400
  H      2.309000    2.439400   -0.629900
  H      4.464000    2.608600    0.432500
  H      6.010000    2.090900    2.285200
  H      5.231500    0.760900    4.226800
  H      2.890800   -0.051600    4.316100
  H      1.327900    0.455400    2.471400
  H     -1.211500   -1.026300    1.266600
  H     -3.870600   -0.819200   -0.271000
  H     -3.072900   -2.339300    0.219600
  H     -4.969300   -1.093300    1.735100
  H     -3.681000   -2.111600    2.438300
  H     -4.153000    0.279000    3.476800
  H     -2.475600   -0.304900    3.297500
  H     -2.560200    2.002100    2.582000
  H     -4.850400    2.151600    2.049800
  H     -4.689200    1.185900    0.678600
  H     -0.952600    1.273500    1.175100
  H     -2.148300    1.548600   -0.102200

 Total Charge           Charge          ....    0
 Multiplicity           Mult            ....    1
 Number of Electrons    NEL             ....  198
 Basis Dimension        Dim             ....  438

ORBITAL ENERGIES
----------------

  NO   OCC          E(Eh)            E(eV)
   0   2.0000     -19.169448      -521.6272
   1   2.0000     -19.109491      -519.9957
   2   2.0000     -14.310193      -389.4002
   3   2.0000     -14.298283      -389.0761
   4   2.0000     -10.277521      -279.6656
   5   2.0000     -10.256887      -279.1041
   6   2.0000     -10.245576      -278.7963
   7   2.0000     -10.210197      -277.8336
   8   2.0000     -10.204425      -277.6765
   9   2.0000     -10.198920      -277.5267
  10   2.0000     -10.193759      -277.3863
  11   2.0000     -10.193163      -277.3701
  12   2.0000     -10.189150      -277.2609
  13   2.0000     -10.187622      -277.2193
  14   2.0000     -10.187414      -277.2136
  15   2.0000     -10.185377      -277.1582
  16   2.0000     -10.185128      -277.1514
  17   2.0000     -10.185037      -277.1489
  18   2.0000     -10.184626      -277.1378
  19   2.0000     -10.184059      -277.1223
  20   2.0000     -10.177940      -276.9558
  21   2.0000     -10.167028      -276.6589
  22   2.0000     -10.166272      -276.6383
  23   2.0000     -10.163743      -276.5695
  24   2.0000     -10.160532      -276.4821
  25   2.0000     -10.159985      -276.4672
  26   2.0000     -10.156024      -276.3595
  27   2.0000      -1.049167       -28.5493
  28   2.0000      -1.003009       -27.2933
  29   2.0000      -0.895581       -24.3700
  30   2.0000      -0.872205       -23.7339
  31   2.0000      -0.857567       -23.3356
  32   2.0000      -0.850028       -23.1304
  33   2.0000      -0.792538       -21.5660
  34   2.0000      -0.778610       -21.1871
  35   2.0000      -0.759024       -20.6541
  36   2.0000      -0.754008       -20.5176
  37   2.0000      -0.745811       -20.2945
  38   2.0000      -0.740182       -20.1414
  39   2.0000      -0.718833       -19.5604
  40   2.0000      -0.702694       -19.1213
  41   2.0000      -0.684936       -18.6380
  42   2.0000      -0.669757       -18.2250
  43   2.0000      -0.636426       -17.3180
  44   2.0000      -0.609939       -16.5973
  45   2.0000      -0.606102       -16.4929
  46   2.0000      -0.602860       -16.4047
  47   2.0000      -0.593257       -16.1433
  48   2.0000      -0.586943       -15.9715
  49   2.0000      -0.580044       -15.7838
  50   2.0000      -0.542783       -14.7699
  51   2.0000      -0.523129       -14.2351
  52   2.0000      -0.512468       -13.9450
  53   2.0000      -0.507688       -13.8149
  54   2.0000      -0.490399       -13.3444
  55   2.0000      -0.488564       -13.2945
  56   2.0000      -0.481581       -13.1045
  57   2.0000      -0.475459       -12.9379
  58   2.0000      -0.470726       -12.8091
  59   2.0000      -0.458316       -12.4714
  60   2.0000      -0.452381       -12.3099
  61   2.0000      -0.445891       -12.1333
  62   2.0000      -0.436086       -11.8665
  63   2.0000      -0.432833       -11.7780
  64   2.0000      -0.430933       -11.7263
  65   2.0000      -0.428181       -11.6514
  66   2.0000      -0.422703       -11.5023
  67   2.0000      -0.418756       -11.3949
  68   2.0000      -0.412220       -11.2171
  69   2.0000      -0.409898       -11.1539
  70   2.0000      -0.400423       -10.8961
  71   2.0000      -0.390221       -10.6184
  72   2.0000      -0.381377       -10.3778
  73   2.0000      -0.378870       -10.3096
  74   2.0000      -0.372999       -10.1498
  75   2.0000      -0.370490       -10.0816
  76   2.0000      -0.366414        -9.9706
  77   2.0000      -0.363482        -9.8909
  78   2.0000      -0.360606        -9.8126
  79   2.0000      -0.357909        -9.7392
  80   2.0000      -0.350648        -9.5416
  81   2.0000      -0.350161        -9.5284
  82   2.0000      -0.346417        -9.4265
  83   2.0000      -0.337663        -9.1883
  84   2.0000      -0.334084        -9.0909
  85   2.0000      -0.331143        -9.0109
  86   2.0000      -0.325464        -8.8563
  87   2.0000      -0.315338        -8.5808
  88   2.0000      -0.313835        -8.5399
  89   2.0000      -0.308086        -8.3835
  90   2.0000      -0.297938        -8.1073
  91   2.0000      -0.292896        -7.9701
  92   2.0000      -0.255492        -6.9523
  93   2.0000      -0.251111        -6.8331
  94   2.0000      -0.246446        -6.7061
  95   2.0000      -0.236587        -6.4379
  96   2.0000      -0.222619        -6.0578
  97   2.0000      -0.219215        -5.9652
  98   2.0000      -0.190333        -5.1792
  99   0.0000      -0.040067        -1.0903
 100   0.0000      -0.009448        -0.2571
 101   0.0000      -0.003257        -0.0886
 102   0.0000       0.006000         0.1633
 103   0.0000       0.037777         1.0280

MULLIKEN ATOMIC CHARGES
-----------------------
   0 C :   -0.435360
   1 C :    0.034711
   2 C :   -0.441395
   3 N :   -0.415939
   4 C :    0.423066
   5 O :   -0.448428
   6 C :    0.044402
   7 C :   -0.150305
   8 C :   -0.137127
   9 C :   -0.115213
  10 C :   -0.193091
  11 C :    0.345831
  12 O :   -0.511441
  13 C :   -0.117451
  14 C :    0.128548
  15 C :   -0.176041
  16 C :   -0.125486
  17 C :   -0.123255
  18 C :   -0.124870
  19 C :   -0.159864
  20 C :    0.041610
  21 C :   -0.271745
  22 C :   -0.272401
  23 C :   -0.262198
  24 C :    0.029226
  25 N :   -0.710619
  26 C :   -0.289186
  27 H :    0.154228
  28 H :    0.126665
  29 H :    0.145057
  30 H :    0.138760
  31 H :    0.134268
  32 H :    0.157627
  33 H :    0.143347
  34 H :    0.156217
  35 H :    0.129524
  36 H :    0.134489
  37 H :    0.135141
  38 H :    0.170232
  39 H :    0.141178
  40 H :    0.123791
  41 H :    0.129512
  42 H :    0.130360
  43 H :    0.133214
  44 H :    0.142350
  45 H :    0.138507
  46 H :    0.115348
  47 H :    0.162975
  48 H :    0.120842
  49 H :    0.138657
  50 H :    0.119080
  51 H :    0.120744
  52 H :    0.120369
  53 H :    0.286685
  54 H :    0.291057
  55 H :    0.140043
  56 H :    0.153756
Sum of atomic charges:   -0.0000000

LOEWDIN ATOMIC CHARGES
----------------------
   0 C :   -0.364056
   1 C :   -0.055591
   2 C :   -0.362059
   3 N :   -0.129298
   4 C :    0.155995
   5 O :   -0.252112
   6 C :   -0.073547
   7 C :   -0.092319
   8 C :   -0.148470
   9 C :   -0.109656
  10 C :   -0.169384
  11 C :    0.108967
  12 O :   -0.171810
  13 C :   -0.085906
  14 C :   -0.041012
  15 C :   -0.135669
  16 C :   -0.127295
  17 C :   -0.127202
  18 C :   -0.123879
  19 C :   -0.121437
  20 C :   -0.044045
  21 C :   -0.244459
  22 C :   -0.238793
  23 C :   -0.244947
  24 C :   -0.078984
  25 N :   -0.468479
  26 C :   -0.234948
  27 H :    0.127485
  28 H :    0.117014
  29 H :    0.125862
  30 H :    0.123812
  31 H :    0.121865
  32 H :    0.130687
  33 H :    0.123956
  34 H :    0.148300
  35 H :    0.132760
  36 H :    0.134782
  37 H :    0.136845
  38 H :    0.138370
  39 H :    0.116265
  40 H :    0.128047
  41 H :    0.131937
  42 H :    0.132449
  43 H :    0.133660
  44 H :    0.136292
  45 H :    0.125989
  46 H :    0.107071
  47 H :    0.135738
  48 H :    0.112627
  49 H :    0.123560
  50 H :    0.115157
  51 H :    0.112526
  52 H :    0.114761
  53 H :    0.219354
  54 H :    0.218709
  55 H :    0.122885
  56 H :    0.131627

  Mayer bond orders larger than 0.100000
B(  0-C ,  1-C ) :   1.0032 B(  0-C , 27-H ) :   0.9414 B(  0-C , 28-H ) :   0.9433
B(  0-C , 29-H ) :   0.9398 B(  1-C ,  2-C ) :   1.0055 B(  1-C ,  3-N ) :   0.9424
B(  1-C , 30-H ) :   0.9261 B(  2-C , 31-H ) :   0.9441 B(  2-C , 32-H ) :   0.9436
B(  2-C , 33-H ) :   0.9419 B(  3-N ,  4-C ) :   1.0291 B(  3-N , 20-C ) :   0.9424
B(  4-C ,  5-O ) :   1.8363 B(  4-C ,  6-C ) :   0.9572 B(  6-C ,  7-C ) :   1.4034
B(  6-C , 11-C ) :   1.3409 B(  7-C ,  8-C ) :   1.4398 B(  7-C , 34-H ) :   0.9167
B(  8-C ,  9-C ) :   1.4376 B(  8-C , 35-H ) :   0.9297 B(  9-C , 10-C ) :   1.4484
B(  9-C , 36-H ) :   0.9293 B( 10-C , 11-C ) :   1.3564 B( 10-C , 37-H ) :   0.9133
B( 11-C , 12-O ) :   0.9119 B( 12-O , 13-C ) :   0.8989 B( 13-C , 14-C ) :   0.9647
B( 13-C , 38-H ) :   0.9197 B( 13-C , 39-H ) :   0.9206 B( 14-C , 15-C ) :   1.4370
B( 14-C , 19-C ) :   1.4250 B( 15-C , 16-C ) :   1.4363 B( 15-C , 40-H ) :   0.9233
B( 16-C , 17-C ) :   1.4612 B( 16-C , 41-H ) :   0.9293 B( 17-C , 18-C ) :   1.4455
B( 17-C , 42-H ) :   0.9301 B( 18-C , 19-C ) :   1.4484 B( 18-C , 43-H ) :   0.9294
B( 19-C , 44-H ) :   0.9201 B( 20-C , 21-C ) :   0.9944 B( 20-C , 26-C ) :   0.9876
B( 20-C , 45-H ) :   0.9238 B( 21-C , 22-C ) :   0.9836 B( 21-C , 46-H ) :   0.9349
B( 21-C , 47-H ) :   0.9324 B( 22-C , 23-C ) :   0.9999 B( 22-C , 48-H ) :   0.9465
B( 22-C , 49-H ) :   0.9464 B( 23-C , 24-C ) :   0.9899 B( 23-C , 50-H ) :   0.9410
B( 23-C , 51-H ) :   0.9339 B( 24-C , 25-N ) :   1.0125 B( 24-C , 26-C ) :   0.9644
B( 24-C , 52-H ) :   0.9388 B( 25-N , 53-H ) :   0.8635 B( 25-N , 54-H ) :   0.8548
B( 26-C , 55-H ) :   0.9322 B( 26-C , 56-H ) :   0.9229

FINAL SINGLE POINT ENERGY     -1153.669320345634

DIPOLE MOMENT
-------------

Method             : SCF
Type of density    : Electron Density
Multiplicity       :   1
Irrep              :   0
Energy             : -1153.6693203456338779 Eh
Relativity type    :
Basis              : AO
                                X                 Y                 Z
Electronic contribution:     22.709746336      -4.975331928       0.468667169
Nuclear contribution   :    -22.118833195       5.908732619      -0.352492827
                        -----------------------------------------
Total Dipole Moment    :      0.590913141       0.933400691       0.116174341
                        -----------------------------------------
Magnitude (a.u.)       :      1.110815767
Magnitude (Debye)      :      2.823469294

Rotational constants in cm-1:             0.007785             0.004977             0.003625
Rotational constants in MHz :           233.402137           149.213241           108.677419

                             ****ORCA TERMINATED NORMALLY****
TOTAL RUN TIME: 0 days 0 hours 5 minutes 11 seconds 31 msec
