                         Program Version 6.0.0  -   RELEASE  -
|  1> ! B3LYP 6-31G* SP
|  2>
|  3> * xyz 0 1
|  4> O 1.7129 1.3261 2.0321
|  5> C 1.9829 0.7884 0.9225
|  6> N 1.3910 -0.4764 0.5830
|  7> C 0.2409 -1.0146 1.3210
|  8> C -0.9969 -0.1823 1.0645
|  9> C -1.3081 0.2713 -0.2294
| 10> C -2.4711 1.0102 -0.4613
| 11> C -3.3531 1.2994 0.5975
| 12> O -4.5351 2.0369 0.4188
| 13> C -5.0044 2.5531 -0.8258
| 14> F -5.2161 1.5187 -1.7206
| 15> F -4.0878 3.4497 -1.3483
| 16> F -6.2002 3.2117 -0.6156
| 17> C -3.0497 0.8335 1.8832
| 18> F -3.8935 1.0915 2.9141
| 19> C -1.8862 0.0939 2.1150
| 20> C -0.0286 -2.4514 0.9313
| 21> N -0.1304 -2.7821 -0.3881
| 22> C -0.3984 -4.0504 -0.7976
| 23> C -0.5886 -5.0628 0.1436
| 24> C -0.5060 -4.7552 1.5019
| 25> C -0.2309 -3.4464 1.9059
| 26> F -0.1680 -3.1571 3.2304
| 27> C 2.9173 1.4646 -0.0064
| 28> C 3.8682 2.3743 0.4818
| 29> C 4.7392 3.0182 -0.3976
| 30> C 4.6477 2.7581 -1.7671
| 31> O 5.4281 3.3357 -2.5705
| 32> N 3.7142 1.8834 -2.2341
| 33> C 2.8567 1.2411 -1.3936
| 34> H 1.8088 -1.0319 -0.1978
| 35> H 0.4943 -0.9735 2.4035
| 36> H -0.6503 0.0518 -1.0612
| 37> H -2.6738 1.3461 -1.4680
| 38> H -1.6802 -0.2665 3.1155
| 39> H -0.4658 -4.2718 -1.8545
| 40> H -0.8015 -6.0746 -0.1765
| 41> H -0.6583 -5.5305 2.2414
| 42> H 3.9450 2.5792 1.5433
| 43> H 5.4766 3.7142 -0.0166
| 44> H 3.6457 1.7007 -3.2626
| 45> H 2.1133 0.5757 -1.8141
| 46> *
| 47>
| 48>                          ****END OF INPUT****

CARTESIAN COORDINATES (ANGSTROEM)
---------------------------------
  O      1.712900    1.326100    2.032100
  C      1.982900    0.788400    0.922500
  N      1.391000   -0.476400    0.583000
  C      0.240900   -1.014600    1.321000
  C     -0.996900   -0.182300    1.064500
  C     -1.308100    0.271300   -0.229400
  C     -2.471100    1.010200   -0.461300
  C     -3.353100    1.299400    0.597500
  O     -4.535100    2.036900    0.418800
  C     -5.004400    2.553100   -0.825800
  F     -5.216100    1.518700   -1.720600
  F     -4.087800    3.449700   -1.348300
  F     -6.200200    3.211700   -0.615600
  C     -3.049700    0.833500    1.883200
  F     -3.893500    1.091500    2.914100
  C     -1.886200    0.093900    2.115000
  C     -0.028600   -2.451400    0.931300
  N     -0.130400   -2.782100   -0.388100
  C     -0.398400   -4.050400   -0.797600
  C     -0.588600   -5.062800    0.143600
  C     -0.506000   -4.755200    1.501900
  C     -0.230900   -3.446400    1.905900
  F     -0.168000   -3.157100    3.230400
  C      2.917300    1.464600   -0.006400
  C      3.868200    2.374300    0.481800
  C      4.739200    3.018200   -0.397600
  C      4.647700    2.758100   -1.767100
  O      5.428100    3.335700   -2.570500
  N      3.714200    1.883400   -2.234100
  C      2.856700    1.241100   -1.393600
  H      1.808800   -1.031900   -0.197800
  H      0.494300   -0.973500    2.403500
  H     -0.650300    0.051800   -1.061200
  H     -2.673800    1.346100   -1.468000
  H     -1.680200   -0.266500    3.115500
  H     -0.465800   -4.271800   -1.854500
  H     -0.801500   -6.074600   -0.176500
  H     -0.658300   -5.530500    2.241400
  H      3.945000    2.579200    1.543300
  H      5.476600    3.714200   -0.016600
  H      3.645700    1.700700   -3.262600
  H      2.113300    0.575700   -1.814100

 Total Charge           Charge          ....    0
 Multiplicity           Mult            ....    1
 Number of Electrons    NEL             ....  216
 Basis Dimension        Dim             ....  444

ORBITAL ENERGIES
----------------

  NO   OCC          E(Eh)            E(eV)
   0   2.0000     -24.741541      -673.2516
   1   2.0000     -24.740224      -673.2157
   2   2.0000     -24.739730      -673.2023
   3   2.0000     -24.728514      -672.8971
   4   2.0000     -24.704378      -672.2403
   5   2.0000     -19.214633      -522.8568
   6   2.0000     -19.117740      -520.2202
   7   2.0000     -19.087197      -519.3890
   8   2.0000     -14.412474      -392.1834
   9   2.0000     -14.365356      -390.9012
  10   2.0000     -14.358827      -390.7235
  11   2.0000     -10.505610      -285.8722
  12   2.0000     -10.300622      -280.2942
  13   2.0000     -10.299725      -280.2698
  14   2.0000     -10.281776      -279.7814
  15   2.0000     -10.278231      -279.6849
  16   2.0000     -10.273631      -279.5597
  17   2.0000     -10.268940      -279.4321
  18   2.0000     -10.258284      -279.1421
  19   2.0000     -10.249134      -278.8931
  20   2.0000     -10.243828      -278.7487
  21   2.0000     -10.227227      -278.2970
  22   2.0000     -10.219796      -278.0948
  23   2.0000     -10.216177      -277.9963
  24   2.0000     -10.211616      -277.8722
  25   2.0000     -10.207581      -277.7624
  26   2.0000     -10.203138      -277.6415
  27   2.0000     -10.200865      -277.5796
  28   2.0000     -10.196444      -277.4594
  29   2.0000     -10.193163      -277.3701
  30   2.0000      -1.304622       -35.5006
  31   2.0000      -1.240707       -33.7614
  32   2.0000      -1.225678       -33.3524
  33   2.0000      -1.224739       -33.3268
  34   2.0000      -1.217200       -33.1217
  35   2.0000      -1.083901       -29.4944
  36   2.0000      -1.030908       -28.0524
  37   2.0000      -1.018191       -27.7064
  38   2.0000      -0.962330       -26.1863
  39   2.0000      -0.956099       -26.0168
  40   2.0000      -0.916294       -24.9336
  41   2.0000      -0.869221       -23.6527
  42   2.0000      -0.835185       -22.7265
  43   2.0000      -0.823991       -22.4219
  44   2.0000      -0.806679       -21.9508
  45   2.0000      -0.778741       -21.1906
  46   2.0000      -0.770751       -20.9732
  47   2.0000      -0.760675       -20.6990
  48   2.0000      -0.728783       -19.8312
  49   2.0000      -0.694940       -18.9103
  50   2.0000      -0.678019       -18.4498
  51   2.0000      -0.661144       -17.9906
  52   2.0000      -0.653807       -17.7910
  53   2.0000      -0.647457       -17.6182
  54   2.0000      -0.636033       -17.3073
  55   2.0000      -0.624770       -17.0009
  56   2.0000      -0.600867       -16.3504
  57   2.0000      -0.597022       -16.2458
  58   2.0000      -0.592314       -16.1177
  59   2.0000      -0.581364       -15.8197
  60   2.0000      -0.571635       -15.5550
  61   2.0000      -0.555306       -15.1106
  62   2.0000      -0.538147       -14.6437
  63   2.0000      -0.536083       -14.5876
  64   2.0000      -0.529134       -14.3985
  65   2.0000      -0.523450       -14.2438
  66   2.0000      -0.509713       -13.8700
  67   2.0000      -0.505137       -13.7455
  68   2.0000      -0.490220       -13.3396
  69   2.0000      -0.484976       -13.1969
  70   2.0000      -0.482983       -13.1426
  71   2.0000      -0.473695       -12.8899
  72   2.0000      -0.472526       -12.8581
  73   2.0000      -0.469326       -12.7710
  74   2.0000      -0.462401       -12.5826
  75   2.0000      -0.457432       -12.4474
  76   2.0000      -0.455155       -12.3854
  77   2.0000      -0.452494       -12.3130
  78   2.0000      -0.448227       -12.1969
  79   2.0000      -0.442667       -12.0456
  80   2.0000      -0.440650       -11.9907
  81   2.0000      -0.435246       -11.8436
  82   2.0000      -0.430154       -11.7051
  83   2.0000      -0.423750       -11.5308
  84   2.0000      -0.417134       -11.3508
  85   2.0000      -0.416986       -11.3468
  86   2.0000      -0.408701       -11.1213
  87   2.0000      -0.401988       -10.9386
  88   2.0000      -0.399705       -10.8765
  89   2.0000      -0.397732       -10.8228
  90   2.0000      -0.395825       -10.7709
  91   2.0000      -0.385049       -10.4777
  92   2.0000      -0.380752       -10.3608
  93   2.0000      -0.375360       -10.2141
  94   2.0000      -0.369115       -10.0441
  95   2.0000      -0.360173        -9.8008
  96   2.0000      -0.345869        -9.4116
  97   2.0000      -0.331547        -9.0219
  98   2.0000      -0.312481        -8.5030
  99   2.0000      -0.304609        -8.2888
 100   2.0000      -0.281966        -7.6727
 101   2.0000      -0.277343        -7.5469
 102   2.0000      -0.262332        -7.1384
 103   2.0000      -0.256046        -6.9674
 104   2.0000      -0.255664        -6.9570
 105   2.0000      -0.236914        -6.4468
 106   2.0000      -0.235908        -6.4194
 107   2.0000      -0.218308        -5.9405
 108   0.0000      -0.060042        -1.6338
 109   0.0000      -0.056032        -1.5247
 110   0.0000      -0.035788        -0.9738
 111   0.0000      -0.031006        -0.8437
 112   0.0000      -0.013133        -0.3574

MULLIKEN ATOMIC CHARGES
-----------------------
   0 O :   -0.481326
   1 C :    0.510321
   2 N :   -0.649561
   3 C :   -0.059228
   4 C :    0.185038
   5 C :   -0.159731
   6 C :   -0.182258
   7 C :    0.280639
   8 O :   -0.537827
   9 C :    1.089065
  10 F :   -0.292214
  11 F :   -0.291006
  12 F :   -0.276778
  13 C :    0.375887
  14 F :   -0.306421
  15 C :   -0.256931
  16 C :    0.161929
  17 N :   -0.415180
  18 C :    0.013055
  19 C :   -0.124855
  20 C :   -0.171215
  21 C :    0.374493
  22 F :   -0.305741
  23 C :    0.024324
  24 C :   -0.104212
  25 C :   -0.206753
  26 C :    0.552768
  27 O :   -0.521109
  28 N :   -0.579123
  29 C :    0.033038
  30 H :    0.327841
  31 H :    0.188544
  32 H :    0.136046
  33 H :    0.158453
  34 H :    0.158622
  35 H :    0.157953
  36 H :    0.151504
  37 H :    0.166427
  38 H :    0.175684
  39 H :    0.167096
  40 H :    0.355633
  41 H :    0.177112
Sum of atomic charges:    0.0000000

LOEWDIN ATOMIC CHARGES
----------------------
   0 O :   -0.285810
   1 C :    0.143343
   2 N :   -0.239954
   3 C :   -0.045946
   4 C :   -0.012080
   5 C :   -0.122639
   6 C :   -0.152139
   7 C :    0.060173
   8 O :   -0.154844
   9 C :    0.361810
  10 F :   -0.105885
  11 F :   -0.105147
  12 F :   -0.085203
  13 C :    0.109245
  14 F :   -0.094546
  15 C :   -0.144930
  16 C :    0.005508
  17 N :   -0.135614
  18 C :   -0.072543
  19 C :   -0.133469
  20 C :   -0.123833
  21 C :    0.106254
  22 F :   -0.095224
  23 C :   -0.097907
  24 C :   -0.069832
  25 C :   -0.146352
  26 C :    0.080340
  27 O :   -0.323967
  28 N :   -0.094094
  29 C :   -0.044617
  30 H :    0.251455
  31 H :    0.152501
  32 H :    0.136984
  33 H :    0.145532
  34 H :    0.151962
  35 H :    0.139676
  36 H :    0.144207
  37 H :    0.153458
  38 H :    0.157251
  39 H :    0.158847
  40 H :    0.280836
  41 H :    0.147190

  Mayer bond orders larger than 0.100000
B(  0-O ,  1-C ) :   1.7998 B(  1-C ,  2-N ) :   1.0250 B(  1-C , 23-C ) :   1.0056
B(  2-N ,  3-C ) :   0.9007 B(  2-N , 30-H ) :   0.8109 B(  3-C ,  4-C ) :   0.9491
B(  3-C , 16-C ) :   0.9321 B(  3-C , 31-H ) :   0.9062 B(  4-C ,  5-C ) :   1.4193
B(  4-C , 15-C ) :   1.4023 B(  5-C ,  6-C ) :   1.4334 B(  5-C , 32-H ) :   0.9150
B(  6-C ,  7-C ) :   1.3812 B(  6-C , 33-H ) :   0.9094 B(  7-C ,  8-O ) :   0.8322
B(  7-C , 13-C ) :   1.3279 B(  8-O ,  9-C ) :   0.9869 B(  9-C , 10-F ) :   0.9682
B(  9-C , 11-F ) :   0.9684 B(  9-C , 12-F ) :   1.0100 B( 13-C , 14-F ) :   0.9394
B( 13-C , 15-C ) :   1.3826 B( 15-C , 34-H ) :   0.9101 B( 16-C , 17-N ) :   1.3743
B( 16-C , 21-C ) :   1.3314 B( 17-N , 18-C ) :   1.4268 B( 18-C , 19-C ) :   1.4192
B( 18-C , 35-H ) :   0.9279 B( 19-C , 20-C ) :   1.4410 B( 19-C , 36-H ) :   0.9228
B( 20-C , 21-C ) :   1.3877 B( 20-C , 37-H ) :   0.9160 B( 21-C , 22-F ) :   0.9238
B( 23-C , 24-C ) :   1.2441 B( 23-C , 29-C ) :   1.5103 B( 24-C , 25-C ) :   1.5566
B( 24-C , 38-H ) :   0.9107 B( 25-C , 26-C ) :   1.1868 B( 25-C , 39-H ) :   0.9251
B( 26-C , 27-O ) :   1.7565 B( 26-C , 28-N ) :   0.9779 B( 28-N , 29-C ) :   1.1412
B( 28-N , 40-H ) :   0.8112 B( 29-C , 41-H ) :   0.9096

FINAL SINGLE POINT ENERGY     -1619.514518424690

DIPOLE MOMENT
-------------

Method             : SCF
Type of density    : Electron Density
Multiplicity       :   1
Irrep              :   0
Energy             : -1619.5145184246903227 Eh
Relativity type    :
Basis              : AO
                                X                 Y                 Z
Electronic contribution:    -32.061152428      12.646564926       3.542730625
Nuclear contribution   :     31.750713135     -15.712717712      -4.372709748
                        -----------------------------------------
Total Dipole Moment    :     -0.310439294      -3.066152786      -0.829979123
                        -----------------------------------------
Magnitude (a.u.)       :      3.191634504
Magnitude (Debye)      :      8.112490198

Rotational constants in cm-1:             0.004660             0.003189             0.002255
Rotational constants in MHz :           139.707120            95.606684            67.599759

                             ****ORCA TERMINATED NORMALLY****
TOTAL RUN TIME: 0 days 0 hours 4 minutes 16 seconds 317 msec
