                         Program Version 6.0.0  -   RELEASE  -
|  1> ! B3LYP 6-31G* SP
|  2>
|  3> * xyz 0 1
|  4> C -4.1319 1.7710 -2.5183
|  5> N -4.2859 0.9785 -1.2820
|  6> C -3.3548 1.0899 -0.2863
|  7> O -2.3560 1.8380 -0.4681
|  8> C -3.4942 0.3565 0.9174
|  9> C -2.5586 0.4315 2.0064
| 10> C -1.3830 1.3926 2.0684
| 11> C -0.1304 0.8846 1.3948
| 12> O 0.9562 1.4677 1.6578
| 13> N -0.1537 -0.2031 0.4494
| 14> C 1.0088 -0.6810 -0.2401
| 15> N 2.2529 -0.1851 -0.0684
| 16> C 3.1730 -0.8223 -0.8462
| 17> C 4.6079 -0.4344 -0.8205
| 18> C 5.6027 -1.2527 -1.3871
| 19> C 6.9469 -0.8714 -1.3475
| 20> C 7.3302 0.3363 -0.7390
| 21> C 8.7775 0.7637 -0.6849
| 22> F 8.9228 1.9839 -1.3220
| 23> F 9.1709 0.8938 0.6356
| 24> F 9.6081 -0.1565 -1.3028
| 25> C 6.3396 1.1530 -0.1667
| 26> F 6.6743 2.3247 0.4320
| 27> C 4.9957 0.7697 -0.2062
| 28> C 2.6420 -1.8371 -1.6509
| 29> S 0.9864 -1.9257 -1.3645
| 30> C -2.7133 -0.4283 3.1044
| 31> C -3.7824 -1.3054 3.1797
| 32> C -4.7284 -1.3441 2.1661
| 33> C -4.6134 -0.5186 1.0218
| 34> N -5.5619 -0.5568 0.0208
| 35> C -6.7616 -1.4132 0.1545
| 36> C -5.3955 0.1961 -1.1144
| 37> O -6.2743 0.1672 -2.0233
| 38> H -3.0617 1.9063 -2.7841
| 39> H -4.5970 1.2624 -3.3897
| 40> H -4.6033 2.7672 -2.3831
| 41> H -1.1301 1.5930 3.1334
| 42> H -1.6563 2.3939 1.6811
| 43> H -1.0523 -0.6861 0.2334
| 44> H 5.3551 -2.1978 -1.8491
| 45> H 7.6832 -1.5286 -1.7917
| 46> H 4.2570 1.4237 0.2404
| 47> H 3.1770 -2.4558 -2.3569
| 48> H -2.0021 -0.4134 3.9218
| 49> H -3.8860 -1.9549 4.0397
| 50> H -5.5416 -2.0442 2.2912
| 51> H -7.4886 -1.2864 -0.6736
| 52> H -7.3082 -1.1594 1.0878
| 53> H -6.4619 -2.4831 0.1677
| 54> *
| 55>
| 56>                          ****END OF INPUT****

CARTESIAN COORDINATES (ANGSTROEM)
---------------------------------
  C     -4.131900    1.771000   -2.518300
  N     -4.285900    0.978500   -1.282000
  C     -3.354800    1.089900   -0.286300
  O     -2.356000    1.838000   -0.468100
  C     -3.494200    0.356500    0.917400
  C     -2.558600    0.431500    2.006400
  C     -1.383000    1.392600    2.068400
  C     -0.130400    0.884600    1.394800
  O      0.956200    1.467700    1.657800
  N     -0.153700   -0.203100    0.449400
  C      1.008800   -0.681000   -0.240100
  N      2.252900   -0.185100   -0.068400
  C      3.173000   -0.822300   -0.846200
  C      4.607900   -0.434400   -0.820500
  C      5.602700   -1.252700   -1.387100
  C      6.946900   -0.871400   -1.347500
  C      7.330200    0.336300   -0.739000
  C      8.777500    0.763700   -0.684900
  F      8.922800    1.983900   -1.322000
  F      9.170900    0.893800    0.635600
  F      9.608100   -0.156500   -1.302800
  C      6.339600    1.153000   -0.166700
  F      6.674300    2.324700    0.432000
  C      4.995700    0.769700   -0.206200
  C      2.642000   -1.837100   -1.650900
  S      0.986400   -1.925700   -1.364500
  C     -2.713300   -0.428300    3.104400
  C     -3.782400   -1.305400    3.179700
  C     -4.728400   -1.344100    2.166100
  C     -4.613400   -0.518600    1.021800
  N     -5.561900   -0.556800    0.020800
  C     -6.761600   -1.413200    0.154500
  C     -5.395500    0.196100   -1.114400
  O     -6.274300    0.167200   -2.023300
  H     -3.061700    1.906300   -2.784100
  H     -4.597000    1.262400   -3.389700
  H     -4.603300    2.767200   -2.383100
  H     -1.130100    1.593000    3.133400
  H     -1.656300    2.393900    1.681100
  H     -1.052300   -0.686100    0.233400
  H      5.355100   -2.197800   -1.849100
  H      7.683200   -1.528600   -1.791700
  H      4.257000    1.423700    0.240400
  H      3.177000   -2.455800   -2.356900
  H     -2.002100   -0.413400    3.921800
  H     -3.886000   -1.954900    4.039700
  H     -5.541600   -2.044200    2.291200
  H     -7.488600   -1.286400   -0.673600
  H     -7.308200   -1.159400    1.087800
  H     -6.461900   -2.483100    0.167700

 Total Charge           Charge          ....    0
 Multiplicity           Mult            ....    1
 Number of Electrons    NEL             ....  252
 Basis Dimension        Dim             ....  512

ORBITAL ENERGIES
----------------

  NO   OCC          E(Eh)            E(eV)
   0   2.0000     -88.908793     -2419.3312
   1   2.0000     -24.713896      -672.4993
   2   2.0000     -24.704787      -672.2514
   3   2.0000     -24.704720      -672.2496
   4   2.0000     -24.699842      -672.1169
   5   2.0000     -19.124116      -520.3937
   6   2.0000     -19.119974      -520.2809
   7   2.0000     -19.113050      -520.0925
   8   2.0000     -14.414802      -392.2467
   9   2.0000     -14.407785      -392.0558
  10   2.0000     -14.390376      -391.5820
  11   2.0000     -14.324796      -389.7975
  12   2.0000     -10.427387      -283.7436
  13   2.0000     -10.336547      -281.2717
  14   2.0000     -10.306474      -280.4534
  15   2.0000     -10.301998      -280.3316
  16   2.0000     -10.290152      -280.0093
  17   2.0000     -10.277307      -279.6597
  18   2.0000     -10.272526      -279.5296
  19   2.0000     -10.243904      -278.7508
  20   2.0000     -10.234242      -278.4879
  21   2.0000     -10.228128      -278.3215
  22   2.0000     -10.226744      -278.2839
  23   2.0000     -10.226734      -278.2836
  24   2.0000     -10.218177      -278.0507
  25   2.0000     -10.214057      -277.9386
  26   2.0000     -10.212186      -277.8877
  27   2.0000     -10.210705      -277.8474
  28   2.0000     -10.209423      -277.8125
  29   2.0000     -10.206249      -277.7262
  30   2.0000     -10.205557      -277.7073
  31   2.0000     -10.201472      -277.5962
  32   2.0000     -10.192713      -277.3578
  33   2.0000     -10.188152      -277.2337
  34   2.0000      -7.986573      -217.3257
  35   2.0000      -5.949644      -161.8980
  36   2.0000      -5.945553      -161.7867
  37   2.0000      -5.943376      -161.7275
  38   2.0000      -1.268815       -34.5262
  39   2.0000      -1.212372       -32.9903
  40   2.0000      -1.195522       -32.5318
  41   2.0000      -1.190928       -32.4068
  42   2.0000      -1.079826       -29.3836
  43   2.0000      -1.034405       -28.1476
  44   2.0000      -1.016788       -27.6682
  45   2.0000      -0.982254       -26.7285
  46   2.0000      -0.974029       -26.5047
  47   2.0000      -0.951055       -25.8795
  48   2.0000      -0.912396       -24.8276
  49   2.0000      -0.882795       -24.0221
  50   2.0000      -0.868463       -23.6321
  51   2.0000      -0.814985       -22.1769
  52   2.0000      -0.808635       -22.0041
  53   2.0000      -0.799280       -21.7495
  54   2.0000      -0.791814       -21.5464
  55   2.0000      -0.756390       -20.5824
  56   2.0000      -0.752596       -20.4792
  57   2.0000      -0.742523       -20.2051
  58   2.0000      -0.731932       -19.9169
  59   2.0000      -0.716336       -19.4925
  60   2.0000      -0.685010       -18.6401
  61   2.0000      -0.666883       -18.1468
  62   2.0000      -0.664544       -18.0832
  63   2.0000      -0.634128       -17.2555
  64   2.0000      -0.627195       -17.0668
  65   2.0000      -0.622931       -16.9508
  66   2.0000      -0.608169       -16.5491
  67   2.0000      -0.594511       -16.1775
  68   2.0000      -0.585983       -15.9454
  69   2.0000      -0.560915       -15.2633
  70   2.0000      -0.559243       -15.2178
  71   2.0000      -0.558450       -15.1962
  72   2.0000      -0.558361       -15.1938
  73   2.0000      -0.548902       -14.9364
  74   2.0000      -0.530550       -14.4370
  75   2.0000      -0.525685       -14.3046
  76   2.0000      -0.514641       -14.0041
  77   2.0000      -0.503047       -13.6886
  78   2.0000      -0.499297       -13.5866
  79   2.0000      -0.488673       -13.2975
  80   2.0000      -0.482408       -13.1270
  81   2.0000      -0.481884       -13.1127
  82   2.0000      -0.472693       -12.8626
  83   2.0000      -0.470953       -12.8153
  84   2.0000      -0.468507       -12.7487
  85   2.0000      -0.458307       -12.4712
  86   2.0000      -0.455783       -12.4025
  87   2.0000      -0.445631       -12.1262
  88   2.0000      -0.443729       -12.0745
  89   2.0000      -0.437620       -11.9082
  90   2.0000      -0.436515       -11.8782
  91   2.0000      -0.435686       -11.8556
  92   2.0000      -0.434425       -11.8213
  93   2.0000      -0.428010       -11.6467
  94   2.0000      -0.418336       -11.3835
  95   2.0000      -0.414651       -11.2832
  96   2.0000      -0.410765       -11.1775
  97   2.0000      -0.409677       -11.1479
  98   2.0000      -0.405919       -11.0456
  99   2.0000      -0.402769       -10.9599
 100   2.0000      -0.400532       -10.8990
 101   2.0000      -0.398667       -10.8483
 102   2.0000      -0.396066       -10.7775
 103   2.0000      -0.392025       -10.6675
 104   2.0000      -0.387734       -10.5508
 105   2.0000      -0.386576       -10.5193
 106   2.0000      -0.383883       -10.4460
 107   2.0000      -0.374082       -10.1793
 108   2.0000      -0.371503       -10.1091
 109   2.0000      -0.368786       -10.0352
 110   2.0000      -0.365426        -9.9438
 111   2.0000      -0.352076        -9.5805
 112   2.0000      -0.343151        -9.3376
 113   2.0000      -0.327532        -8.9126
 114   2.0000      -0.305294        -8.3075
 115   2.0000      -0.294151        -8.0043
 116   2.0000      -0.286610        -7.7991
 117   2.0000      -0.282952        -7.6995
 118   2.0000      -0.277189        -7.5427
 119   2.0000      -0.275084        -7.4854
 120   2.0000      -0.260455        -7.0873
 121   2.0000      -0.255843        -6.9618
 122   2.0000      -0.249062        -6.7773
 123   2.0000      -0.244754        -6.6601
 124   2.0000      -0.230626        -6.2756
 125   2.0000      -0.213653        -5.8138
 126   0.0000      -0.072039        -1.9603
 127   0.0000      -0.044369        -1.2073
 128   0.0000      -0.034607        -0.9417
 129   0.0000      -0.024775        -0.6742
 130   0.0000      -0.004374        -0.1190

MULLIKEN ATOMIC CHARGES
-----------------------
   0 C :   -0.317336
   1 N :   -0.462899
   2 C :    0.499218
   3 O :   -0.494268
   4 C :   -0.011452
   5 C :    0.054225
   6 C :   -0.414478
   7 C :    0.594670
   8 O :   -0.431872
   9 N :   -0.658052
  10 C :    0.257804
  11 N :   -0.372692
  12 C :    0.220206
  13 C :    0.138648
  14 C :   -0.183102
  15 C :   -0.161467
  16 C :   -0.112460
  17 C :    0.917517
  18 F :   -0.299778
  19 F :   -0.299392
  20 F :   -0.308246
  21 C :    0.391349
  22 F :   -0.300931
  23 C :   -0.263096
  24 C :   -0.394908
  25 S :    0.248572
  26 C :   -0.178677
  27 C :   -0.106355
  28 C :   -0.197405
  29 C :    0.316085
  30 N :   -0.508498
  31 C :   -0.337595
  32 C :    0.670295
  33 O :   -0.505832
  34 H :    0.198517
  35 H :    0.197478
  36 H :    0.181646
  37 H :    0.182588
  38 H :    0.222164
  39 H :    0.343638
  40 H :    0.130294
  41 H :    0.157194
  42 H :    0.196910
  43 H :    0.182828
  44 H :    0.149055
  45 H :    0.149918
  46 H :    0.145788
  47 H :    0.226742
  48 H :    0.174202
  49 H :    0.173241
Sum of atomic charges:   -0.0000000

LOEWDIN ATOMIC CHARGES
----------------------
   0 C :   -0.259271
   1 N :   -0.020365
   2 C :    0.107083
   3 O :   -0.286453
   4 C :   -0.088485
   5 C :    0.016058
   6 C :   -0.238176
   7 C :    0.168964
   8 O :   -0.244175
   9 N :   -0.203746
  10 C :   -0.075736
  11 N :   -0.150982
  12 C :   -0.003458
  13 C :    0.001316
  14 C :   -0.135085
  15 C :   -0.110947
  16 C :   -0.100954
  17 C :    0.314446
  18 F :   -0.113194
  19 F :   -0.113057
  20 F :   -0.113588
  21 C :    0.135334
  22 F :   -0.092544
  23 C :   -0.136898
  24 C :   -0.345047
  25 S :    0.387301
  26 C :   -0.144188
  27 C :   -0.096985
  28 C :   -0.165095
  29 C :    0.052223
  30 N :   -0.026896
  31 C :   -0.265389
  32 C :    0.136552
  33 O :   -0.315164
  34 H :    0.154009
  35 H :    0.153838
  36 H :    0.142949
  37 H :    0.154424
  38 H :    0.176236
  39 H :    0.264610
  40 H :    0.133788
  41 H :    0.146893
  42 H :    0.170328
  43 H :    0.160574
  44 H :    0.141663
  45 H :    0.143002
  46 H :    0.142386
  47 H :    0.169395
  48 H :    0.136889
  49 H :    0.135615

  Mayer bond orders larger than 0.100000
B(  0-C ,  1-N ) :   0.9140 B(  0-C , 34-H ) :   0.9230 B(  0-C , 35-H ) :   0.9250
B(  0-C , 36-H ) :   0.9399 B(  1-N ,  2-C ) :   1.0033 B(  1-N , 32-C ) :   1.0389
B(  2-C ,  3-O ) :   1.7457 B(  2-C ,  4-C ) :   1.0536 B(  4-C ,  5-C ) :   1.3449
B(  4-C , 29-C ) :   1.2825 B(  5-C ,  6-C ) :   0.9642 B(  5-C , 26-C ) :   1.4378
B(  6-C ,  7-C ) :   0.9578 B(  6-C , 37-H ) :   0.9116 B(  6-C , 38-H ) :   0.8887
B(  7-C ,  8-O ) :   1.8685 B(  7-C ,  9-N ) :   0.9913 B(  9-N , 10-C ) :   0.9650
B(  9-N , 39-H ) :   0.8049 B( 10-C , 11-N ) :   1.5096 B( 10-C , 24-C ) :   0.1053
B( 10-C , 25-S ) :   1.1346 B( 11-N , 12-C ) :   1.2670 B( 12-C , 13-C ) :   1.0546
B( 12-C , 24-C ) :   1.5117 B( 13-C , 14-C ) :   1.4000 B( 13-C , 23-C ) :   1.3697
B( 14-C , 15-C ) :   1.4344 B( 14-C , 40-H ) :   0.9203 B( 15-C , 16-C ) :   1.4043
B( 15-C , 41-H ) :   0.9186 B( 16-C , 17-C ) :   0.9684 B( 16-C , 21-C ) :   1.3219
B( 17-C , 18-F ) :   0.9702 B( 17-C , 19-F ) :   0.9715 B( 17-C , 20-F ) :   0.9435
B( 21-C , 22-F ) :   0.9489 B( 21-C , 23-C ) :   1.3571 B( 23-C , 42-H ) :   0.8960
B( 24-C , 25-S ) :   1.1169 B( 24-C , 43-H ) :   0.9015 B( 26-C , 27-C ) :   1.4079
B( 26-C , 44-H ) :   0.9200 B( 27-C , 28-C ) :   1.4667 B( 27-C , 45-H ) :   0.9249
B( 28-C , 29-C ) :   1.3458 B( 28-C , 46-H ) :   0.9139 B( 29-C , 30-N ) :   0.9760
B( 30-N , 31-C ) :   0.9321 B( 30-N , 32-C ) :   1.0428 B( 31-C , 47-H ) :   0.9132
B( 31-C , 48-H ) :   0.9310 B( 31-C , 49-H ) :   0.9324 B( 32-C , 33-O ) :   1.7886

FINAL SINGLE POINT ENERGY     -2089.259233236379

DIPOLE MOMENT
-------------

Method             : SCF
Type of density    : Electron Density
Multiplicity       :   1
Irrep              :   0
Energy             : -2089.2592332363788046 Eh
Relativity type    :
Basis              : AO
                                X                 Y                 Z
Electronic contribution:     67.229189288       8.214764383      -3.668255904
Nuclear contribution   :    -70.703961593     -10.606149986       4.072081852
                        -----------------------------------------
Total Dipole Moment    :     -3.474772305      -2.391385603       0.403825947
                        -----------------------------------------
Magnitude (a.u.)       :      4.237433548
Magnitude (Debye)      :     10.770700116

Rotational constants in cm-1:             0.010221             0.001214             0.001191
Rotational constants in MHz :           306.413892            36.386521            35.694262

                             ****ORCA TERMINATED NORMALLY****
TOTAL RUN TIME: 0 days 0 hours 6 minutes 16 seconds 921 msec
