                         Program Version 6.0.0  -   RELEASE  -
|  1> ! B3LYP 6-31G* SP
|  2>
|  3> * xyz 0 1
|  4> C 8.6906 0.6528 2.8130
|  5> O 8.3845 1.3353 1.6231
|  6> N 7.0612 1.1351 1.3941
|  7> C 6.6076 0.1097 0.4979
|  8> O 7.3826 -0.8508 0.2268
|  9> C 5.2309 0.1245 -0.0696
| 10> C 4.4658 1.3031 -0.1031
| 11> C 3.1888 1.3112 -0.6736
| 12> C 2.6475 0.1353 -1.2121
| 13> S 1.0699 0.1701 -1.9955
| 14> O 0.9326 1.4492 -2.7756
| 15> O 0.9696 -0.9780 -2.9585
| 16> N -0.1986 0.0652 -0.8003
| 17> C -0.4625 1.2275 0.0564
| 18> C -1.8231 1.8304 -0.2104
| 19> C -2.2252 2.1429 -1.5208
| 20> C -3.4162 2.8316 -1.7510
| 21> C -4.2233 3.2356 -0.6783
| 22> O -5.3391 4.0373 -0.9438
| 23> C -6.6546 3.7926 -0.4480
| 24> F -6.6844 3.8024 0.9340
| 25> F -7.1165 2.5730 -0.9151
| 26> F -7.4932 4.7922 -0.9135
| 27> C -3.8473 2.8894 0.6322
| 28> C -2.6507 2.2060 0.8632
| 29> C -1.1213 -1.0398 -0.8354
| 30> N -1.8127 -1.2696 -1.9838
| 31> C -2.7682 -2.2242 -2.0844
| 32> C -3.1127 -2.9931 -0.9711
| 33> C -4.1412 -3.9463 -1.0613
| 34> C -4.5130 -4.6865 0.0643
| 35> C -3.8425 -4.5075 1.2715
| 36> C -2.8132 -3.5638 1.3752
| 37> C -2.4233 -2.7974 0.2531
| 38> C -1.3648 -1.8478 0.3054
| 39> C -0.4889 -1.7211 1.5318
| 40> C 3.3935 -1.0491 -1.1673
| 41> C 4.6755 -1.0547 -0.6105
| 42> H 9.7211 0.9155 3.1247
| 43> H 8.0011 0.9292 3.6462
| 44> H 8.6638 -0.4471 2.6403
| 45> H 6.3732 1.7857 1.8467
| 46> H 4.8628 2.2396 0.2641
| 47> H 2.6335 2.2398 -0.7177
| 48> H 0.2965 2.0172 -0.1181
| 49> H -0.3659 0.9370 1.1208
| 50> H -1.6097 1.8726 -2.3678
| 51> H -3.6967 3.1014 -2.7602
| 52> H -4.4297 3.2238 1.4841
| 53> H -2.3456 2.0061 1.8863
| 54> H -3.2728 -2.3627 -3.0337
| 55> H -4.6797 -4.0963 -1.9871
| 56> H -5.3124 -5.4125 -0.0125
| 57> H -4.1314 -5.0878 2.1406
| 58> H -2.3449 -3.4327 2.3411
| 59> H -1.0155 -1.1492 2.3218
| 60> H -0.2323 -2.7260 1.9286
| 61> H 0.4863 -1.2371 1.3024
| 62> H 2.9945 -1.9645 -1.5874
| 63> H 5.2394 -1.9749 -0.6221
| 64> *
| 65>
| 66>                          ****END OF INPUT****

CARTESIAN COORDINATES (ANGSTROEM)
---------------------------------
  C      8.690600    0.652800    2.813000
  O      8.384500    1.335300    1.623100
  N      7.061200    1.135100    1.394100
  C      6.607600    0.109700    0.497900
  O      7.382600   -0.850800    0.226800
  C      5.230900    0.124500   -0.069600
  C      4.465800    1.303100   -0.103100
  C      3.188800    1.311200   -0.673600
  C      2.647500    0.135300   -1.212100
  S      1.069900    0.170100   -1.995500
  O      0.932600    1.449200   -2.775600
  O      0.969600   -0.978000   -2.958500
  N     -0.198600    0.065200   -0.800300
  C     -0.462500    1.227500    0.056400
  C     -1.823100    1.830400   -0.210400
  C     -2.225200    2.142900   -1.520800
  C     -3.416200    2.831600   -1.751000
  C     -4.223300    3.235600   -0.678300
  O     -5.339100    4.037300   -0.943800
  C     -6.654600    3.792600   -0.448000
  F     -6.684400    3.802400    0.934000
  F     -7.116500    2.573000   -0.915100
  F     -7.493200    4.792200   -0.913500
  C     -3.847300    2.889400    0.632200
  C     -2.650700    2.206000    0.863200
  C     -1.121300   -1.039800   -0.835400
  N     -1.812700   -1.269600   -1.983800
  C     -2.768200   -2.224200   -2.084400
  C     -3.112700   -2.993100   -0.971100
  C     -4.141200   -3.946300   -1.061300
  C     -4.513000   -4.686500    0.064300
  C     -3.842500   -4.507500    1.271500
  C     -2.813200   -3.563800    1.375200
  C     -2.423300   -2.797400    0.253100
  C     -1.364800   -1.847800    0.305400
  C     -0.488900   -1.721100    1.531800
  C      3.393500   -1.049100   -1.167300
  C      4.675500   -1.054700   -0.610500
  H      9.721100    0.915500    3.124700
  H      8.001100    0.929200    3.646200
  H      8.663800   -0.447100    2.640300
  H      6.373200    1.785700    1.846700
  H      4.862800    2.239600    0.264100
  H      2.633500    2.239800   -0.717700
  H      0.296500    2.017200   -0.118100
  H     -0.365900    0.937000    1.120800
  H     -1.609700    1.872600   -2.367800
  H     -3.696700    3.101400   -2.760200
  H     -4.429700    3.223800    1.484100
  H     -2.345600    2.006100    1.886300
  H     -3.272800   -2.362700   -3.033700
  H     -4.679700   -4.096300   -1.987100
  H     -5.312400   -5.412500   -0.012500
  H     -4.131400   -5.087800    2.140600
  H     -2.344900   -3.432700    2.341100
  H     -1.015500   -1.149200    2.321800
  H     -0.232300   -2.726000    1.928600
  H      0.486300   -1.237100    1.302400
  H      2.994500   -1.964500   -1.587400
  H      5.239400   -1.974900   -0.622100

 Total Charge           Charge          ....    0
 Multiplicity           Mult            ....    1
 Number of Electrons    NEL             ....  282
 Basis Dimension        Dim             ....  580

ORBITAL ENERGIES
----------------

  NO   OCC          E(Eh)            E(eV)
   0   2.0000     -89.098491     -2424.4932
   1   2.0000     -24.737428      -673.1396
   2   2.0000     -24.733995      -673.0462
   3   2.0000     -24.730420      -672.9489
   4   2.0000     -19.208005      -522.6764
   5   2.0000     -19.204602      -522.5838
   6   2.0000     -19.126598      -520.4612
   7   2.0000     -19.124570      -520.4060
   8   2.0000     -19.123715      -520.3827
   9   2.0000     -14.413830      -392.2202
  10   2.0000     -14.377718      -391.2376
  11   2.0000     -14.327388      -389.8680
  12   2.0000     -10.497715      -285.6573
  13   2.0000     -10.307756      -280.4883
  14   2.0000     -10.263280      -279.2781
  15   2.0000     -10.259641      -279.1790
  16   2.0000     -10.244958      -278.7795
  17   2.0000     -10.241347      -278.6812
  18   2.0000     -10.233480      -278.4671
  19   2.0000     -10.232360      -278.4367
  20   2.0000     -10.226088      -278.2660
  21   2.0000     -10.223333      -278.1910
  22   2.0000     -10.222549      -278.1697
  23   2.0000     -10.221736      -278.1476
  24   2.0000     -10.216845      -278.0145
  25   2.0000     -10.212209      -277.8883
  26   2.0000     -10.208327      -277.7827
  27   2.0000     -10.199462      -277.5415
  28   2.0000     -10.199054      -277.5304
  29   2.0000     -10.198518      -277.5158
  30   2.0000     -10.197663      -277.4925
  31   2.0000     -10.197522      -277.4887
  32   2.0000     -10.195529      -277.4344
  33   2.0000     -10.195309      -277.4285
  34   2.0000     -10.194301      -277.4010
  35   2.0000     -10.192763      -277.3592
  36   2.0000     -10.189821      -277.2791
  37   2.0000     -10.185731      -277.1678
  38   2.0000      -8.134239      -221.3439
  39   2.0000      -6.099285      -165.9700
  40   2.0000      -6.097232      -165.9141
  41   2.0000      -6.096894      -165.9049
  42   2.0000      -1.297737       -35.3132
  43   2.0000      -1.220715       -33.2174
  44   2.0000      -1.215923       -33.0869
  45   2.0000      -1.125545       -30.6276
  46   2.0000      -1.083631       -29.4871
  47   2.0000      -1.076482       -29.2926
  48   2.0000      -1.013984       -27.5919
  49   2.0000      -0.963200       -26.2100
  50   2.0000      -0.960564       -26.1383
  51   2.0000      -0.914299       -24.8793
  52   2.0000      -0.892679       -24.2910
  53   2.0000      -0.864605       -23.5271
  54   2.0000      -0.859116       -23.3777
  55   2.0000      -0.857973       -23.3466
  56   2.0000      -0.810096       -22.0438
  57   2.0000      -0.802716       -21.8430
  58   2.0000      -0.783847       -21.3296
  59   2.0000      -0.779404       -21.2087
  60   2.0000      -0.772320       -21.0159
  61   2.0000      -0.752909       -20.4877
  62   2.0000      -0.745004       -20.2726
  63   2.0000      -0.726828       -19.7780
  64   2.0000      -0.714582       -19.4448
  65   2.0000      -0.700023       -19.0486
  66   2.0000      -0.687727       -18.7140
  67   2.0000      -0.671733       -18.2788
  68   2.0000      -0.645409       -17.5625
  69   2.0000      -0.643495       -17.5104
  70   2.0000      -0.639774       -17.4091
  71   2.0000      -0.627440       -17.0735
  72   2.0000      -0.617706       -16.8086
  73   2.0000      -0.607368       -16.5273
  74   2.0000      -0.597798       -16.2669
  75   2.0000      -0.593909       -16.1611
  76   2.0000      -0.589898       -16.0519
  77   2.0000      -0.586804       -15.9678
  78   2.0000      -0.569616       -15.5000
  79   2.0000      -0.567937       -15.4543
  80   2.0000      -0.554810       -15.0972
  81   2.0000      -0.532759       -14.4971
  82   2.0000      -0.529796       -14.4165
  83   2.0000      -0.520710       -14.1692
  84   2.0000      -0.503849       -13.7104
  85   2.0000      -0.495681       -13.4882
  86   2.0000      -0.492765       -13.4088
  87   2.0000      -0.488264       -13.2863
  88   2.0000      -0.485327       -13.2064
  89   2.0000      -0.481218       -13.0946
  90   2.0000      -0.472703       -12.8629
  91   2.0000      -0.471660       -12.8345
  92   2.0000      -0.465869       -12.6769
  93   2.0000      -0.459180       -12.4949
  94   2.0000      -0.455837       -12.4040
  95   2.0000      -0.453912       -12.3516
  96   2.0000      -0.450986       -12.2719
  97   2.0000      -0.449783       -12.2392
  98   2.0000      -0.447250       -12.1703
  99   2.0000      -0.441688       -12.0189
 100   2.0000      -0.441298       -12.0083
 101   2.0000      -0.438328       -11.9275
 102   2.0000      -0.433499       -11.7961
 103   2.0000      -0.431040       -11.7292
 104   2.0000      -0.427523       -11.6335
 105   2.0000      -0.426211       -11.5978
 106   2.0000      -0.422598       -11.4995
 107   2.0000      -0.416628       -11.3370
 108   2.0000      -0.412633       -11.2283
 109   2.0000      -0.409941       -11.1551
 110   2.0000      -0.408042       -11.1034
 111   2.0000      -0.404781       -11.0146
 112   2.0000      -0.402185       -10.9440
 113   2.0000      -0.399570       -10.8728
 114   2.0000      -0.389670       -10.6034
 115   2.0000      -0.379944       -10.3388
 116   2.0000      -0.377077       -10.2608
 117   2.0000      -0.376867       -10.2551
 118   2.0000      -0.373620       -10.1667
 119   2.0000      -0.369669       -10.0592
 120   2.0000      -0.366737        -9.9794
 121   2.0000      -0.353997        -9.6328
 122   2.0000      -0.353855        -9.6289
 123   2.0000      -0.349398        -9.5076
 124   2.0000      -0.328909        -8.9501
 125   2.0000      -0.326776        -8.8920
 126   2.0000      -0.310643        -8.4530
 127   2.0000      -0.302417        -8.2292
 128   2.0000      -0.298751        -8.1294
 129   2.0000      -0.292059        -7.9473
 130   2.0000      -0.288018        -7.8374
 131   2.0000      -0.283007        -7.7010
 132   2.0000      -0.275346        -7.4925
 133   2.0000      -0.267023        -7.2661
 134   2.0000      -0.264836        -7.2066
 135   2.0000      -0.256767        -6.9870
 136   2.0000      -0.255426        -6.9505
 137   2.0000      -0.252337        -6.8664
 138   2.0000      -0.245898        -6.6912
 139   2.0000      -0.237463        -6.4617
 140   2.0000      -0.221356        -6.0234
 141   0.0000      -0.080594        -2.1931
 142   0.0000      -0.060464        -1.6453
 143   0.0000      -0.036260        -0.9867
 144   0.0000      -0.030609        -0.8329
 145   0.0000      -0.012869        -0.3502

MULLIKEN ATOMIC CHARGES
-----------------------
   0 C :   -0.184716
   1 O :   -0.311687
   2 N :   -0.389560
   3 C :    0.511504
   4 O :   -0.464034
   5 C :    0.081832
   6 C :   -0.165976
   7 C :   -0.147956
   8 C :   -0.121570
   9 S :    1.205721
  10 O :   -0.547424
  11 O :   -0.525615
  12 N :   -0.619337
  13 C :   -0.230301
  14 C :    0.146268
  15 C :   -0.160140
  16 C :   -0.164081
  17 C :    0.328567
  18 O :   -0.537671
  19 C :    1.060483
  20 F :   -0.282974
  21 F :   -0.286689
  22 F :   -0.281404
  23 C :   -0.170158
  24 C :   -0.184852
  25 C :    0.343527
  26 N :   -0.363176
  27 C :   -0.046329
  28 C :    0.132744
  29 C :   -0.200374
  30 C :   -0.127085
  31 C :   -0.120147
  32 C :   -0.201428
  33 C :    0.127258
  34 C :    0.083398
  35 C :   -0.543114
  36 C :   -0.146747
  37 C :   -0.140780
  38 H :    0.159825
  39 H :    0.128651
  40 H :    0.174717
  41 H :    0.327478
  42 H :    0.144919
  43 H :    0.175133
  44 H :    0.183460
  45 H :    0.154521
  46 H :    0.194999
  47 H :    0.152684
  48 H :    0.148417
  49 H :    0.126423
  50 H :    0.157115
  51 H :    0.141742
  52 H :    0.136370
  53 H :    0.136887
  54 H :    0.134403
  55 H :    0.162013
  56 H :    0.165245
  57 H :    0.166298
  58 H :    0.191438
  59 H :    0.181284
Sum of atomic charges:   -0.0000000

LOEWDIN ATOMIC CHARGES
----------------------
   0 C :   -0.213821
   1 O :   -0.142510
   2 N :   -0.135700
   3 C :    0.131750
   4 O :   -0.273599
   5 C :   -0.031913
   6 C :   -0.121029
   7 C :   -0.107958
   8 C :   -0.176909
   9 S :    1.261844
  10 O :   -0.573760
  11 O :   -0.557370
  12 N :   -0.283528
  13 C :   -0.147389
  14 C :   -0.038779
  15 C :   -0.105576
  16 C :   -0.132248
  17 C :    0.073694
  18 O :   -0.162450
  19 C :    0.360740
  20 F :   -0.104863
  21 F :   -0.107677
  22 F :   -0.094641
  23 C :   -0.152653
  24 C :   -0.129392
  25 C :    0.040231
  26 N :   -0.109319
  27 C :   -0.053027
  28 C :   -0.028866
  29 C :   -0.109536
  30 C :   -0.127625
  31 C :   -0.117433
  32 C :   -0.127298
  33 C :   -0.005708
  34 C :   -0.022635
  35 C :   -0.360671
  36 C :   -0.099601
  37 C :   -0.087435
  38 H :    0.128420
  39 H :    0.106654
  40 H :    0.129312
  41 H :    0.243452
  42 H :    0.139242
  43 H :    0.152567
  44 H :    0.146845
  45 H :    0.125000
  46 H :    0.161846
  47 H :    0.147189
  48 H :    0.141951
  49 H :    0.130605
  50 H :    0.139923
  51 H :    0.138610
  52 H :    0.135635
  53 H :    0.136101
  54 H :    0.136300
  55 H :    0.135388
  56 H :    0.137352
  57 H :    0.137564
  58 H :    0.163548
  59 H :    0.161153

  Mayer bond orders larger than 0.100000
B(  0-C ,  1-O ) :   0.8971 B(  0-C , 38-H ) :   0.9452 B(  0-C , 39-H ) :   0.9373
B(  0-C , 40-H ) :   0.9291 B(  1-O ,  2-N ) :   0.9759 B(  2-N ,  3-C ) :   0.9834
B(  2-N , 41-H ) :   0.8059 B(  3-C ,  4-O ) :   1.8326 B(  3-C ,  5-C ) :   0.9740
B(  5-C ,  6-C ) :   1.3873 B(  5-C , 37-C ) :   1.3971 B(  6-C ,  7-C ) :   1.4338
B(  6-C , 42-H ) :   0.9168 B(  7-C ,  8-C ) :   1.3928 B(  7-C , 43-H ) :   0.9096
B(  8-C ,  9-S ) :   0.8137 B(  8-C , 36-C ) :   1.3904 B(  9-S , 10-O ) :   1.6204
B(  9-S , 11-O ) :   1.6468 B(  9-S , 12-N ) :   0.7940 B( 12-N , 13-C ) :   0.9220
B( 12-N , 25-C ) :   0.8869 B( 13-C , 14-C ) :   0.9678 B( 13-C , 44-H ) :   0.9074
B( 13-C , 45-H ) :   0.9169 B( 14-C , 15-C ) :   1.4277 B( 14-C , 24-C ) :   1.4302
B( 15-C , 16-C ) :   1.4329 B( 15-C , 46-H ) :   0.8939 B( 16-C , 17-C ) :   1.4135
B( 16-C , 47-H ) :   0.9199 B( 17-C , 18-O ) :   0.8108 B( 17-C , 23-C ) :   1.4116
B( 18-O , 19-C ) :   1.0023 B( 19-C , 20-F ) :   0.9769 B( 19-C , 21-F ) :   0.9894
B( 19-C , 22-F ) :   1.0036 B( 23-C , 24-C ) :   1.4240 B( 23-C , 48-H ) :   0.9133
B( 24-C , 49-H ) :   0.9232 B( 25-C , 26-N ) :   1.2843 B( 25-C , 34-C ) :   1.4354
B( 26-N , 27-C ) :   1.5009 B( 27-C , 28-C ) :   1.2293 B( 27-C , 34-C ) :   0.1004
B( 27-C , 50-H ) :   0.9258 B( 28-C , 29-C ) :   1.2857 B( 28-C , 33-C ) :   1.2904
B( 29-C , 30-C ) :   1.5093 B( 29-C , 32-C ) :   0.1070 B( 29-C , 51-H ) :   0.9230
B( 30-C , 31-C ) :   1.3577 B( 30-C , 52-H ) :   0.9291 B( 31-C , 32-C ) :   1.5059
B( 31-C , 53-H ) :   0.9291 B( 32-C , 33-C ) :   1.2950 B( 32-C , 54-H ) :   0.9180
B( 33-C , 34-C ) :   1.2657 B( 34-C , 35-C ) :   0.9962 B( 35-C , 55-H ) :   0.9244
B( 35-C , 56-H ) :   0.9296 B( 35-C , 57-H ) :   0.9335 B( 36-C , 37-C ) :   1.4201
B( 36-C , 58-H ) :   0.9075 B( 37-C , 59-H ) :   0.9089

FINAL SINGLE POINT ENERGY     -2240.842864591576

DIPOLE MOMENT
-------------

Method             : SCF
Type of density    : Electron Density
Multiplicity       :   1
Irrep              :   0
Energy             : -2240.8428645915760171 Eh
Relativity type    :
Basis              : AO
                                X                 Y                 Z
Electronic contribution:    -42.916826384      24.273543724     -16.357959038
Nuclear contribution   :     42.726223876     -24.810281690      19.739797611
                        -----------------------------------------
Total Dipole Moment    :     -0.190602509      -0.536737966       3.381838573
                        -----------------------------------------
Magnitude (a.u.)       :      3.429467757
Magnitude (Debye)      :      8.717014285

Rotational constants in cm-1:             0.004200             0.001344             0.001145
Rotational constants in MHz :           125.898044            40.279062            34.323443

                             ****ORCA TERMINATED NORMALLY****
TOTAL RUN TIME: 0 days 0 hours 10 minutes 10 seconds 49 msec
