                         Program Version 6.0.0  -   RELEASE  -
|  1> ! B3LYP 6-31G* SP
|  2>
|  3> * xyz 0 1
|  4> C -7.6544 -0.9948 1.0239
|  5> C -6.7824 0.1073 1.6371
|  6> C -6.3815 -0.2424 3.0752
|  7> C -5.5605 0.3786 0.7791
|  8> C -4.5980 -0.6197 0.5492
|  9> C -3.4774 -0.3572 -0.2431
| 10> C -3.2912 0.9080 -0.8293
| 11> C -2.0894 1.1639 -1.6670
| 12> C -1.9141 2.2902 -2.4800
| 13> S -0.4212 2.1618 -3.2457
| 14> C -0.0621 0.6906 -2.5250
| 15> N 1.1561 -0.0322 -2.7398
| 16> C 1.4414 -1.3064 -2.1409
| 17> O 0.5376 -1.9474 -1.5395
| 18> C 2.8087 -1.9158 -2.2742
| 19> C 3.8937 -0.9484 -1.8289
| 20> C 4.6479 -0.3508 -2.8514
| 21> C 5.6314 0.5802 -2.5648
| 22> C 5.8866 0.9472 -1.2526
| 23> C 5.1587 0.3845 -0.1769
| 24> C 4.1496 -0.5814 -0.4616
| 25> C 3.4491 -1.1293 0.6404
| 26> O 2.5883 -2.0329 0.4663
| 27> N 3.7019 -0.6968 1.9130
| 28> C 2.9541 -1.2793 3.0451
| 29> C 4.6963 0.2098 2.1564
| 30> O 4.9506 0.5415 3.3499
| 31> N 5.4203 0.7553 1.1263
| 32> C 6.4798 1.7437 1.4279
| 33> N -1.0511 0.2819 -1.7022
| 34> C -4.2538 1.9077 -0.5928
| 35> C -5.3744 1.6443 0.2005
| 36> H -8.5880 -1.1133 1.6145
| 37> H -7.9342 -0.7239 -0.0169
| 38> H -7.1200 -1.9684 1.0105
| 39> H -7.4093 1.0256 1.6893
| 40> H -7.2887 -0.3434 3.7087
| 41> H -5.7492 0.5659 3.5015
| 42> H -5.8170 -1.1982 3.1132
| 43> H -4.7121 -1.6050 0.9822
| 44> H -2.7589 -1.1517 -0.4012
| 45> H -2.6078 3.1061 -2.6228
| 46> H 1.8784 0.4053 -3.3544
| 47> H 2.9411 -2.2010 -3.3405
| 48> H 2.8868 -2.8748 -1.7216
| 49> H 4.4680 -0.5994 -3.8906
| 50> H 6.1993 1.0282 -3.3706
| 51> H 6.6640 1.6816 -1.1006
| 52> H 3.4833 -2.1821 3.4163
| 53> H 2.8449 -0.5516 3.8773
| 54> H 1.9201 -1.5580 2.7493
| 55> H 6.2409 2.7142 0.9429
| 56> H 6.5973 1.9496 2.5114
| 57> H 7.4612 1.3688 1.0669
| 58> H -4.1446 2.9009 -1.0041
| 59> H -6.0963 2.4346 0.3647
| 60> *
| 61>
| 62>                          ****END OF INPUT****

CARTESIAN COORDINATES (ANGSTROEM)
---------------------------------
  C     -7.654400   -0.994800    1.023900
  C     -6.782400    0.107300    1.637100
  C     -6.381500   -0.242400    3.075200
  C     -5.560500    0.378600    0.779100
  C     -4.598000   -0.619700    0.549200
  C     -3.477400   -0.357200   -0.243100
  C     -3.291200    0.908000   -0.829300
  C     -2.089400    1.163900   -1.667000
  C     -1.914100    2.290200   -2.480000
  S     -0.421200    2.161800   -3.245700
  C     -0.062100    0.690600   -2.525000
  N      1.156100   -0.032200   -2.739800
  C      1.441400   -1.306400   -2.140900
  O      0.537600   -1.947400   -1.539500
  C      2.808700   -1.915800   -2.274200
  C      3.893700   -0.948400   -1.828900
  C      4.647900   -0.350800   -2.851400
  C      5.631400    0.580200   -2.564800
  C      5.886600    0.947200   -1.252600
  C      5.158700    0.384500   -0.176900
  C      4.149600   -0.581400   -0.461600
  C      3.449100   -1.129300    0.640400
  O      2.588300   -2.032900    0.466300
  N      3.701900   -0.696800    1.913000
  C      2.954100   -1.279300    3.045100
  C      4.696300    0.209800    2.156400
  O      4.950600    0.541500    3.349900
  N      5.420300    0.755300    1.126300
  C      6.479800    1.743700    1.427900
  N     -1.051100    0.281900   -1.702200
  C     -4.253800    1.907700   -0.592800
  C     -5.374400    1.644300    0.200500
  H     -8.588000   -1.113300    1.614500
  H     -7.934200   -0.723900   -0.016900
  H     -7.120000   -1.968400    1.010500
  H     -7.409300    1.025600    1.689300
  H     -7.288700   -0.343400    3.708700
  H     -5.749200    0.565900    3.501500
  H     -5.817000   -1.198200    3.113200
  H     -4.712100   -1.605000    0.982200
  H     -2.758900   -1.151700   -0.401200
  H     -2.607800    3.106100   -2.622800
  H      1.878400    0.405300   -3.354400
  H      2.941100   -2.201000   -3.340500
  H      2.886800   -2.874800   -1.721600
  H      4.468000   -0.599400   -3.890600
  H      6.199300    1.028200   -3.370600
  H      6.664000    1.681600   -1.100600
  H      3.483300   -2.182100    3.416300
  H      2.844900   -0.551600    3.877300
  H      1.920100   -1.558000    2.749300
  H      6.240900    2.714200    0.942900
  H      6.597300    1.949600    2.511400
  H      7.461200    1.368800    1.066900
  H     -4.144600    2.900900   -1.004100
  H     -6.096300    2.434600    0.364700

 Total Charge           Charge          ....    0
 Multiplicity           Mult            ....    1
 Number of Electrons    NEL             ....  236
 Basis Dimension        Dim             ....  500

ORBITAL ENERGIES
----------------

  NO   OCC          E(Eh)            E(eV)
   0   2.0000     -88.897016     -2419.0108
   1   2.0000     -19.108830      -519.9777
   2   2.0000     -19.108036      -519.9561
   3   2.0000     -19.103958      -519.8451
   4   2.0000     -14.404021      -391.9533
   5   2.0000     -14.393020      -391.6540
   6   2.0000     -14.383249      -391.3881
   7   2.0000     -14.312927      -389.4745
   8   2.0000     -10.324732      -280.9502
   9   2.0000     -10.290983      -280.0319
  10   2.0000     -10.290177      -280.0099
  11   2.0000     -10.279542      -279.7206
  12   2.0000     -10.262903      -279.2678
  13   2.0000     -10.235239      -278.5150
  14   2.0000     -10.228246      -278.3247
  15   2.0000     -10.216378      -278.0018
  16   2.0000     -10.213424      -277.9214
  17   2.0000     -10.213070      -277.9118
  18   2.0000     -10.210316      -277.8368
  19   2.0000     -10.205389      -277.7028
  20   2.0000     -10.199890      -277.5531
  21   2.0000     -10.199477      -277.5419
  22   2.0000     -10.196314      -277.4558
  23   2.0000     -10.181460      -277.0516
  24   2.0000     -10.177343      -276.9396
  25   2.0000     -10.174584      -276.8645
  26   2.0000     -10.172580      -276.8100
  27   2.0000     -10.168603      -276.7018
  28   2.0000     -10.165598      -276.6200
  29   2.0000     -10.164549      -276.5914
  30   2.0000     -10.160949      -276.4935
  31   2.0000     -10.160823      -276.4901
  32   2.0000      -7.974750      -217.0040
  33   2.0000      -5.937824      -161.5764
  34   2.0000      -5.933757      -161.4657
  35   2.0000      -5.931561      -161.4060
  36   2.0000      -1.067179       -29.0394
  37   2.0000      -1.019796       -27.7501
  38   2.0000      -1.007224       -27.4080
  39   2.0000      -0.971388       -26.4328
  40   2.0000      -0.962467       -26.1901
  41   2.0000      -0.936725       -25.4896
  42   2.0000      -0.904604       -24.6155
  43   2.0000      -0.873989       -23.7825
  44   2.0000      -0.843156       -22.9434
  45   2.0000      -0.803517       -21.8648
  46   2.0000      -0.800096       -21.7717
  47   2.0000      -0.791411       -21.5354
  48   2.0000      -0.789096       -21.4724
  49   2.0000      -0.749468       -20.3941
  50   2.0000      -0.743517       -20.2321
  51   2.0000      -0.728809       -19.8319
  52   2.0000      -0.726839       -19.7783
  53   2.0000      -0.709506       -19.3066
  54   2.0000      -0.694619       -18.9015
  55   2.0000      -0.668573       -18.1928
  56   2.0000      -0.655655       -17.8413
  57   2.0000      -0.654799       -17.8180
  58   2.0000      -0.622763       -16.9462
  59   2.0000      -0.614531       -16.7222
  60   2.0000      -0.606813       -16.5122
  61   2.0000      -0.586499       -15.9594
  62   2.0000      -0.582856       -15.8603
  63   2.0000      -0.573949       -15.6179
  64   2.0000      -0.551655       -15.0113
  65   2.0000      -0.548947       -14.9376
  66   2.0000      -0.533927       -14.5289
  67   2.0000      -0.519580       -14.1385
  68   2.0000      -0.511243       -13.9116
  69   2.0000      -0.502515       -13.6741
  70   2.0000      -0.490810       -13.3556
  71   2.0000      -0.485323       -13.2063
  72   2.0000      -0.477023       -12.9804
  73   2.0000      -0.465069       -12.6552
  74   2.0000      -0.460753       -12.5377
  75   2.0000      -0.459064       -12.4918
  76   2.0000      -0.457278       -12.4432
  77   2.0000      -0.449435       -12.2298
  78   2.0000      -0.441184       -12.0052
  79   2.0000      -0.439104       -11.9486
  80   2.0000      -0.429708       -11.6929
  81   2.0000      -0.425477       -11.5778
  82   2.0000      -0.418167       -11.3789
  83   2.0000      -0.414466       -11.2782
  84   2.0000      -0.413252       -11.2452
  85   2.0000      -0.409514       -11.1435
  86   2.0000      -0.402576       -10.9546
  87   2.0000      -0.400427       -10.8962
  88   2.0000      -0.400194       -10.8898
  89   2.0000      -0.398467       -10.8428
  90   2.0000      -0.392749       -10.6872
  91   2.0000      -0.385396       -10.4872
  92   2.0000      -0.384142       -10.4530
  93   2.0000      -0.382578       -10.4105
  94   2.0000      -0.374616       -10.1938
  95   2.0000      -0.373618       -10.1667
  96   2.0000      -0.370869       -10.0919
  97   2.0000      -0.361862        -9.8468
  98   2.0000      -0.359777        -9.7900
  99   2.0000      -0.348370        -9.4796
 100   2.0000      -0.343289        -9.3414
 101   2.0000      -0.336615        -9.1598
 102   2.0000      -0.326050        -8.8723
 103   2.0000      -0.318962        -8.6794
 104   2.0000      -0.313332        -8.5262
 105   2.0000      -0.307555        -8.3690
 106   2.0000      -0.293840        -7.9958
 107   2.0000      -0.280104        -7.6220
 108   2.0000      -0.272238        -7.4080
 109   2.0000      -0.270859        -7.3705
 110   2.0000      -0.264509        -7.1977
 111   2.0000      -0.260627        -7.0920
 112   2.0000      -0.244437        -6.6515
 113   2.0000      -0.235608        -6.4112
 114   2.0000      -0.234672        -6.3857
 115   2.0000      -0.232399        -6.3239
 116   2.0000      -0.219627        -5.9764
 117   2.0000      -0.195310        -5.3146
 118   0.0000      -0.060317        -1.6413
 119   0.0000      -0.030093        -0.8189
 120   0.0000      -0.020859        -0.5676
 121   0.0000      -0.002960        -0.0806
 122   0.0000       0.013725         0.3735

MULLIKEN ATOMIC CHARGES
-----------------------
   0 C :   -0.430504
   1 C :   -0.153013
   2 C :   -0.430648
   3 C :    0.190717
   4 C :   -0.185398
   5 C :   -0.179443
   6 C :    0.115885
   7 C :    0.222278
   8 C :   -0.401479
   9 S :    0.231272
  10 C :    0.255483
  11 N :   -0.664570
  12 C :    0.582709
  13 O :   -0.413169
  14 C :   -0.421169
  15 C :    0.097795
  16 C :   -0.215010
  17 C :   -0.104420
  18 C :   -0.198174
  19 C :    0.320493
  20 C :    0.009413
  21 C :    0.500556
  22 O :   -0.471392
  23 N :   -0.462980
  24 C :   -0.315822
  25 C :    0.672307
  26 O :   -0.509758
  27 N :   -0.511823
  28 C :   -0.336022
  29 N :   -0.374478
  30 C :   -0.177682
  31 C :   -0.200793
  32 H :    0.135049
  33 H :    0.145238
  34 H :    0.141622
  35 H :    0.121597
  36 H :    0.134962
  37 H :    0.145578
  38 H :    0.141730
  39 H :    0.126397
  40 H :    0.175946
  41 H :    0.177747
  42 H :    0.337489
  43 H :    0.159460
  44 H :    0.220623
  45 H :    0.132255
  46 H :    0.143488
  47 H :    0.142357
  48 H :    0.176037
  49 H :    0.193780
  50 H :    0.204674
  51 H :    0.171380
  52 H :    0.225248
  53 H :    0.171119
  54 H :    0.115826
  55 H :    0.119238
Sum of atomic charges:   -0.0000000

LOEWDIN ATOMIC CHARGES
----------------------
   0 C :   -0.348645
   1 C :   -0.122072
   2 C :   -0.348733
   3 C :   -0.007297
   4 C :   -0.133068
   5 C :   -0.109360
   6 C :   -0.025705
   7 C :    0.001395
   8 C :   -0.355300
   9 S :    0.373967
  10 C :   -0.082163
  11 N :   -0.212588
  12 C :    0.153518
  13 O :   -0.224860
  14 C :   -0.237876
  15 C :    0.029396
  16 C :   -0.163891
  17 C :   -0.102108
  18 C :   -0.165446
  19 C :    0.055217
  20 C :   -0.071439
  21 C :    0.110749
  22 O :   -0.265722
  23 N :   -0.019987
  24 C :   -0.258445
  25 C :    0.137230
  26 O :   -0.318400
  27 N :   -0.027821
  28 C :   -0.265275
  29 N :   -0.151720
  30 C :   -0.126071
  31 C :   -0.140677
  32 H :    0.119752
  33 H :    0.125251
  34 H :    0.121799
  35 H :    0.117222
  36 H :    0.119699
  37 H :    0.125409
  38 H :    0.121858
  39 H :    0.129989
  40 H :    0.154594
  41 H :    0.158133
  42 H :    0.261448
  43 H :    0.138551
  44 H :    0.175166
  45 H :    0.132437
  46 H :    0.139783
  47 H :    0.140910
  48 H :    0.140045
  49 H :    0.151893
  50 H :    0.157147
  51 H :    0.134780
  52 H :    0.168619
  53 H :    0.134786
  54 H :    0.126359
  55 H :    0.127564

  Mayer bond orders larger than 0.100000
B(  0-C ,  1-C ) :   1.0003 B(  0-C , 32-H ) :   0.9466 B(  0-C , 33-H ) :   0.9499
B(  0-C , 34-H ) :   0.9452 B(  1-C ,  2-C ) :   1.0004 B(  1-C ,  3-C ) :   0.9781
B(  1-C , 35-H ) :   0.9309 B(  2-C , 36-H ) :   0.9466 B(  2-C , 37-H ) :   0.9499
B(  2-C , 38-H ) :   0.9451 B(  3-C ,  4-C ) :   1.4040 B(  3-C , 31-C ) :   1.4285
B(  4-C ,  5-C ) :   1.4166 B(  4-C , 39-H ) :   0.9239 B(  5-C ,  6-C ) :   1.3955
B(  5-C , 40-H ) :   0.9077 B(  6-C ,  7-C ) :   1.0532 B(  6-C , 30-C ) :   1.4069
B(  7-C ,  8-C ) :   1.5122 B(  7-C , 29-N ) :   1.2637 B(  8-C ,  9-S ) :   1.1060
B(  8-C , 10-C ) :   0.1100 B(  8-C , 41-H ) :   0.9020 B(  9-S , 10-C ) :   1.1356
B( 10-C , 11-N ) :   0.9528 B( 10-C , 29-N ) :   1.5136 B( 11-N , 12-C ) :   0.9706
B( 11-N , 42-H ) :   0.8150 B( 12-C , 13-O ) :   1.8943 B( 12-C , 14-C ) :   0.9544
B( 14-C , 15-C ) :   0.9781 B( 14-C , 43-H ) :   0.9134 B( 14-C , 44-H ) :   0.8943
B( 15-C , 16-C ) :   1.4208 B( 15-C , 20-C ) :   1.3648 B( 16-C , 17-C ) :   1.4017
B( 16-C , 45-H ) :   0.9242 B( 17-C , 18-C ) :   1.4742 B( 17-C , 46-H ) :   0.9259
B( 18-C , 19-C ) :   1.3401 B( 18-C , 47-H ) :   0.9141 B( 19-C , 20-C ) :   1.2894
B( 19-C , 27-N ) :   0.9748 B( 20-C , 21-C ) :   1.0518 B( 21-C , 22-O ) :   1.7710
B( 21-C , 23-N ) :   0.9909 B( 23-N , 24-C ) :   0.9159 B( 23-N , 25-C ) :   1.0465
B( 24-C , 48-H ) :   0.9410 B( 24-C , 49-H ) :   0.9261 B( 24-C , 50-H ) :   0.9217
B( 25-C , 26-O ) :   1.7853 B( 25-C , 27-N ) :   1.0386 B( 27-N , 28-C ) :   0.9349
B( 28-C , 51-H ) :   0.9321 B( 28-C , 52-H ) :   0.9134 B( 28-C , 53-H ) :   0.9321
B( 30-C , 31-C ) :   1.4252 B( 30-C , 54-H ) :   0.9214 B( 31-C , 55-H ) :   0.9243

FINAL SINGLE POINT ENERGY     -1770.999750109139

DIPOLE MOMENT
-------------

Method             : SCF
Type of density    : Electron Density
Multiplicity       :   1
Irrep              :   0
Energy             : -1770.9997501091390859 Eh
Relativity type    :
Basis              : AO
                                X                 Y                 Z
Electronic contribution:     28.576914956       3.510440025     -18.897786863
Nuclear contribution   :    -26.757067773      -2.013256028      17.580952554
                        -----------------------------------------
Total Dipole Moment    :      1.819847183       1.497183997      -1.316834309
                        -----------------------------------------
Magnitude (a.u.)       :      2.699528901
Magnitude (Debye)      :      6.861657162

Rotational constants in cm-1:             0.006771             0.001946             0.001714
Rotational constants in MHz :           202.984286            58.349592            51.388904

                             ****ORCA TERMINATED NORMALLY****
TOTAL RUN TIME: 0 days 0 hours 5 minutes 44 seconds 851 msec
