                         Program Version 6.0.0  -   RELEASE  -
|  1> ! B3LYP 6-31G* SP
|  2>
|  3> * xyz 0 1
|  4> C -6.8236 -1.0997 0.7433
|  5> C -6.3379 0.3403 0.6445
|  6> N -5.0387 0.3881 -0.0135
|  7> N -4.8669 0.4946 -1.3194
|  8> N -3.5713 0.4478 -1.5833
|  9> C -2.9730 0.2992 -0.3826
| 10> C -1.5134 0.1941 -0.2075
| 11> S -0.4176 0.2512 -1.4835
| 12> C 0.9389 0.0736 -0.5007
| 13> C 2.3463 0.0329 -0.9626
| 14> C 2.6603 0.1462 -2.3282
| 15> C 3.9893 0.1067 -2.7533
| 16> C 5.0199 -0.0459 -1.8250
| 17> C 4.7345 -0.1613 -0.4568
| 18> N 5.8200 -0.3177 0.4764
| 19> C 5.6344 -0.4462 1.9181
| 20> C 3.3914 -0.1208 -0.0324
| 21> N 0.5755 -0.0302 0.7979
| 22> C -0.7721 0.0347 0.9729
| 23> O -1.3174 -0.0561 2.2526
| 24> N -3.8815 0.2528 0.6103
| 25> H -7.8135 -1.1267 1.2454
| 26> H -6.9235 -1.5393 -0.2719
| 27> H -6.1043 -1.7053 1.3347
| 28> H -7.0728 0.9414 0.0665
| 29> H -6.2566 0.7756 1.6640
| 30> H 1.8828 0.2655 -3.0713
| 31> H 4.2214 0.1948 -3.8068
| 32> H 6.0448 -0.0744 -2.1734
| 33> H 6.7996 -0.3419 0.1119
| 34> H 5.1339 0.4608 2.3175
| 35> H 6.6208 -0.5545 2.4167
| 36> H 5.0241 -1.3462 2.1423
| 37> H 3.1548 -0.2084 1.0192
| 38> H -2.3085 -0.0132 2.4378
| 39> *
| 40>
| 41>                          ****END OF INPUT****

CARTESIAN COORDINATES (ANGSTROEM)
---------------------------------
  C     -6.823600   -1.099700    0.743300
  C     -6.337900    0.340300    0.644500
  N     -5.038700    0.388100   -0.013500
  N     -4.866900    0.494600   -1.319400
  N     -3.571300    0.447800   -1.583300
  C     -2.973000    0.299200   -0.382600
  C     -1.513400    0.194100   -0.207500
  S     -0.417600    0.251200   -1.483500
  C      0.938900    0.073600   -0.500700
  C      2.346300    0.032900   -0.962600
  C      2.660300    0.146200   -2.328200
  C      3.989300    0.106700   -2.753300
  C      5.019900   -0.045900   -1.825000
  C      4.734500   -0.161300   -0.456800
  N      5.820000   -0.317700    0.476400
  C      5.634400   -0.446200    1.918100
  C      3.391400   -0.120800   -0.032400
  N      0.575500   -0.030200    0.797900
  C     -0.772100    0.034700    0.972900
  O     -1.317400   -0.056100    2.252600
  N     -3.881500    0.252800    0.610300
  H     -7.813500   -1.126700    1.245400
  H     -6.923500   -1.539300   -0.271900
  H     -6.104300   -1.705300    1.334700
  H     -7.072800    0.941400    0.066500
  H     -6.256600    0.775600    1.664000
  H      1.882800    0.265500   -3.071300
  H      4.221400    0.194800   -3.806800
  H      6.044800   -0.074400   -2.173400
  H      6.799600   -0.341900    0.111900
  H      5.133900    0.460800    2.317500
  H      6.620800   -0.554500    2.416700
  H      5.024100   -1.346200    2.142300
  H      3.154800   -0.208400    1.019200
  H     -2.308500   -0.013200    2.437800

 Total Charge           Charge          ....    0
 Multiplicity           Mult            ....    1
 Number of Electrons    NEL             ....  158
 Basis Dimension        Dim             ....  326

ORBITAL ENERGIES
----------------

  NO   OCC          E(Eh)            E(eV)
   0   2.0000     -88.893005     -2418.9016
   1   2.0000     -19.164369      -521.4890
   2   2.0000     -14.463248      -393.5650
   3   2.0000     -14.401661      -391.8891
   4   2.0000     -14.375947      -391.1894
   5   2.0000     -14.361261      -390.7898
   6   2.0000     -14.335188      -390.0803
   7   2.0000     -14.323969      -389.7750
   8   2.0000     -10.280257      -279.7400
   9   2.0000     -10.259659      -279.1795
  10   2.0000     -10.255439      -279.0647
  11   2.0000     -10.249419      -278.9009
  12   2.0000     -10.223617      -278.1988
  13   2.0000     -10.214531      -277.9515
  14   2.0000     -10.208347      -277.7833
  15   2.0000     -10.199585      -277.5448
  16   2.0000     -10.198535      -277.5162
  17   2.0000     -10.179385      -276.9951
  18   2.0000     -10.175179      -276.8807
  19   2.0000     -10.172954      -276.8201
  20   2.0000     -10.172651      -276.8119
  21   2.0000      -7.969791      -216.8690
  22   2.0000      -5.932726      -161.4377
  23   2.0000      -5.928779      -161.3303
  24   2.0000      -5.926854      -161.2779
  25   2.0000      -1.150798       -31.3148
  26   2.0000      -1.033593       -28.1255
  27   2.0000      -0.955304       -25.9951
  28   2.0000      -0.951124       -25.8814
  29   2.0000      -0.907106       -24.6836
  30   2.0000      -0.900182       -24.4952
  31   2.0000      -0.839208       -22.8360
  32   2.0000      -0.814571       -22.1656
  33   2.0000      -0.789952       -21.4957
  34   2.0000      -0.769368       -20.9356
  35   2.0000      -0.734099       -19.9759
  36   2.0000      -0.721252       -19.6263
  37   2.0000      -0.690830       -18.7984
  38   2.0000      -0.669461       -18.2170
  39   2.0000      -0.664023       -18.0690
  40   2.0000      -0.620725       -16.8908
  41   2.0000      -0.613658       -16.6985
  42   2.0000      -0.601254       -16.3609
  43   2.0000      -0.580568       -15.7981
  44   2.0000      -0.559781       -15.2324
  45   2.0000      -0.537993       -14.6395
  46   2.0000      -0.525403       -14.2969
  47   2.0000      -0.507247       -13.8029
  48   2.0000      -0.503240       -13.6939
  49   2.0000      -0.487936       -13.2774
  50   2.0000      -0.476182       -12.9576
  51   2.0000      -0.461304       -12.5527
  52   2.0000      -0.455841       -12.4041
  53   2.0000      -0.434071       -11.8117
  54   2.0000      -0.430395       -11.7116
  55   2.0000      -0.427991       -11.6462
  56   2.0000      -0.419997       -11.4287
  57   2.0000      -0.417633       -11.3644
  58   2.0000      -0.410506       -11.1704
  59   2.0000      -0.400065       -10.8863
  60   2.0000      -0.397510       -10.8168
  61   2.0000      -0.385780       -10.4976
  62   2.0000      -0.382460       -10.4073
  63   2.0000      -0.376420       -10.2429
  64   2.0000      -0.370514       -10.0822
  65   2.0000      -0.355911        -9.6848
  66   2.0000      -0.343972        -9.3599
  67   2.0000      -0.343272        -9.3409
  68   2.0000      -0.331492        -9.0204
  69   2.0000      -0.322394        -8.7728
  70   2.0000      -0.315406        -8.5826
  71   2.0000      -0.306774        -8.3478
  72   2.0000      -0.291158        -7.9228
  73   2.0000      -0.284479        -7.7411
  74   2.0000      -0.265728        -7.2308
  75   2.0000      -0.263589        -7.1726
  76   2.0000      -0.248559        -6.7636
  77   2.0000      -0.204364        -5.5610
  78   2.0000      -0.187236        -5.0949
  79   0.0000      -0.052229        -1.4212
  80   0.0000      -0.025203        -0.6858
  81   0.0000       0.010257         0.2791
  82   0.0000       0.023444         0.6379
  83   0.0000       0.043732         1.1900

MULLIKEN ATOMIC CHARGES
-----------------------
   0 C :   -0.444720
   1 C :   -0.147492
   2 N :   -0.023624
   3 N :   -0.060464
   4 N :   -0.320528
   5 C :    0.428788
   6 C :   -0.246500
   7 S :    0.292820
   8 C :   -0.016087
   9 C :    0.146808
  10 C :   -0.208157
  11 C :   -0.131569
  12 C :   -0.185460
  13 C :    0.372527
  14 N :   -0.655027
  15 C :   -0.285036
  16 C :   -0.238027
  17 N :   -0.407442
  18 C :    0.490630
  19 O :   -0.656746
  20 N :   -0.362127
  21 H :    0.159578
  22 H :    0.176701
  23 H :    0.171062
  24 H :    0.192043
  25 H :    0.185344
  26 H :    0.138572
  27 H :    0.130441
  28 H :    0.116881
  29 H :    0.316361
  30 H :    0.159298
  31 H :    0.149967
  32 H :    0.159140
  33 H :    0.161271
  34 H :    0.440775
Sum of atomic charges:   -0.0000000

LOEWDIN ATOMIC CHARGES
----------------------
   0 C :   -0.362260
   1 C :   -0.153198
   2 N :    0.097112
   3 N :   -0.068678
   4 N :   -0.122553
   5 C :    0.000313
   6 C :   -0.270402
   7 S :    0.421638
   8 C :   -0.109700
   9 C :   -0.021709
  10 C :   -0.154687
  11 C :   -0.120740
  12 C :   -0.156008
  13 C :    0.048610
  14 N :   -0.267024
  15 C :   -0.275071
  16 C :   -0.151631
  17 N :   -0.164917
  18 C :    0.100535
  19 O :   -0.338511
  20 N :   -0.160779
  21 H :    0.136114
  22 H :    0.140359
  23 H :    0.137441
  24 H :    0.152053
  25 H :    0.148416
  26 H :    0.136147
  27 H :    0.133816
  28 H :    0.127453
  29 H :    0.246377
  30 H :    0.122857
  31 H :    0.130748
  32 H :    0.122788
  33 H :    0.150729
  34 H :    0.344367

  Mayer bond orders larger than 0.100000
B(  0-C ,  1-C ) :   1.0032 B(  0-C , 21-H ) :   0.9417 B(  0-C , 22-H ) :   0.9434
B(  0-C , 23-H ) :   0.9444 B(  1-C ,  2-N ) :   0.8982 B(  1-C , 24-H ) :   0.9259
B(  1-C , 25-H ) :   0.9275 B(  2-N ,  3-N ) :   1.2489 B(  2-N , 20-N ) :   1.2188
B(  3-N ,  4-N ) :   1.4262 B(  3-N , 20-N ) :   0.1318 B(  4-N ,  5-C ) :   1.2862
B(  5-C ,  6-C ) :   1.0583 B(  5-C , 20-N ) :   1.3581 B(  6-C ,  7-S ) :   1.0777
B(  6-C ,  8-C ) :   0.1196 B(  6-C , 18-C ) :   1.3806 B(  7-S ,  8-C ) :   1.1518
B(  8-C ,  9-C ) :   1.0213 B(  8-C , 17-N ) :   1.4281 B(  9-C , 10-C ) :   1.3907
B(  9-C , 16-C ) :   1.3994 B( 10-C , 11-C ) :   1.4309 B( 10-C , 26-H ) :   0.9167
B( 11-C , 12-C ) :   1.4661 B( 11-C , 27-H ) :   0.9288 B( 12-C , 13-C ) :   1.3591
B( 12-C , 28-H ) :   0.9248 B( 13-C , 14-N ) :   0.9893 B( 13-C , 16-C ) :   1.3523
B( 14-N , 15-C ) :   0.9724 B( 14-N , 29-H ) :   0.8439 B( 15-C , 30-H ) :   0.9329
B( 15-C , 31-H ) :   0.9514 B( 15-C , 32-H ) :   0.9330 B( 16-C , 33-H ) :   0.8986
B( 17-N , 18-C ) :   1.3196 B( 18-C , 19-O ) :   1.0084 B( 19-O , 34-H ) :   0.7202

FINAL SINGLE POINT ENERGY     -1305.061747969727

DIPOLE MOMENT
-------------

Method             : SCF
Type of density    : Electron Density
Multiplicity       :   1
Irrep              :   0
Energy             : -1305.0617479697270937 Eh
Relativity type    :
Basis              : AO
                                X                 Y                 Z
Electronic contribution:     -5.236139922       4.370976592      -7.977953778
Nuclear contribution   :      4.881555433      -4.548118393       8.760465893
                        -----------------------------------------
Total Dipole Moment    :     -0.354584489      -0.177141801       0.782512115
                        -----------------------------------------
Magnitude (a.u.)       :      0.877174206
Magnitude (Debye)      :      2.229599642

Rotational constants in cm-1:             0.029335             0.003583             0.003232
Rotational constants in MHz :           879.439951           107.401353            96.907727

                             ****ORCA TERMINATED NORMALLY****
TOTAL RUN TIME: 0 days 0 hours 2 minutes 41 seconds 78 msec
