                         Program Version 6.0.0  -   RELEASE  -
|  1> ! B3LYP 6-31G* SP
|  2>
|  3> * xyz 0 1
|  4> N 2.8240 2.1872 0.7763
|  5> C 2.0976 1.3351 1.6647
|  6> O 2.7360 0.5976 2.4645
|  7> C 0.5836 1.2658 1.6449
|  8> C -0.0905 2.6153 1.4105
|  9> C -1.3354 2.7087 0.7541
| 10> C -1.9946 3.9361 0.6395
| 11> C -1.4393 5.0813 1.2038
| 12> C -0.2339 4.9996 1.9022
| 13> C 0.4272 3.7750 2.0201
| 14> N 0.1374 0.2148 0.6939
| 15> C 0.4047 0.3537 -0.7559
| 16> C 1.1101 -0.8589 -1.3203
| 17> C 0.6182 -1.4822 -2.4821
| 18> C 1.2471 -2.6239 -2.9916
| 19> C 2.3722 -3.1537 -2.3449
| 20> Cl 3.1549 -4.5894 -2.9822
| 21> C 2.8758 -2.5327 -1.1979
| 22> C 2.2526 -1.3886 -0.6896
| 23> C -0.4161 -1.0213 1.2226
| 24> O -0.0379 -1.4382 2.3567
| 25> C -1.3437 -1.8713 0.4373
| 26> C -1.2366 -3.2717 0.5152
| 27> C -2.0947 -4.0912 -0.2243
| 28> C -3.0734 -3.5216 -1.0400
| 29> C -3.2179 -2.1307 -1.0929
| 30> C -2.3646 -1.3109 -0.3471
| 31> H 3.8669 2.1593 0.7786
| 32> H 2.3386 2.8512 0.1313
| 33> H 0.2658 0.9862 2.6756
| 34> H -1.8155 1.8378 0.3463
| 35> H -2.9444 3.9920 0.1210
| 36> H -1.9495 6.0286 1.1124
| 37> H 0.1914 5.8876 2.3526
| 38> H 1.3436 3.7349 2.5943
| 39> H 1.0230 1.2509 -0.9646
| 40> H -0.5512 0.5240 -1.2919
| 41> H -0.2586 -1.0926 -2.9904
| 42> H 0.8567 -3.0979 -3.8867
| 43> H 3.7482 -2.9335 -0.7005
| 44> H 2.6550 -0.9268 0.2014
| 45> H -0.4781 -3.7333 1.1394
| 46> H -2.0003 -5.1689 -0.1650
| 47> H -3.7396 -4.1530 -1.6159
| 48> H -3.9946 -1.6877 -1.7064
| 49> H -2.5203 -0.2427 -0.3691
| 50> *
| 51>
| 52>                          ****END OF INPUT****

CARTESIAN COORDINATES (ANGSTROEM)
---------------------------------
  N      2.824000    2.187200    0.776300
  C      2.097600    1.335100    1.664700
  O      2.736000    0.597600    2.464500
  C      0.583600    1.265800    1.644900
  C     -0.090500    2.615300    1.410500
  C     -1.335400    2.708700    0.754100
  C     -1.994600    3.936100    0.639500
  C     -1.439300    5.081300    1.203800
  C     -0.233900    4.999600    1.902200
  C      0.427200    3.775000    2.020100
  N      0.137400    0.214800    0.693900
  C      0.404700    0.353700   -0.755900
  C      1.110100   -0.858900   -1.320300
  C      0.618200   -1.482200   -2.482100
  C      1.247100   -2.623900   -2.991600
  C      2.372200   -3.153700   -2.344900
  Cl     3.154900   -4.589400   -2.982200
  C      2.875800   -2.532700   -1.197900
  C      2.252600   -1.388600   -0.689600
  C     -0.416100   -1.021300    1.222600
  O     -0.037900   -1.438200    2.356700
  C     -1.343700   -1.871300    0.437300
  C     -1.236600   -3.271700    0.515200
  C     -2.094700   -4.091200   -0.224300
  C     -3.073400   -3.521600   -1.040000
  C     -3.217900   -2.130700   -1.092900
  C     -2.364600   -1.310900   -0.347100
  H      3.866900    2.159300    0.778600
  H      2.338600    2.851200    0.131300
  H      0.265800    0.986200    2.675600
  H     -1.815500    1.837800    0.346300
  H     -2.944400    3.992000    0.121000
  H     -1.949500    6.028600    1.112400
  H      0.191400    5.887600    2.352600
  H      1.343600    3.734900    2.594300
  H      1.023000    1.250900   -0.964600
  H     -0.551200    0.524000   -1.291900
  H     -0.258600   -1.092600   -2.990400
  H      0.856700   -3.097900   -3.886700
  H      3.748200   -2.933500   -0.700500
  H      2.655000   -0.926800    0.201400
  H     -0.478100   -3.733300    1.139400
  H     -2.000300   -5.168900   -0.165000
  H     -3.739600   -4.153000   -1.615900
  H     -3.994600   -1.687700   -1.706400
  H     -2.520300   -0.242700   -0.369100

 Total Charge           Charge          ....    0
 Multiplicity           Mult            ....    1
 Number of Electrons    NEL             ....  198
 Basis Dimension        Dim             ....  420

ORBITAL ENERGIES
----------------

  NO   OCC          E(Eh)            E(eV)
   0   2.0000    -101.523533     -2762.5958
   1   2.0000     -19.114029      -520.1192
   2   2.0000     -19.110462      -520.0221
   3   2.0000     -14.362435      -390.8217
   4   2.0000     -14.360705      -390.7746
   5   2.0000     -10.293964      -280.1130
   6   2.0000     -10.291191      -280.0375
   7   2.0000     -10.242704      -278.7181
   8   2.0000     -10.240308      -278.6530
   9   2.0000     -10.231822      -278.4220
  10   2.0000     -10.204956      -277.6910
  11   2.0000     -10.201874      -277.6071
  12   2.0000     -10.198517      -277.5158
  13   2.0000     -10.195943      -277.4457
  14   2.0000     -10.194069      -277.3947
  15   2.0000     -10.192862      -277.3619
  16   2.0000     -10.192777      -277.3596
  17   2.0000     -10.192176      -277.3432
  18   2.0000     -10.192149      -277.3425
  19   2.0000     -10.191792      -277.3327
  20   2.0000     -10.191757      -277.3318
  21   2.0000     -10.191544      -277.3260
  22   2.0000     -10.191143      -277.3151
  23   2.0000     -10.190693      -277.3029
  24   2.0000     -10.189049      -277.2581
  25   2.0000     -10.188855      -277.2528
  26   2.0000     -10.187820      -277.2247
  27   2.0000      -9.455471      -257.2965
  28   2.0000      -7.218437      -196.4237
  29   2.0000      -7.209109      -196.1698
  30   2.0000      -7.208794      -196.1613
  31   2.0000      -1.014339       -27.6016
  32   2.0000      -1.005999       -27.3746
  33   2.0000      -0.925145       -25.1745
  34   2.0000      -0.884045       -24.0561
  35   2.0000      -0.881976       -23.9998
  36   2.0000      -0.860902       -23.4263
  37   2.0000      -0.857888       -23.3443
  38   2.0000      -0.833578       -22.6828
  39   2.0000      -0.786128       -21.3916
  40   2.0000      -0.762627       -20.7521
  41   2.0000      -0.753168       -20.4947
  42   2.0000      -0.752112       -20.4660
  43   2.0000      -0.750320       -20.4173
  44   2.0000      -0.748954       -20.3801
  45   2.0000      -0.707961       -19.2646
  46   2.0000      -0.678944       -18.4750
  47   2.0000      -0.634362       -17.2619
  48   2.0000      -0.618079       -16.8188
  49   2.0000      -0.614028       -16.7085
  50   2.0000      -0.609909       -16.5965
  51   2.0000      -0.604065       -16.4374
  52   2.0000      -0.589007       -16.0277
  53   2.0000      -0.577106       -15.7038
  54   2.0000      -0.555090       -15.1048
  55   2.0000      -0.531126       -14.4527
  56   2.0000      -0.529876       -14.4187
  57   2.0000      -0.522338       -14.2135
  58   2.0000      -0.501068       -13.6348
  59   2.0000      -0.491701       -13.3799
  60   2.0000      -0.489726       -13.3261
  61   2.0000      -0.475958       -12.9515
  62   2.0000      -0.470858       -12.8127
  63   2.0000      -0.460338       -12.5264
  64   2.0000      -0.456872       -12.4321
  65   2.0000      -0.452225       -12.3057
  66   2.0000      -0.447191       -12.1687
  67   2.0000      -0.444140       -12.0857
  68   2.0000      -0.430835       -11.7236
  69   2.0000      -0.427598       -11.6355
  70   2.0000      -0.425283       -11.5725
  71   2.0000      -0.421822       -11.4784
  72   2.0000      -0.414280       -11.2731
  73   2.0000      -0.406831       -11.0704
  74   2.0000      -0.401291       -10.9197
  75   2.0000      -0.397011       -10.8032
  76   2.0000      -0.388411       -10.5692
  77   2.0000      -0.380627       -10.3574
  78   2.0000      -0.375828       -10.2268
  79   2.0000      -0.365359        -9.9419
  80   2.0000      -0.361597        -9.8395
  81   2.0000      -0.359492        -9.7823
  82   2.0000      -0.353261        -9.6127
  83   2.0000      -0.351327        -9.5601
  84   2.0000      -0.350422        -9.5355
  85   2.0000      -0.349319        -9.5055
  86   2.0000      -0.341122        -9.2824
  87   2.0000      -0.323248        -8.7960
  88   2.0000      -0.306787        -8.3481
  89   2.0000      -0.268693        -7.3115
  90   2.0000      -0.264830        -7.2064
  91   2.0000      -0.259930        -7.0731
  92   2.0000      -0.257812        -7.0154
  93   2.0000      -0.255576        -6.9546
  94   2.0000      -0.254326        -6.9206
  95   2.0000      -0.251452        -6.8423
  96   2.0000      -0.242710        -6.6045
  97   2.0000      -0.236629        -6.4390
  98   2.0000      -0.223454        -6.0805
  99   0.0000      -0.044535        -1.2119
 100   0.0000      -0.016286        -0.4432
 101   0.0000      -0.012010        -0.3268
 102   0.0000      -0.011013        -0.2997
 103   0.0000      -0.008110        -0.2207

MULLIKEN ATOMIC CHARGES
-----------------------
   0 N :   -0.764364
   1 C :    0.564348
   2 O :   -0.473645
   3 C :   -0.090583
   4 C :    0.087968
   5 C :   -0.172180
   6 C :   -0.127432
   7 C :   -0.124271
   8 C :   -0.130744
   9 C :   -0.179375
  10 N :   -0.447325
  11 C :   -0.221576
  12 C :    0.121600
  13 C :   -0.157359
  14 C :   -0.131262
  15 C :   -0.064758
  16 Cl:   -0.024571
  17 C :   -0.135806
  18 C :   -0.161611
  19 C :    0.453672
  20 O :   -0.448420
  21 C :    0.080857
  22 C :   -0.135584
  23 C :   -0.129550
  24 C :   -0.117276
  25 C :   -0.135322
  26 C :   -0.169295
  27 H :    0.351689
  28 H :    0.336353
  29 H :    0.225418
  30 H :    0.139447
  31 H :    0.130787
  32 H :    0.131046
  33 H :    0.134785
  34 H :    0.146750
  35 H :    0.163122
  36 H :    0.145741
  37 H :    0.132826
  38 H :    0.148176
  39 H :    0.156790
  40 H :    0.176955
  41 H :    0.163567
  42 H :    0.140080
  43 H :    0.135032
  44 H :    0.132209
  45 H :    0.143090
Sum of atomic charges:    0.0000000

LOEWDIN ATOMIC CHARGES
----------------------
   0 N :   -0.402967
   1 C :    0.131979
   2 O :   -0.276199
   3 C :   -0.061802
   4 C :   -0.039203
   5 C :   -0.135421
   6 C :   -0.126473
   7 C :   -0.129457
   8 C :   -0.126138
   9 C :   -0.137501
  10 N :   -0.109573
  11 C :   -0.148698
  12 C :   -0.036138
  13 C :   -0.123545
  14 C :   -0.133578
  15 C :   -0.088332
  16 Cl:    0.031197
  17 C :   -0.130201
  18 C :   -0.119528
  19 C :    0.153398
  20 O :   -0.256113
  21 C :   -0.045643
  22 C :   -0.087543
  23 C :   -0.125491
  24 C :   -0.116058
  25 C :   -0.132899
  26 C :   -0.123926
  27 H :    0.264741
  28 H :    0.251510
  29 H :    0.181804
  30 H :    0.132484
  31 H :    0.132694
  32 H :    0.132985
  33 H :    0.134526
  34 H :    0.139754
  35 H :    0.138031
  36 H :    0.121286
  37 H :    0.134733
  38 H :    0.142637
  39 H :    0.146691
  40 H :    0.154345
  41 H :    0.151180
  42 H :    0.137341
  43 H :    0.134321
  44 H :    0.132858
  45 H :    0.131933

  Mayer bond orders larger than 0.100000
B(  0-N ,  1-C ) :   1.0678 B(  0-N , 27-H ) :   0.8217 B(  0-N , 28-H ) :   0.8145
B(  1-C ,  2-O ) :   1.8128 B(  1-C ,  3-C ) :   0.9239 B(  3-C ,  4-C ) :   0.9275
B(  3-C , 10-N ) :   0.9382 B(  3-C , 29-H ) :   0.8877 B(  4-C ,  5-C ) :   1.4282
B(  4-C ,  9-C ) :   1.4060 B(  5-C ,  6-C ) :   1.4395 B(  5-C , 30-H ) :   0.9091
B(  6-C ,  7-C ) :   1.4562 B(  6-C , 31-H ) :   0.9297 B(  7-C ,  8-C ) :   1.4505
B(  7-C , 32-H ) :   0.9295 B(  8-C ,  9-C ) :   1.4420 B(  8-C , 33-H ) :   0.9288
B(  9-C , 34-H ) :   0.9178 B( 10-N , 11-C ) :   0.9220 B( 10-N , 19-C ) :   1.0072
B( 11-C , 12-C ) :   0.9735 B( 11-C , 35-H ) :   0.9131 B( 11-C , 36-H ) :   0.9178
B( 12-C , 13-C ) :   1.4310 B( 12-C , 18-C ) :   1.4202 B( 13-C , 14-C ) :   1.4381
B( 13-C , 37-H ) :   0.9206 B( 14-C , 15-C ) :   1.4191 B( 14-C , 38-H ) :   0.9240
B( 15-C , 16-Cl) :   1.0091 B( 15-C , 17-C ) :   1.4107 B( 17-C , 18-C ) :   1.4455
B( 17-C , 39-H ) :   0.9231 B( 18-C , 40-H ) :   0.8972 B( 19-C , 20-O ) :   1.8203
B( 19-C , 21-C ) :   0.9757 B( 21-C , 22-C ) :   1.4084 B( 21-C , 26-C ) :   1.3971
B( 22-C , 23-C ) :   1.4361 B( 22-C , 41-H ) :   0.9154 B( 23-C , 24-C ) :   1.4430
B( 23-C , 42-H ) :   0.9286 B( 24-C , 25-C ) :   1.4502 B( 24-C , 43-H ) :   0.9295
B( 25-C , 26-C ) :   1.4388 B( 25-C , 44-H ) :   0.9294 B( 26-C , 45-H ) :   0.9145

FINAL SINGLE POINT ENERGY     -1569.159479887377

DIPOLE MOMENT
-------------

Method             : SCF
Type of density    : Electron Density
Multiplicity       :   1
Irrep              :   0
Energy             : -1569.1594798873768468 Eh
Relativity type    :
Basis              : AO
                                X                 Y                 Z
Electronic contribution:     12.731068095     -17.827327205      -4.651268610
Nuclear contribution   :    -13.750622025      19.604920350       2.991587921
                        -----------------------------------------
Total Dipole Moment    :     -1.019553930       1.777593145      -1.659680689
                        -----------------------------------------
Magnitude (a.u.)       :      2.637018695
Magnitude (Debye)      :      6.702768844

Rotational constants in cm-1:             0.008982             0.003919             0.003233
Rotational constants in MHz :           269.274733           117.481373            96.927582

                             ****ORCA TERMINATED NORMALLY****
TOTAL RUN TIME: 0 days 0 hours 7 minutes 59 seconds 405 msec
