                         Program Version 6.0.0  -   RELEASE  -
|  1> ! B3LYP 6-31G* SP
|  2>
|  3> * xyz 0 1
|  4> C -5.2631 0.9980 0.2259
|  5> O -4.0816 0.2234 0.0605
|  6> C -2.8003 0.7807 0.1169
|  7> O -2.6515 2.0166 0.3211
|  8> C -1.6148 -0.0718 -0.0618
|  9> N -0.3545 0.4398 -0.0124
| 10> C 0.5982 -0.5055 -0.1999
| 11> C 2.0496 -0.2100 -0.1926
| 12> C 2.9985 -1.2310 -0.3928
| 13> C 4.3659 -0.9383 -0.3835
| 14> C 4.8014 0.3720 -0.1751
| 15> C 3.8702 1.3932 0.0245
| 16> C 2.5016 1.1065 0.0163
| 17> S -0.0956 -2.0285 -0.4366
| 18> C -1.6627 -1.4431 -0.2918
| 19> O -2.8155 -2.2153 -0.3883
| 20> H -6.1484 0.3351 0.1400
| 21> H -5.2671 1.4759 1.2284
| 22> H -5.3197 1.7782 -0.5625
| 23> H 2.6894 -2.2549 -0.5565
| 24> H 5.0888 -1.7290 -0.5382
| 25> H 5.8603 0.5960 -0.1684
| 26> H 4.2087 2.4085 0.1860
| 27> H 1.7987 1.9150 0.1734
| 28> H -2.7565 -3.2117 -0.5583
| 29> *
| 30>
| 31>                          ****END OF INPUT****

CARTESIAN COORDINATES (ANGSTROEM)
---------------------------------
  C     -5.263100    0.998000    0.225900
  O     -4.081600    0.223400    0.060500
  C     -2.800300    0.780700    0.116900
  O     -2.651500    2.016600    0.321100
  C     -1.614800   -0.071800   -0.061800
  N     -0.354500    0.439800   -0.012400
  C      0.598200   -0.505500   -0.199900
  C      2.049600   -0.210000   -0.192600
  C      2.998500   -1.231000   -0.392800
  C      4.365900   -0.938300   -0.383500
  C      4.801400    0.372000   -0.175100
  C      3.870200    1.393200    0.024500
  C      2.501600    1.106500    0.016300
  S     -0.095600   -2.028500   -0.436600
  C     -1.662700   -1.443100   -0.291800
  O     -2.815500   -2.215300   -0.388300
  H     -6.148400    0.335100    0.140000
  H     -5.267100    1.475900    1.228400
  H     -5.319700    1.778200   -0.562500
  H      2.689400   -2.254900   -0.556500
  H      5.088800   -1.729000   -0.538200
  H      5.860300    0.596000   -0.168400
  H      4.208700    2.408500    0.186000
  H      1.798700    1.915000    0.173400
  H     -2.756500   -3.211700   -0.558300

 Total Charge           Charge          ....    0
 Multiplicity           Mult            ....    1
 Number of Electrons    NEL             ....  122
 Basis Dimension        Dim             ....  246

ORBITAL ENERGIES
----------------

  NO   OCC          E(Eh)            E(eV)
   0   2.0000     -88.911360     -2419.4011
   1   2.0000     -19.203902      -522.5647
   2   2.0000     -19.168892      -521.6121
   3   2.0000     -19.110998      -520.0367
   4   2.0000     -14.338483      -390.1700
   5   2.0000     -10.307793      -280.4893
   6   2.0000     -10.292271      -280.0669
   7   2.0000     -10.255219      -279.0587
   8   2.0000     -10.229322      -278.3540
   9   2.0000     -10.228287      -278.3258
  10   2.0000     -10.209075      -277.8030
  11   2.0000     -10.193293      -277.3736
  12   2.0000     -10.188847      -277.2526
  13   2.0000     -10.186831      -277.1978
  14   2.0000     -10.186036      -277.1761
  15   2.0000     -10.185617      -277.1647
  16   2.0000      -7.990092      -217.4215
  17   2.0000      -5.952855      -161.9854
  18   2.0000      -5.949115      -161.8836
  19   2.0000      -5.946922      -161.8240
  20   2.0000      -1.068942       -29.0874
  21   2.0000      -1.060184       -28.8491
  22   2.0000      -0.979322       -26.6487
  23   2.0000      -0.964305       -26.2401
  24   2.0000      -0.858513       -23.3613
  25   2.0000      -0.816739       -22.2246
  26   2.0000      -0.787537       -21.4300
  27   2.0000      -0.748020       -20.3547
  28   2.0000      -0.743899       -20.2425
  29   2.0000      -0.704398       -19.1676
  30   2.0000      -0.638346       -17.3703
  31   2.0000      -0.631009       -17.1706
  32   2.0000      -0.605158       -16.4672
  33   2.0000      -0.579786       -15.7768
  34   2.0000      -0.552400       -15.0316
  35   2.0000      -0.538441       -14.6517
  36   2.0000      -0.520885       -14.1740
  37   2.0000      -0.492656       -13.4058
  38   2.0000      -0.470506       -12.8031
  39   2.0000      -0.462735       -12.5917
  40   2.0000      -0.446221       -12.1423
  41   2.0000      -0.444220       -12.0878
  42   2.0000      -0.443255       -12.0616
  43   2.0000      -0.431242       -11.7347
  44   2.0000      -0.422493       -11.4966
  45   2.0000      -0.413429       -11.2500
  46   2.0000      -0.401920       -10.9368
  47   2.0000      -0.387838       -10.5536
  48   2.0000      -0.375018       -10.2048
  49   2.0000      -0.370837       -10.0910
  50   2.0000      -0.354960        -9.6590
  51   2.0000      -0.354378        -9.6431
  52   2.0000      -0.347792        -9.4639
  53   2.0000      -0.322794        -8.7837
  54   2.0000      -0.290761        -7.9120
  55   2.0000      -0.278036        -7.5658
  56   2.0000      -0.274038        -7.4570
  57   2.0000      -0.271078        -7.3764
  58   2.0000      -0.252909        -6.8820
  59   2.0000      -0.247214        -6.7270
  60   2.0000      -0.214228        -5.8294
  61   0.0000      -0.050155        -1.3648
  62   0.0000      -0.029123        -0.7925
  63   0.0000      -0.004273        -0.1163
  64   0.0000      -0.003390        -0.0923
  65   0.0000       0.038591         1.0501

MULLIKEN ATOMIC CHARGES
-----------------------
   0 C :   -0.193602
   1 O :   -0.474094
   2 C :    0.558369
   3 O :   -0.452011
   4 C :    0.185939
   5 N :   -0.383173
   6 C :   -0.032463
   7 C :    0.146714
   8 C :   -0.194792
   9 C :   -0.132588
  10 C :   -0.118976
  11 C :   -0.128029
  12 C :   -0.156771
  13 S :    0.239757
  14 C :    0.115431
  15 O :   -0.610051
  16 H :    0.159421
  17 H :    0.161730
  18 H :    0.161629
  19 H :    0.138447
  20 H :    0.133011
  21 H :    0.132074
  22 H :    0.137819
  23 H :    0.173633
  24 H :    0.432577
Sum of atomic charges:   -0.0000000

LOEWDIN ATOMIC CHARGES
----------------------
   0 C :   -0.197773
   1 O :   -0.179494
   2 C :    0.179145
   3 O :   -0.255372
   4 C :   -0.077567
   5 N :   -0.116125
   6 C :   -0.127181
   7 C :   -0.028575
   8 C :   -0.130498
   9 C :   -0.127109
  10 C :   -0.123906
  11 C :   -0.124041
  12 C :   -0.103087
  13 S :    0.373414
  14 C :   -0.073524
  15 O :   -0.313229
  16 H :    0.130207
  17 H :    0.127075
  18 H :    0.127046
  19 H :    0.135290
  20 H :    0.133920
  21 H :    0.133325
  22 H :    0.136296
  23 H :    0.154532
  24 H :    0.347232

  Mayer bond orders larger than 0.100000
B(  0-C ,  1-O ) :   0.8880 B(  0-C , 16-H ) :   0.9449 B(  0-C , 17-H ) :   0.9359
B(  0-C , 18-H ) :   0.9360 B(  1-O ,  2-C ) :   1.0066 B(  2-C ,  3-O ) :   1.8239
B(  2-C ,  4-C ) :   1.0145 B(  4-C ,  5-N ) :   1.2438 B(  4-C , 14-C ) :   1.3995
B(  5-N ,  6-C ) :   1.5193 B(  6-C ,  7-C ) :   1.0143 B(  6-C , 13-S ) :   1.0694
B(  7-C ,  8-C ) :   1.3920 B(  7-C , 12-C ) :   1.4089 B(  8-C ,  9-C ) :   1.4482
B(  8-C , 19-H ) :   0.9174 B(  9-C , 10-C ) :   1.4502 B(  9-C , 20-H ) :   0.9292
B( 10-C , 11-C ) :   1.4398 B( 10-C , 21-H ) :   0.9298 B( 11-C , 12-C ) :   1.4389
B( 11-C , 22-H ) :   0.9290 B( 12-C , 23-H ) :   0.9096 B( 13-S , 14-C ) :   1.1368
B( 14-C , 15-O ) :   0.9527 B( 15-O , 24-H ) :   0.7541

FINAL SINGLE POINT ENERGY     -1102.690695771859

DIPOLE MOMENT
-------------

Method             : SCF
Type of density    : Electron Density
Multiplicity       :   1
Irrep              :   0
Energy             : -1102.6906957718592821 Eh
Relativity type    :
Basis              : AO
                                X                 Y                 Z
Electronic contribution:     -1.313714947      -5.081123970      -0.819185485
Nuclear contribution   :      1.529837892       3.241505270       0.502267097
                        -----------------------------------------
Total Dipole Moment    :      0.216122945      -1.839618700      -0.316918388
                        -----------------------------------------
Magnitude (a.u.)       :      1.879186887
Magnitude (Debye)      :      4.776513470

Rotational constants in cm-1:             0.039361             0.007979             0.006643
Rotational constants in MHz :          1179.999011           239.194381           199.140762

                             ****ORCA TERMINATED NORMALLY****
TOTAL RUN TIME: 0 days 0 hours 2 minutes 28 seconds 424 msec
