                         Program Version 6.0.0  -   RELEASE  -
|  1> ! B3LYP 6-31G* SP
|  2>
|  3> * xyz 0 1
|  4> C 4.5122 -0.4495 -1.4857
|  5> C 3.5092 -1.2253 -0.6842
|  6> C 3.5818 -2.6256 -0.6327
|  7> C 2.6731 -3.3482 0.1424
|  8> C 1.6860 -2.6811 0.8709
|  9> C 1.5926 -1.2801 0.8231
| 10> C 0.5181 -0.5725 1.6118
| 11> N -0.1220 0.5076 0.8353
| 12> C 0.0859 1.8649 1.2887
| 13> O 1.2477 2.2445 1.6010
| 14> C -1.0308 2.8274 1.3927
| 15> C -2.2722 2.4295 1.9168
| 16> C -3.3225 3.3476 2.0158
| 17> C -3.1380 4.6711 1.6062
| 18> C -1.9001 5.0800 1.1036
| 19> C -0.8473 4.1643 1.0022
| 20> C -1.0796 0.2410 -0.2726
| 21> C -0.8300 1.1644 -1.4448
| 22> N -1.9194 1.6113 -2.2523
| 23> O 0.3453 1.5162 -1.7383
| 24> C -1.1045 -1.2152 -0.7231
| 25> C -1.9986 -2.1111 -0.1077
| 26> C -2.0172 -3.4604 -0.4726
| 27> C -1.1447 -3.9333 -1.4544
| 28> C -0.2504 -3.0582 -2.0732
| 29> C -0.2255 -1.7082 -1.7115
| 30> C 2.5300 -0.5555 0.0661
| 31> H 4.7540 -0.9876 -2.4268
| 32> H 4.1150 0.5520 -1.7554
| 33> H 5.4407 -0.3213 -0.8905
| 34> H 4.3438 -3.1559 -1.1901
| 35> H 2.7329 -4.4289 0.1778
| 36> H 0.9860 -3.2588 1.4605
| 37> H 0.9842 -0.1704 2.5381
| 38> H -0.2637 -1.2851 1.9531
| 39> H -2.4236 1.4145 2.2623
| 40> H -4.2778 3.0344 2.4160
| 41> H -3.9519 5.3808 1.6841
| 42> H -1.7564 6.1062 0.7917
| 43> H 0.1049 4.4943 0.6061
| 44> H -2.0979 0.4806 0.0972
| 45> H -1.7464 2.2351 -3.0705
| 46> H -2.8979 1.3134 -2.0430
| 47> H -2.6753 -1.7662 0.6645
| 48> H -2.7069 -4.1409 0.0100
| 49> H -1.1587 -4.9792 -1.7327
| 50> H 0.4320 -3.4282 -2.8270
| 51> H 0.4948 -1.0594 -2.1900
| 52> H 2.4889 0.5254 0.0435
| 53> *
| 54>
| 55>                          ****END OF INPUT****

CARTESIAN COORDINATES (ANGSTROEM)
---------------------------------
  C      4.512200   -0.449500   -1.485700
  C      3.509200   -1.225300   -0.684200
  C      3.581800   -2.625600   -0.632700
  C      2.673100   -3.348200    0.142400
  C      1.686000   -2.681100    0.870900
  C      1.592600   -1.280100    0.823100
  C      0.518100   -0.572500    1.611800
  N     -0.122000    0.507600    0.835300
  C      0.085900    1.864900    1.288700
  O      1.247700    2.244500    1.601000
  C     -1.030800    2.827400    1.392700
  C     -2.272200    2.429500    1.916800
  C     -3.322500    3.347600    2.015800
  C     -3.138000    4.671100    1.606200
  C     -1.900100    5.080000    1.103600
  C     -0.847300    4.164300    1.002200
  C     -1.079600    0.241000   -0.272600
  C     -0.830000    1.164400   -1.444800
  N     -1.919400    1.611300   -2.252300
  O      0.345300    1.516200   -1.738300
  C     -1.104500   -1.215200   -0.723100
  C     -1.998600   -2.111100   -0.107700
  C     -2.017200   -3.460400   -0.472600
  C     -1.144700   -3.933300   -1.454400
  C     -0.250400   -3.058200   -2.073200
  C     -0.225500   -1.708200   -1.711500
  C      2.530000   -0.555500    0.066100
  H      4.754000   -0.987600   -2.426800
  H      4.115000    0.552000   -1.755400
  H      5.440700   -0.321300   -0.890500
  H      4.343800   -3.155900   -1.190100
  H      2.732900   -4.428900    0.177800
  H      0.986000   -3.258800    1.460500
  H      0.984200   -0.170400    2.538100
  H     -0.263700   -1.285100    1.953100
  H     -2.423600    1.414500    2.262300
  H     -4.277800    3.034400    2.416000
  H     -3.951900    5.380800    1.684100
  H     -1.756400    6.106200    0.791700
  H      0.104900    4.494300    0.606100
  H     -2.097900    0.480600    0.097200
  H     -1.746400    2.235100   -3.070500
  H     -2.897900    1.313400   -2.043000
  H     -2.675300   -1.766200    0.664500
  H     -2.706900   -4.140900    0.010000
  H     -1.158700   -4.979200   -1.732700
  H      0.432000   -3.428200   -2.827000
  H      0.494800   -1.059400   -2.190000
  H      2.488900    0.525400    0.043500

 Total Charge           Charge          ....    0
 Multiplicity           Mult            ....    1
 Number of Electrons    NEL             ....  190
 Basis Dimension        Dim             ....  422

ORBITAL ENERGIES
----------------

  NO   OCC          E(Eh)            E(eV)
   0   2.0000     -19.110302      -520.0177
   1   2.0000     -19.109794      -520.0039
   2   2.0000     -14.356928      -390.6719
   3   2.0000     -14.342312      -390.2742
   4   2.0000     -10.292118      -280.0628
   5   2.0000     -10.282002      -279.7875
   6   2.0000     -10.239716      -278.6368
   7   2.0000     -10.209371      -277.8111
   8   2.0000     -10.200430      -277.5678
   9   2.0000     -10.197496      -277.4880
  10   2.0000     -10.194288      -277.4007
  11   2.0000     -10.191804      -277.3331
  12   2.0000     -10.190822      -277.3064
  13   2.0000     -10.189249      -277.2636
  14   2.0000     -10.188704      -277.2487
  15   2.0000     -10.188208      -277.2352
  16   2.0000     -10.185255      -277.1549
  17   2.0000     -10.183783      -277.1148
  18   2.0000     -10.180829      -277.0344
  19   2.0000     -10.180392      -277.0226
  20   2.0000     -10.168094      -276.6879
  21   2.0000     -10.167714      -276.6776
  22   2.0000     -10.161720      -276.5145
  23   2.0000     -10.158500      -276.4268
  24   2.0000     -10.158166      -276.4178
  25   2.0000     -10.157124      -276.3894
  26   2.0000     -10.150945      -276.2212
  27   2.0000      -1.012438       -27.5498
  28   2.0000      -1.002797       -27.2875
  29   2.0000      -0.911345       -24.7990
  30   2.0000      -0.880108       -23.9490
  31   2.0000      -0.857772       -23.3412
  32   2.0000      -0.851045       -23.1581
  33   2.0000      -0.831699       -22.6317
  34   2.0000      -0.777180       -21.1482
  35   2.0000      -0.766462       -20.8565
  36   2.0000      -0.751783       -20.4570
  37   2.0000      -0.749263       -20.3885
  38   2.0000      -0.743748       -20.2384
  39   2.0000      -0.734095       -19.9758
  40   2.0000      -0.703306       -19.1379
  41   2.0000      -0.669261       -18.2115
  42   2.0000      -0.657760       -17.8986
  43   2.0000      -0.625226       -17.0133
  44   2.0000      -0.609603       -16.5881
  45   2.0000      -0.608938       -16.5700
  46   2.0000      -0.599920       -16.3246
  47   2.0000      -0.576503       -15.6874
  48   2.0000      -0.573509       -15.6060
  49   2.0000      -0.554099       -15.0778
  50   2.0000      -0.544117       -14.8062
  51   2.0000      -0.529808       -14.4168
  52   2.0000      -0.517868       -14.0919
  53   2.0000      -0.503720       -13.7069
  54   2.0000      -0.491914       -13.3857
  55   2.0000      -0.484687       -13.1890
  56   2.0000      -0.481226       -13.0948
  57   2.0000      -0.470377       -12.7996
  58   2.0000      -0.455316       -12.3898
  59   2.0000      -0.450820       -12.2674
  60   2.0000      -0.442101       -12.0302
  61   2.0000      -0.438102       -11.9214
  62   2.0000      -0.433221       -11.7886
  63   2.0000      -0.426764       -11.6128
  64   2.0000      -0.425094       -11.5674
  65   2.0000      -0.419816       -11.4238
  66   2.0000      -0.409870       -11.1531
  67   2.0000      -0.406441       -11.0598
  68   2.0000      -0.402529       -10.9534
  69   2.0000      -0.400091       -10.8870
  70   2.0000      -0.391202       -10.6452
  71   2.0000      -0.386851       -10.5268
  72   2.0000      -0.381057       -10.3691
  73   2.0000      -0.374836       -10.1998
  74   2.0000      -0.369573       -10.0566
  75   2.0000      -0.361290        -9.8312
  76   2.0000      -0.360394        -9.8068
  77   2.0000      -0.355120        -9.6633
  78   2.0000      -0.350112        -9.5270
  79   2.0000      -0.343935        -9.3589
  80   2.0000      -0.343176        -9.3383
  81   2.0000      -0.333928        -9.0866
  82   2.0000      -0.323544        -8.8041
  83   2.0000      -0.317272        -8.6334
  84   2.0000      -0.313352        -8.5268
  85   2.0000      -0.264708        -7.2031
  86   2.0000      -0.259940        -7.0733
  87   2.0000      -0.255793        -6.9605
  88   2.0000      -0.252488        -6.8706
  89   2.0000      -0.248569        -6.7639
  90   2.0000      -0.243700        -6.6314
  91   2.0000      -0.237552        -6.4641
  92   2.0000      -0.227360        -6.1868
  93   2.0000      -0.215452        -5.8627
  94   2.0000      -0.209752        -5.7076
  95   0.0000      -0.041662        -1.1337
  96   0.0000      -0.016413        -0.4466
  97   0.0000      -0.007234        -0.1969
  98   0.0000      -0.002972        -0.0809
  99   0.0000       0.015781         0.4294

MULLIKEN ATOMIC CHARGES
-----------------------
   0 C :   -0.523750
   1 C :    0.162075
   2 C :   -0.173696
   3 C :   -0.125360
   4 C :   -0.174176
   5 C :    0.147376
   6 C :   -0.233200
   7 N :   -0.416883
   8 C :    0.451916
   9 O :   -0.455716
  10 C :    0.081441
  11 C :   -0.165443
  12 C :   -0.135822
  13 C :   -0.116954
  14 C :   -0.133947
  15 C :   -0.135288
  16 C :   -0.077416
  17 C :    0.561750
  18 N :   -0.767711
  19 O :   -0.474007
  20 C :    0.098642
  21 C :   -0.175122
  22 C :   -0.130223
  23 C :   -0.121077
  24 C :   -0.119440
  25 C :   -0.140949
  26 C :   -0.208570
  27 H :    0.143581
  28 H :    0.165967
  29 H :    0.159075
  30 H :    0.110317
  31 H :    0.114213
  32 H :    0.110864
  33 H :    0.184751
  34 H :    0.141786
  35 H :    0.136769
  36 H :    0.131259
  37 H :    0.133498
  38 H :    0.136760
  39 H :    0.162992
  40 H :    0.127902
  41 H :    0.352502
  42 H :    0.334071
  43 H :    0.122658
  44 H :    0.128617
  45 H :    0.129174
  46 H :    0.135578
  47 H :    0.169850
  48 H :    0.169367
Sum of atomic charges:   -0.0000000

LOEWDIN ATOMIC CHARGES
----------------------
   0 C :   -0.352578
   1 C :   -0.022726
   2 C :   -0.144857
   3 C :   -0.132225
   4 C :   -0.141833
   5 C :   -0.030155
   6 C :   -0.141784
   7 N :   -0.111223
   8 C :    0.151612
   9 O :   -0.254983
  10 C :   -0.050382
  11 C :   -0.123429
  12 C :   -0.133487
  13 C :   -0.118659
  14 C :   -0.127928
  15 C :   -0.090904
  16 C :   -0.062747
  17 C :    0.138213
  18 N :   -0.396470
  19 O :   -0.285189
  20 C :   -0.025448
  21 C :   -0.135890
  22 C :   -0.133577
  23 C :   -0.123158
  24 C :   -0.120368
  25 C :   -0.105566
  26 C :   -0.126201
  27 H :    0.126773
  28 H :    0.136992
  29 H :    0.135165
  30 H :    0.123945
  31 H :    0.124872
  32 H :    0.124116
  33 H :    0.151495
  34 H :    0.120762
  35 H :    0.134422
  36 H :    0.132573
  37 H :    0.133623
  38 H :    0.135450
  39 H :    0.150911
  40 H :    0.122485
  41 H :    0.266449
  42 H :    0.251934
  43 H :    0.127542
  44 H :    0.131650
  45 H :    0.131820
  46 H :    0.135477
  47 H :    0.152142
  48 H :    0.151344

  Mayer bond orders larger than 0.100000
B(  0-C ,  1-C ) :   0.9876 B(  0-C , 27-H ) :   0.9466 B(  0-C , 28-H ) :   0.9443
B(  0-C , 29-H ) :   0.9357 B(  1-C ,  2-C ) :   1.4257 B(  1-C , 26-C ) :   1.4198
B(  2-C ,  3-C ) :   1.4468 B(  2-C , 30-H ) :   0.9287 B(  3-C ,  4-C ) :   1.4365
B(  3-C , 31-H ) :   0.9308 B(  4-C ,  5-C ) :   1.4279 B(  4-C , 32-H ) :   0.9243
B(  5-C ,  6-C ) :   0.9566 B(  5-C , 26-C ) :   1.4242 B(  6-C ,  7-N ) :   0.9521
B(  6-C , 33-H ) :   0.9120 B(  6-C , 34-H ) :   0.9218 B(  7-N ,  8-C ) :   1.0280
B(  7-N , 16-C ) :   0.9404 B(  8-C ,  9-O ) :   1.8039 B(  8-C , 10-C ) :   0.9666
B( 10-C , 11-C ) :   1.3948 B( 10-C , 15-C ) :   1.4102 B( 11-C , 12-C ) :   1.4356
B( 11-C , 35-H ) :   0.9211 B( 12-C , 13-C ) :   1.4518 B( 12-C , 36-H ) :   0.9296
B( 13-C , 14-C ) :   1.4430 B( 13-C , 37-H ) :   0.9300 B( 14-C , 15-C ) :   1.4337
B( 14-C , 38-H ) :   0.9293 B( 15-C , 39-H ) :   0.9163 B( 16-C , 17-C ) :   0.9055
B( 16-C , 20-C ) :   0.9796 B( 16-C , 40-H ) :   0.8905 B( 17-C , 18-N ) :   1.0775
B( 17-C , 19-O ) :   1.8118 B( 18-N , 41-H ) :   0.8231 B( 18-N , 42-H ) :   0.8296
B( 20-C , 21-C ) :   1.4200 B( 20-C , 25-C ) :   1.4317 B( 21-C , 22-C ) :   1.4370
B( 21-C , 43-H ) :   0.9253 B( 22-C , 23-C ) :   1.4542 B( 22-C , 44-H ) :   0.9293
B( 23-C , 24-C ) :   1.4467 B( 23-C , 45-H ) :   0.9303 B( 24-C , 25-C ) :   1.4333
B( 24-C , 46-H ) :   0.9286 B( 25-C , 47-H ) :   0.9010 B( 26-C , 48-H ) :   0.8956

FINAL SINGLE POINT ENERGY     -1148.914682565953

DIPOLE MOMENT
-------------

Method             : SCF
Type of density    : Electron Density
Multiplicity       :   1
Irrep              :   0
Energy             : -1148.9146825659533988 Eh
Relativity type    :
Basis              : AO
                                X                 Y                 Z
Electronic contribution:     -3.692729021       6.044484721       3.164935836
Nuclear contribution   :      1.329273902      -6.461608221      -3.673557078
                        -----------------------------------------
Total Dipole Moment    :     -2.363455119      -0.417123500      -0.508621242
                        -----------------------------------------
Magnitude (a.u.)       :      2.453285080
Magnitude (Debye)      :      6.235755109

Rotational constants in cm-1:             0.010764             0.004764             0.004064
Rotational constants in MHz :           322.708825           142.820331           121.840157

                             ****ORCA TERMINATED NORMALLY****
TOTAL RUN TIME: 0 days 0 hours 8 minutes 26 seconds 964 msec
