                         Program Version 6.0.0  -   RELEASE  -
|  1> ! B3LYP 6-31G* SP
|  2>
|  3> * xyz 0 1
|  4> O 1.8196 0.9699 0.8340
|  5> C 1.6967 -0.1120 0.1977
|  6> N 2.8550 -0.7492 -0.3736
|  7> C 4.1979 -0.2580 -0.2236
|  8> C 4.6530 0.2763 0.9940
|  9> C 5.9716 0.7233 1.1210
| 10> C 6.8586 0.6471 0.0340
| 11> C 8.2931 1.0839 0.1919
| 12> F 9.0329 0.0377 0.7103
| 13> F 8.8314 1.4555 -1.0278
| 14> F 8.3788 2.1662 1.0504
| 15> C 6.4159 0.0638 -1.1655
| 16> C 5.0973 -0.3826 -1.2915
| 17> N 0.3880 -0.6943 0.0521
| 18> C -0.5330 -0.6303 1.1940
| 19> C -1.8706 -1.3151 0.8884
| 20> C -2.4177 -0.8501 -0.4812
| 21> C -1.3991 -1.1811 -1.6150
| 22> C 0.0362 -1.4767 -1.1396
| 23> C -3.7801 -1.5223 -0.8058
| 24> C -4.9357 -1.0515 0.1000
| 25> O -4.8951 -1.7424 1.3218
| 26> C -4.8995 0.4408 0.3438
| 27> C -6.0336 1.0905 0.8574
| 28> C -6.0120 2.4673 1.0932
| 29> C -4.8598 3.2072 0.8198
| 30> C -3.7228 2.5727 0.3101
| 31> Cl -2.2799 3.5178 -0.0224
| 32> C -3.7356 1.1899 0.0765
| 33> O -2.5945 0.5697 -0.4434
| 34> H 2.7221 -1.5895 -0.9783
| 35> H 4.0034 0.3180 1.8580
| 36> H 6.3022 1.1180 2.0738
| 37> H 7.0897 -0.0511 -2.0052
| 38> H 4.7728 -0.8229 -2.2262
| 39> H -0.0664 -1.1202 2.0760
| 40> H -0.7243 0.4346 1.4520
| 41> H -2.5725 -1.0549 1.7066
| 42> H -1.7345 -2.4192 0.8899
| 43> H -1.3678 -0.3322 -2.3339
| 44> H -1.7329 -2.0644 -2.2038
| 45> H 0.1336 -2.5576 -0.8986
| 46> H 0.7252 -1.2494 -1.9815
| 47> H -3.6880 -2.6296 -0.7489
| 48> H -4.0544 -1.2713 -1.8554
| 49> H -5.8852 -1.3029 -0.4297
| 50> H -5.8030 -1.6855 1.7198
| 51> H -6.9354 0.5306 1.0719
| 52> H -6.8904 2.9617 1.4878
| 53> H -4.8514 4.2738 1.0049
| 54> *
| 55>
| 56>                          ****END OF INPUT****

CARTESIAN COORDINATES (ANGSTROEM)
---------------------------------
  O      1.819600    0.969900    0.834000
  C      1.696700   -0.112000    0.197700
  N      2.855000   -0.749200   -0.373600
  C      4.197900   -0.258000   -0.223600
  C      4.653000    0.276300    0.994000
  C      5.971600    0.723300    1.121000
  C      6.858600    0.647100    0.034000
  C      8.293100    1.083900    0.191900
  F      9.032900    0.037700    0.710300
  F      8.831400    1.455500   -1.027800
  F      8.378800    2.166200    1.050400
  C      6.415900    0.063800   -1.165500
  C      5.097300   -0.382600   -1.291500
  N      0.388000   -0.694300    0.052100
  C     -0.533000   -0.630300    1.194000
  C     -1.870600   -1.315100    0.888400
  C     -2.417700   -0.850100   -0.481200
  C     -1.399100   -1.181100   -1.615000
  C      0.036200   -1.476700   -1.139600
  C     -3.780100   -1.522300   -0.805800
  C     -4.935700   -1.051500    0.100000
  O     -4.895100   -1.742400    1.321800
  C     -4.899500    0.440800    0.343800
  C     -6.033600    1.090500    0.857400
  C     -6.012000    2.467300    1.093200
  C     -4.859800    3.207200    0.819800
  C     -3.722800    2.572700    0.310100
  Cl    -2.279900    3.517800   -0.022400
  C     -3.735600    1.189900    0.076500
  O     -2.594500    0.569700   -0.443400
  H      2.722100   -1.589500   -0.978300
  H      4.003400    0.318000    1.858000
  H      6.302200    1.118000    2.073800
  H      7.089700   -0.051100   -2.005200
  H      4.772800   -0.822900   -2.226200
  H     -0.066400   -1.120200    2.076000
  H     -0.724300    0.434600    1.452000
  H     -2.572500   -1.054900    1.706600
  H     -1.734500   -2.419200    0.889900
  H     -1.367800   -0.332200   -2.333900
  H     -1.732900   -2.064400   -2.203800
  H      0.133600   -2.557600   -0.898600
  H      0.725200   -1.249400   -1.981500
  H     -3.688000   -2.629600   -0.748900
  H     -4.054400   -1.271300   -1.855400
  H     -5.885200   -1.302900   -0.429700
  H     -5.803000   -1.685500    1.719800
  H     -6.935400    0.530600    1.071900
  H     -6.890400    2.961700    1.487800
  H     -4.851400    4.273800    1.004900

 Total Charge           Charge          ....    0
 Multiplicity           Mult            ....    1
 Number of Electrons    NEL             ....  228
 Basis Dimension        Dim             ....  464

ORBITAL ENERGIES
----------------

  NO   OCC          E(Eh)            E(eV)
   0   2.0000    -101.519575     -2762.4881
   1   2.0000     -24.709210      -672.3718
   2   2.0000     -24.707825      -672.3341
   3   2.0000     -24.704889      -672.2542
   4   2.0000     -19.171945      -521.6952
   5   2.0000     -19.152769      -521.1733
   6   2.0000     -19.098682      -519.7015
   7   2.0000     -14.370127      -391.0310
   8   2.0000     -14.344124      -390.3235
   9   2.0000     -10.422887      -283.6212
  10   2.0000     -10.312649      -280.6215
  11   2.0000     -10.260604      -279.2052
  12   2.0000     -10.259955      -279.1876
  13   2.0000     -10.249836      -278.9122
  14   2.0000     -10.244400      -278.7643
  15   2.0000     -10.237575      -278.5786
  16   2.0000     -10.228955      -278.3440
  17   2.0000     -10.208838      -277.7966
  18   2.0000     -10.199910      -277.5537
  19   2.0000     -10.198167      -277.5062
  20   2.0000     -10.197035      -277.4754
  21   2.0000     -10.195804      -277.4419
  22   2.0000     -10.195076      -277.4221
  23   2.0000     -10.194974      -277.4193
  24   2.0000     -10.193966      -277.3919
  25   2.0000     -10.191483      -277.3243
  26   2.0000     -10.191405      -277.3222
  27   2.0000     -10.190128      -277.2875
  28   2.0000     -10.184828      -277.1433
  29   2.0000     -10.184197      -277.1261
  30   2.0000      -9.450918      -257.1725
  31   2.0000      -7.214199      -196.3083
  32   2.0000      -7.204537      -196.0454
  33   2.0000      -7.204039      -196.0319
  34   2.0000      -1.268398       -34.5149
  35   2.0000      -1.194069       -32.4923
  36   2.0000      -1.192652       -32.4537
  37   2.0000      -1.060095       -28.8467
  38   2.0000      -1.035068       -28.1656
  39   2.0000      -1.014493       -27.6057
  40   2.0000      -0.919409       -25.0184
  41   2.0000      -0.915117       -24.9016
  42   2.0000      -0.882836       -24.0232
  43   2.0000      -0.852127       -23.1876
  44   2.0000      -0.835093       -22.7240
  45   2.0000      -0.814267       -22.1573
  46   2.0000      -0.778692       -21.1893
  47   2.0000      -0.768928       -20.9236
  48   2.0000      -0.763481       -20.7754
  49   2.0000      -0.750764       -20.4293
  50   2.0000      -0.733944       -19.9716
  51   2.0000      -0.731953       -19.9174
  52   2.0000      -0.685706       -18.6590
  53   2.0000      -0.663840       -18.0640
  54   2.0000      -0.647103       -17.6086
  55   2.0000      -0.643745       -17.5172
  56   2.0000      -0.623093       -16.9552
  57   2.0000      -0.615700       -16.7541
  58   2.0000      -0.602341       -16.3905
  59   2.0000      -0.591734       -16.1019
  60   2.0000      -0.569203       -15.4888
  61   2.0000      -0.559437       -15.2231
  62   2.0000      -0.558952       -15.2098
  63   2.0000      -0.551090       -14.9959
  64   2.0000      -0.549693       -14.9579
  65   2.0000      -0.540132       -14.6977
  66   2.0000      -0.530351       -14.4316
  67   2.0000      -0.513975       -13.9860
  68   2.0000      -0.511318       -13.9137
  69   2.0000      -0.493141       -13.4191
  70   2.0000      -0.484191       -13.1755
  71   2.0000      -0.478264       -13.0142
  72   2.0000      -0.459159       -12.4943
  73   2.0000      -0.457895       -12.4600
  74   2.0000      -0.453618       -12.3436
  75   2.0000      -0.452402       -12.3105
  76   2.0000      -0.439478       -11.9588
  77   2.0000      -0.438079       -11.9207
  78   2.0000      -0.435681       -11.8555
  79   2.0000      -0.435199       -11.8424
  80   2.0000      -0.428870       -11.6701
  81   2.0000      -0.425145       -11.5688
  82   2.0000      -0.421888       -11.4802
  83   2.0000      -0.417028       -11.3479
  84   2.0000      -0.410419       -11.1681
  85   2.0000      -0.408587       -11.1182
  86   2.0000      -0.406770       -11.0688
  87   2.0000      -0.402111       -10.9420
  88   2.0000      -0.397108       -10.8059
  89   2.0000      -0.392659       -10.6848
  90   2.0000      -0.387266       -10.5380
  91   2.0000      -0.384363       -10.4591
  92   2.0000      -0.382925       -10.4199
  93   2.0000      -0.378425       -10.2975
  94   2.0000      -0.374868       -10.2007
  95   2.0000      -0.371038       -10.0964
  96   2.0000      -0.360536        -9.8107
  97   2.0000      -0.354396        -9.6436
  98   2.0000      -0.352922        -9.6035
  99   2.0000      -0.351462        -9.5638
 100   2.0000      -0.345661        -9.4059
 101   2.0000      -0.335082        -9.1181
 102   2.0000      -0.324685        -8.8351
 103   2.0000      -0.312971        -8.5164
 104   2.0000      -0.306481        -8.3398
 105   2.0000      -0.296521        -8.0687
 106   2.0000      -0.289069        -7.8660
 107   2.0000      -0.280252        -7.6260
 108   2.0000      -0.258216        -7.0264
 109   2.0000      -0.245127        -6.6703
 110   2.0000      -0.244744        -6.6598
 111   2.0000      -0.224923        -6.1205
 112   2.0000      -0.224639        -6.1127
 113   2.0000      -0.217018        -5.9054
 114   0.0000      -0.020513        -0.5582
 115   0.0000      -0.018402        -0.5007
 116   0.0000      -0.004868        -0.1325
 117   0.0000      -0.001374        -0.0374
 118   0.0000       0.033780         0.9192

MULLIKEN ATOMIC CHARGES
-----------------------
   0 O :   -0.482140
   1 C :    0.678442
   2 N :   -0.717571
   3 C :    0.342878
   4 C :   -0.126346
   5 C :   -0.173610
   6 C :   -0.014094
   7 C :    0.890778
   8 F :   -0.299409
   9 F :   -0.307920
  10 F :   -0.306100
  11 C :   -0.165611
  12 C :   -0.180578
  13 N :   -0.440702
  14 C :   -0.102492
  15 C :   -0.324326
  16 C :    0.349014
  17 C :   -0.311144
  18 C :   -0.142720
  19 C :   -0.318585
  20 C :    0.041824
  21 O :   -0.614130
  22 C :    0.125124
  23 C :   -0.191906
  24 C :   -0.124600
  25 C :   -0.130351
  26 C :   -0.144987
  27 Cl:    0.008950
  28 C :    0.329035
  29 O :   -0.535327
  30 H :    0.329317
  31 H :    0.162969
  32 H :    0.153603
  33 H :    0.149484
  34 H :    0.128065
  35 H :    0.137456
  36 H :    0.186269
  37 H :    0.180470
  38 H :    0.137494
  39 H :    0.173000
  40 H :    0.142105
  41 H :    0.127977
  42 H :    0.148693
  43 H :    0.150725
  44 H :    0.148595
  45 H :    0.126089
  46 H :    0.399591
  47 H :    0.117956
  48 H :    0.133835
  49 H :    0.154908
Sum of atomic charges:   -0.0000000

LOEWDIN ATOMIC CHARGES
----------------------
   0 O :   -0.296372
   1 C :    0.167718
   2 N :   -0.227014
   3 C :    0.049291
   4 C :   -0.118927
   5 C :   -0.109683
   6 C :   -0.079960
   7 C :    0.308403
   8 F :   -0.116820
   9 F :   -0.115521
  10 F :   -0.114675
  11 C :   -0.113050
  12 C :   -0.147467
  13 N :   -0.136886
  14 C :   -0.143614
  15 C :   -0.240310
  16 C :    0.083541
  17 C :   -0.230579
  18 C :   -0.157178
  19 C :   -0.233368
  20 C :   -0.016200
  21 O :   -0.387861
  22 C :   -0.062880
  23 C :   -0.129490
  24 C :   -0.140439
  25 C :   -0.125783
  26 C :   -0.107934
  27 Cl:    0.051505
  28 C :    0.080349
  29 O :   -0.159000
  30 H :    0.254265
  31 H :    0.152755
  32 H :    0.144607
  33 H :    0.142755
  34 H :    0.132527
  35 H :    0.117774
  36 H :    0.141301
  37 H :    0.149372
  38 H :    0.125198
  39 H :    0.143127
  40 H :    0.128974
  41 H :    0.102723
  42 H :    0.129580
  43 H :    0.136011
  44 H :    0.131319
  45 H :    0.112693
  46 H :    0.316193
  47 H :    0.126123
  48 H :    0.135475
  49 H :    0.147433

  Mayer bond orders larger than 0.100000
B(  0-O ,  1-C ) :   1.7994 B(  1-C ,  2-N ) :   0.9979 B(  1-C , 13-N ) :   1.0524
B(  2-N ,  3-C ) :   0.8758 B(  2-N , 30-H ) :   0.8203 B(  3-C ,  4-C ) :   1.4185
B(  3-C , 12-C ) :   1.4051 B(  4-C ,  5-C ) :   1.4340 B(  4-C , 31-H ) :   0.9094
B(  5-C ,  6-C ) :   1.3963 B(  5-C , 32-H ) :   0.9203 B(  6-C ,  7-C ) :   0.9832
B(  6-C , 11-C ) :   1.4132 B(  7-C ,  8-F ) :   0.9836 B(  7-C ,  9-F ) :   0.9453
B(  7-C , 10-F ) :   0.9489 B( 11-C , 12-C ) :   1.4356 B( 11-C , 33-H ) :   0.9197
B( 12-C , 34-H ) :   0.9248 B( 13-N , 14-C ) :   0.9288 B( 13-N , 18-C ) :   0.9637
B( 14-C , 15-C ) :   0.9912 B( 14-C , 35-H ) :   0.9321 B( 14-C , 36-H ) :   0.9134
B( 15-C , 16-C ) :   0.9920 B( 15-C , 37-H ) :   0.9121 B( 15-C , 38-H ) :   0.9265
B( 16-C , 17-C ) :   0.9732 B( 16-C , 19-C ) :   0.9905 B( 16-C , 29-O ) :   0.8294
B( 17-C , 18-C ) :   0.9892 B( 17-C , 39-H ) :   0.9265 B( 17-C , 40-H ) :   0.9291
B( 18-C , 41-H ) :   0.9253 B( 18-C , 42-H ) :   0.9322 B( 19-C , 20-C ) :   0.9823
B( 19-C , 43-H ) :   0.9212 B( 19-C , 44-H ) :   0.9272 B( 20-C , 21-O ) :   0.9574
B( 20-C , 22-C ) :   0.9163 B( 20-C , 45-H ) :   0.9267 B( 21-O , 46-H ) :   0.7811
B( 22-C , 23-C ) :   1.4002 B( 22-C , 28-C ) :   1.3657 B( 23-C , 24-C ) :   1.4445
B( 23-C , 47-H ) :   0.9275 B( 24-C , 25-C ) :   1.4422 B( 24-C , 48-H ) :   0.9283
B( 25-C , 26-C ) :   1.4267 B( 25-C , 49-H ) :   0.9223 B( 26-C , 27-Cl) :   1.0405
B( 26-C , 28-C ) :   1.3196 B( 28-C , 29-O ) :   0.9478

FINAL SINGLE POINT ENERGY     -1906.282129898112

DIPOLE MOMENT
-------------

Method             : SCF
Type of density    : Electron Density
Multiplicity       :   1
Irrep              :   0
Energy             : -1906.2821298981123164 Eh
Relativity type    :
Basis              : AO
                                X                 Y                 Z
Electronic contribution:     49.142080985      23.163235629       2.005093672
Nuclear contribution   :    -51.941098379     -25.322443316      -2.717038466
                        -----------------------------------------
Total Dipole Moment    :     -2.799017394      -2.159207687      -0.711944794
                        -----------------------------------------
Magnitude (a.u.)       :      3.606042373
Magnitude (Debye)      :      9.165831293

Rotational constants in cm-1:             0.012159             0.001514             0.001414
Rotational constants in MHz :           364.524728            45.378947            42.376818

                             ****ORCA TERMINATED NORMALLY****
TOTAL RUN TIME: 0 days 0 hours 7 minutes 34 seconds 878 msec
