                         Program Version 6.0.0  -   RELEASE  -
|  1> ! B3LYP 6-31G* SP
|  2>
|  3> * xyz 0 1
|  4> C 0.4260 1.6889 -1.6628
|  5> C -0.6219 1.8015 -0.5772
|  6> C -1.0750 0.6512 0.1113
|  7> N -0.5702 -0.6517 -0.2036
|  8> C 0.3360 -1.3246 0.7271
|  9> C 1.6666 -0.6250 0.7406
| 10> C 2.6301 -0.9255 -0.2311
| 11> C 3.8356 -0.2199 -0.2743
| 12> C 4.0976 0.8095 0.6560
| 13> C 5.3773 1.6286 0.6711
| 14> C 6.0025 1.9596 -0.6769
| 15> C 6.6621 0.9351 0.2380
| 16> C 3.1207 1.1092 1.6190
| 17> C 1.9157 0.4038 1.6593
| 18> S -1.2606 -1.5338 -1.5288
| 19> O -0.1562 -2.1081 -2.3719
| 20> O -2.0873 -0.6162 -2.3862
| 21> C -2.2884 -2.8120 -0.8925
| 22> C -3.4597 -2.4784 -0.2032
| 23> C -4.2737 -3.4816 0.3303
| 24> C -3.9236 -4.8361 0.1841
| 25> C -4.7784 -5.9025 0.7504
| 26> O -5.8447 -5.6117 1.3574
| 27> O -4.4118 -7.2398 0.6189
| 28> C -2.7439 -5.1638 -0.5065
| 29> C -1.9315 -4.1582 -1.0392
| 30> N -1.9884 0.7685 1.1096
| 31> C -2.5097 1.9618 1.4825
| 32> C -2.1068 3.1353 0.8408
| 33> C -2.6426 4.3734 1.2281
| 34> C -2.2327 5.5451 0.5915
| 35> C -1.2864 5.4910 -0.4316
| 36> C -0.7448 4.2652 -0.8276
| 37> C -1.1479 3.0650 -0.2008
| 38> H 0.7275 0.6445 -1.8696
| 39> H 0.0323 2.1102 -2.6109
| 40> H 1.3380 2.2436 -1.3586
| 41> H 0.4773 -2.3869 0.4313
| 42> H -0.1115 -1.3328 1.7448
| 43> H 2.4412 -1.6982 -0.9661
| 44> H 4.5465 -0.4814 -1.0444
| 45> H 5.5144 2.4117 1.4481
| 46> H 5.5187 1.5299 -1.5777
| 47> H 6.5325 2.9350 -0.7091
| 48> H 7.5775 1.3115 0.7416
| 49> H 6.5809 -0.1152 -0.1086
| 50> H 3.2873 1.9005 2.3395
| 51> H 1.1704 0.6697 2.3991
| 52> H -3.7403 -1.4405 -0.0753
| 53> H -5.1741 -3.1964 0.8596
| 54> H -4.9890 -7.9776 1.0043
| 55> H -2.4456 -6.1968 -0.6337
| 56> H -1.0238 -4.4332 -1.5600
| 57> H -3.2372 1.9909 2.2841
| 58> H -3.3762 4.4342 2.0231
| 59> H -2.6480 6.4981 0.8930
| 60> H -0.9703 6.4035 -0.9207
| 61> H -0.0128 4.2719 -1.6236
| 62> *
| 63>
| 64>                          ****END OF INPUT****

CARTESIAN COORDINATES (ANGSTROEM)
---------------------------------
  C      0.426000    1.688900   -1.662800
  C     -0.621900    1.801500   -0.577200
  C     -1.075000    0.651200    0.111300
  N     -0.570200   -0.651700   -0.203600
  C      0.336000   -1.324600    0.727100
  C      1.666600   -0.625000    0.740600
  C      2.630100   -0.925500   -0.231100
  C      3.835600   -0.219900   -0.274300
  C      4.097600    0.809500    0.656000
  C      5.377300    1.628600    0.671100
  C      6.002500    1.959600   -0.676900
  C      6.662100    0.935100    0.238000
  C      3.120700    1.109200    1.619000
  C      1.915700    0.403800    1.659300
  S     -1.260600   -1.533800   -1.528800
  O     -0.156200   -2.108100   -2.371900
  O     -2.087300   -0.616200   -2.386200
  C     -2.288400   -2.812000   -0.892500
  C     -3.459700   -2.478400   -0.203200
  C     -4.273700   -3.481600    0.330300
  C     -3.923600   -4.836100    0.184100
  C     -4.778400   -5.902500    0.750400
  O     -5.844700   -5.611700    1.357400
  O     -4.411800   -7.239800    0.618900
  C     -2.743900   -5.163800   -0.506500
  C     -1.931500   -4.158200   -1.039200
  N     -1.988400    0.768500    1.109600
  C     -2.509700    1.961800    1.482500
  C     -2.106800    3.135300    0.840800
  C     -2.642600    4.373400    1.228100
  C     -2.232700    5.545100    0.591500
  C     -1.286400    5.491000   -0.431600
  C     -0.744800    4.265200   -0.827600
  C     -1.147900    3.065000   -0.200800
  H      0.727500    0.644500   -1.869600
  H      0.032300    2.110200   -2.610900
  H      1.338000    2.243600   -1.358600
  H      0.477300   -2.386900    0.431300
  H     -0.111500   -1.332800    1.744800
  H      2.441200   -1.698200   -0.966100
  H      4.546500   -0.481400   -1.044400
  H      5.514400    2.411700    1.448100
  H      5.518700    1.529900   -1.577700
  H      6.532500    2.935000   -0.709100
  H      7.577500    1.311500    0.741600
  H      6.580900   -0.115200   -0.108600
  H      3.287300    1.900500    2.339500
  H      1.170400    0.669700    2.399100
  H     -3.740300   -1.440500   -0.075300
  H     -5.174100   -3.196400    0.859600
  H     -4.989000   -7.977600    1.004300
  H     -2.445600   -6.196800   -0.633700
  H     -1.023800   -4.433200   -1.560000
  H     -3.237200    1.990900    2.284100
  H     -3.376200    4.434200    2.023100
  H     -2.648000    6.498100    0.893000
  H     -0.970300    6.403500   -0.920700
  H     -0.012800    4.271900   -1.623600

 Total Charge           Charge          ....    0
 Multiplicity           Mult            ....    1
 Number of Electrons    NEL             ....  248
 Basis Dimension        Dim             ....  528

ORBITAL ENERGIES
----------------

  NO   OCC          E(Eh)            E(eV)
   0   2.0000     -89.092934     -2424.3420
   1   2.0000     -19.192807      -522.2628
   2   2.0000     -19.134177      -520.6674
   3   2.0000     -19.123876      -520.3871
   4   2.0000     -19.122175      -520.3408
   5   2.0000     -14.364769      -390.8852
   6   2.0000     -14.329964      -389.9382
   7   2.0000     -10.331504      -281.1345
   8   2.0000     -10.253192      -279.0035
   9   2.0000     -10.236349      -278.5452
  10   2.0000     -10.226745      -278.2839
  11   2.0000     -10.225796      -278.2581
  12   2.0000     -10.222240      -278.1613
  13   2.0000     -10.214456      -277.9495
  14   2.0000     -10.213822      -277.9322
  15   2.0000     -10.212199      -277.8881
  16   2.0000     -10.211748      -277.8758
  17   2.0000     -10.205152      -277.6963
  18   2.0000     -10.202331      -277.6195
  19   2.0000     -10.197826      -277.4970
  20   2.0000     -10.195414      -277.4313
  21   2.0000     -10.195036      -277.4210
  22   2.0000     -10.195001      -277.4201
  23   2.0000     -10.193940      -277.3912
  24   2.0000     -10.193801      -277.3874
  25   2.0000     -10.192798      -277.3601
  26   2.0000     -10.184032      -277.1216
  27   2.0000     -10.183578      -277.1093
  28   2.0000     -10.183402      -277.1045
  29   2.0000     -10.179722      -277.0043
  30   2.0000     -10.179375      -276.9949
  31   2.0000     -10.178299      -276.9656
  32   2.0000     -10.176693      -276.9219
  33   2.0000     -10.167528      -276.6725
  34   2.0000      -8.128717      -221.1936
  35   2.0000      -6.093671      -165.8172
  36   2.0000      -6.091805      -165.7664
  37   2.0000      -6.091369      -165.7546
  38   2.0000      -1.080075       -29.3903
  39   2.0000      -1.077236       -29.3131
  40   2.0000      -0.991379       -26.9768
  41   2.0000      -0.960472       -26.1358
  42   2.0000      -0.957528       -26.0557
  43   2.0000      -0.910438       -24.7743
  44   2.0000      -0.884861       -24.0783
  45   2.0000      -0.864728       -23.5304
  46   2.0000      -0.861180       -23.4339
  47   2.0000      -0.837576       -22.7916
  48   2.0000      -0.804845       -21.9009
  49   2.0000      -0.799671       -21.7602
  50   2.0000      -0.774896       -21.0860
  51   2.0000      -0.770788       -20.9742
  52   2.0000      -0.762443       -20.7471
  53   2.0000      -0.740377       -20.1467
  54   2.0000      -0.738286       -20.0898
  55   2.0000      -0.709763       -19.3136
  56   2.0000      -0.695254       -18.9188
  57   2.0000      -0.679491       -18.4899
  58   2.0000      -0.649261       -17.6673
  59   2.0000      -0.640790       -17.4368
  60   2.0000      -0.633682       -17.2434
  61   2.0000      -0.618654       -16.8344
  62   2.0000      -0.611540       -16.6409
  63   2.0000      -0.598413       -16.2836
  64   2.0000      -0.591429       -16.0936
  65   2.0000      -0.587103       -15.9759
  66   2.0000      -0.586897       -15.9703
  67   2.0000      -0.559833       -15.2338
  68   2.0000      -0.555574       -15.1179
  69   2.0000      -0.536580       -14.6011
  70   2.0000      -0.530702       -14.4411
  71   2.0000      -0.516844       -14.0640
  72   2.0000      -0.506146       -13.7729
  73   2.0000      -0.498115       -13.5544
  74   2.0000      -0.486895       -13.2491
  75   2.0000      -0.482825       -13.1383
  76   2.0000      -0.476300       -12.9608
  77   2.0000      -0.469218       -12.7681
  78   2.0000      -0.466241       -12.6871
  79   2.0000      -0.460018       -12.5177
  80   2.0000      -0.456332       -12.4174
  81   2.0000      -0.449258       -12.2249
  82   2.0000      -0.445277       -12.1166
  83   2.0000      -0.442998       -12.0546
  84   2.0000      -0.441387       -12.0108
  85   2.0000      -0.438226       -11.9247
  86   2.0000      -0.432518       -11.7694
  87   2.0000      -0.426841       -11.6149
  88   2.0000      -0.422979       -11.5099
  89   2.0000      -0.419272       -11.4090
  90   2.0000      -0.415562       -11.3080
  91   2.0000      -0.411274       -11.1913
  92   2.0000      -0.398893       -10.8544
  93   2.0000      -0.393381       -10.7045
  94   2.0000      -0.389949       -10.6111
  95   2.0000      -0.385953       -10.5023
  96   2.0000      -0.382395       -10.4055
  97   2.0000      -0.380762       -10.3611
  98   2.0000      -0.374616       -10.1938
  99   2.0000      -0.372993       -10.1496
 100   2.0000      -0.363597        -9.8940
 101   2.0000      -0.362613        -9.8672
 102   2.0000      -0.358830        -9.7643
 103   2.0000      -0.351343        -9.5605
 104   2.0000      -0.347591        -9.4584
 105   2.0000      -0.347319        -9.4510
 106   2.0000      -0.336912        -9.1678
 107   2.0000      -0.322756        -8.7827
 108   2.0000      -0.317272        -8.6334
 109   2.0000      -0.305709        -8.3188
 110   2.0000      -0.301705        -8.2098
 111   2.0000      -0.297123        -8.0851
 112   2.0000      -0.285444        -7.7673
 113   2.0000      -0.281837        -7.6692
 114   2.0000      -0.277166        -7.5421
 115   2.0000      -0.274116        -7.4591
 116   2.0000      -0.273291        -7.4366
 117   2.0000      -0.270481        -7.3602
 118   2.0000      -0.263581        -7.1724
 119   2.0000      -0.252618        -6.8741
 120   2.0000      -0.248433        -6.7602
 121   2.0000      -0.245241        -6.6733
 122   2.0000      -0.222833        -6.0636
 123   2.0000      -0.219453        -5.9716
 124   0.0000      -0.078376        -2.1327
 125   0.0000      -0.057748        -1.5714
 126   0.0000      -0.030181        -0.8213
 127   0.0000      -0.024808        -0.6751
 128   0.0000      -0.004417        -0.1202

MULLIKEN ATOMIC CHARGES
-----------------------
   0 C :   -0.544533
   1 C :    0.135392
   2 C :    0.309943
   3 N :   -0.608960
   4 C :   -0.242250
   5 C :    0.162320
   6 C :   -0.172162
   7 C :   -0.208942
   8 C :    0.216807
   9 C :   -0.186841
  10 C :   -0.307696
  11 C :   -0.306469
  12 C :   -0.196866
  13 C :   -0.173486
  14 S :    1.222332
  15 O :   -0.558567
  16 O :   -0.544995
  17 C :   -0.126345
  18 C :   -0.136575
  19 C :   -0.142448
  20 C :    0.083044
  21 C :    0.527337
  22 O :   -0.445536
  23 O :   -0.624202
  24 C :   -0.146635
  25 C :   -0.152456
  26 N :   -0.403614
  27 C :   -0.060506
  28 C :    0.139899
  29 C :   -0.204415
  30 C :   -0.125762
  31 C :   -0.121257
  32 C :   -0.193635
  33 C :    0.116209
  34 H :    0.201781
  35 H :    0.167208
  36 H :    0.161655
  37 H :    0.168367
  38 H :    0.169797
  39 H :    0.153730
  40 H :    0.126547
  41 H :    0.141918
  42 H :    0.158960
  43 H :    0.149171
  44 H :    0.149461
  45 H :    0.157921
  46 H :    0.123703
  47 H :    0.132143
  48 H :    0.189819
  49 H :    0.179437
  50 H :    0.433103
  51 H :    0.170856
  52 H :    0.183516
  53 H :    0.149299
  54 H :    0.137226
  55 H :    0.135156
  56 H :    0.137285
  57 H :    0.143812
Sum of atomic charges:   -0.0000000

LOEWDIN ATOMIC CHARGES
----------------------
   0 C :   -0.361151
   1 C :    0.011521
   2 C :    0.025362
   3 N :   -0.279247
   4 C :   -0.146010
   5 C :   -0.041454
   6 C :   -0.120213
   7 C :   -0.142285
   8 C :    0.002470
   9 C :   -0.130777
  10 C :   -0.250677
  11 C :   -0.250431
  12 C :   -0.138868
  13 C :   -0.129304
  14 S :    1.262649
  15 O :   -0.581316
  16 O :   -0.568890
  17 C :   -0.175246
  18 C :   -0.096374
  19 C :   -0.085900
  20 C :   -0.040512
  21 C :    0.179972
  22 O :   -0.261802
  23 O :   -0.335495
  24 C :   -0.100718
  25 C :   -0.108850
  26 N :   -0.139916
  27 C :   -0.066179
  28 C :   -0.027422
  29 C :   -0.113703
  30 C :   -0.125445
  31 C :   -0.118299
  32 C :   -0.117809
  33 C :   -0.006041
  34 H :    0.153621
  35 H :    0.141134
  36 H :    0.137870
  37 H :    0.141230
  38 H :    0.132645
  39 H :    0.142693
  40 H :    0.130505
  41 H :    0.132535
  42 H :    0.134829
  43 H :    0.132398
  44 H :    0.132772
  45 H :    0.134361
  46 H :    0.129693
  47 H :    0.133113
  48 H :    0.162235
  49 H :    0.159986
  50 H :    0.349054
  51 H :    0.153767
  52 H :    0.159522
  53 H :    0.135318
  54 H :    0.136181
  55 H :    0.135036
  56 H :    0.136365
  57 H :    0.141500

  Mayer bond orders larger than 0.100000
B(  0-C ,  1-C ) :   1.0100 B(  0-C , 34-H ) :   0.9159 B(  0-C , 35-H ) :   0.9238
B(  0-C , 36-H ) :   0.9237 B(  1-C ,  2-C ) :   1.4343 B(  1-C , 27-C ) :   0.1003
B(  1-C , 33-C ) :   1.2617 B(  2-C ,  3-N ) :   0.8922 B(  2-C , 26-N ) :   1.2753
B(  3-N ,  4-C ) :   0.9162 B(  3-N , 14-S ) :   0.8099 B(  4-C ,  5-C ) :   0.9592
B(  4-C , 37-H ) :   0.9204 B(  4-C , 38-H ) :   0.9199 B(  5-C ,  6-C ) :   1.4236
B(  5-C , 13-C ) :   1.4407 B(  6-C ,  7-C ) :   1.4398 B(  6-C , 39-H ) :   0.9150
B(  7-C ,  8-C ) :   1.3902 B(  7-C , 40-H ) :   0.9188 B(  8-C ,  9-C ) :   1.0373
B(  8-C , 12-C ) :   1.4228 B(  9-C , 10-C ) :   0.9274 B(  9-C , 11-C ) :   0.9295
B(  9-C , 41-H ) :   0.9285 B( 10-C , 11-C ) :   0.9642 B( 10-C , 42-H ) :   0.9386
B( 10-C , 43-H ) :   0.9451 B( 11-C , 44-H ) :   0.9451 B( 11-C , 45-H ) :   0.9383
B( 12-C , 13-C ) :   1.4141 B( 12-C , 46-H ) :   0.9261 B( 13-C , 47-H ) :   0.9216
B( 14-S , 15-O ) :   1.6065 B( 14-S , 16-O ) :   1.6488 B( 14-S , 17-C ) :   0.8109
B( 17-C , 18-C ) :   1.3785 B( 17-C , 25-C ) :   1.4017 B( 18-C , 19-C ) :   1.4325
B( 18-C , 48-H ) :   0.9038 B( 19-C , 20-C ) :   1.3953 B( 19-C , 49-H ) :   0.9102
B( 20-C , 21-C ) :   1.0089 B( 20-C , 24-C ) :   1.3885 B( 21-C , 22-O ) :   1.8623
B( 21-C , 23-O ) :   1.0236 B( 23-O , 50-H ) :   0.7425 B( 24-C , 25-C ) :   1.4086
B( 24-C , 51-H ) :   0.9154 B( 25-C , 52-H ) :   0.9093 B( 26-N , 27-C ) :   1.4925
B( 27-C , 28-C ) :   1.2421 B( 27-C , 53-H ) :   0.9268 B( 28-C , 29-C ) :   1.2832
B( 28-C , 33-C ) :   1.2912 B( 29-C , 30-C ) :   1.5129 B( 29-C , 32-C ) :   0.1062
B( 29-C , 54-H ) :   0.9236 B( 30-C , 31-C ) :   1.3526 B( 30-C , 55-H ) :   0.9294
B( 31-C , 32-C ) :   1.5076 B( 31-C , 56-H ) :   0.9292 B( 32-C , 33-C ) :   1.2964
B( 32-C , 57-H ) :   0.9150

FINAL SINGLE POINT ENERGY     -1850.849210368637

DIPOLE MOMENT
-------------

Method             : SCF
Type of density    : Electron Density
Multiplicity       :   1
Irrep              :   0
Energy             : -1850.8492103686369319 Eh
Relativity type    :
Basis              : AO
                                X                 Y                 Z
Electronic contribution:    -29.265593288     -18.422974936      -1.107250508
Nuclear contribution   :     30.031695084      19.011351041       2.385560330
                        -----------------------------------------
Total Dipole Moment    :      0.766101796       0.588376105       1.278309822
                        -----------------------------------------
Magnitude (a.u.)       :      1.602240433
Magnitude (Debye)      :      4.072571527

Rotational constants in cm-1:             0.005080             0.002286             0.001773
Rotational constants in MHz :           152.297612            68.533362            53.139772

                             ****ORCA TERMINATED NORMALLY****
TOTAL RUN TIME: 0 days 0 hours 10 minutes 50 seconds 552 msec
