                         Program Version 6.0.0  -   RELEASE  -
|  1> ! B3LYP 6-31G* SP
|  2>
|  3> * xyz 0 1
|  4> C 5.1631 -1.2063 -1.1495
|  5> C 4.6501 -1.0107 0.2724
|  6> O 3.2511 -0.7334 0.2691
|  7> C 2.7114 0.5067 -0.0912
|  8> O 3.4663 1.4730 -0.3864
|  9> C 1.2521 0.6767 -0.1158
| 10> S 0.1343 -0.5233 0.2555
| 11> C -1.2030 0.4714 -0.0156
| 12> C -2.6220 0.0712 0.1253
| 13> C -3.6470 1.0004 -0.1316
| 14> C -4.9890 0.6304 -0.0009
| 15> C -5.3239 -0.6697 0.3873
| 16> Cl -7.0083 -1.1315 0.5506
| 17> C -4.3144 -1.6012 0.6451
| 18> C -2.9710 -1.2355 0.5157
| 19> N -0.8115 1.7129 -0.3876
| 20> C 0.5427 1.8297 -0.4441
| 21> O 1.1586 3.0234 -0.8062
| 22> H 4.5985 -2.0233 -1.6467
| 23> H 5.0442 -0.2719 -1.7365
| 24> H 6.2398 -1.4765 -1.1239
| 25> H 5.2070 -0.1901 0.7749
| 26> H 4.8234 -1.9457 0.8456
| 27> H -3.4127 2.0135 -0.4337
| 28> H -5.7673 1.3556 -0.2018
| 29> H -4.5691 -2.6095 0.9461
| 30> H -2.2106 -1.9772 0.7217
| 31> H 0.6072 3.8406 -1.0382
| 32> *
| 33>
| 34>                          ****END OF INPUT****

CARTESIAN COORDINATES (ANGSTROEM)
---------------------------------
  C      5.163100   -1.206300   -1.149500
  C      4.650100   -1.010700    0.272400
  O      3.251100   -0.733400    0.269100
  C      2.711400    0.506700   -0.091200
  O      3.466300    1.473000   -0.386400
  C      1.252100    0.676700   -0.115800
  S      0.134300   -0.523300    0.255500
  C     -1.203000    0.471400   -0.015600
  C     -2.622000    0.071200    0.125300
  C     -3.647000    1.000400   -0.131600
  C     -4.989000    0.630400   -0.000900
  C     -5.323900   -0.669700    0.387300
  Cl    -7.008300   -1.131500    0.550600
  C     -4.314400   -1.601200    0.645100
  C     -2.971000   -1.235500    0.515700
  N     -0.811500    1.712900   -0.387600
  C      0.542700    1.829700   -0.444100
  O      1.158600    3.023400   -0.806200
  H      4.598500   -2.023300   -1.646700
  H      5.044200   -0.271900   -1.736500
  H      6.239800   -1.476500   -1.123900
  H      5.207000   -0.190100    0.774900
  H      4.823400   -1.945700    0.845600
  H     -3.412700    2.013500   -0.433700
  H     -5.767300    1.355600   -0.201800
  H     -4.569100   -2.609500    0.946100
  H     -2.210600   -1.977200    0.721700
  H      0.607200    3.840600   -1.038200

 Total Charge           Charge          ....    0
 Multiplicity           Mult            ....    1
 Number of Electrons    NEL             ....  146
 Basis Dimension        Dim             ....  280

ORBITAL ENERGIES
----------------

  NO   OCC          E(Eh)            E(eV)
   0   2.0000    -101.537756     -2762.9828
   1   2.0000     -88.911849     -2419.4144
   2   2.0000     -19.180913      -521.9392
   3   2.0000     -19.177152      -521.8368
   4   2.0000     -19.119425      -520.2660
   5   2.0000     -14.345064      -390.3490
   6   2.0000     -10.321574      -280.8643
   7   2.0000     -10.298517      -280.2369
   8   2.0000     -10.271537      -279.5027
   9   2.0000     -10.260332      -279.1978
  10   2.0000     -10.237154      -278.5671
  11   2.0000     -10.228396      -278.3288
  12   2.0000     -10.225578      -278.2521
  13   2.0000     -10.213126      -277.9133
  14   2.0000     -10.210500      -277.8418
  15   2.0000     -10.208855      -277.7971
  16   2.0000     -10.208298      -277.7819
  17   2.0000     -10.170006      -276.7399
  18   2.0000      -9.469614      -257.6813
  19   2.0000      -7.988869      -217.3882
  20   2.0000      -7.232653      -196.8105
  21   2.0000      -7.223260      -196.5549
  22   2.0000      -7.222849      -196.5437
  23   2.0000      -5.951820      -161.9573
  24   2.0000      -5.947764      -161.8469
  25   2.0000      -5.945966      -161.7980
  26   2.0000      -1.072140       -29.1744
  27   2.0000      -1.050520       -28.5861
  28   2.0000      -0.983702       -26.7679
  29   2.0000      -0.971857       -26.4456
  30   2.0000      -0.900485       -24.5034
  31   2.0000      -0.852837       -23.2069
  32   2.0000      -0.828476       -22.5440
  33   2.0000      -0.783818       -21.3288
  34   2.0000      -0.769809       -20.9476
  35   2.0000      -0.759578       -20.6692
  36   2.0000      -0.730359       -19.8741
  37   2.0000      -0.667171       -18.1546
  38   2.0000      -0.639548       -17.4030
  39   2.0000      -0.635406       -17.2903
  40   2.0000      -0.607750       -16.5377
  41   2.0000      -0.589059       -16.0291
  42   2.0000      -0.558478       -15.1970
  43   2.0000      -0.529354       -14.4044
  44   2.0000      -0.523668       -14.2497
  45   2.0000      -0.505743       -13.7620
  46   2.0000      -0.484677       -13.1887
  47   2.0000      -0.470036       -12.7903
  48   2.0000      -0.466937       -12.7060
  49   2.0000      -0.457252       -12.4425
  50   2.0000      -0.449377       -12.2282
  51   2.0000      -0.443544       -12.0694
  52   2.0000      -0.438929       -11.9439
  53   2.0000      -0.424159       -11.5420
  54   2.0000      -0.406798       -11.0695
  55   2.0000      -0.397658       -10.8208
  56   2.0000      -0.387837       -10.5536
  57   2.0000      -0.383477       -10.4349
  58   2.0000      -0.375255       -10.2112
  59   2.0000      -0.373007       -10.1500
  60   2.0000      -0.368921       -10.0389
  61   2.0000      -0.361882        -9.8473
  62   2.0000      -0.361032        -9.8242
  63   2.0000      -0.338513        -9.2114
  64   2.0000      -0.326975        -8.8974
  65   2.0000      -0.320683        -8.7262
  66   2.0000      -0.294110        -8.0031
  67   2.0000      -0.288645        -7.8544
  68   2.0000      -0.282465        -7.6863
  69   2.0000      -0.273887        -7.4528
  70   2.0000      -0.266090        -7.2407
  71   2.0000      -0.255943        -6.9646
  72   2.0000      -0.224173        -6.1000
  73   0.0000      -0.077486        -2.1085
  74   0.0000      -0.024831        -0.6757
  75   0.0000      -0.013531        -0.3682
  76   0.0000       0.014089         0.3834
  77   0.0000       0.026258         0.7145

MULLIKEN ATOMIC CHARGES
-----------------------
   0 C :   -0.459961
   1 C :   -0.017322
   2 O :   -0.487801
   3 C :    0.588514
   4 O :   -0.452131
   5 C :   -0.266970
   6 S :    0.302020
   7 C :   -0.016588
   8 C :    0.134881
   9 C :   -0.141023
  10 C :   -0.132887
  11 C :   -0.057963
  12 Cl:   -0.005686
  13 C :   -0.138112
  14 C :   -0.176447
  15 N :   -0.427672
  16 C :    0.513620
  17 O :   -0.615729
  18 H :    0.149980
  19 H :    0.180785
  20 H :    0.142171
  21 H :    0.158053
  22 H :    0.150452
  23 H :    0.169668
  24 H :    0.160122
  25 H :    0.160074
  26 H :    0.160369
  27 H :    0.425585
Sum of atomic charges:   -0.0000000

LOEWDIN ATOMIC CHARGES
----------------------
   0 C :   -0.375095
   1 C :   -0.090359
   2 O :   -0.182116
   3 C :    0.180106
   4 O :   -0.258464
   5 C :   -0.272146
   6 S :    0.424223
   7 C :   -0.107621
   8 C :   -0.030989
   9 C :   -0.096780
  10 C :   -0.128893
  11 C :   -0.079775
  12 Cl:    0.045985
  13 C :   -0.129359
  14 C :   -0.113576
  15 N :   -0.185794
  16 C :    0.116419
  17 O :   -0.310141
  18 H :    0.127089
  19 H :    0.141390
  20 H :    0.129020
  21 H :    0.126330
  22 H :    0.127073
  23 H :    0.154476
  24 H :    0.148645
  25 H :    0.148559
  26 H :    0.146634
  27 H :    0.345157

  Mayer bond orders larger than 0.100000
B(  0-C ,  1-C ) :   1.0119 B(  0-C , 18-H ) :   0.9484 B(  0-C , 19-H ) :   0.9393
B(  0-C , 20-H ) :   0.9425 B(  1-C ,  2-O ) :   0.8653 B(  1-C , 21-H ) :   0.9248
B(  1-C , 22-H ) :   0.9402 B(  2-O ,  3-C ) :   0.9895 B(  3-C ,  4-O ) :   1.8162
B(  3-C ,  5-C ) :   1.0303 B(  5-C ,  6-S ) :   1.0679 B(  5-C ,  7-C ) :   0.1150
B(  5-C , 16-C ) :   1.4055 B(  6-S ,  7-C ) :   1.1730 B(  7-C ,  8-C ) :   1.0239
B(  7-C , 15-N ) :   1.4285 B(  8-C ,  9-C ) :   1.4012 B(  8-C , 14-C ) :   1.3868
B(  9-C , 10-C ) :   1.4366 B(  9-C , 23-H ) :   0.9097 B( 10-C , 11-C ) :   1.4042
B( 10-C , 24-H ) :   0.9223 B( 11-C , 12-Cl) :   1.0241 B( 11-C , 13-C ) :   1.4070
B( 13-C , 14-C ) :   1.4499 B( 13-C , 25-H ) :   0.9217 B( 14-C , 26-H ) :   0.9140
B( 15-N , 16-C ) :   1.2969 B( 16-C , 17-O ) :   1.0249 B( 17-O , 27-H ) :   0.7538

FINAL SINGLE POINT ENERGY     -1601.527847146774

DIPOLE MOMENT
-------------

Method             : SCF
Type of density    : Electron Density
Multiplicity       :   1
Irrep              :   0
Energy             : -1601.5278471467736381 Eh
Relativity type    :
Basis              : AO
                                X                 Y                 Z
Electronic contribution:    -26.879976858       1.557242320       3.665624179
Nuclear contribution   :     26.467754702      -1.980944424      -3.605346311
                        -----------------------------------------
Total Dipole Moment    :     -0.412222156      -0.423702104       0.060277867
                        -----------------------------------------
Magnitude (a.u.)       :      0.594208718
Magnitude (Debye)      :      1.510358530

Rotational constants in cm-1:             0.034266             0.004084             0.003692
Rotational constants in MHz :          1027.254326           122.421651           110.690047

                             ****ORCA TERMINATED NORMALLY****
TOTAL RUN TIME: 0 days 0 hours 2 minutes 1 seconds 992 msec
