                         Program Version 6.0.0  -   RELEASE  -
|  1> ! B3LYP 6-31G* SP
|  2>
|  3> * xyz 0 1
|  4> N 1.3433 3.5793 2.7128
|  5> C 0.4301 2.4784 2.6060
|  6> O 0.0209 1.9219 3.6605
|  7> C -0.1555 2.0529 1.2706
|  8> C 0.6552 2.4916 0.0601
|  9> C -0.0036 3.0807 -1.0331
| 10> C 0.7028 3.4340 -2.1817
| 11> C 2.0880 3.2113 -2.2498
| 12> C 2.7457 2.6077 -1.1834
| 13> C 2.0380 2.2440 -0.0340
| 14> N -0.3794 0.5918 1.2234
| 15> C 0.7357 -0.3183 1.3872
| 16> O 1.3654 -0.3360 2.4734
| 17> C 1.1376 -1.2534 0.3097
| 18> C 1.6616 -2.5174 0.6464
| 19> C 2.0428 -3.4167 -0.3518
| 20> C 1.9437 -3.0491 -1.7014
| 21> C 1.4408 -1.7943 -2.0443
| 22> C 1.0364 -0.8999 -1.0444
| 23> C -1.7627 0.0651 1.1989
| 24> C -2.0252 -0.9502 2.3396
| 25> C -2.0387 -2.3478 1.6922
| 26> C -2.1552 -2.0669 0.2423
| 27> C -2.3702 -2.9951 -0.7807
| 28> F -2.4958 -4.3158 -0.5069
| 29> C -2.4662 -2.5315 -2.1005
| 30> C -2.3425 -1.1586 -2.3740
| 31> C -2.1218 -0.2437 -1.3327
| 32> C -2.0153 -0.7286 -0.0295
| 33> H 1.5686 4.1865 1.8974
| 34> H 1.7829 3.7994 3.6328
| 35> H -1.1360 2.5820 1.2227
| 36> H -1.0850 3.2522 -1.0056
| 37> H 0.1910 3.8834 -3.0171
| 38> H 2.6448 3.4916 -3.1392
| 39> H 3.8027 2.4113 -1.2543
| 40> H 2.5677 1.7688 0.7801
| 41> H 1.7707 -2.8227 1.6924
| 42> H 2.4201 -4.3954 -0.0857
| 43> H 2.2501 -3.7436 -2.4701
| 44> H 1.3728 -1.5113 -3.0882
| 45> H 0.6552 0.0693 -1.3385
| 46> H -2.5131 0.8819 1.2577
| 47> H -1.2728 -0.8871 3.1537
| 48> H -3.0225 -0.7468 2.7839
| 49> H -1.0885 -2.8792 1.8935
| 50> H -2.8963 -2.9497 2.0459
| 51> H -2.6370 -3.2330 -2.9094
| 52> H -2.4130 -0.8061 -3.3905
| 53> H -2.0182 0.8130 -1.5363
| 54> *
| 55>
| 56>                          ****END OF INPUT****

CARTESIAN COORDINATES (ANGSTROEM)
---------------------------------
  N      1.343300    3.579300    2.712800
  C      0.430100    2.478400    2.606000
  O      0.020900    1.921900    3.660500
  C     -0.155500    2.052900    1.270600
  C      0.655200    2.491600    0.060100
  C     -0.003600    3.080700   -1.033100
  C      0.702800    3.434000   -2.181700
  C      2.088000    3.211300   -2.249800
  C      2.745700    2.607700   -1.183400
  C      2.038000    2.244000   -0.034000
  N     -0.379400    0.591800    1.223400
  C      0.735700   -0.318300    1.387200
  O      1.365400   -0.336000    2.473400
  C      1.137600   -1.253400    0.309700
  C      1.661600   -2.517400    0.646400
  C      2.042800   -3.416700   -0.351800
  C      1.943700   -3.049100   -1.701400
  C      1.440800   -1.794300   -2.044300
  C      1.036400   -0.899900   -1.044400
  C     -1.762700    0.065100    1.198900
  C     -2.025200   -0.950200    2.339600
  C     -2.038700   -2.347800    1.692200
  C     -2.155200   -2.066900    0.242300
  C     -2.370200   -2.995100   -0.780700
  F     -2.495800   -4.315800   -0.506900
  C     -2.466200   -2.531500   -2.100500
  C     -2.342500   -1.158600   -2.374000
  C     -2.121800   -0.243700   -1.332700
  C     -2.015300   -0.728600   -0.029500
  H      1.568600    4.186500    1.897400
  H      1.782900    3.799400    3.632800
  H     -1.136000    2.582000    1.222700
  H     -1.085000    3.252200   -1.005600
  H      0.191000    3.883400   -3.017100
  H      2.644800    3.491600   -3.139200
  H      3.802700    2.411300   -1.254300
  H      2.567700    1.768800    0.780100
  H      1.770700   -2.822700    1.692400
  H      2.420100   -4.395400   -0.085700
  H      2.250100   -3.743600   -2.470100
  H      1.372800   -1.511300   -3.088200
  H      0.655200    0.069300   -1.338500
  H     -2.513100    0.881900    1.257700
  H     -1.272800   -0.887100    3.153700
  H     -3.022500   -0.746800    2.783900
  H     -1.088500   -2.879200    1.893500
  H     -2.896300   -2.949700    2.045900
  H     -2.637000   -3.233000   -2.909400
  H     -2.413000   -0.806100   -3.390500
  H     -2.018200    0.813000   -1.536300

 Total Charge           Charge          ....    0
 Multiplicity           Mult            ....    1
 Number of Electrons    NEL             ....  204
 Basis Dimension        Dim             ....  448

ORBITAL ENERGIES
----------------

  NO   OCC          E(Eh)            E(eV)
   0   2.0000     -24.693641      -671.9481
   1   2.0000     -19.121563      -520.3242
   2   2.0000     -19.094559      -519.5894
   3   2.0000     -14.343549      -390.3078
   4   2.0000     -14.330676      -389.9575
   5   2.0000     -10.288351      -279.9603
   6   2.0000     -10.279661      -279.7238
   7   2.0000     -10.259634      -279.1788
   8   2.0000     -10.238778      -278.6113
   9   2.0000     -10.219397      -278.0839
  10   2.0000     -10.200765      -277.5769
  11   2.0000     -10.194645      -277.4104
  12   2.0000     -10.192689      -277.3572
  13   2.0000     -10.192443      -277.3505
  14   2.0000     -10.191190      -277.3164
  15   2.0000     -10.190176      -277.2888
  16   2.0000     -10.189618      -277.2736
  17   2.0000     -10.186649      -277.1928
  18   2.0000     -10.186491      -277.1885
  19   2.0000     -10.185089      -277.1504
  20   2.0000     -10.185025      -277.1486
  21   2.0000     -10.183632      -277.1107
  22   2.0000     -10.182809      -277.0883
  23   2.0000     -10.182612      -277.0829
  24   2.0000     -10.178668      -276.9756
  25   2.0000     -10.177593      -276.9464
  26   2.0000     -10.175669      -276.8940
  27   2.0000     -10.171874      -276.7908
  28   2.0000     -10.165805      -276.6256
  29   2.0000      -1.206612       -32.8336
  30   2.0000      -1.018171       -27.7058
  31   2.0000      -0.992941       -27.0193
  32   2.0000      -0.917217       -24.9587
  33   2.0000      -0.872484       -23.7415
  34   2.0000      -0.864151       -23.5147
  35   2.0000      -0.854981       -23.2652
  36   2.0000      -0.851065       -23.1587
  37   2.0000      -0.806645       -21.9499
  38   2.0000      -0.775011       -21.0891
  39   2.0000      -0.757020       -20.5996
  40   2.0000      -0.752588       -20.4789
  41   2.0000      -0.746891       -20.3239
  42   2.0000      -0.742092       -20.1934
  43   2.0000      -0.714557       -19.4441
  44   2.0000      -0.704325       -19.1657
  45   2.0000      -0.684595       -18.6288
  46   2.0000      -0.630567       -17.1586
  47   2.0000      -0.616201       -16.7677
  48   2.0000      -0.608647       -16.5621
  49   2.0000      -0.603907       -16.4331
  50   2.0000      -0.600207       -16.3325
  51   2.0000      -0.587989       -16.0000
  52   2.0000      -0.579225       -15.7615
  53   2.0000      -0.570218       -15.5164
  54   2.0000      -0.543223       -14.7818
  55   2.0000      -0.529670       -14.4131
  56   2.0000      -0.522179       -14.2092
  57   2.0000      -0.516583       -14.0569
  58   2.0000      -0.499923       -13.6036
  59   2.0000      -0.493776       -13.4363
  60   2.0000      -0.482425       -13.1275
  61   2.0000      -0.474941       -12.9238
  62   2.0000      -0.474148       -12.9022
  63   2.0000      -0.468864       -12.7584
  64   2.0000      -0.463220       -12.6049
  65   2.0000      -0.451893       -12.2966
  66   2.0000      -0.449042       -12.2190
  67   2.0000      -0.441767       -12.0211
  68   2.0000      -0.435249       -11.8437
  69   2.0000      -0.431679       -11.7466
  70   2.0000      -0.430008       -11.7011
  71   2.0000      -0.426793       -11.6136
  72   2.0000      -0.424567       -11.5531
  73   2.0000      -0.418442       -11.3864
  74   2.0000      -0.410595       -11.1729
  75   2.0000      -0.403519       -10.9803
  76   2.0000      -0.385522       -10.4906
  77   2.0000      -0.384373       -10.4593
  78   2.0000      -0.377313       -10.2672
  79   2.0000      -0.371916       -10.1204
  80   2.0000      -0.365154        -9.9363
  81   2.0000      -0.358715        -9.7611
  82   2.0000      -0.356801        -9.7091
  83   2.0000      -0.353945        -9.6313
  84   2.0000      -0.350416        -9.5353
  85   2.0000      -0.345143        -9.3918
  86   2.0000      -0.343545        -9.3483
  87   2.0000      -0.342639        -9.3237
  88   2.0000      -0.338130        -9.2010
  89   2.0000      -0.335357        -9.1255
  90   2.0000      -0.330427        -8.9914
  91   2.0000      -0.326432        -8.8827
  92   2.0000      -0.265580        -7.2268
  93   2.0000      -0.262755        -7.1499
  94   2.0000      -0.259031        -7.0486
  95   2.0000      -0.250973        -6.8293
  96   2.0000      -0.247704        -6.7404
  97   2.0000      -0.239261        -6.5106
  98   2.0000      -0.234295        -6.3755
  99   2.0000      -0.230961        -6.2848
 100   2.0000      -0.226852        -6.1729
 101   2.0000      -0.206996        -5.6326
 102   0.0000      -0.052177        -1.4198
 103   0.0000      -0.014699        -0.4000
 104   0.0000      -0.012777        -0.3477
 105   0.0000      -0.001491        -0.0406
 106   0.0000       0.000633         0.0172

MULLIKEN ATOMIC CHARGES
-----------------------
   0 N :   -0.774284
   1 C :    0.585307
   2 O :   -0.467617
   3 C :   -0.161091
   4 C :    0.139374
   5 C :   -0.188698
   6 C :   -0.129548
   7 C :   -0.127069
   8 C :   -0.127331
   9 C :   -0.186693
  10 N :   -0.414285
  11 C :    0.425911
  12 O :   -0.417295
  13 C :    0.096312
  14 C :   -0.152340
  15 C :   -0.133353
  16 C :   -0.114945
  17 C :   -0.132724
  18 C :   -0.141414
  19 C :   -0.077792
  20 C :   -0.305787
  21 C :   -0.349948
  22 C :    0.039727
  23 C :    0.353990
  24 F :   -0.313922
  25 C :   -0.207503
  26 C :   -0.121860
  27 C :   -0.191900
  28 C :    0.152962
  29 H :    0.331961
  30 H :    0.348134
  31 H :    0.173890
  32 H :    0.128539
  33 H :    0.132292
  34 H :    0.132173
  35 H :    0.137940
  36 H :    0.164687
  37 H :    0.154292
  38 H :    0.134277
  39 H :    0.131897
  40 H :    0.129541
  41 H :    0.156661
  42 H :    0.151714
  43 H :    0.193329
  44 H :    0.141661
  45 H :    0.161740
  46 H :    0.155108
  47 H :    0.136244
  48 H :    0.128027
  49 H :    0.119708
Sum of atomic charges:   -0.0000000

LOEWDIN ATOMIC CHARGES
----------------------
   0 N :   -0.408005
   1 C :    0.132829
   2 O :   -0.276195
   3 C :   -0.061495
   4 C :   -0.035923
   5 C :   -0.139183
   6 C :   -0.130236
   7 C :   -0.129803
   8 C :   -0.126449
   9 C :   -0.134956
  10 N :   -0.122516
  11 C :    0.154722
  12 O :   -0.215292
  13 C :   -0.056231
  14 C :   -0.099836
  15 C :   -0.133071
  16 C :   -0.113753
  17 C :   -0.130625
  18 C :   -0.097410
  19 C :   -0.041986
  20 C :   -0.233315
  21 C :   -0.227904
  22 C :   -0.046083
  23 C :    0.114195
  24 F :   -0.103148
  25 C :   -0.158324
  26 C :   -0.127024
  27 C :   -0.140055
  28 C :   -0.027395
  29 H :    0.250560
  30 H :    0.263319
  31 H :    0.151144
  32 H :    0.128380
  33 H :    0.133559
  34 H :    0.132954
  35 H :    0.136214
  36 H :    0.146941
  37 H :    0.144788
  38 H :    0.134354
  39 H :    0.133034
  40 H :    0.132341
  41 H :    0.147272
  42 H :    0.134156
  43 H :    0.149703
  44 H :    0.126834
  45 H :    0.135108
  46 H :    0.134340
  47 H :    0.139413
  48 H :    0.131946
  49 H :    0.128108

  Mayer bond orders larger than 0.100000
B(  0-N ,  1-C ) :   1.0654 B(  0-N , 29-H ) :   0.8198 B(  0-N , 30-H ) :   0.8246
B(  1-C ,  2-O ) :   1.8443 B(  1-C ,  3-C ) :   0.8922 B(  3-C ,  4-C ) :   0.9333
B(  3-C , 10-N ) :   0.9943 B(  3-C , 31-H ) :   0.9101 B(  4-C ,  5-C ) :   1.4102
B(  4-C ,  9-C ) :   1.4162 B(  5-C ,  6-C ) :   1.4464 B(  5-C , 32-H ) :   0.9221
B(  6-C ,  7-C ) :   1.4441 B(  6-C , 33-H ) :   0.9291 B(  7-C ,  8-C ) :   1.4590
B(  7-C , 34-H ) :   0.9297 B(  8-C ,  9-C ) :   1.4305 B(  8-C , 35-H ) :   0.9285
B(  9-C , 36-H ) :   0.9108 B( 10-N , 11-C ) :   0.9509 B( 10-N , 19-C ) :   0.9415
B( 11-C , 12-O ) :   1.8504 B( 11-C , 13-C ) :   0.9834 B( 13-C , 14-C ) :   1.3773
B( 13-C , 18-C ) :   1.3983 B( 14-C , 15-C ) :   1.4482 B( 14-C , 37-H ) :   0.9168
B( 15-C , 16-C ) :   1.4305 B( 15-C , 38-H ) :   0.9296 B( 16-C , 17-C ) :   1.4558
B( 16-C , 39-H ) :   0.9301 B( 17-C , 18-C ) :   1.4278 B( 17-C , 40-H ) :   0.9302
B( 18-C , 41-H ) :   0.9061 B( 19-C , 20-C ) :   0.9756 B( 19-C , 28-C ) :   0.9444
B( 19-C , 42-H ) :   0.9272 B( 20-C , 21-C ) :   0.9819 B( 20-C , 43-H ) :   0.9250
B( 20-C , 44-H ) :   0.9435 B( 21-C , 22-C ) :   0.9765 B( 21-C , 45-H ) :   0.9228
B( 21-C , 46-H ) :   0.9345 B( 22-C , 23-C ) :   1.3139 B( 22-C , 28-C ) :   1.4690
B( 23-C , 24-F ) :   0.9430 B( 23-C , 25-C ) :   1.3930 B( 25-C , 26-C ) :   1.4108
B( 25-C , 47-H ) :   0.9213 B( 26-C , 27-C ) :   1.4429 B( 26-C , 48-H ) :   0.9316
B( 27-C , 28-C ) :   1.4046 B( 27-C , 49-H ) :   0.9186

FINAL SINGLE POINT ENERGY     -1286.176809101729

DIPOLE MOMENT
-------------

Method             : SCF
Type of density    : Electron Density
Multiplicity       :   1
Irrep              :   0
Energy             : -1286.1768091017293045 Eh
Relativity type    :
Basis              : AO
                                X                 Y                 Z
Electronic contribution:     -3.986629491      -8.371269176       3.124412258
Nuclear contribution   :      4.210951401       9.451693108      -5.041200317
                        -----------------------------------------
Total Dipole Moment    :      0.224321910       1.080423932      -1.916788059
                        -----------------------------------------
Magnitude (a.u.)       :      2.211721650
Magnitude (Debye)      :      5.621749665

Rotational constants in cm-1:             0.008471             0.004993             0.004485
Rotational constants in MHz :           253.945260           149.675165           134.457014

                             ****ORCA TERMINATED NORMALLY****
TOTAL RUN TIME: 0 days 0 hours 6 minutes 0 seconds 971 msec
