                         Program Version 6.0.0  -   RELEASE  -
|  1> ! B3LYP 6-31G* SP
|  2>
|  3> * xyz 0 1
|  4> O 4.8038 -2.2803 2.2560
|  5> C 3.9066 -2.7696 1.5153
|  6> O 3.7315 -4.1539 1.4776
|  7> C 3.0500 -1.8862 0.6910
|  8> C 2.0018 -2.4298 -0.0779
|  9> C 1.1900 -1.5987 -0.8591
| 10> C 1.4135 -0.2137 -0.8808
| 11> S 0.3706 0.8547 -1.8144
| 12> O 1.2212 1.7667 -2.6588
| 13> O -0.5124 0.0553 -2.7361
| 14> N -0.6026 1.7861 -0.7075
| 15> C -2.0215 1.4623 -0.5090
| 16> C -2.2473 -0.0171 -0.2954
| 17> C -3.1523 -0.7160 -1.1113
| 18> C -3.3549 -2.0847 -0.9299
| 19> C -2.6521 -2.7830 0.0682
| 20> C -2.9379 -4.2432 0.3164
| 21> F -3.2654 -4.8861 -0.8639
| 22> F -1.8325 -4.8715 0.8573
| 23> F -3.9982 -4.3563 1.1988
| 24> C -1.7885 -2.0724 0.9189
| 25> C -1.5844 -0.7012 0.7370
| 26> C -0.1517 3.1047 -0.3633
| 27> N 0.0040 4.0365 -1.3475
| 28> C 0.4309 5.3006 -1.0853
| 29> C 0.7204 5.6815 0.2267
| 30> Cl 1.2740 7.3092 0.5736
| 31> C 0.5704 4.7493 1.2572
| 32> C 0.1327 3.4525 0.9703
| 33> Cl -0.0166 2.2946 2.2837
| 34> C 2.4520 0.3341 -0.1150
| 35> C 3.2680 -0.4943 0.6635
| 36> H 4.3138 -4.7653 2.0373
| 37> H 1.8021 -3.4968 -0.0706
| 38> H 0.3790 -2.0375 -1.4310
| 39> H -2.4193 2.0075 0.3767
| 40> H -2.5887 1.8215 -1.3968
| 41> H -3.7033 -0.2019 -1.8911
| 42> H -4.0801 -2.5936 -1.5579
| 43> H -1.2674 -2.5750 1.7248
| 44> H -0.8912 -0.1849 1.3875
| 45> H 0.5412 6.0057 -1.8991
| 46> H 0.7991 5.0307 2.2787
| 47> H 2.6258 1.4034 -0.1156
| 48> H 4.0662 -0.0441 1.2440
| 49> *
| 50>
| 51>                          ****END OF INPUT****

CARTESIAN COORDINATES (ANGSTROEM)
---------------------------------
  O      4.803800   -2.280300    2.256000
  C      3.906600   -2.769600    1.515300
  O      3.731500   -4.153900    1.477600
  C      3.050000   -1.886200    0.691000
  C      2.001800   -2.429800   -0.077900
  C      1.190000   -1.598700   -0.859100
  C      1.413500   -0.213700   -0.880800
  S      0.370600    0.854700   -1.814400
  O      1.221200    1.766700   -2.658800
  O     -0.512400    0.055300   -2.736100
  N     -0.602600    1.786100   -0.707500
  C     -2.021500    1.462300   -0.509000
  C     -2.247300   -0.017100   -0.295400
  C     -3.152300   -0.716000   -1.111300
  C     -3.354900   -2.084700   -0.929900
  C     -2.652100   -2.783000    0.068200
  C     -2.937900   -4.243200    0.316400
  F     -3.265400   -4.886100   -0.863900
  F     -1.832500   -4.871500    0.857300
  F     -3.998200   -4.356300    1.198800
  C     -1.788500   -2.072400    0.918900
  C     -1.584400   -0.701200    0.737000
  C     -0.151700    3.104700   -0.363300
  N      0.004000    4.036500   -1.347500
  C      0.430900    5.300600   -1.085300
  C      0.720400    5.681500    0.226700
  Cl     1.274000    7.309200    0.573600
  C      0.570400    4.749300    1.257200
  C      0.132700    3.452500    0.970300
  Cl    -0.016600    2.294600    2.283700
  C      2.452000    0.334100   -0.115000
  C      3.268000   -0.494300    0.663500
  H      4.313800   -4.765300    2.037300
  H      1.802100   -3.496800   -0.070600
  H      0.379000   -2.037500   -1.431000
  H     -2.419300    2.007500    0.376700
  H     -2.588700    1.821500   -1.396800
  H     -3.703300   -0.201900   -1.891100
  H     -4.080100   -2.593600   -1.557900
  H     -1.267400   -2.575000    1.724800
  H     -0.891200   -0.184900    1.387500
  H      0.541200    6.005700   -1.899100
  H      0.799100    5.030700    2.278700
  H      2.625800    1.403400   -0.115600
  H      4.066200   -0.044100    1.244000

 Total Charge           Charge          ....    0
 Multiplicity           Mult            ....    1
 Number of Electrons    NEL             ....  256
 Basis Dimension        Dim             ....  486

ORBITAL ENERGIES
----------------

  NO   OCC          E(Eh)            E(eV)
   0   2.0000    -101.562733     -2763.6625
   1   2.0000    -101.555422     -2763.4635
   2   2.0000     -89.106532     -2424.7120
   3   2.0000     -24.721869      -672.7163
   4   2.0000     -24.719930      -672.6635
   5   2.0000     -24.715940      -672.5549
   6   2.0000     -19.197947      -522.4027
   7   2.0000     -19.140861      -520.8493
   8   2.0000     -19.134246      -520.6693
   9   2.0000     -19.131691      -520.5998
  10   2.0000     -14.389202      -391.5501
  11   2.0000     -14.367505      -390.9597
  12   2.0000     -10.435424      -283.9623
  13   2.0000     -10.338207      -281.3169
  14   2.0000     -10.299120      -280.2533
  15   2.0000     -10.288814      -279.9729
  16   2.0000     -10.282379      -279.7978
  17   2.0000     -10.256313      -279.0885
  18   2.0000     -10.248678      -278.8807
  19   2.0000     -10.247263      -278.8422
  20   2.0000     -10.244286      -278.7612
  21   2.0000     -10.235842      -278.5314
  22   2.0000     -10.225896      -278.2608
  23   2.0000     -10.222760      -278.1754
  24   2.0000     -10.221607      -278.1441
  25   2.0000     -10.220154      -278.1045
  26   2.0000     -10.215815      -277.9865
  27   2.0000     -10.213675      -277.9282
  28   2.0000     -10.205871      -277.7159
  29   2.0000     -10.204462      -277.6775
  30   2.0000     -10.200247      -277.5628
  31   2.0000     -10.200227      -277.5623
  32   2.0000      -9.493923      -258.3428
  33   2.0000      -9.487172      -258.1591
  34   2.0000      -8.142272      -221.5625
  35   2.0000      -7.257169      -197.4776
  36   2.0000      -7.250389      -197.2931
  37   2.0000      -7.247581      -197.2167
  38   2.0000      -7.247056      -197.2024
  39   2.0000      -7.240710      -197.0297
  40   2.0000      -7.240329      -197.0194
  41   2.0000      -6.107631      -166.1971
  42   2.0000      -6.105201      -166.1310
  43   2.0000      -6.104639      -166.1157
  44   2.0000      -1.280625       -34.8476
  45   2.0000      -1.206786       -32.8383
  46   2.0000      -1.203732       -32.7552
  47   2.0000      -1.090228       -29.6666
  48   2.0000      -1.081665       -29.4336
  49   2.0000      -0.996852       -27.1257
  50   2.0000      -0.991574       -26.9821
  51   2.0000      -0.967821       -26.3357
  52   2.0000      -0.939252       -25.5583
  53   2.0000      -0.901934       -24.5429
  54   2.0000      -0.894603       -24.3434
  55   2.0000      -0.892179       -24.2774
  56   2.0000      -0.874672       -23.8010
  57   2.0000      -0.811829       -22.0910
  58   2.0000      -0.805115       -21.9083
  59   2.0000      -0.803231       -21.8570
  60   2.0000      -0.779073       -21.1997
  61   2.0000      -0.768099       -20.9010
  62   2.0000      -0.762625       -20.7521
  63   2.0000      -0.737397       -20.0656
  64   2.0000      -0.710172       -19.3248
  65   2.0000      -0.677290       -18.4300
  66   2.0000      -0.675721       -18.3873
  67   2.0000      -0.653880       -17.7930
  68   2.0000      -0.642068       -17.4716
  69   2.0000      -0.629483       -17.1291
  70   2.0000      -0.626245       -17.0410
  71   2.0000      -0.612174       -16.6581
  72   2.0000      -0.597229       -16.2514
  73   2.0000      -0.571064       -15.5394
  74   2.0000      -0.570275       -15.5180
  75   2.0000      -0.568641       -15.4735
  76   2.0000      -0.562618       -15.3096
  77   2.0000      -0.547833       -14.9073
  78   2.0000      -0.545893       -14.8545
  79   2.0000      -0.525628       -14.3031
  80   2.0000      -0.504890       -13.7388
  81   2.0000      -0.498532       -13.5658
  82   2.0000      -0.490927       -13.3588
  83   2.0000      -0.486054       -13.2262
  84   2.0000      -0.483433       -13.1549
  85   2.0000      -0.474525       -12.9125
  86   2.0000      -0.471945       -12.8423
  87   2.0000      -0.464054       -12.6276
  88   2.0000      -0.461005       -12.5446
  89   2.0000      -0.451467       -12.2850
  90   2.0000      -0.449425       -12.2295
  91   2.0000      -0.448458       -12.2031
  92   2.0000      -0.447989       -12.1904
  93   2.0000      -0.445486       -12.1223
  94   2.0000      -0.443251       -12.0615
  95   2.0000      -0.441022       -12.0008
  96   2.0000      -0.436285       -11.8719
  97   2.0000      -0.431748       -11.7485
  98   2.0000      -0.424148       -11.5417
  99   2.0000      -0.421377       -11.4662
 100   2.0000      -0.417501       -11.3608
 101   2.0000      -0.409430       -11.1412
 102   2.0000      -0.400494       -10.8980
 103   2.0000      -0.398921       -10.8552
 104   2.0000      -0.396134       -10.7793
 105   2.0000      -0.389304       -10.5935
 106   2.0000      -0.386762       -10.5243
 107   2.0000      -0.374390       -10.1877
 108   2.0000      -0.370234       -10.0746
 109   2.0000      -0.365036        -9.9331
 110   2.0000      -0.364271        -9.9123
 111   2.0000      -0.358974        -9.7682
 112   2.0000      -0.349354        -9.5064
 113   2.0000      -0.339825        -9.2471
 114   2.0000      -0.335893        -9.1401
 115   2.0000      -0.323450        -8.8015
 116   2.0000      -0.314723        -8.5640
 117   2.0000      -0.304892        -8.2965
 118   2.0000      -0.299373        -8.1464
 119   2.0000      -0.297895        -8.1061
 120   2.0000      -0.286985        -7.8093
 121   2.0000      -0.284304        -7.7363
 122   2.0000      -0.278762        -7.5855
 123   2.0000      -0.277388        -7.5481
 124   2.0000      -0.275443        -7.4952
 125   2.0000      -0.264456        -7.1962
 126   2.0000      -0.261241        -7.1087
 127   2.0000      -0.255570        -6.9544
 128   0.0000      -0.088186        -2.3997
 129   0.0000      -0.064486        -1.7548
 130   0.0000      -0.054245        -1.4761
 131   0.0000      -0.038036        -1.0350
 132   0.0000      -0.032608        -0.8873

MULLIKEN ATOMIC CHARGES
-----------------------
   0 O :   -0.444285
   1 C :    0.529402
   2 O :   -0.623197
   3 C :    0.080172
   4 C :   -0.151036
   5 C :   -0.139359
   6 C :   -0.117215
   7 S :    1.224306
   8 O :   -0.518812
   9 O :   -0.542369
  10 N :   -0.628056
  11 C :   -0.190468
  12 C :    0.119240
  13 C :   -0.141350
  14 C :   -0.159860
  15 C :   -0.018495
  16 C :    0.893384
  17 F :   -0.304446
  18 F :   -0.306771
  19 F :   -0.296946
  20 C :   -0.165020
  21 C :   -0.167735
  22 C :    0.359427
  23 N :   -0.322248
  24 C :    0.021332
  25 C :   -0.068752
  26 Cl:    0.017942
  27 C :   -0.111462
  28 C :   -0.084532
  29 Cl:    0.023183
  30 C :   -0.143715
  31 C :   -0.140769
  32 H :    0.435049
  33 H :    0.179072
  34 H :    0.195911
  35 H :    0.182830
  36 H :    0.181983
  37 H :    0.147083
  38 H :    0.156097
  39 H :    0.152045
  40 H :    0.156369
  41 H :    0.186002
  42 H :    0.190957
  43 H :    0.174086
  44 H :    0.181026
Sum of atomic charges:    0.0000000

LOEWDIN ATOMIC CHARGES
----------------------
   0 O :   -0.260702
   1 C :    0.181906
   2 O :   -0.335369
   3 C :   -0.038401
   4 C :   -0.099500
   5 C :   -0.096315
   6 C :   -0.170834
   7 S :    1.270802
   8 O :   -0.549354
   9 O :   -0.565694
  10 N :   -0.293060
  11 C :   -0.135543
  12 C :   -0.023110
  13 C :   -0.108123
  14 C :   -0.109152
  15 C :   -0.072942
  16 C :    0.308664
  17 F :   -0.112657
  18 F :   -0.113766
  19 F :   -0.115376
  20 C :   -0.115439
  21 C :   -0.129740
  22 C :    0.040933
  23 N :   -0.083942
  24 C :   -0.062187
  25 C :   -0.097121
  26 Cl:    0.063588
  27 C :   -0.114358
  28 C :   -0.099346
  29 Cl:    0.059513
  30 C :   -0.103780
  31 C :   -0.086931
  32 H :    0.350320
  33 H :    0.157508
  34 H :    0.165526
  35 H :    0.148275
  36 H :    0.137153
  37 H :    0.141878
  38 H :    0.145509
  39 H :    0.142994
  40 H :    0.143321
  41 H :    0.155288
  42 H :    0.164554
  43 H :    0.154409
  44 H :    0.160598

  Mayer bond orders larger than 0.100000
B(  0-O ,  1-C ) :   1.8614 B(  1-C ,  2-O ) :   1.0252 B(  1-C ,  3-C ) :   1.0075
B(  2-O , 32-H ) :   0.7413 B(  3-C ,  4-C ) :   1.3847 B(  3-C , 31-C ) :   1.3979
B(  4-C ,  5-C ) :   1.4076 B(  4-C , 33-H ) :   0.9134 B(  5-C ,  6-C ) :   1.4008
B(  5-C , 34-H ) :   0.9041 B(  6-C ,  7-S ) :   0.8197 B(  6-C , 30-C ) :   1.3727
B(  7-S ,  8-O ) :   1.6686 B(  7-S ,  9-O ) :   1.6152 B(  7-S , 10-N ) :   0.7738
B( 10-N , 11-C ) :   0.8887 B( 10-N , 22-C ) :   0.9465 B( 11-C , 12-C ) :   0.9733
B( 11-C , 35-H ) :   0.9119 B( 11-C , 36-H ) :   0.9219 B( 12-C , 13-C ) :   1.4302
B( 12-C , 21-C ) :   1.4237 B( 13-C , 14-C ) :   1.4348 B( 13-C , 37-H ) :   0.9192
B( 14-C , 15-C ) :   1.4043 B( 14-C , 38-H ) :   0.9192 B( 15-C , 16-C ) :   0.9796
B( 15-C , 20-C ) :   1.4078 B( 16-C , 17-F ) :   0.9497 B( 16-C , 18-F ) :   0.9462
B( 16-C , 19-F ) :   0.9871 B( 20-C , 21-C ) :   1.4197 B( 20-C , 39-H ) :   0.9203
B( 21-C , 40-H ) :   0.9098 B( 22-C , 23-N ) :   1.3941 B( 22-C , 28-C ) :   1.3357
B( 23-N , 24-C ) :   1.4268 B( 24-C , 25-C ) :   1.3580 B( 24-C , 41-H ) :   0.9191
B( 25-C , 26-Cl) :   1.0316 B( 25-C , 27-C ) :   1.4135 B( 27-C , 28-C ) :   1.4032
B( 27-C , 42-H ) :   0.9115 B( 28-C , 29-Cl) :   1.0405 B( 30-C , 31-C ) :   1.4320
B( 30-C , 43-H ) :   0.9130 B( 31-C , 44-H ) :   0.9094

FINAL SINGLE POINT ENERGY     -2797.357076465831

DIPOLE MOMENT
-------------

Method             : SCF
Type of density    : Electron Density
Multiplicity       :   1
Irrep              :   0
Energy             : -2797.3570764658306871 Eh
Relativity type    :
Basis              : AO
                                X                 Y                 Z
Electronic contribution:     -6.554573352       1.811035494       6.114876963
Nuclear contribution   :      6.282825444      -1.307695281      -4.610686358
                        -----------------------------------------
Total Dipole Moment    :     -0.271747908       0.503340213       1.504190605
                        -----------------------------------------
Magnitude (a.u.)       :      1.609281726
Magnitude (Debye)      :      4.090469072

Rotational constants in cm-1:             0.005168             0.002365             0.001925
Rotational constants in MHz :           154.929647            70.887673            57.711488

                             ****ORCA TERMINATED NORMALLY****
TOTAL RUN TIME: 0 days 0 hours 6 minutes 18 seconds 579 msec
