                         Program Version 6.0.0  -   RELEASE  -
|  1> ! B3LYP 6-31G* SP
|  2>
|  3> * xyz 0 1
|  4> O 1.7913 -5.1751 0.8141
|  5> C 2.1592 -4.1124 0.2438
|  6> O 3.0386 -4.1862 -0.8333
|  7> C 1.6607 -2.8003 0.7105
|  8> C 2.0886 -1.6164 0.0864
|  9> C 1.6095 -0.3763 0.5166
| 10> C 0.6891 -0.2994 1.5685
| 11> S 0.0403 1.2658 2.0524
| 12> O 1.1663 2.1231 2.5596
| 13> O -0.9638 1.0987 3.1586
| 14> N -0.7355 2.0430 0.7040
| 15> C -1.9406 1.4533 0.1118
| 16> C -1.5918 0.2266 -0.6884
| 17> C -0.8396 0.3476 -1.8654
| 18> C -0.4824 -0.7890 -2.5917
| 19> C -0.8688 -2.0575 -2.1515
| 20> F -0.5211 -3.1433 -2.8880
| 21> C -1.6133 -2.2017 -0.9653
| 22> C -2.0580 -3.5714 -0.5098
| 23> F -3.1072 -3.9964 -1.3033
| 24> F -2.4744 -3.5546 0.8104
| 25> F -1.0151 -4.4736 -0.6194
| 26> C -1.9893 -1.0478 -0.2515
| 27> C -0.1087 3.1794 0.0947
| 28> N 1.1258 3.0423 -0.4623
| 29> C 1.7685 4.0810 -1.0574
| 30> C 1.1653 5.3393 -1.1072
| 31> Cl 1.9869 6.6868 -1.8723
| 32> C -0.0947 5.5150 -0.5314
| 33> C -0.7413 4.4361 0.0785
| 34> Cl -2.2951 4.6973 0.8596
| 35> C 0.2669 -1.4753 2.2027
| 36> C 0.7489 -2.7168 1.7780
| 37> H 3.3841 -5.0798 -1.1626
| 38> H 2.7890 -1.6468 -0.7386
| 39> H 1.9454 0.5219 0.0173
| 40> H -2.4421 2.1818 -0.5613
| 41> H -2.6655 1.2130 0.9190
| 42> H -0.5272 1.3224 -2.2185
| 43> H 0.0957 -0.6856 -3.5008
| 44> H -2.5764 -1.1365 0.6539
| 45> H 2.7476 3.9263 -1.4910
| 46> H -0.5659 6.4897 -0.5494
| 47> H -0.4473 -1.4374 3.0147
| 48> H 0.3978 -3.6112 2.2772
| 49> *
| 50>
| 51>                          ****END OF INPUT****

CARTESIAN COORDINATES (ANGSTROEM)
---------------------------------
  O      1.791300   -5.175100    0.814100
  C      2.159200   -4.112400    0.243800
  O      3.038600   -4.186200   -0.833300
  C      1.660700   -2.800300    0.710500
  C      2.088600   -1.616400    0.086400
  C      1.609500   -0.376300    0.516600
  C      0.689100   -0.299400    1.568500
  S      0.040300    1.265800    2.052400
  O      1.166300    2.123100    2.559600
  O     -0.963800    1.098700    3.158600
  N     -0.735500    2.043000    0.704000
  C     -1.940600    1.453300    0.111800
  C     -1.591800    0.226600   -0.688400
  C     -0.839600    0.347600   -1.865400
  C     -0.482400   -0.789000   -2.591700
  C     -0.868800   -2.057500   -2.151500
  F     -0.521100   -3.143300   -2.888000
  C     -1.613300   -2.201700   -0.965300
  C     -2.058000   -3.571400   -0.509800
  F     -3.107200   -3.996400   -1.303300
  F     -2.474400   -3.554600    0.810400
  F     -1.015100   -4.473600   -0.619400
  C     -1.989300   -1.047800   -0.251500
  C     -0.108700    3.179400    0.094700
  N      1.125800    3.042300   -0.462300
  C      1.768500    4.081000   -1.057400
  C      1.165300    5.339300   -1.107200
  Cl     1.986900    6.686800   -1.872300
  C     -0.094700    5.515000   -0.531400
  C     -0.741300    4.436100    0.078500
  Cl    -2.295100    4.697300    0.859600
  C      0.266900   -1.475300    2.202700
  C      0.748900   -2.716800    1.778000
  H      3.384100   -5.079800   -1.162600
  H      2.789000   -1.646800   -0.738600
  H      1.945400    0.521900    0.017300
  H     -2.442100    2.181800   -0.561300
  H     -2.665500    1.213000    0.919000
  H     -0.527200    1.322400   -2.218500
  H      0.095700   -0.685600   -3.500800
  H     -2.576400   -1.136500    0.653900
  H      2.747600    3.926300   -1.491000
  H     -0.565900    6.489700   -0.549400
  H     -0.447300   -1.437400    3.014700
  H      0.397800   -3.611200    2.277200

 Total Charge           Charge          ....    0
 Multiplicity           Mult            ....    1
 Number of Electrons    NEL             ....  264
 Basis Dimension        Dim             ....  498

ORBITAL ENERGIES
----------------

  NO   OCC          E(Eh)            E(eV)
   0   2.0000    -101.557125     -2763.5099
   1   2.0000    -101.556841     -2763.5021
   2   2.0000     -89.108342     -2424.7613
   3   2.0000     -24.729144      -672.9142
   4   2.0000     -24.721775      -672.7137
   5   2.0000     -24.721230      -672.6989
   6   2.0000     -24.721117      -672.6958
   7   2.0000     -19.194158      -522.2996
   8   2.0000     -19.136315      -520.7256
   9   2.0000     -19.135316      -520.6984
  10   2.0000     -19.133392      -520.6461
  11   2.0000     -14.394174      -391.6854
  12   2.0000     -14.374369      -391.1465
  13   2.0000     -10.444395      -284.2064
  14   2.0000     -10.332870      -281.1717
  15   2.0000     -10.304273      -280.3935
  16   2.0000     -10.300516      -280.2913
  17   2.0000     -10.287930      -279.9488
  18   2.0000     -10.283037      -279.8157
  19   2.0000     -10.260991      -279.2158
  20   2.0000     -10.253374      -279.0085
  21   2.0000     -10.244973      -278.7799
  22   2.0000     -10.244275      -278.7609
  23   2.0000     -10.231816      -278.4219
  24   2.0000     -10.231166      -278.4042
  25   2.0000     -10.221784      -278.1489
  26   2.0000     -10.219853      -278.0963
  27   2.0000     -10.219098      -278.0758
  28   2.0000     -10.218795      -278.0675
  29   2.0000     -10.218076      -278.0480
  30   2.0000     -10.216872      -278.0152
  31   2.0000     -10.215663      -277.9823
  32   2.0000     -10.215605      -277.9807
  33   2.0000      -9.488569      -258.1971
  34   2.0000      -9.488355      -258.1913
  35   2.0000      -8.143981      -221.6090
  36   2.0000      -7.251803      -197.3316
  37   2.0000      -7.251718      -197.3293
  38   2.0000      -7.242078      -197.0670
  39   2.0000      -7.241933      -197.0630
  40   2.0000      -7.241745      -197.0579
  41   2.0000      -7.241427      -197.0492
  42   2.0000      -6.109447      -166.2465
  43   2.0000      -6.106772      -166.1737
  44   2.0000      -6.106437      -166.1646
  45   2.0000      -1.285181       -34.9715
  46   2.0000      -1.234481       -33.5919
  47   2.0000      -1.211260       -32.9601
  48   2.0000      -1.207036       -32.8451
  49   2.0000      -1.093335       -29.7512
  50   2.0000      -1.078482       -29.3470
  51   2.0000      -0.996820       -27.1249
  52   2.0000      -0.992361       -27.0035
  53   2.0000      -0.970625       -26.4120
  54   2.0000      -0.945060       -25.7164
  55   2.0000      -0.900225       -24.4964
  56   2.0000      -0.896970       -24.4078
  57   2.0000      -0.890297       -24.2262
  58   2.0000      -0.887968       -24.1628
  59   2.0000      -0.810542       -22.0560
  60   2.0000      -0.808771       -22.0078
  61   2.0000      -0.804435       -21.8898
  62   2.0000      -0.793753       -21.5991
  63   2.0000      -0.776488       -21.1293
  64   2.0000      -0.768784       -20.9197
  65   2.0000      -0.727776       -19.8038
  66   2.0000      -0.707611       -19.2551
  67   2.0000      -0.701899       -19.0996
  68   2.0000      -0.677104       -18.4249
  69   2.0000      -0.655349       -17.8329
  70   2.0000      -0.647002       -17.6058
  71   2.0000      -0.638477       -17.3738
  72   2.0000      -0.631292       -17.1783
  73   2.0000      -0.620510       -16.8849
  74   2.0000      -0.602894       -16.4056
  75   2.0000      -0.577142       -15.7048
  76   2.0000      -0.574747       -15.6397
  77   2.0000      -0.573654       -15.6099
  78   2.0000      -0.570624       -15.5275
  79   2.0000      -0.549371       -14.9491
  80   2.0000      -0.545362       -14.8401
  81   2.0000      -0.540284       -14.7019
  82   2.0000      -0.532815       -14.4986
  83   2.0000      -0.513402       -13.9704
  84   2.0000      -0.505280       -13.7494
  85   2.0000      -0.495142       -13.4735
  86   2.0000      -0.488580       -13.2949
  87   2.0000      -0.484735       -13.1903
  88   2.0000      -0.479478       -13.0473
  89   2.0000      -0.477163       -12.9843
  90   2.0000      -0.471928       -12.8418
  91   2.0000      -0.466951       -12.7064
  92   2.0000      -0.459556       -12.5052
  93   2.0000      -0.455737       -12.4012
  94   2.0000      -0.452172       -12.3042
  95   2.0000      -0.451936       -12.2978
  96   2.0000      -0.448000       -12.1907
  97   2.0000      -0.446683       -12.1549
  98   2.0000      -0.441482       -12.0133
  99   2.0000      -0.436980       -11.8908
 100   2.0000      -0.434466       -11.8224
 101   2.0000      -0.432812       -11.7774
 102   2.0000      -0.423308       -11.5188
 103   2.0000      -0.420455       -11.4412
 104   2.0000      -0.416792       -11.3415
 105   2.0000      -0.413640       -11.2557
 106   2.0000      -0.405649       -11.0383
 107   2.0000      -0.402229       -10.9452
 108   2.0000      -0.399010       -10.8576
 109   2.0000      -0.394060       -10.7229
 110   2.0000      -0.385098       -10.4791
 111   2.0000      -0.383554       -10.4370
 112   2.0000      -0.370876       -10.0920
 113   2.0000      -0.367381        -9.9969
 114   2.0000      -0.366260        -9.9664
 115   2.0000      -0.362312        -9.8590
 116   2.0000      -0.350487        -9.5372
 117   2.0000      -0.338292        -9.2054
 118   2.0000      -0.335147        -9.1198
 119   2.0000      -0.322235        -8.7685
 120   2.0000      -0.312087        -8.4923
 121   2.0000      -0.308837        -8.4039
 122   2.0000      -0.303830        -8.2676
 123   2.0000      -0.298336        -8.1181
 124   2.0000      -0.294913        -8.0250
 125   2.0000      -0.292087        -7.9481
 126   2.0000      -0.284308        -7.7364
 127   2.0000      -0.278136        -7.5685
 128   2.0000      -0.272197        -7.4069
 129   2.0000      -0.271731        -7.3942
 130   2.0000      -0.262802        -7.1512
 131   2.0000      -0.254564        -6.9270
 132   0.0000      -0.084938        -2.3113
 133   0.0000      -0.067283        -1.8309
 134   0.0000      -0.056739        -1.5440
 135   0.0000      -0.049268        -1.3406
 136   0.0000      -0.030479        -0.8294

MULLIKEN ATOMIC CHARGES
-----------------------
   0 O :   -0.441664
   1 C :    0.533328
   2 O :   -0.625483
   3 C :    0.082938
   4 C :   -0.148946
   5 C :   -0.138643
   6 C :   -0.131337
   7 S :    1.205537
   8 O :   -0.525997
   9 O :   -0.530473
  10 N :   -0.603175
  11 C :   -0.264928
  12 C :    0.150157
  13 C :   -0.139068
  14 C :   -0.208408
  15 C :    0.389699
  16 F :   -0.299039
  17 C :   -0.110390
  18 C :    0.923688
  19 F :   -0.294640
  20 F :   -0.305039
  21 F :   -0.294287
  22 C :   -0.200396
  23 C :    0.416040
  24 N :   -0.377195
  25 C :    0.025834
  26 C :   -0.074178
  27 Cl:    0.017711
  28 C :   -0.104914
  29 C :   -0.088567
  30 Cl:    0.042661
  31 C :   -0.149234
  32 C :   -0.142037
  33 H :    0.434512
  34 H :    0.170379
  35 H :    0.191526
  36 H :    0.189486
  37 H :    0.197455
  38 H :    0.149050
  39 H :    0.157493
  40 H :    0.169983
  41 H :    0.181247
  42 H :    0.193121
  43 H :    0.190832
  44 H :    0.185359
Sum of atomic charges:   -0.0000000

LOEWDIN ATOMIC CHARGES
----------------------
   0 O :   -0.256018
   1 C :    0.179730
   2 O :   -0.335191
   3 C :   -0.037161
   4 C :   -0.100386
   5 C :   -0.101016
   6 C :   -0.175229
   7 S :    1.271578
   8 O :   -0.558296
   9 O :   -0.564761
  10 N :   -0.277412
  11 C :   -0.148435
  12 C :   -0.046973
  13 C :   -0.104853
  14 C :   -0.149603
  15 C :    0.135908
  16 F :   -0.091006
  17 C :   -0.093413
  18 C :    0.314854
  19 F :   -0.109691
  20 F :   -0.109904
  21 F :   -0.104623
  22 C :   -0.107748
  23 C :    0.052615
  24 N :   -0.115702
  25 C :   -0.065613
  26 C :   -0.100122
  27 Cl:    0.063381
  28 C :   -0.107315
  29 C :   -0.093357
  30 Cl:    0.073149
  31 C :   -0.103254
  32 C :   -0.087960
  33 H :    0.350086
  34 H :    0.153609
  35 H :    0.160236
  36 H :    0.152026
  37 H :    0.149439
  38 H :    0.142397
  39 H :    0.150210
  40 H :    0.151136
  41 H :    0.152762
  42 H :    0.166083
  43 H :    0.163036
  44 H :    0.162806

  Mayer bond orders larger than 0.100000
B(  0-O ,  1-C ) :   1.8622 B(  1-C ,  2-O ) :   1.0235 B(  1-C ,  3-C ) :   1.0064
B(  2-O , 33-H ) :   0.7416 B(  3-C ,  4-C ) :   1.3801 B(  3-C , 32-C ) :   1.4035
B(  4-C ,  5-C ) :   1.4239 B(  4-C , 34-H ) :   0.9155 B(  5-C ,  6-C ) :   1.3890
B(  5-C , 35-H ) :   0.8921 B(  6-C ,  7-S ) :   0.8165 B(  6-C , 31-C ) :   1.3866
B(  7-S ,  8-O ) :   1.6689 B(  7-S ,  9-O ) :   1.6471 B(  7-S , 10-N ) :   0.7693
B( 10-N , 11-C ) :   0.9140 B( 10-N , 23-C ) :   0.9357 B( 11-C , 12-C ) :   0.9397
B( 11-C , 36-H ) :   0.9174 B( 11-C , 37-H ) :   0.9164 B( 12-C , 13-C ) :   1.4155
B( 12-C , 22-C ) :   1.4260 B( 13-C , 14-C ) :   1.4314 B( 13-C , 38-H ) :   0.9181
B( 14-C , 15-C ) :   1.3766 B( 14-C , 39-H ) :   0.9173 B( 15-C , 16-F ) :   0.9556
B( 15-C , 17-C ) :   1.3349 B( 17-C , 18-C ) :   0.9603 B( 17-C , 22-C ) :   1.3884
B( 18-C , 19-F ) :   0.9880 B( 18-C , 20-F ) :   0.9413 B( 18-C , 21-F ) :   0.9569
B( 22-C , 40-H ) :   0.9076 B( 23-C , 24-N ) :   1.3627 B( 23-C , 29-C ) :   1.3354
B( 24-N , 25-C ) :   1.4193 B( 25-C , 26-C ) :   1.3681 B( 25-C , 41-H ) :   0.9198
B( 26-C , 27-Cl) :   1.0321 B( 26-C , 28-C ) :   1.4085 B( 28-C , 29-C ) :   1.4092
B( 28-C , 42-H ) :   0.9106 B( 29-C , 30-Cl) :   1.0568 B( 31-C , 32-C ) :   1.4136
B( 31-C , 43-H ) :   0.9079 B( 32-C , 44-H ) :   0.9074

FINAL SINGLE POINT ENERGY     -2896.562172070182

DIPOLE MOMENT
-------------

Method             : SCF
Type of density    : Electron Density
Multiplicity       :   1
Irrep              :   0
Energy             : -2896.5621720701815320 Eh
Relativity type    :
Basis              : AO
                                X                 Y                 Z
Electronic contribution:     -9.432923920       1.699908782      -4.407291701
Nuclear contribution   :      9.638641395      -0.795516767       2.022885632
                        -----------------------------------------
Total Dipole Moment    :      0.205717476       0.904392015      -2.384406070
                        -----------------------------------------
Magnitude (a.u.)       :      2.558444234
Magnitude (Debye)      :      6.503048438

Rotational constants in cm-1:             0.006466             0.002155             0.002096
Rotational constants in MHz :           193.858241            64.615496            62.825846

                             ****ORCA TERMINATED NORMALLY****
TOTAL RUN TIME: 0 days 0 hours 10 minutes 15 seconds 347 msec
