                         Program Version 6.0.0  -   RELEASE  -
|  1> ! B3LYP 6-31G* SP
|  2>
|  3> * xyz 0 1
|  4> C 0.7901 0.1256 3.7818
|  5> O 1.6014 0.5287 2.6856
|  6> C 1.2562 0.3595 1.3353
|  7> C 0.0466 -0.2478 0.9454
|  8> C -0.2720 -0.3967 -0.4136
|  9> C -1.5675 -1.0518 -0.8292
| 10> N -2.7379 -0.3279 -0.2996
| 11> C -3.5470 -0.9727 0.7500
| 12> C -4.2821 -2.1864 0.2414
| 13> N -4.5498 -2.3802 -1.1505
| 14> O -4.7045 -3.0339 1.0732
| 15> C -3.0182 1.0172 -0.7641
| 16> O -2.0991 1.6889 -1.3049
| 17> C -4.3384 1.6646 -0.6183
| 18> C -5.5905 1.0633 -0.7040
| 19> C -6.6502 1.9715 -0.5996
| 20> C -6.2456 3.2900 -0.4508
| 21> S -4.5670 3.3239 -0.4541
| 22> C 0.6363 0.0515 -1.3846
| 23> C 1.8398 0.6475 -1.0049
| 24> C 2.1584 0.8065 0.3561
| 25> O 3.3584 1.4030 0.7801
| 26> C 4.4690 1.7152 -0.0582
| 27> C 5.1355 0.4561 -0.5434
| 28> C 5.3547 0.2414 -1.9158
| 29> C 5.9732 -0.9338 -2.3550
| 30> C 6.3859 -1.8962 -1.4282
| 31> F 6.9850 -3.0352 -1.8561
| 32> C 6.1779 -1.6855 -0.0615
| 33> C 5.5592 -0.5124 0.3811
| 34> H 0.6235 -0.9718 3.7492
| 35> H 1.3090 0.3770 4.7321
| 36> H -0.1802 0.6622 3.7538
| 37> H -0.6463 -0.6080 1.6915
| 38> H -1.5557 -2.1006 -0.4609
| 39> H -1.6508 -1.1080 -1.9364
| 40> H -2.8810 -1.2875 1.5806
| 41> H -4.2737 -0.2658 1.1985
| 42> H -4.2515 -1.6845 -1.8711
| 43> H -5.0754 -3.2256 -1.4655
| 44> H -5.7474 0.0080 -0.8627
| 45> H -7.6895 1.6745 -0.6487
| 46> H -6.8986 4.1470 -0.3665
| 47> H 0.4120 -0.0548 -2.4404
| 48> H 2.5107 0.9875 -1.7810
| 49> H 5.2052 2.2947 0.5374
| 50> H 4.1453 2.3674 -0.8966
| 51> H 5.0436 0.9786 -2.6447
| 52> H 6.1349 -1.0959 -3.4142
| 53> H 6.4999 -2.4291 0.6563
| 54> H 5.4081 -0.3591 1.4438
| 55> *
| 56>
| 57>                          ****END OF INPUT****

CARTESIAN COORDINATES (ANGSTROEM)
---------------------------------
  C      0.790100    0.125600    3.781800
  O      1.601400    0.528700    2.685600
  C      1.256200    0.359500    1.335300
  C      0.046600   -0.247800    0.945400
  C     -0.272000   -0.396700   -0.413600
  C     -1.567500   -1.051800   -0.829200
  N     -2.737900   -0.327900   -0.299600
  C     -3.547000   -0.972700    0.750000
  C     -4.282100   -2.186400    0.241400
  N     -4.549800   -2.380200   -1.150500
  O     -4.704500   -3.033900    1.073200
  C     -3.018200    1.017200   -0.764100
  O     -2.099100    1.688900   -1.304900
  C     -4.338400    1.664600   -0.618300
  C     -5.590500    1.063300   -0.704000
  C     -6.650200    1.971500   -0.599600
  C     -6.245600    3.290000   -0.450800
  S     -4.567000    3.323900   -0.454100
  C      0.636300    0.051500   -1.384600
  C      1.839800    0.647500   -1.004900
  C      2.158400    0.806500    0.356100
  O      3.358400    1.403000    0.780100
  C      4.469000    1.715200   -0.058200
  C      5.135500    0.456100   -0.543400
  C      5.354700    0.241400   -1.915800
  C      5.973200   -0.933800   -2.355000
  C      6.385900   -1.896200   -1.428200
  F      6.985000   -3.035200   -1.856100
  C      6.177900   -1.685500   -0.061500
  C      5.559200   -0.512400    0.381100
  H      0.623500   -0.971800    3.749200
  H      1.309000    0.377000    4.732100
  H     -0.180200    0.662200    3.753800
  H     -0.646300   -0.608000    1.691500
  H     -1.555700   -2.100600   -0.460900
  H     -1.650800   -1.108000   -1.936400
  H     -2.881000   -1.287500    1.580600
  H     -4.273700   -0.265800    1.198500
  H     -4.251500   -1.684500   -1.871100
  H     -5.075400   -3.225600   -1.465500
  H     -5.747400    0.008000   -0.862700
  H     -7.689500    1.674500   -0.648700
  H     -6.898600    4.147000   -0.366500
  H      0.412000   -0.054800   -2.440400
  H      2.510700    0.987500   -1.781000
  H      5.205200    2.294700    0.537400
  H      4.145300    2.367400   -0.896600
  H      5.043600    0.978600   -2.644700
  H      6.134900   -1.095900   -3.414200
  H      6.499900   -2.429100    0.656300
  H      5.408100   -0.359100    1.443800

 Total Charge           Charge          ....    0
 Multiplicity           Mult            ....    1
 Number of Electrons    NEL             ....  224
 Basis Dimension        Dim             ....  466

ORBITAL ENERGIES
----------------

  NO   OCC          E(Eh)            E(eV)
   0   2.0000     -88.900403     -2419.1030
   1   2.0000     -24.695388      -671.9957
   2   2.0000     -19.155055      -521.2356
   3   2.0000     -19.154330      -521.2158
   4   2.0000     -19.114539      -520.1331
   5   2.0000     -19.114013      -520.1187
   6   2.0000     -14.368233      -390.9795
   7   2.0000     -14.364321      -390.8731
   8   2.0000     -10.302026      -280.3324
   9   2.0000     -10.299554      -280.2651
  10   2.0000     -10.266311      -279.3605
  11   2.0000     -10.240424      -278.6561
  12   2.0000     -10.239717      -278.6369
  13   2.0000     -10.237794      -278.5845
  14   2.0000     -10.237446      -278.5751
  15   2.0000     -10.231248      -278.4064
  16   2.0000     -10.227469      -278.3036
  17   2.0000     -10.223838      -278.2048
  18   2.0000     -10.218201      -278.0514
  19   2.0000     -10.197144      -277.4784
  20   2.0000     -10.193319      -277.3743
  21   2.0000     -10.190984      -277.3108
  22   2.0000     -10.189608      -277.2733
  23   2.0000     -10.188064      -277.2313
  24   2.0000     -10.188039      -277.2306
  25   2.0000     -10.187526      -277.2167
  26   2.0000     -10.180364      -277.0218
  27   2.0000     -10.176316      -276.9116
  28   2.0000     -10.173367      -276.8314
  29   2.0000     -10.168521      -276.6995
  30   2.0000      -7.976832      -217.0606
  31   2.0000      -5.939834      -161.6311
  32   2.0000      -5.935655      -161.5174
  33   2.0000      -5.934074      -161.4744
  34   2.0000      -1.208268       -32.8786
  35   2.0000      -1.041682       -28.3456
  36   2.0000      -1.026014       -27.9193
  37   2.0000      -1.019801       -27.7502
  38   2.0000      -1.013364       -27.5750
  39   2.0000      -0.929548       -25.2943
  40   2.0000      -0.903003       -24.5720
  41   2.0000      -0.883220       -24.0336
  42   2.0000      -0.857305       -23.3285
  43   2.0000      -0.841340       -22.8940
  44   2.0000      -0.780870       -21.2486
  45   2.0000      -0.762644       -20.7526
  46   2.0000      -0.752039       -20.4640
  47   2.0000      -0.750898       -20.4330
  48   2.0000      -0.747191       -20.3321
  49   2.0000      -0.741151       -20.1677
  50   2.0000      -0.729196       -19.8424
  51   2.0000      -0.695345       -18.9213
  52   2.0000      -0.687558       -18.7094
  53   2.0000      -0.660959       -17.9856
  54   2.0000      -0.620130       -16.8746
  55   2.0000      -0.616352       -16.7718
  56   2.0000      -0.600602       -16.3432
  57   2.0000      -0.592457       -16.1216
  58   2.0000      -0.586979       -15.9725
  59   2.0000      -0.571727       -15.5575
  60   2.0000      -0.569024       -15.4839
  61   2.0000      -0.543878       -14.7997
  62   2.0000      -0.537067       -14.6143
  63   2.0000      -0.533628       -14.5207
  64   2.0000      -0.528274       -14.3751
  65   2.0000      -0.521688       -14.1958
  66   2.0000      -0.497881       -13.5480
  67   2.0000      -0.494493       -13.4558
  68   2.0000      -0.489811       -13.3284
  69   2.0000      -0.481103       -13.0915
  70   2.0000      -0.472884       -12.8678
  71   2.0000      -0.468134       -12.7386
  72   2.0000      -0.458818       -12.4851
  73   2.0000      -0.453597       -12.3430
  74   2.0000      -0.451065       -12.2741
  75   2.0000      -0.445484       -12.1222
  76   2.0000      -0.442896       -12.0518
  77   2.0000      -0.439512       -11.9597
  78   2.0000      -0.433684       -11.8012
  79   2.0000      -0.428888       -11.6706
  80   2.0000      -0.426328       -11.6010
  81   2.0000      -0.424567       -11.5531
  82   2.0000      -0.419156       -11.4058
  83   2.0000      -0.411946       -11.2096
  84   2.0000      -0.403833       -10.9889
  85   2.0000      -0.401960       -10.9379
  86   2.0000      -0.399903       -10.8819
  87   2.0000      -0.398554       -10.8452
  88   2.0000      -0.387198       -10.5362
  89   2.0000      -0.386954       -10.5296
  90   2.0000      -0.374602       -10.1934
  91   2.0000      -0.368228       -10.0200
  92   2.0000      -0.363381        -9.8881
  93   2.0000      -0.358543        -9.7564
  94   2.0000      -0.352059        -9.5800
  95   2.0000      -0.344242        -9.3673
  96   2.0000      -0.341715        -9.2985
  97   2.0000      -0.341265        -9.2863
  98   2.0000      -0.312200        -8.4954
  99   2.0000      -0.307264        -8.3611
 100   2.0000      -0.301004        -8.1907
 101   2.0000      -0.297605        -8.0982
 102   2.0000      -0.267947        -7.2912
 103   2.0000      -0.266024        -7.2389
 104   2.0000      -0.261228        -7.1084
 105   2.0000      -0.258751        -7.0410
 106   2.0000      -0.254671        -6.9300
 107   2.0000      -0.242470        -6.5980
 108   2.0000      -0.236177        -6.4267
 109   2.0000      -0.233739        -6.3604
 110   2.0000      -0.224034        -6.0963
 111   2.0000      -0.193119        -5.2550
 112   0.0000      -0.049045        -1.3346
 113   0.0000      -0.008081        -0.2199
 114   0.0000      -0.001729        -0.0471
 115   0.0000       0.000440         0.0120
 116   0.0000       0.010980         0.2988

MULLIKEN ATOMIC CHARGES
-----------------------
   0 C :   -0.190637
   1 O :   -0.505253
   2 C :    0.327172
   3 C :   -0.259985
   4 C :    0.205138
   5 C :   -0.254525
   6 N :   -0.433693
   7 C :   -0.244487
   8 C :    0.558572
   9 N :   -0.760608
  10 O :   -0.475868
  11 C :    0.520649
  12 O :   -0.459497
  13 C :   -0.227466
  14 C :   -0.119203
  15 C :   -0.114602
  16 C :   -0.336110
  17 S :    0.324034
  18 C :   -0.162145
  19 C :   -0.190068
  20 C :    0.327127
  21 O :   -0.514161
  22 C :   -0.103321
  23 C :    0.117849
  24 C :   -0.162048
  25 C :   -0.208329
  26 C :    0.410027
  27 F :   -0.319417
  28 C :   -0.208207
  29 C :   -0.143157
  30 H :    0.141659
  31 H :    0.167290
  32 H :    0.143481
  33 H :    0.122805
  34 H :    0.172279
  35 H :    0.155037
  36 H :    0.192796
  37 H :    0.205425
  38 H :    0.342520
  39 H :    0.353803
  40 H :    0.147080
  41 H :    0.143529
  42 H :    0.187354
  43 H :    0.119920
  44 H :    0.130783
  45 H :    0.165071
  46 H :    0.137844
  47 H :    0.133339
  48 H :    0.142359
  49 H :    0.144676
  50 H :    0.153168
Sum of atomic charges:    0.0000000

LOEWDIN ATOMIC CHARGES
----------------------
   0 C :   -0.198048
   1 O :   -0.188804
   2 C :    0.075176
   3 C :   -0.172943
   4 C :   -0.029783
   5 C :   -0.141225
   6 N :   -0.117178
   7 C :   -0.177137
   8 C :    0.126477
   9 N :   -0.403150
  10 O :   -0.291323
  11 C :    0.136520
  12 O :   -0.264304
  13 C :   -0.230258
  14 C :   -0.162576
  15 C :   -0.165647
  16 C :   -0.303666
  17 S :    0.452508
  18 C :   -0.129791
  19 C :   -0.160149
  20 C :    0.072341
  21 O :   -0.179832
  22 C :   -0.081604
  23 C :   -0.047742
  24 C :   -0.126656
  25 C :   -0.158359
  26 C :    0.116259
  27 F :   -0.105746
  28 C :   -0.155081
  29 C :   -0.110017
  30 H :    0.112972
  31 H :    0.134470
  32 H :    0.114120
  33 H :    0.130990
  34 H :    0.141376
  35 H :    0.129422
  36 H :    0.148667
  37 H :    0.165202
  38 H :    0.254086
  39 H :    0.266617
  40 H :    0.141086
  41 H :    0.138261
  42 H :    0.163153
  43 H :    0.129790
  44 H :    0.136345
  45 H :    0.138002
  46 H :    0.114595
  47 H :    0.133246
  48 H :    0.141989
  49 H :    0.143081
  50 H :    0.144266

  Mayer bond orders larger than 0.100000
B(  0-C ,  1-O ) :   0.9264 B(  0-C , 30-H ) :   0.9297 B(  0-C , 31-H ) :   0.9455
B(  0-C , 32-H ) :   0.9300 B(  1-O ,  2-C ) :   0.9242 B(  2-C ,  3-C ) :   1.3848
B(  2-C , 20-C ) :   1.3218 B(  3-C ,  4-C ) :   1.3976 B(  3-C , 33-H ) :   0.9086
B(  4-C ,  5-C ) :   0.9555 B(  4-C , 18-C ) :   1.4475 B(  5-C ,  6-N ) :   0.9208
B(  5-C , 34-H ) :   0.9239 B(  5-C , 35-H ) :   0.9282 B(  6-N ,  7-C ) :   0.9281
B(  6-N , 11-C ) :   1.0402 B(  7-C ,  8-C ) :   0.9374 B(  7-C , 36-H ) :   0.9104
B(  7-C , 37-H ) :   0.9031 B(  8-C ,  9-N ) :   1.0776 B(  8-C , 10-O ) :   1.8454
B(  9-N , 38-H ) :   0.8146 B(  9-N , 39-H ) :   0.8218 B( 11-C , 12-O ) :   1.7941
B( 11-C , 13-C ) :   1.0028 B( 13-C , 14-C ) :   1.4797 B( 13-C , 16-C ) :   0.1287
B( 13-C , 17-S ) :   1.1442 B( 14-C , 15-C ) :   1.3804 B( 14-C , 40-H ) :   0.9077
B( 15-C , 16-C ) :   1.5572 B( 15-C , 41-H ) :   0.9274 B( 16-C , 17-S ) :   1.1851
B( 16-C , 42-H ) :   0.9151 B( 18-C , 19-C ) :   1.4221 B( 18-C , 43-H ) :   0.9217
B( 19-C , 20-C ) :   1.3935 B( 19-C , 44-H ) :   0.9146 B( 20-C , 21-O ) :   0.9013
B( 21-O , 22-C ) :   0.9168 B( 22-C , 23-C ) :   0.9641 B( 22-C , 45-H ) :   0.9261
B( 22-C , 46-H ) :   0.9194 B( 23-C , 24-C ) :   1.4354 B( 23-C , 29-C ) :   1.4235
B( 24-C , 25-C ) :   1.4163 B( 24-C , 47-H ) :   0.9229 B( 25-C , 26-C ) :   1.3999
B( 25-C , 48-H ) :   0.9210 B( 26-C , 27-F ) :   0.9166 B( 26-C , 28-C ) :   1.3860
B( 28-C , 29-C ) :   1.4269 B( 28-C , 49-H ) :   0.9213 B( 29-C , 50-H ) :   0.9208

FINAL SINGLE POINT ENERGY     -1758.486829329537

DIPOLE MOMENT
-------------

Method             : SCF
Type of density    : Electron Density
Multiplicity       :   1
Irrep              :   0
Energy             : -1758.4868293295367039 Eh
Relativity type    :
Basis              : AO
                                X                 Y                 Z
Electronic contribution:      7.611591221       1.827395657      -6.400245644
Nuclear contribution   :     -8.624594265      -1.558393029       5.892724472
                        -----------------------------------------
Total Dipole Moment    :     -1.013003044       0.269002628      -0.507521172
                        -----------------------------------------
Magnitude (a.u.)       :      1.164523646
Magnitude (Debye)      :      2.959983874

Rotational constants in cm-1:             0.008661             0.001899             0.001813
Rotational constants in MHz :           259.660278            56.945201            54.353923

                             ****ORCA TERMINATED NORMALLY****
TOTAL RUN TIME: 0 days 0 hours 6 minutes 29 seconds 223 msec
