                         Program Version 6.0.0  -   RELEASE  -
|  1> ! B3LYP 6-31G* SP
|  2>
|  3> * xyz 0 1
|  4> O 4.0032 -3.0929 -0.9834
|  5> C 3.9724 -1.9332 -0.4901
|  6> C 2.8057 -1.5136 0.3588
|  7> C 2.5307 0.0111 0.2182
|  8> C 1.5621 0.4980 1.3166
|  9> C 0.1362 -0.0332 1.1294
| 10> N -0.3430 0.2361 -0.2318
| 11> C -1.7307 0.5373 -0.4743
| 12> O -2.0365 1.2888 -1.4397
| 13> N -2.7615 0.0039 0.3784
| 14> C -4.1687 0.1752 0.1386
| 15> C -4.7042 0.1192 -1.1596
| 16> C -6.0799 0.2617 -1.3638
| 17> C -6.9450 0.4669 -0.2756
| 18> C -8.4336 0.5708 -0.4923
| 19> F -8.9879 -0.6951 -0.4586
| 20> F -9.0181 1.3456 0.4947
| 21> F -8.7095 1.1517 -1.7180
| 22> C -6.4130 0.4708 1.0250
| 23> C -5.0376 0.3270 1.2281
| 24> C 0.5093 -0.1393 -1.3670
| 25> C 1.9427 0.3697 -1.1707
| 26> O 3.7622 0.7287 0.3811
| 27> C 4.9694 0.3128 -0.1981
| 28> C 6.0454 1.2060 -0.2981
| 29> Cl 5.8997 2.8480 0.3078
| 30> C 7.2401 0.7949 -0.8998
| 31> C 7.3652 -0.5057 -1.3961
| 32> C 6.3013 -1.4054 -1.2845
| 33> C 5.1017 -1.0026 -0.6760
| 34> H 1.9128 -2.1159 0.0932
| 35> H 3.0610 -1.7492 1.4145
| 36> H 1.9377 0.1992 2.3195
| 37> H 1.5259 1.6102 1.3001
| 38> H 0.0991 -1.1253 1.3290
| 39> H -0.5090 0.4787 1.8760
| 40> H -2.4864 -0.4949 1.2531
| 41> H -4.0671 -0.0674 -2.0137
| 42> H -6.4690 0.2002 -2.3725
| 43> H -7.0611 0.5808 1.8854
| 44> H -4.6458 0.3392 2.2376
| 45> H 0.5025 -1.2432 -1.4834
| 46> H 0.1172 0.2904 -2.3145
| 47> H 1.9365 1.4768 -1.2824
| 48> H 2.5857 -0.0336 -1.9823
| 49> H 8.0711 1.4834 -0.9859
| 50> H 8.2907 -0.8190 -1.8617
| 51> H 6.4202 -2.4139 -1.6603
| 52> *
| 53>
| 54>                          ****END OF INPUT****

CARTESIAN COORDINATES (ANGSTROEM)
---------------------------------
  O      4.003200   -3.092900   -0.983400
  C      3.972400   -1.933200   -0.490100
  C      2.805700   -1.513600    0.358800
  C      2.530700    0.011100    0.218200
  C      1.562100    0.498000    1.316600
  C      0.136200   -0.033200    1.129400
  N     -0.343000    0.236100   -0.231800
  C     -1.730700    0.537300   -0.474300
  O     -2.036500    1.288800   -1.439700
  N     -2.761500    0.003900    0.378400
  C     -4.168700    0.175200    0.138600
  C     -4.704200    0.119200   -1.159600
  C     -6.079900    0.261700   -1.363800
  C     -6.945000    0.466900   -0.275600
  C     -8.433600    0.570800   -0.492300
  F     -8.987900   -0.695100   -0.458600
  F     -9.018100    1.345600    0.494700
  F     -8.709500    1.151700   -1.718000
  C     -6.413000    0.470800    1.025000
  C     -5.037600    0.327000    1.228100
  C      0.509300   -0.139300   -1.367000
  C      1.942700    0.369700   -1.170700
  O      3.762200    0.728700    0.381100
  C      4.969400    0.312800   -0.198100
  C      6.045400    1.206000   -0.298100
  Cl     5.899700    2.848000    0.307800
  C      7.240100    0.794900   -0.899800
  C      7.365200   -0.505700   -1.396100
  C      6.301300   -1.405400   -1.284500
  C      5.101700   -1.002600   -0.676000
  H      1.912800   -2.115900    0.093200
  H      3.061000   -1.749200    1.414500
  H      1.937700    0.199200    2.319500
  H      1.525900    1.610200    1.300100
  H      0.099100   -1.125300    1.329000
  H     -0.509000    0.478700    1.876000
  H     -2.486400   -0.494900    1.253100
  H     -4.067100   -0.067400   -2.013700
  H     -6.469000    0.200200   -2.372500
  H     -7.061100    0.580800    1.885400
  H     -4.645800    0.339200    2.237600
  H      0.502500   -1.243200   -1.483400
  H      0.117200    0.290400   -2.314500
  H      1.936500    1.476800   -1.282400
  H      2.585700   -0.033600   -1.982300
  H      8.071100    1.483400   -0.985900
  H      8.290700   -0.819000   -1.861700
  H      6.420200   -2.413900   -1.660300

 Total Charge           Charge          ....    0
 Multiplicity           Mult            ....    1
 Number of Electrons    NEL             ....  226
 Basis Dimension        Dim             ....  460

ORBITAL ENERGIES
----------------

  NO   OCC          E(Eh)            E(eV)
   0   2.0000    -101.535365     -2762.9178
   1   2.0000     -24.713719      -672.4945
   2   2.0000     -24.713233      -672.4813
   3   2.0000     -24.709842      -672.3890
   4   2.0000     -19.189667      -522.1774
   5   2.0000     -19.137416      -520.7556
   6   2.0000     -19.113787      -520.1126
   7   2.0000     -14.381257      -391.3339
   8   2.0000     -14.361232      -390.7890
   9   2.0000     -10.428408      -283.7714
  10   2.0000     -10.326799      -281.0065
  11   2.0000     -10.282648      -279.8051
  12   2.0000     -10.279830      -279.7284
  13   2.0000     -10.274564      -279.5851
  14   2.0000     -10.259738      -279.1817
  15   2.0000     -10.245544      -278.7954
  16   2.0000     -10.243054      -278.7277
  17   2.0000     -10.230018      -278.3730
  18   2.0000     -10.216118      -277.9947
  19   2.0000     -10.210961      -277.8544
  20   2.0000     -10.207449      -277.7588
  21   2.0000     -10.206582      -277.7352
  22   2.0000     -10.206053      -277.7208
  23   2.0000     -10.205475      -277.7051
  24   2.0000     -10.202435      -277.6224
  25   2.0000     -10.201829      -277.6059
  26   2.0000     -10.198832      -277.5243
  27   2.0000     -10.198736      -277.5217
  28   2.0000     -10.197721      -277.4941
  29   2.0000     -10.192439      -277.3504
  30   2.0000      -9.466692      -257.6018
  31   2.0000      -7.229995      -196.7382
  32   2.0000      -7.220273      -196.4736
  33   2.0000      -7.219842      -196.4619
  34   2.0000      -1.273351       -34.6497
  35   2.0000      -1.198941       -32.6248
  36   2.0000      -1.197680       -32.5905
  37   2.0000      -1.075501       -29.2659
  38   2.0000      -1.028854       -27.9965
  39   2.0000      -1.020706       -27.7748
  40   2.0000      -0.936278       -25.4774
  41   2.0000      -0.927154       -25.2291
  42   2.0000      -0.898879       -24.4597
  43   2.0000      -0.859902       -23.3991
  44   2.0000      -0.848422       -23.0867
  45   2.0000      -0.829409       -22.5694
  46   2.0000      -0.787195       -21.4207
  47   2.0000      -0.782136       -21.2830
  48   2.0000      -0.773637       -21.0517
  49   2.0000      -0.758197       -20.6316
  50   2.0000      -0.746656       -20.3175
  51   2.0000      -0.745167       -20.2770
  52   2.0000      -0.693445       -18.8696
  53   2.0000      -0.673420       -18.3247
  54   2.0000      -0.659088       -17.9347
  55   2.0000      -0.652303       -17.7501
  56   2.0000      -0.630966       -17.1695
  57   2.0000      -0.623506       -16.9665
  58   2.0000      -0.610640       -16.6163
  59   2.0000      -0.590590       -16.0708
  60   2.0000      -0.573369       -15.6022
  61   2.0000      -0.564441       -15.3592
  62   2.0000      -0.563559       -15.3352
  63   2.0000      -0.556506       -15.1433
  64   2.0000      -0.553396       -15.0587
  65   2.0000      -0.548457       -14.9243
  66   2.0000      -0.537113       -14.6156
  67   2.0000      -0.522040       -14.2054
  68   2.0000      -0.506875       -13.7928
  69   2.0000      -0.496837       -13.5196
  70   2.0000      -0.482990       -13.1428
  71   2.0000      -0.479971       -13.0607
  72   2.0000      -0.469238       -12.7686
  73   2.0000      -0.465228       -12.6595
  74   2.0000      -0.460812       -12.5393
  75   2.0000      -0.454180       -12.3589
  76   2.0000      -0.452893       -12.3238
  77   2.0000      -0.443299       -12.0628
  78   2.0000      -0.440605       -11.9895
  79   2.0000      -0.440290       -11.9809
  80   2.0000      -0.436434       -11.8760
  81   2.0000      -0.434861       -11.8332
  82   2.0000      -0.430152       -11.7050
  83   2.0000      -0.421715       -11.4754
  84   2.0000      -0.419210       -11.4073
  85   2.0000      -0.416208       -11.3256
  86   2.0000      -0.415043       -11.2939
  87   2.0000      -0.411040       -11.1850
  88   2.0000      -0.405540       -11.0353
  89   2.0000      -0.401048       -10.9131
  90   2.0000      -0.395989       -10.7754
  91   2.0000      -0.392205       -10.6724
  92   2.0000      -0.390186       -10.6175
  93   2.0000      -0.384061       -10.4508
  94   2.0000      -0.377996       -10.2858
  95   2.0000      -0.370602       -10.0846
  96   2.0000      -0.365384        -9.9426
  97   2.0000      -0.363128        -9.8812
  98   2.0000      -0.360973        -9.8226
  99   2.0000      -0.360023        -9.7967
 100   2.0000      -0.358895        -9.7660
 101   2.0000      -0.332384        -9.0446
 102   2.0000      -0.328513        -8.9393
 103   2.0000      -0.321916        -8.7598
 104   2.0000      -0.315867        -8.5952
 105   2.0000      -0.300308        -8.1718
 106   2.0000      -0.269056        -7.3214
 107   2.0000      -0.263140        -7.1604
 108   2.0000      -0.257370        -7.0034
 109   2.0000      -0.254047        -6.9130
 110   2.0000      -0.240939        -6.5563
 111   2.0000      -0.237570        -6.4646
 112   2.0000      -0.233190        -6.3454
 113   0.0000      -0.073593        -2.0026
 114   0.0000      -0.029713        -0.8085
 115   0.0000      -0.016200        -0.4408
 116   0.0000      -0.012192        -0.3318
 117   0.0000       0.019026         0.5177

MULLIKEN ATOMIC CHARGES
-----------------------
   0 O :   -0.441682
   1 C :    0.357960
   2 C :   -0.389978
   3 C :    0.313155
   4 C :   -0.291975
   5 C :   -0.158521
   6 N :   -0.429144
   7 C :    0.670721
   8 O :   -0.477743
   9 N :   -0.716041
  10 C :    0.344513
  11 C :   -0.126682
  12 C :   -0.173088
  13 C :   -0.013982
  14 C :    0.892235
  15 F :   -0.298379
  16 F :   -0.306976
  17 F :   -0.305510
  18 C :   -0.164090
  19 C :   -0.180780
  20 C :   -0.141490
  21 C :   -0.297275
  22 O :   -0.535168
  23 C :    0.329917
  24 C :   -0.146252
  25 Cl:    0.006800
  26 C :   -0.119287
  27 C :   -0.128759
  28 C :   -0.162693
  29 C :    0.053248
  30 H :    0.178679
  31 H :    0.177452
  32 H :    0.147689
  33 H :    0.169034
  34 H :    0.135515
  35 H :    0.157973
  36 H :    0.332606
  37 H :    0.161464
  38 H :    0.155947
  39 H :    0.152392
  40 H :    0.130305
  41 H :    0.142973
  42 H :    0.192753
  43 H :    0.171010
  44 H :    0.151413
  45 H :    0.163990
  46 H :    0.145893
  47 H :    0.169860
Sum of atomic charges:    0.0000000

LOEWDIN ATOMIC CHARGES
----------------------
   0 O :   -0.236426
   1 C :    0.129873
   2 C :   -0.254659
   3 C :    0.075933
   4 C :   -0.225451
   5 C :   -0.157203
   6 N :   -0.137942
   7 C :    0.168178
   8 O :   -0.294609
   9 N :   -0.224577
  10 C :    0.047921
  11 C :   -0.119119
  12 C :   -0.108980
  13 C :   -0.077957
  14 C :    0.309057
  15 F :   -0.115923
  16 F :   -0.115100
  17 F :   -0.113851
  18 C :   -0.110873
  19 C :   -0.146347
  20 C :   -0.146764
  21 C :   -0.238218
  22 O :   -0.157954
  23 C :    0.098558
  24 C :   -0.112554
  25 Cl:    0.050195
  26 C :   -0.106244
  27 C :   -0.138980
  28 C :   -0.084064
  29 C :   -0.089900
  30 H :    0.149238
  31 H :    0.152310
  32 H :    0.131633
  33 H :    0.141011
  34 H :    0.106443
  35 H :    0.133470
  36 H :    0.255985
  37 H :    0.151815
  38 H :    0.145818
  39 H :    0.144139
  40 H :    0.133487
  41 H :    0.111879
  42 H :    0.154609
  43 H :    0.141377
  44 H :    0.133703
  45 H :    0.151478
  46 H :    0.141098
  47 H :    0.154487

  Mayer bond orders larger than 0.100000
B(  0-O ,  1-C ) :   1.8686 B(  1-C ,  2-C ) :   0.9609 B(  1-C , 29-C ) :   1.0104
B(  2-C ,  3-C ) :   0.9471 B(  2-C , 30-H ) :   0.9110 B(  2-C , 31-H ) :   0.9076
B(  3-C ,  4-C ) :   0.9974 B(  3-C , 21-C ) :   0.9848 B(  3-C , 22-O ) :   0.8182
B(  4-C ,  5-C ) :   0.9813 B(  4-C , 32-H ) :   0.9253 B(  4-C , 33-H ) :   0.9232
B(  5-C ,  6-N ) :   0.9536 B(  5-C , 34-H ) :   0.9146 B(  5-C , 35-H ) :   0.9297
B(  6-N ,  7-C ) :   1.0372 B(  6-N , 20-C ) :   0.9425 B(  7-C ,  8-O ) :   1.8069
B(  7-C ,  9-N ) :   1.0078 B(  9-N , 10-C ) :   0.8695 B(  9-N , 36-H ) :   0.8182
B( 10-C , 11-C ) :   1.4192 B( 10-C , 19-C ) :   1.4048 B( 11-C , 12-C ) :   1.4341
B( 11-C , 37-H ) :   0.9103 B( 12-C , 13-C ) :   1.3984 B( 12-C , 38-H ) :   0.9195
B( 13-C , 14-C ) :   0.9823 B( 13-C , 18-C ) :   1.4125 B( 14-C , 15-F ) :   0.9846
B( 14-C , 16-F ) :   0.9468 B( 14-C , 17-F ) :   0.9486 B( 18-C , 19-C ) :   1.4372
B( 18-C , 39-H ) :   0.9192 B( 19-C , 40-H ) :   0.9245 B( 20-C , 21-C ) :   0.9826
B( 20-C , 41-H ) :   0.9213 B( 20-C , 42-H ) :   0.9155 B( 21-C , 43-H ) :   0.9243
B( 21-C , 44-H ) :   0.9218 B( 22-O , 23-C ) :   0.9606 B( 23-C , 24-C ) :   1.3223
B( 23-C , 29-C ) :   1.2964 B( 24-C , 25-Cl) :   1.0384 B( 24-C , 26-C ) :   1.4270
B( 26-C , 27-C ) :   1.4204 B( 26-C , 45-H ) :   0.9209 B( 27-C , 28-C ) :   1.4390
B( 27-C , 46-H ) :   0.9278 B( 28-C , 29-C ) :   1.3747 B( 28-C , 47-H ) :   0.9111

FINAL SINGLE POINT ENERGY     -1905.106086033082

DIPOLE MOMENT
-------------

Method             : SCF
Type of density    : Electron Density
Multiplicity       :   1
Irrep              :   0
Energy             : -1905.1060860330824198 Eh
Relativity type    :
Basis              : AO
                                X                 Y                 Z
Electronic contribution:    -30.444711119      11.344806458      -1.565123407
Nuclear contribution   :     31.963842934     -12.001144338       2.733427015
                        -----------------------------------------
Total Dipole Moment    :      1.519131815      -0.656337880       1.168303608
                        -----------------------------------------
Magnitude (a.u.)       :      2.025703385
Magnitude (Debye)      :      5.148928813

Rotational constants in cm-1:             0.016062             0.001252             0.001216
Rotational constants in MHz :           481.522948            37.529606            36.460907

                             ****ORCA TERMINATED NORMALLY****
TOTAL RUN TIME: 0 days 0 hours 4 minutes 46 seconds 246 msec
