                         Program Version 6.0.0  -   RELEASE  -
|  1> ! B3LYP 6-31G* SP
|  2>
|  3> * xyz -1 1
|  4> C 0.5393 -3.4400 -0.0746
|  5> C -0.8891 -3.0057 0.1591
|  6> C -1.1932 -1.6635 0.5030
|  7> N -0.1811 -0.6408 0.5437
|  8> C 0.3172 -0.1423 -0.7476
|  9> C 1.7287 0.3880 -0.6721
| 10> C 2.7546 -0.1606 0.0983
| 11> C 3.8610 0.6151 -0.1613
| 12> C 5.1473 0.5474 0.3692
| 13> C 6.0888 1.4996 -0.0651
| 14> Cl 7.7231 1.4638 0.5708
| 15> C 5.7219 2.4859 -1.0079
| 16> C 4.4139 2.5292 -1.5243
| 17> C 3.4988 1.5685 -1.0787
| 18> N 2.2017 1.4210 -1.4244
| 19> C 1.4411 2.2495 -2.3614
| 20> S -0.2029 0.4431 1.9131
| 21> O -0.9584 -0.1878 3.0521
| 22> O 1.1964 0.7219 2.3887
| 23> C -0.9925 1.9522 1.4600
| 24> C -0.2372 3.0180 0.9500
| 25> C -0.8664 4.2042 0.5555
| 26> C -2.2629 4.3430 0.6734
| 27> C -2.9339 5.6003 0.2673
| 28> O -2.2661 6.5553 -0.2201
| 29> O -4.3097 5.7475 0.4229
| 30> C -3.0159 3.2678 1.1844
| 31> C -2.3843 2.0807 1.5720
| 32> N -2.4827 -1.3065 0.7525
| 33> C -3.5129 -2.1820 0.6857
| 34> C -3.2810 -3.5105 0.3247
| 35> C -4.3510 -4.4131 0.2277
| 36> C -4.1199 -5.7374 -0.1459
| 37> C -2.8247 -6.1689 -0.4271
| 38> C -1.7492 -5.2802 -0.3384
| 39> C -1.9571 -3.9361 0.0469
| 40> H 1.2682 -2.6676 0.2214
| 41> H 0.7712 -4.3345 0.5405
| 42> H 0.6877 -3.6719 -1.1499
| 43> H 0.3032 -0.9506 -1.5094
| 44> H -0.3715 0.6538 -1.0969
| 45> H 2.6963 -0.9879 0.7919
| 46> H 5.4105 -0.2116 1.0954
| 47> H 6.4485 3.2177 -1.3359
| 48> H 4.1376 3.2935 -2.2371
| 49> H 0.6955 1.6348 -2.9083
| 50> H 0.9216 3.0591 -1.8091
| 51> H 2.1108 2.6992 -3.1244
| 52> H 0.8379 2.9295 0.8486
| 53> H -0.2605 5.0119 0.1595
| 54> H -4.0936 3.3413 1.2823
| 55> H -2.9822 1.2615 1.9562
| 56> H -4.5166 -1.8273 0.8842
| 57> H -5.3639 -4.0914 0.4323
| 58> H -4.9473 -6.4304 -0.2202
| 59> H -2.6513 -7.1969 -0.7188
| 60> H -0.7641 -5.6587 -0.5744
| 61> *
| 62>
| 63>                          ****END OF INPUT****

CARTESIAN COORDINATES (ANGSTROEM)
---------------------------------
  C      0.539300   -3.440000   -0.074600
  C     -0.889100   -3.005700    0.159100
  C     -1.193200   -1.663500    0.503000
  N     -0.181100   -0.640800    0.543700
  C      0.317200   -0.142300   -0.747600
  C      1.728700    0.388000   -0.672100
  C      2.754600   -0.160600    0.098300
  C      3.861000    0.615100   -0.161300
  C      5.147300    0.547400    0.369200
  C      6.088800    1.499600   -0.065100
  Cl     7.723100    1.463800    0.570800
  C      5.721900    2.485900   -1.007900
  C      4.413900    2.529200   -1.524300
  C      3.498800    1.568500   -1.078700
  N      2.201700    1.421000   -1.424400
  C      1.441100    2.249500   -2.361400
  S     -0.202900    0.443100    1.913100
  O     -0.958400   -0.187800    3.052100
  O      1.196400    0.721900    2.388700
  C     -0.992500    1.952200    1.460000
  C     -0.237200    3.018000    0.950000
  C     -0.866400    4.204200    0.555500
  C     -2.262900    4.343000    0.673400
  C     -2.933900    5.600300    0.267300
  O     -2.266100    6.555300   -0.220100
  O     -4.309700    5.747500    0.422900
  C     -3.015900    3.267800    1.184400
  C     -2.384300    2.080700    1.572000
  N     -2.482700   -1.306500    0.752500
  C     -3.512900   -2.182000    0.685700
  C     -3.281000   -3.510500    0.324700
  C     -4.351000   -4.413100    0.227700
  C     -4.119900   -5.737400   -0.145900
  C     -2.824700   -6.168900   -0.427100
  C     -1.749200   -5.280200   -0.338400
  C     -1.957100   -3.936100    0.046900
  H      1.268200   -2.667600    0.221400
  H      0.771200   -4.334500    0.540500
  H      0.687700   -3.671900   -1.149900
  H      0.303200   -0.950600   -1.509400
  H     -0.371500    0.653800   -1.096900
  H      2.696300   -0.987900    0.791900
  H      5.410500   -0.211600    1.095400
  H      6.448500    3.217700   -1.335900
  H      4.137600    3.293500   -2.237100
  H      0.695500    1.634800   -2.908300
  H      0.921600    3.059100   -1.809100
  H      2.110800    2.699200   -3.124400
  H      0.837900    2.929500    0.848600
  H     -0.260500    5.011900    0.159500
  H     -4.093600    3.341300    1.282300
  H     -2.982200    1.261500    1.956200
  H     -4.516600   -1.827300    0.884200
  H     -5.363900   -4.091400    0.432300
  H     -4.947300   -6.430400   -0.220200
  H     -2.651300   -7.196900   -0.718800
  H     -0.764100   -5.658700   -0.574400

 Total Charge           Charge          ....   -1
 Multiplicity           Mult            ....    1
 Number of Electrons    NEL             ....  270
 Basis Dimension        Dim             ....  554

ORBITAL ENERGIES
----------------

  NO   OCC          E(Eh)            E(eV)
   0   2.0000    -101.454280     -2760.7113
   1   2.0000     -89.000699     -2421.8321
   2   2.0000     -19.030336      -517.8418
   3   2.0000     -19.028743      -517.7984
   4   2.0000     -18.907743      -514.5058
   5   2.0000     -18.887169      -513.9460
   6   2.0000     -14.315457      -389.5434
   7   2.0000     -14.297436      -389.0530
   8   2.0000     -14.265182      -388.1753
   9   2.0000     -10.196680      -277.4658
  10   2.0000     -10.172016      -276.7946
  11   2.0000     -10.166120      -276.6342
  12   2.0000     -10.165108      -276.6066
  13   2.0000     -10.161048      -276.4962
  14   2.0000     -10.148068      -276.1430
  15   2.0000     -10.146797      -276.1084
  16   2.0000     -10.145166      -276.0640
  17   2.0000     -10.142013      -275.9782
  18   2.0000     -10.140355      -275.9331
  19   2.0000     -10.138866      -275.8926
  20   2.0000     -10.138617      -275.8858
  21   2.0000     -10.138561      -275.8843
  22   2.0000     -10.138334      -275.8781
  23   2.0000     -10.124408      -275.4991
  24   2.0000     -10.120460      -275.3917
  25   2.0000     -10.118293      -275.3328
  26   2.0000     -10.115436      -275.2550
  27   2.0000     -10.114921      -275.2410
  28   2.0000     -10.100744      -274.8552
  29   2.0000     -10.095850      -274.7221
  30   2.0000     -10.093582      -274.6603
  31   2.0000     -10.090213      -274.5687
  32   2.0000     -10.088785      -274.5298
  33   2.0000     -10.076561      -274.1972
  34   2.0000     -10.075162      -274.1591
  35   2.0000     -10.072463      -274.0857
  36   2.0000      -9.386228      -255.4122
  37   2.0000      -8.036621      -218.6876
  38   2.0000      -7.149048      -194.5355
  39   2.0000      -7.139883      -194.2861
  40   2.0000      -7.139729      -194.2819
  41   2.0000      -6.002141      -163.3266
  42   2.0000      -5.999632      -163.2583
  43   2.0000      -5.998656      -163.2317
  44   2.0000      -0.988091       -26.8873
  45   2.0000      -0.937707       -25.5163
  46   2.0000      -0.892677       -24.2910
  47   2.0000      -0.865421       -23.5493
  48   2.0000      -0.844275       -22.9739
  49   2.0000      -0.815282       -22.1850
  50   2.0000      -0.807952       -21.9855
  51   2.0000      -0.804322       -21.8867
  52   2.0000      -0.764506       -20.8033
  53   2.0000      -0.755488       -20.5579
  54   2.0000      -0.746717       -20.3192
  55   2.0000      -0.732692       -19.9376
  56   2.0000      -0.716546       -19.4982
  57   2.0000      -0.697237       -18.9728
  58   2.0000      -0.689848       -18.7717
  59   2.0000      -0.680295       -18.5118
  60   2.0000      -0.673401       -18.3242
  61   2.0000      -0.662803       -18.0358
  62   2.0000      -0.642419       -17.4811
  63   2.0000      -0.637230       -17.3399
  64   2.0000      -0.623978       -16.9793
  65   2.0000      -0.615143       -16.7389
  66   2.0000      -0.589213       -16.0333
  67   2.0000      -0.585087       -15.9210
  68   2.0000      -0.552823       -15.0431
  69   2.0000      -0.537372       -14.6226
  70   2.0000      -0.535769       -14.5790
  71   2.0000      -0.517866       -14.0918
  72   2.0000      -0.507596       -13.8124
  73   2.0000      -0.500433       -13.6175
  74   2.0000      -0.493889       -13.4394
  75   2.0000      -0.472003       -12.8438
  76   2.0000      -0.459144       -12.4939
  77   2.0000      -0.456910       -12.4331
  78   2.0000      -0.442594       -12.0436
  79   2.0000      -0.436591       -11.8802
  80   2.0000      -0.423204       -11.5160
  81   2.0000      -0.421143       -11.4599
  82   2.0000      -0.414026       -11.2662
  83   2.0000      -0.403463       -10.9788
  84   2.0000      -0.393574       -10.7097
  85   2.0000      -0.391332       -10.6487
  86   2.0000      -0.386701       -10.5227
  87   2.0000      -0.384568       -10.4646
  88   2.0000      -0.378239       -10.2924
  89   2.0000      -0.375854       -10.2275
  90   2.0000      -0.372230       -10.1289
  91   2.0000      -0.368117       -10.0170
  92   2.0000      -0.356407        -9.6983
  93   2.0000      -0.355437        -9.6719
  94   2.0000      -0.349041        -9.4979
  95   2.0000      -0.344458        -9.3732
  96   2.0000      -0.337937        -9.1957
  97   2.0000      -0.335648        -9.1334
  98   2.0000      -0.335042        -9.1170
  99   2.0000      -0.332937        -9.0597
 100   2.0000      -0.324975        -8.8430
 101   2.0000      -0.323111        -8.7923
 102   2.0000      -0.320844        -8.7306
 103   2.0000      -0.315906        -8.5962
 104   2.0000      -0.309710        -8.4276
 105   2.0000      -0.301374        -8.2008
 106   2.0000      -0.295209        -8.0331
 107   2.0000      -0.293299        -7.9811
 108   2.0000      -0.291609        -7.9351
 109   2.0000      -0.290226        -7.8974
 110   2.0000      -0.281800        -7.6682
 111   2.0000      -0.272346        -7.4109
 112   2.0000      -0.244266        -6.6468
 113   2.0000      -0.240480        -6.5438
 114   2.0000      -0.237791        -6.4706
 115   2.0000      -0.234850        -6.3906
 116   2.0000      -0.229566        -6.2468
 117   2.0000      -0.228927        -6.2294
 118   2.0000      -0.219672        -5.9776
 119   2.0000      -0.212080        -5.7710
 120   2.0000      -0.208774        -5.6810
 121   2.0000      -0.199884        -5.4391
 122   2.0000      -0.195008        -5.3064
 123   2.0000      -0.190425        -5.1817
 124   2.0000      -0.186495        -5.0748
 125   2.0000      -0.185132        -5.0377
 126   2.0000      -0.169842        -4.6216
 127   2.0000      -0.155790        -4.2393
 128   2.0000      -0.149296        -4.0625
 129   2.0000      -0.147918        -4.0250
 130   2.0000      -0.131109        -3.5677
 131   2.0000      -0.124052        -3.3756
 132   2.0000      -0.061582        -1.6757
 133   2.0000      -0.040025        -1.0891
 134   2.0000      -0.023524        -0.6401
 135   0.0000      -0.000168        -0.0046
 136   0.0000       0.035466         0.9651
 137   0.0000       0.050451         1.3728
 138   0.0000       0.063386         1.7248
 139   0.0000       0.080315         2.1855

MULLIKEN ATOMIC CHARGES
-----------------------
   0 C :   -0.554382
   1 C :    0.082035
   2 C :    0.340120
   3 N :   -0.615113
   4 C :   -0.226415
   5 C :    0.240911
   6 C :   -0.207106
   7 C :    0.144176
   8 C :   -0.202167
   9 C :   -0.085785
  10 Cl:   -0.061711
  11 C :   -0.153762
  12 C :   -0.176392
  13 C :    0.288461
  14 N :   -0.476745
  15 C :   -0.341947
  16 S :    1.225649
  17 O :   -0.560833
  18 O :   -0.548341
  19 C :   -0.164597
  20 C :   -0.170374
  21 C :   -0.166819
  22 C :    0.104555
  23 C :    0.412371
  24 O :   -0.555900
  25 O :   -0.657362
  26 C :   -0.154402
  27 C :   -0.139121
  28 N :   -0.376840
  29 C :   -0.044609
  30 C :    0.128847
  31 C :   -0.200979
  32 C :   -0.131410
  33 C :   -0.122137
  34 C :   -0.201493
  35 C :    0.127132
  36 H :    0.197521
  37 H :    0.158191
  38 H :    0.149987
  39 H :    0.173341
  40 H :    0.175610
  41 H :    0.148042
  42 H :    0.137106
  43 H :    0.128444
  44 H :    0.125436
  45 H :    0.167572
  46 H :    0.205630
  47 H :    0.167786
  48 H :    0.152949
  49 H :    0.143248
  50 H :    0.151990
  51 H :    0.159151
  52 H :    0.152250
  53 H :    0.133561
  54 H :    0.121701
  55 H :    0.122944
  56 H :    0.130024
Sum of atomic charges:   -1.0000000

LOEWDIN ATOMIC CHARGES
----------------------
   0 C :   -0.363559
   1 C :   -0.028113
   2 C :    0.051240
   3 N :   -0.285573
   4 C :   -0.155386
   5 C :   -0.007556
   6 C :   -0.169029
   7 C :   -0.034877
   8 C :   -0.134133
   9 C :   -0.106870
  10 Cl:    0.004599
  11 C :   -0.156603
  12 C :   -0.150680
  13 C :    0.005941
  14 N :    0.011604
  15 C :   -0.268877
  16 S :    1.268186
  17 O :   -0.580954
  18 O :   -0.570985
  19 C :   -0.219089
  20 C :   -0.134928
  21 C :   -0.124573
  22 C :   -0.003558
  23 C :    0.073752
  24 O :   -0.381752
  25 O :   -0.506186
  26 C :   -0.108864
  27 C :   -0.114750
  28 N :   -0.116474
  29 C :   -0.057323
  30 C :   -0.032990
  31 C :   -0.111945
  32 C :   -0.138295
  33 C :   -0.125324
  34 C :   -0.129549
  35 C :   -0.005753
  36 H :    0.147994
  37 H :    0.134947
  38 H :    0.130664
  39 H :    0.143149
  40 H :    0.134094
  41 H :    0.141371
  42 H :    0.139989
  43 H :    0.134757
  44 H :    0.131196
  45 H :    0.136457
  46 H :    0.150170
  47 H :    0.137682
  48 H :    0.140361
  49 H :    0.143960
  50 H :    0.150029
  51 H :    0.147184
  52 H :    0.137300
  53 H :    0.134706
  54 H :    0.128817
  55 H :    0.129627
  56 H :    0.134776

  Mayer bond orders larger than 0.100000
B(  0-C ,  1-C ) :   0.9959 B(  0-C , 36-H ) :   0.9172 B(  0-C , 37-H ) :   0.9311
B(  0-C , 38-H ) :   0.9297 B(  1-C ,  2-C ) :   1.4302 B(  1-C , 29-C ) :   0.1030
B(  1-C , 35-C ) :   1.2701 B(  2-C ,  3-N ) :   0.9151 B(  2-C , 28-N ) :   1.2771
B(  3-N ,  4-C ) :   0.9344 B(  3-N , 16-S ) :   0.7428 B(  4-C ,  5-C ) :   0.9715
B(  4-C , 39-H ) :   0.9122 B(  4-C , 40-H ) :   0.9070 B(  5-C ,  6-C ) :   1.5126
B(  5-C , 14-N ) :   1.1140 B(  6-C ,  7-C ) :   1.2938 B(  6-C , 41-H ) :   0.9147
B(  7-C ,  8-C ) :   1.3240 B(  7-C , 13-C ) :   1.3070 B(  8-C ,  9-C ) :   1.4367
B(  8-C , 42-H ) :   0.9226 B(  9-C , 10-Cl) :   0.9759 B(  9-C , 11-C ) :   1.3496
B( 11-C , 12-C ) :   1.4698 B( 11-C , 43-H ) :   0.9285 B( 12-C , 13-C ) :   1.3497
B( 12-C , 44-H ) :   0.9176 B( 13-C , 14-N ) :   1.0360 B( 14-N , 15-C ) :   0.9495
B( 15-C , 45-H ) :   0.9383 B( 15-C , 46-H ) :   0.9127 B( 15-C , 47-H ) :   0.9346
B( 16-S , 17-O ) :   1.6164 B( 16-S , 18-O ) :   1.6296 B( 16-S , 19-C ) :   0.8447
B( 19-C , 20-C ) :   1.3629 B( 19-C , 27-C ) :   1.3708 B( 20-C , 21-C ) :   1.3971
B( 20-C , 48-H ) :   0.9163 B( 21-C , 22-C ) :   1.3894 B( 21-C , 49-H ) :   0.9076
B( 22-C , 23-C ) :   0.9275 B( 22-C , 26-C ) :   1.3977 B( 23-C , 24-O ) :   1.7016
B( 23-C , 25-O ) :   1.5494 B( 24-O , 25-O ) :   0.1493 B( 26-C , 27-C ) :   1.4023
B( 26-C , 50-H ) :   0.9027 B( 27-C , 51-H ) :   0.9131 B( 28-N , 29-C ) :   1.4993
B( 29-C , 30-C ) :   1.2306 B( 29-C , 52-H ) :   0.9265 B( 30-C , 31-C ) :   1.2871
B( 30-C , 35-C ) :   1.2884 B( 31-C , 32-C ) :   1.5114 B( 31-C , 34-C ) :   0.1064
B( 31-C , 53-H ) :   0.9238 B( 32-C , 33-C ) :   1.3540 B( 32-C , 54-H ) :   0.9315
B( 33-C , 34-C ) :   1.5095 B( 33-C , 55-H ) :   0.9314 B( 34-C , 35-C ) :   1.2935
B( 34-C , 56-H ) :   0.9171

FINAL SINGLE POINT ENERGY     -2363.961565928919

DIPOLE MOMENT
-------------

Method             : SCF
Type of density    : Electron Density
Multiplicity       :   1
Irrep              :   0
Energy             : -2363.9615659289188443 Eh
Relativity type    :
Basis              : AO
                                X                 Y                 Z
Electronic contribution:     18.496552527      10.724730897      11.930400813
Nuclear contribution   :    -15.354691551     -19.615753889     -14.617053704
                        -----------------------------------------
Total Dipole Moment    :      3.141860976      -8.891022992      -2.686652891
                        -----------------------------------------
Magnitude (a.u.)       :      9.805084599
Magnitude (Debye)      :     24.922544424

Rotational constants in cm-1:             0.003398             0.002284             0.001514
Rotational constants in MHz :           101.880852            68.468264            45.401064

                             ****ORCA TERMINATED NORMALLY****
TOTAL RUN TIME: 0 days 0 hours 12 minutes 42 seconds 490 msec
