                         Program Version 6.0.0  -   RELEASE  -
|  1> ! B3LYP 6-31G* SP
|  2>
|  3> * xyz 0 1
|  4> O 5.3441 3.1343 1.6571
|  5> C 4.9798 1.9269 1.6760
|  6> O 5.5026 1.0726 2.6442
|  7> C 4.0078 1.4214 0.6819
|  8> C 3.5769 0.0839 0.7283
|  9> C 2.6548 -0.3961 -0.2061
| 10> C 2.1510 0.4507 -1.2000
| 11> S 0.9638 -0.1519 -2.3504
| 12> O 1.2697 -1.5882 -2.6748
| 13> O 1.0286 0.6397 -3.6270
| 14> N -0.6277 -0.0287 -1.6677
| 15> C -1.3111 1.2643 -1.6037
| 16> C -1.5441 1.6592 -0.1692
| 17> C -0.5918 2.4319 0.5199
| 18> C -0.7827 2.7486 1.8684
| 19> C -1.9218 2.2926 2.5396
| 20> C -2.8717 1.5197 1.8632
| 21> C -2.6854 1.2027 0.5142
| 22> C -1.3143 -1.2208 -1.2756
| 23> N -2.2233 -1.7832 -2.1167
| 24> C -2.9090 -2.9095 -1.7848
| 25> C -2.7052 -3.5202 -0.5348
| 26> C -3.4231 -4.7902 -0.1547
| 27> F -4.5483 -4.9835 -0.9371
| 28> F -2.5696 -5.8640 -0.3242
| 29> F -3.8197 -4.7329 1.1701
| 30> C -1.7579 -2.9600 0.3364
| 31> C -1.0645 -1.8053 -0.0284
| 32> F -0.1782 -1.2474 0.8334
| 33> C 2.5791 1.7828 -1.2557
| 34> C 3.4985 2.2672 -0.3203
| 35> H 6.1657 1.4084 3.3320
| 36> H 3.9478 -0.5924 1.4884
| 37> H 2.3302 -1.4283 -0.1513
| 38> H -2.2790 1.2008 -2.1488
| 39> H -0.7075 2.0477 -2.1133
| 40> H 0.2956 2.7908 0.0149
| 41> H -0.0480 3.3479 2.3936
| 42> H -2.0674 2.5378 3.5839
| 43> H -3.7509 1.1632 2.3853
| 44> H -3.4228 0.5922 0.0053
| 45> H -3.6103 -3.3237 -2.4976
| 46> H -1.5593 -3.4152 1.2993
| 47> H 2.1905 2.4513 -2.0130
| 48> H 3.8080 3.3033 -0.3802
| 49> *
| 50>
| 51>                          ****END OF INPUT****

CARTESIAN COORDINATES (ANGSTROEM)
---------------------------------
  O      5.344100    3.134300    1.657100
  C      4.979800    1.926900    1.676000
  O      5.502600    1.072600    2.644200
  C      4.007800    1.421400    0.681900
  C      3.576900    0.083900    0.728300
  C      2.654800   -0.396100   -0.206100
  C      2.151000    0.450700   -1.200000
  S      0.963800   -0.151900   -2.350400
  O      1.269700   -1.588200   -2.674800
  O      1.028600    0.639700   -3.627000
  N     -0.627700   -0.028700   -1.667700
  C     -1.311100    1.264300   -1.603700
  C     -1.544100    1.659200   -0.169200
  C     -0.591800    2.431900    0.519900
  C     -0.782700    2.748600    1.868400
  C     -1.921800    2.292600    2.539600
  C     -2.871700    1.519700    1.863200
  C     -2.685400    1.202700    0.514200
  C     -1.314300   -1.220800   -1.275600
  N     -2.223300   -1.783200   -2.116700
  C     -2.909000   -2.909500   -1.784800
  C     -2.705200   -3.520200   -0.534800
  C     -3.423100   -4.790200   -0.154700
  F     -4.548300   -4.983500   -0.937100
  F     -2.569600   -5.864000   -0.324200
  F     -3.819700   -4.732900    1.170100
  C     -1.757900   -2.960000    0.336400
  C     -1.064500   -1.805300   -0.028400
  F     -0.178200   -1.247400    0.833400
  C      2.579100    1.782800   -1.255700
  C      3.498500    2.267200   -0.320300
  H      6.165700    1.408400    3.332000
  H      3.947800   -0.592400    1.488400
  H      2.330200   -1.428300   -0.151300
  H     -2.279000    1.200800   -2.148800
  H     -0.707500    2.047700   -2.113300
  H      0.295600    2.790800    0.014900
  H     -0.048000    3.347900    2.393600
  H     -2.067400    2.537800    3.583900
  H     -3.750900    1.163200    2.385300
  H     -3.422800    0.592200    0.005300
  H     -3.610300   -3.323700   -2.497600
  H     -1.559300   -3.415200    1.299300
  H      2.190500    2.451300   -2.013000
  H      3.808000    3.303300   -0.380200

 Total Charge           Charge          ....    0
 Multiplicity           Mult            ....    1
 Number of Electrons    NEL             ....  232
 Basis Dimension        Dim             ....  466

ORBITAL ENERGIES
----------------

  NO   OCC          E(Eh)            E(eV)
   0   2.0000     -89.105764     -2424.6911
   1   2.0000     -24.737034      -673.1289
   2   2.0000     -24.734926      -673.0715
   3   2.0000     -24.734475      -673.0593
   4   2.0000     -24.731462      -672.9773
   5   2.0000     -19.200115      -522.4617
   6   2.0000     -19.142196      -520.8856
   7   2.0000     -19.133470      -520.6482
   8   2.0000     -19.133259      -520.6424
   9   2.0000     -14.382707      -391.3733
  10   2.0000     -14.363313      -390.8456
  11   2.0000     -10.453970      -284.4670
  12   2.0000     -10.339677      -281.3569
  13   2.0000     -10.308015      -280.4954
  14   2.0000     -10.293145      -280.0907
  15   2.0000     -10.253939      -279.0239
  16   2.0000     -10.247617      -278.8518
  17   2.0000     -10.243352      -278.7358
  18   2.0000     -10.239200      -278.6228
  19   2.0000     -10.238704      -278.6093
  20   2.0000     -10.236834      -278.5584
  21   2.0000     -10.225926      -278.2616
  22   2.0000     -10.224436      -278.2210
  23   2.0000     -10.222587      -278.1707
  24   2.0000     -10.221705      -278.1467
  25   2.0000     -10.200952      -277.5820
  26   2.0000     -10.193264      -277.3728
  27   2.0000     -10.192454      -277.3508
  28   2.0000     -10.192376      -277.3487
  29   2.0000     -10.191900      -277.3357
  30   2.0000     -10.191146      -277.3152
  31   2.0000      -8.141466      -221.5406
  32   2.0000      -6.106651      -166.1704
  33   2.0000      -6.104419      -166.1097
  34   2.0000      -6.104031      -166.0991
  35   2.0000      -1.295501       -35.2524
  36   2.0000      -1.245857       -33.9015
  37   2.0000      -1.221221       -33.2311
  38   2.0000      -1.218947       -33.1692
  39   2.0000      -1.090984       -29.6872
  40   2.0000      -1.084632       -29.5143
  41   2.0000      -0.998981       -27.1836
  42   2.0000      -0.984143       -26.7799
  43   2.0000      -0.969068       -26.3697
  44   2.0000      -0.932570       -25.3765
  45   2.0000      -0.895352       -24.3638
  46   2.0000      -0.860176       -23.4066
  47   2.0000      -0.844938       -22.9919
  48   2.0000      -0.813473       -22.1357
  49   2.0000      -0.803466       -21.8634
  50   2.0000      -0.781651       -21.2698
  51   2.0000      -0.775112       -21.0919
  52   2.0000      -0.752356       -20.4726
  53   2.0000      -0.731164       -19.8960
  54   2.0000      -0.717371       -19.5206
  55   2.0000      -0.690933       -18.8013
  56   2.0000      -0.673182       -18.3182
  57   2.0000      -0.662179       -18.0188
  58   2.0000      -0.645613       -17.5680
  59   2.0000      -0.630714       -17.1626
  60   2.0000      -0.615248       -16.7417
  61   2.0000      -0.606998       -16.5172
  62   2.0000      -0.594866       -16.1871
  63   2.0000      -0.590340       -16.0640
  64   2.0000      -0.587656       -15.9909
  65   2.0000      -0.585421       -15.9301
  66   2.0000      -0.568902       -15.4806
  67   2.0000      -0.547296       -14.8927
  68   2.0000      -0.541332       -14.7304
  69   2.0000      -0.534358       -14.5406
  70   2.0000      -0.529896       -14.4192
  71   2.0000      -0.513569       -13.9749
  72   2.0000      -0.498402       -13.5622
  73   2.0000      -0.490904       -13.3582
  74   2.0000      -0.486189       -13.2299
  75   2.0000      -0.479026       -13.0349
  76   2.0000      -0.473892       -12.8953
  77   2.0000      -0.471471       -12.8294
  78   2.0000      -0.465191       -12.6585
  79   2.0000      -0.464640       -12.6435
  80   2.0000      -0.463199       -12.6043
  81   2.0000      -0.459683       -12.5086
  82   2.0000      -0.453024       -12.3274
  83   2.0000      -0.446360       -12.1461
  84   2.0000      -0.440225       -11.9791
  85   2.0000      -0.436772       -11.8852
  86   2.0000      -0.433595       -11.7987
  87   2.0000      -0.430444       -11.7130
  88   2.0000      -0.429213       -11.6795
  89   2.0000      -0.426865       -11.6156
  90   2.0000      -0.420598       -11.4450
  91   2.0000      -0.417690       -11.3659
  92   2.0000      -0.412968       -11.2374
  93   2.0000      -0.409543       -11.1442
  94   2.0000      -0.402146       -10.9429
  95   2.0000      -0.397094       -10.8055
  96   2.0000      -0.393274       -10.7015
  97   2.0000      -0.389806       -10.6072
  98   2.0000      -0.372852       -10.1458
  99   2.0000      -0.368489       -10.0271
 100   2.0000      -0.359009        -9.7691
 101   2.0000      -0.350636        -9.5413
 102   2.0000      -0.336245        -9.1497
 103   2.0000      -0.326053        -8.8723
 104   2.0000      -0.316114        -8.6019
 105   2.0000      -0.311510        -8.4766
 106   2.0000      -0.301279        -8.1982
 107   2.0000      -0.295067        -8.0292
 108   2.0000      -0.287893        -7.8340
 109   2.0000      -0.284976        -7.7546
 110   2.0000      -0.281822        -7.6688
 111   2.0000      -0.279232        -7.5983
 112   2.0000      -0.277091        -7.5400
 113   2.0000      -0.263418        -7.1680
 114   2.0000      -0.257377        -7.0036
 115   2.0000      -0.249719        -6.7952
 116   0.0000      -0.088970        -2.4210
 117   0.0000      -0.070100        -1.9075
 118   0.0000      -0.044686        -1.2160
 119   0.0000      -0.035820        -0.9747
 120   0.0000      -0.016694        -0.4543

MULLIKEN ATOMIC CHARGES
-----------------------
   0 O :   -0.443820
   1 C :    0.528991
   2 O :   -0.623252
   3 C :    0.083727
   4 C :   -0.146422
   5 C :   -0.133170
   6 C :   -0.110254
   7 S :    1.199205
   8 O :   -0.538347
   9 O :   -0.531681
  10 N :   -0.584506
  11 C :   -0.255767
  12 C :    0.169479
  13 C :   -0.169039
  14 C :   -0.127565
  15 C :   -0.124063
  16 C :   -0.125743
  17 C :   -0.180938
  18 C :    0.317360
  19 N :   -0.363835
  20 C :   -0.013164
  21 C :   -0.023323
  22 C :    0.906441
  23 F :   -0.300682
  24 F :   -0.290617
  25 F :   -0.301404
  26 C :   -0.202829
  27 C :    0.425934
  28 F :   -0.301007
  29 C :   -0.156811
  30 C :   -0.140128
  31 H :    0.435215
  32 H :    0.174939
  33 H :    0.180755
  34 H :    0.185537
  35 H :    0.187729
  36 H :    0.126535
  37 H :    0.135091
  38 H :    0.132382
  39 H :    0.133043
  40 H :    0.133419
  41 H :    0.183905
  42 H :    0.182683
  43 H :    0.184183
  44 H :    0.181815
Sum of atomic charges:   -0.0000000

LOEWDIN ATOMIC CHARGES
----------------------
   0 O :   -0.260042
   1 C :    0.180509
   2 O :   -0.334208
   3 C :   -0.037514
   4 C :   -0.096784
   5 C :   -0.096078
   6 C :   -0.173737
   7 S :    1.267321
   8 O :   -0.566193
   9 O :   -0.561682
  10 N :   -0.278641
  11 C :   -0.144807
  12 C :   -0.035400
  13 C :   -0.130497
  14 C :   -0.123888
  15 C :   -0.126552
  16 C :   -0.125970
  17 C :   -0.136904
  18 C :    0.041727
  19 N :   -0.098479
  20 C :   -0.056302
  21 C :   -0.071598
  22 C :    0.312543
  23 F :   -0.106987
  24 F :   -0.107198
  25 F :   -0.111119
  26 C :   -0.110836
  27 C :    0.114628
  28 F :   -0.083710
  29 C :   -0.109920
  30 C :   -0.088147
  31 H :    0.350490
  32 H :    0.155938
  33 H :    0.157828
  34 H :    0.143063
  35 H :    0.149590
  36 H :    0.131169
  37 H :    0.134351
  38 H :    0.133399
  39 H :    0.133461
  40 H :    0.132447
  41 H :    0.152980
  42 H :    0.162104
  43 H :    0.158776
  44 H :    0.160871

  Mayer bond orders larger than 0.100000
B(  0-O ,  1-C ) :   1.8628 B(  1-C ,  2-O ) :   1.0261 B(  1-C ,  3-C ) :   1.0076
B(  2-O , 31-H ) :   0.7411 B(  3-C ,  4-C ) :   1.3829 B(  3-C , 30-C ) :   1.4035
B(  4-C ,  5-C ) :   1.4198 B(  4-C , 32-H ) :   0.9142 B(  5-C ,  6-C ) :   1.3943
B(  5-C , 33-H ) :   0.9083 B(  6-C ,  7-S ) :   0.8130 B(  6-C , 29-C ) :   1.3806
B(  7-S ,  8-O ) :   1.6396 B(  7-S ,  9-O ) :   1.6436 B(  7-S , 10-N ) :   0.8066
B( 10-N , 11-C ) :   0.9092 B( 10-N , 18-C ) :   0.9241 B( 11-C , 12-C ) :   0.9402
B( 11-C , 34-H ) :   0.9197 B( 11-C , 35-H ) :   0.9173 B( 12-C , 13-C ) :   1.4292
B( 12-C , 17-C ) :   1.4283 B( 13-C , 14-C ) :   1.4497 B( 13-C , 36-H ) :   0.9165
B( 14-C , 15-C ) :   1.4507 B( 14-C , 37-H ) :   0.9285 B( 15-C , 16-C ) :   1.4552
B( 15-C , 38-H ) :   0.9296 B( 16-C , 17-C ) :   1.4396 B( 16-C , 39-H ) :   0.9289
B( 17-C , 40-H ) :   0.9231 B( 18-C , 19-N ) :   1.3978 B( 18-C , 27-C ) :   1.2984
B( 19-N , 20-C ) :   1.4117 B( 20-C , 21-C ) :   1.3660 B( 20-C , 41-H ) :   0.9176
B( 21-C , 22-C ) :   0.9727 B( 21-C , 26-C ) :   1.3876 B( 22-C , 23-F ) :   0.9495
B( 22-C , 24-F ) :   0.9885 B( 22-C , 25-F ) :   0.9548 B( 26-C , 27-C ) :   1.3704
B( 26-C , 42-H ) :   0.9066 B( 27-C , 28-F ) :   0.9275 B( 29-C , 30-C ) :   1.4137
B( 29-C , 43-H ) :   0.9096 B( 30-C , 44-H ) :   0.9091

FINAL SINGLE POINT ENERGY     -1977.506547797276

DIPOLE MOMENT
-------------

Method             : SCF
Type of density    : Electron Density
Multiplicity       :   1
Irrep              :   0
Energy             : -1977.5065477972764256 Eh
Relativity type    :
Basis              : AO
                                X                 Y                 Z
Electronic contribution:    -12.476162021     -31.721466251      -4.219070628
Nuclear contribution   :     12.201053666      32.059919320       6.596734588
                        -----------------------------------------
Total Dipole Moment    :     -0.275108354       0.338453069       2.377663960
                        -----------------------------------------
Magnitude (a.u.)       :      2.417337584
Magnitude (Debye)      :      6.144383836

Rotational constants in cm-1:             0.007147             0.002567             0.002460
Rotational constants in MHz :           214.274881            76.944798            73.755119

                             ****ORCA TERMINATED NORMALLY****
TOTAL RUN TIME: 0 days 0 hours 5 minutes 30 seconds 434 msec
