                         Program Version 6.0.0  -   RELEASE  -
|  1> ! B3LYP 6-31G* SP
|  2>
|  3> * xyz 0 1
|  4> C 0.1018 3.6127 1.1898
|  5> C 1.4679 2.9905 1.3614
|  6> C 1.6527 1.5896 1.2267
|  7> N 0.5792 0.7089 0.8421
|  8> C 0.1850 0.7243 -0.5763
|  9> C -1.2150 0.2098 -0.8273
| 10> C -2.3074 0.6195 -0.0269
| 11> C -3.6083 0.1865 -0.3168
| 12> C -3.8187 -0.6260 -1.4364
| 13> C -2.7671 -1.0087 -2.2333
| 14> C -1.4590 -0.6083 -1.9501
| 15> C -3.2006 -1.8627 -3.3633
| 16> C -4.7382 -1.7984 -3.3037
| 17> C -5.1178 -1.1899 -1.9211
| 18> C -6.1857 -0.0895 -2.0707
| 19> C -5.6061 -2.2896 -0.9588
| 20> S 0.4152 -0.7581 1.7743
| 21> O 0.6437 -0.4431 3.2274
| 22> O -0.9662 -1.3353 1.6425
| 23> C 1.5917 -1.9519 1.2338
| 24> C 2.7543 -2.1912 1.9780
| 25> C 3.6815 -3.1457 1.5486
| 26> C 3.4616 -3.8699 0.3629
| 27> C 4.4316 -4.8910 -0.0890
| 28> O 5.4705 -5.1268 0.5845
| 29> O 4.1987 -5.6114 -1.2590
| 30> C 2.2973 -3.6168 -0.3843
| 31> C 1.3686 -2.6667 0.0510
| 32> N 2.8837 1.0503 1.4412
| 33> C 3.9679 1.7944 1.7642
| 34> C 3.8575 3.1811 1.8739
| 35> C 4.9863 3.9578 2.1780
| 36> C 4.8750 5.3448 2.2845
| 37> C 3.6429 5.9660 2.0783
| 38> C 2.5118 5.2053 1.7687
| 39> C 2.5968 3.7975 1.6676
| 40> H -0.1293 4.2646 2.0580
| 41> H -0.7005 2.8579 1.1571
| 42> H 0.0719 4.2073 0.2522
| 43> H 0.9250 0.1252 -1.1495
| 44> H 0.2345 1.7597 -0.9746
| 45> H -2.1572 1.2439 0.8388
| 46> H -4.4339 0.4857 0.3153
| 47> H -0.6502 -0.9170 -2.6009
| 48> H -2.8439 -2.9055 -3.2055
| 49> H -2.8185 -1.4653 -4.3294
| 50> H -5.1806 -2.8083 -3.4590
| 51> H -5.0939 -1.1495 -4.1354
| 52> H -6.4832 0.3064 -1.0753
| 53> H -7.0893 -0.5020 -2.5695
| 54> H -5.7972 0.7539 -2.6843
| 55> H -5.7735 -1.8750 0.0599
| 56> H -6.5631 -2.7241 -1.3234
| 57> H -4.8552 -3.1066 -0.8853
| 58> H 2.9465 -1.6375 2.8899
| 59> H 4.5699 -3.3162 2.1457
| 60> H 4.8446 -6.3293 -1.5632
| 61> H 2.1025 -4.1498 -1.3054
| 62> H 0.4741 -2.4888 -0.5332
| 63> H 4.9197 1.3005 1.9101
| 64> H 5.9545 3.4920 2.3250
| 65> H 5.7465 5.9420 2.5168
| 66> H 3.5644 7.0430 2.1541
| 67> H 1.5822 5.7344 1.6076
| 68> *
| 69>
| 70>                          ****END OF INPUT****

CARTESIAN COORDINATES (ANGSTROEM)
---------------------------------
  C      0.101800    3.612700    1.189800
  C      1.467900    2.990500    1.361400
  C      1.652700    1.589600    1.226700
  N      0.579200    0.708900    0.842100
  C      0.185000    0.724300   -0.576300
  C     -1.215000    0.209800   -0.827300
  C     -2.307400    0.619500   -0.026900
  C     -3.608300    0.186500   -0.316800
  C     -3.818700   -0.626000   -1.436400
  C     -2.767100   -1.008700   -2.233300
  C     -1.459000   -0.608300   -1.950100
  C     -3.200600   -1.862700   -3.363300
  C     -4.738200   -1.798400   -3.303700
  C     -5.117800   -1.189900   -1.921100
  C     -6.185700   -0.089500   -2.070700
  C     -5.606100   -2.289600   -0.958800
  S      0.415200   -0.758100    1.774300
  O      0.643700   -0.443100    3.227400
  O     -0.966200   -1.335300    1.642500
  C      1.591700   -1.951900    1.233800
  C      2.754300   -2.191200    1.978000
  C      3.681500   -3.145700    1.548600
  C      3.461600   -3.869900    0.362900
  C      4.431600   -4.891000   -0.089000
  O      5.470500   -5.126800    0.584500
  O      4.198700   -5.611400   -1.259000
  C      2.297300   -3.616800   -0.384300
  C      1.368600   -2.666700    0.051000
  N      2.883700    1.050300    1.441200
  C      3.967900    1.794400    1.764200
  C      3.857500    3.181100    1.873900
  C      4.986300    3.957800    2.178000
  C      4.875000    5.344800    2.284500
  C      3.642900    5.966000    2.078300
  C      2.511800    5.205300    1.768700
  C      2.596800    3.797500    1.667600
  H     -0.129300    4.264600    2.058000
  H     -0.700500    2.857900    1.157100
  H      0.071900    4.207300    0.252200
  H      0.925000    0.125200   -1.149500
  H      0.234500    1.759700   -0.974600
  H     -2.157200    1.243900    0.838800
  H     -4.433900    0.485700    0.315300
  H     -0.650200   -0.917000   -2.600900
  H     -2.843900   -2.905500   -3.205500
  H     -2.818500   -1.465300   -4.329400
  H     -5.180600   -2.808300   -3.459000
  H     -5.093900   -1.149500   -4.135400
  H     -6.483200    0.306400   -1.075300
  H     -7.089300   -0.502000   -2.569500
  H     -5.797200    0.753900   -2.684300
  H     -5.773500   -1.875000    0.059900
  H     -6.563100   -2.724100   -1.323400
  H     -4.855200   -3.106600   -0.885300
  H      2.946500   -1.637500    2.889900
  H      4.569900   -3.316200    2.145700
  H      4.844600   -6.329300   -1.563200
  H      2.102500   -4.149800   -1.305400
  H      0.474100   -2.488800   -0.533200
  H      4.919700    1.300500    1.910100
  H      5.954500    3.492000    2.325000
  H      5.746500    5.942000    2.516800
  H      3.564400    7.043000    2.154100
  H      1.582200    5.734400    1.607600

 Total Charge           Charge          ....    0
 Multiplicity           Mult            ....    1
 Number of Electrons    NEL             ....  264
 Basis Dimension        Dim             ....  564

ORBITAL ENERGIES
----------------

  NO   OCC          E(Eh)            E(eV)
   0   2.0000     -89.089364     -2424.2448
   1   2.0000     -19.190098      -522.1891
   2   2.0000     -19.131025      -520.5817
   3   2.0000     -19.118208      -520.2329
   4   2.0000     -19.116007      -520.1730
   5   2.0000     -14.374713      -391.1558
   6   2.0000     -14.333218      -390.0267
   7   2.0000     -10.328197      -281.0445
   8   2.0000     -10.262691      -279.2620
   9   2.0000     -10.233789      -278.4755
  10   2.0000     -10.230194      -278.3777
  11   2.0000     -10.226462      -278.2762
  12   2.0000     -10.221893      -278.1519
  13   2.0000     -10.210265      -277.8354
  14   2.0000     -10.210109      -277.8312
  15   2.0000     -10.207982      -277.7733
  16   2.0000     -10.207806      -277.7685
  17   2.0000     -10.207102      -277.7494
  18   2.0000     -10.206064      -277.7211
  19   2.0000     -10.200241      -277.5627
  20   2.0000     -10.198663      -277.5197
  21   2.0000     -10.198505      -277.5154
  22   2.0000     -10.196478      -277.4603
  23   2.0000     -10.195639      -277.4374
  24   2.0000     -10.188606      -277.2461
  25   2.0000     -10.185311      -277.1564
  26   2.0000     -10.183956      -277.1195
  27   2.0000     -10.174974      -276.8751
  28   2.0000     -10.172877      -276.8180
  29   2.0000     -10.172713      -276.8136
  30   2.0000     -10.171196      -276.7723
  31   2.0000     -10.169594      -276.7287
  32   2.0000     -10.169177      -276.7174
  33   2.0000     -10.165760      -276.6244
  34   2.0000     -10.164647      -276.5941
  35   2.0000     -10.162800      -276.5438
  36   2.0000      -8.125190      -221.0977
  37   2.0000      -6.090327      -165.7262
  38   2.0000      -6.088194      -165.6682
  39   2.0000      -6.087717      -165.6552
  40   2.0000      -1.075436       -29.2641
  41   2.0000      -1.074374       -29.2352
  42   2.0000      -0.988663       -26.9029
  43   2.0000      -0.963802       -26.2264
  44   2.0000      -0.952664       -25.9233
  45   2.0000      -0.913732       -24.8639
  46   2.0000      -0.879041       -23.9199
  47   2.0000      -0.868668       -23.6376
  48   2.0000      -0.864332       -23.5197
  49   2.0000      -0.816321       -22.2132
  50   2.0000      -0.808198       -21.9922
  51   2.0000      -0.795259       -21.6401
  52   2.0000      -0.776907       -21.1407
  53   2.0000      -0.765469       -20.8295
  54   2.0000      -0.764432       -20.8012
  55   2.0000      -0.751844       -20.4587
  56   2.0000      -0.740902       -20.1610
  57   2.0000      -0.709261       -19.3000
  58   2.0000      -0.706742       -19.2314
  59   2.0000      -0.696290       -18.9470
  60   2.0000      -0.675380       -18.3780
  61   2.0000      -0.672967       -18.3124
  62   2.0000      -0.649483       -17.6733
  63   2.0000      -0.645352       -17.5609
  64   2.0000      -0.628701       -17.1078
  65   2.0000      -0.627279       -17.0691
  66   2.0000      -0.613105       -16.6834
  67   2.0000      -0.601181       -16.3590
  68   2.0000      -0.597375       -16.2554
  69   2.0000      -0.589609       -16.0441
  70   2.0000      -0.560260       -15.2454
  71   2.0000      -0.550057       -14.9678
  72   2.0000      -0.539196       -14.6723
  73   2.0000      -0.535746       -14.5784
  74   2.0000      -0.531829       -14.4718
  75   2.0000      -0.507905       -13.8208
  76   2.0000      -0.503619       -13.7042
  77   2.0000      -0.485520       -13.2117
  78   2.0000      -0.478499       -13.0206
  79   2.0000      -0.474398       -12.9090
  80   2.0000      -0.471344       -12.8259
  81   2.0000      -0.464393       -12.6368
  82   2.0000      -0.459578       -12.5057
  83   2.0000      -0.457564       -12.4509
  84   2.0000      -0.453283       -12.3345
  85   2.0000      -0.450886       -12.2692
  86   2.0000      -0.446753       -12.1568
  87   2.0000      -0.443972       -12.0811
  88   2.0000      -0.437328       -11.9003
  89   2.0000      -0.437279       -11.8990
  90   2.0000      -0.434651       -11.8274
  91   2.0000      -0.432191       -11.7605
  92   2.0000      -0.424514       -11.5516
  93   2.0000      -0.419715       -11.4210
  94   2.0000      -0.414773       -11.2866
  95   2.0000      -0.412115       -11.2142
  96   2.0000      -0.405884       -11.0447
  97   2.0000      -0.404351       -11.0030
  98   2.0000      -0.399294       -10.8653
  99   2.0000      -0.397718       -10.8225
 100   2.0000      -0.393665       -10.7122
 101   2.0000      -0.385428       -10.4880
 102   2.0000      -0.384154       -10.4534
 103   2.0000      -0.382357       -10.4045
 104   2.0000      -0.376305       -10.2398
 105   2.0000      -0.374182       -10.1820
 106   2.0000      -0.369280       -10.0486
 107   2.0000      -0.359622        -9.7858
 108   2.0000      -0.354309        -9.6412
 109   2.0000      -0.352744        -9.5987
 110   2.0000      -0.349100        -9.4995
 111   2.0000      -0.342722        -9.3259
 112   2.0000      -0.338316        -9.2060
 113   2.0000      -0.327438        -8.9101
 114   2.0000      -0.322640        -8.7795
 115   2.0000      -0.314683        -8.5630
 116   2.0000      -0.310221        -8.4416
 117   2.0000      -0.308890        -8.4053
 118   2.0000      -0.307654        -8.3717
 119   2.0000      -0.300723        -8.1831
 120   2.0000      -0.292385        -7.9562
 121   2.0000      -0.284695        -7.7469
 122   2.0000      -0.280672        -7.6375
 123   2.0000      -0.274972        -7.4824
 124   2.0000      -0.268792        -7.3142
 125   2.0000      -0.268007        -7.2928
 126   2.0000      -0.259416        -7.0591
 127   2.0000      -0.256340        -6.9754
 128   2.0000      -0.250803        -6.8247
 129   2.0000      -0.234269        -6.3748
 130   2.0000      -0.220049        -5.9878
 131   2.0000      -0.217146        -5.9088
 132   0.0000      -0.072231        -1.9655
 133   0.0000      -0.061914        -1.6848
 134   0.0000      -0.027561        -0.7500
 135   0.0000      -0.019347        -0.5265
 136   0.0000       0.000292         0.0079

MULLIKEN ATOMIC CHARGES
-----------------------
   0 C :   -0.557356
   1 C :    0.088731
   2 C :    0.338715
   3 N :   -0.613703
   4 C :   -0.226905
   5 C :    0.138131
   6 C :   -0.142004
   7 C :   -0.182963
   8 C :    0.136622
   9 C :    0.125175
  10 C :   -0.250328
  11 C :   -0.349189
  12 C :   -0.302611
  13 C :    0.047473
  14 C :   -0.448329
  15 C :   -0.439468
  16 S :    1.227123
  17 O :   -0.545928
  18 O :   -0.529516
  19 C :   -0.114382
  20 C :   -0.118157
  21 C :   -0.146861
  22 C :    0.083068
  23 C :    0.525619
  24 O :   -0.447188
  25 O :   -0.625330
  26 C :   -0.150894
  27 C :   -0.159683
  28 N :   -0.410047
  29 C :   -0.044242
  30 C :    0.130979
  31 C :   -0.201000
  32 C :   -0.128503
  33 C :   -0.119342
  34 C :   -0.200425
  35 C :    0.127342
  36 H :    0.168939
  37 H :    0.193122
  38 H :    0.159535
  39 H :    0.156269
  40 H :    0.184035
  41 H :    0.145032
  42 H :    0.125109
  43 H :    0.110853
  44 H :    0.146403
  45 H :    0.142285
  46 H :    0.134175
  47 H :    0.135913
  48 H :    0.137509
  49 H :    0.137811
  50 H :    0.140629
  51 H :    0.143327
  52 H :    0.134878
  53 H :    0.145349
  54 H :    0.188147
  55 H :    0.175231
  56 H :    0.431482
  57 H :    0.166225
  58 H :    0.177758
  59 H :    0.152898
  60 H :    0.139491
  61 H :    0.135982
  62 H :    0.137949
  63 H :    0.139041
Sum of atomic charges:    0.0000000

LOEWDIN ATOMIC CHARGES
----------------------
   0 C :   -0.363194
   1 C :   -0.019057
   2 C :    0.041567
   3 N :   -0.280521
   4 C :   -0.147330
   5 C :   -0.033555
   6 C :   -0.112604
   7 C :   -0.124335
   8 C :   -0.010842
   9 C :   -0.026458
  10 C :   -0.146546
  11 C :   -0.225362
  12 C :   -0.215095
  13 C :   -0.036241
  14 C :   -0.343507
  15 C :   -0.340461
  16 S :    1.270602
  17 O :   -0.570890
  18 O :   -0.551165
  19 C :   -0.166962
  20 C :   -0.087501
  21 C :   -0.089896
  22 C :   -0.042381
  23 C :    0.179719
  24 O :   -0.263346
  25 O :   -0.337126
  26 C :   -0.103293
  27 C :   -0.114199
  28 N :   -0.138530
  29 C :   -0.057206
  30 C :   -0.030894
  31 C :   -0.110484
  32 C :   -0.128507
  33 C :   -0.116085
  34 C :   -0.125899
  35 C :   -0.003763
  36 H :    0.140926
  37 H :    0.144870
  38 H :    0.135863
  39 H :    0.122209
  40 H :    0.148309
  41 H :    0.135197
  42 H :    0.130766
  43 H :    0.123887
  44 H :    0.127766
  45 H :    0.126923
  46 H :    0.120671
  47 H :    0.120771
  48 H :    0.120140
  49 H :    0.121290
  50 H :    0.122555
  51 H :    0.123850
  52 H :    0.118809
  53 H :    0.125263
  54 H :    0.163825
  55 H :    0.157910
  56 H :    0.347805
  57 H :    0.151586
  58 H :    0.154499
  59 H :    0.137407
  60 H :    0.137257
  61 H :    0.135528
  62 H :    0.136694
  63 H :    0.138772

  Mayer bond orders larger than 0.100000
B(  0-C ,  1-C ) :   0.9967 B(  0-C , 36-H ) :   0.9284 B(  0-C , 37-H ) :   0.9192
B(  0-C , 38-H ) :   0.9271 B(  1-C ,  2-C ) :   1.4371 B(  1-C , 29-C ) :   0.1031
B(  1-C , 35-C ) :   1.2709 B(  2-C ,  3-N ) :   0.8928 B(  2-C , 28-N ) :   1.2765
B(  3-N ,  4-C ) :   0.9024 B(  3-N , 16-S ) :   0.7804 B(  4-C ,  5-C ) :   0.9682
B(  4-C , 39-H ) :   0.9218 B(  4-C , 40-H ) :   0.9108 B(  5-C ,  6-C ) :   1.3981
B(  5-C , 10-C ) :   1.4160 B(  6-C ,  7-C ) :   1.4384 B(  6-C , 41-H ) :   0.9117
B(  7-C ,  8-C ) :   1.3875 B(  7-C , 42-H ) :   0.9229 B(  8-C ,  9-C ) :   1.4935
B(  8-C , 13-C ) :   0.9759 B(  9-C , 10-C ) :   1.3802 B(  9-C , 11-C ) :   0.9803
B( 10-C , 43-H ) :   0.9207 B( 11-C , 12-C ) :   0.9905 B( 11-C , 44-H ) :   0.9293
B( 11-C , 45-H ) :   0.9375 B( 12-C , 13-C ) :   0.9633 B( 12-C , 46-H ) :   0.9431
B( 12-C , 47-H ) :   0.9438 B( 13-C , 14-C ) :   0.9925 B( 13-C , 15-C ) :   0.9929
B( 14-C , 48-H ) :   0.9430 B( 14-C , 49-H ) :   0.9454 B( 14-C , 50-H ) :   0.9469
B( 15-C , 51-H ) :   0.9437 B( 15-C , 52-H ) :   0.9431 B( 15-C , 53-H ) :   0.9469
B( 16-S , 17-O ) :   1.6342 B( 16-S , 18-O ) :   1.6432 B( 16-S , 19-C ) :   0.8064
B( 19-C , 20-C ) :   1.3949 B( 19-C , 27-C ) :   1.3931 B( 20-C , 21-C ) :   1.4185
B( 20-C , 54-H ) :   0.9067 B( 21-C , 22-C ) :   1.3962 B( 21-C , 55-H ) :   0.9113
B( 22-C , 23-C ) :   1.0104 B( 22-C , 26-C ) :   1.3870 B( 23-C , 24-O ) :   1.8620
B( 23-C , 25-O ) :   1.0211 B( 25-O , 56-H ) :   0.7436 B( 26-C , 27-C ) :   1.4169
B( 26-C , 57-H ) :   0.9165 B( 27-C , 58-H ) :   0.9035 B( 28-N , 29-C ) :   1.4853
B( 29-C , 30-C ) :   1.2457 B( 29-C , 59-H ) :   0.9254 B( 30-C , 31-C ) :   1.2821
B( 30-C , 35-C ) :   1.2880 B( 31-C , 32-C ) :   1.5142 B( 31-C , 34-C ) :   0.1064
B( 31-C , 60-H ) :   0.9233 B( 32-C , 33-C ) :   1.3517 B( 32-C , 61-H ) :   0.9292
B( 33-C , 34-C ) :   1.5105 B( 33-C , 62-H ) :   0.9290 B( 34-C , 35-C ) :   1.2928
B( 34-C , 63-H ) :   0.9163

FINAL SINGLE POINT ENERGY     -1929.446995763252

DIPOLE MOMENT
-------------

Method             : SCF
Type of density    : Electron Density
Multiplicity       :   1
Irrep              :   0
Energy             : -1929.4469957632520618 Eh
Relativity type    :
Basis              : AO
                                X                 Y                 Z
Electronic contribution:     37.669120155      -7.971705413      18.455157140
Nuclear contribution   :    -36.936505429       9.364951219     -20.373583194
                        -----------------------------------------
Total Dipole Moment    :      0.732614726       1.393245806      -1.918426053
                        -----------------------------------------
Magnitude (a.u.)       :      2.481575454
Magnitude (Debye)      :      6.307663527

Rotational constants in cm-1:             0.003572             0.002426             0.001593
Rotational constants in MHz :           107.093314            72.721495            47.753440

                             ****ORCA TERMINATED NORMALLY****
TOTAL RUN TIME: 0 days 0 hours 8 minutes 24 seconds 754 msec
