                         Program Version 6.0.0  -   RELEASE  -
|  1> ! B3LYP 6-31G* SP
|  2>
|  3> * xyz 0 1
|  4> O 7.0469 0.6495 -1.3687
|  5> C 6.3142 -0.0424 -0.6108
|  6> O 6.8852 -0.6961 0.4782
|  7> C 4.8630 -0.1598 -0.8740
|  8> C 4.0483 -0.9316 -0.0274
|  9> C 2.6770 -1.0435 -0.2736
| 10> C 2.0995 -0.3858 -1.3658
| 11> S 0.3685 -0.5301 -1.6522
| 12> O -0.0772 0.4442 -2.7065
| 13> O 0.0816 -1.9284 -2.1232
| 14> N -0.4931 -0.2013 -0.1788
| 15> C -0.1349 0.9798 0.6118
| 16> C -1.3417 1.8509 0.8250
| 17> C -1.6475 2.8721 -0.0898
| 18> C -2.7965 3.6501 0.0825
| 19> C -3.6504 3.4091 1.1624
| 20> C -3.3579 2.3882 2.0709
| 21> C -2.2095 1.6085 1.9029
| 22> C -1.2816 -1.2397 0.4200
| 23> N -0.8000 -1.8612 1.5318
| 24> C -1.4694 -2.8658 2.1511
| 25> C -2.6906 -3.3037 1.6448
| 26> Cl -3.5522 -4.6178 2.4245
| 27> C -3.2210 -2.6862 0.5118
| 28> C -2.5422 -1.6210 -0.1069
| 29> C -3.1513 -0.9717 -1.3330
| 30> F -2.8102 0.3639 -1.4191
| 31> F -2.7114 -1.6263 -2.4673
| 32> F -4.5330 -1.0466 -1.2881
| 33> C 2.9048 0.3832 -2.2152
| 34> C 4.2769 0.4964 -1.9717
| 35> H 7.8776 -0.6223 0.6674
| 36> H 4.4688 -1.4491 0.8256
| 37> H 2.0640 -1.6411 0.3894
| 38> H 0.6584 1.5658 0.0988
| 39> H 0.2894 0.6644 1.5899
| 40> H -1.0018 3.0592 -0.9389
| 41> H -3.0278 4.4364 -0.6244
| 42> H -4.5407 4.0106 1.2928
| 43> H -4.0232 2.1981 2.9031
| 44> H -2.0000 0.8133 2.6077
| 45> H -1.0439 -3.3292 3.0313
| 46> H -4.1675 -3.0372 0.1197
| 47> H 2.4748 0.8964 -3.0654
| 48> H 4.8778 1.0977 -2.6425
| 49> *
| 50>
| 51>                          ****END OF INPUT****

CARTESIAN COORDINATES (ANGSTROEM)
---------------------------------
  O      7.046900    0.649500   -1.368700
  C      6.314200   -0.042400   -0.610800
  O      6.885200   -0.696100    0.478200
  C      4.863000   -0.159800   -0.874000
  C      4.048300   -0.931600   -0.027400
  C      2.677000   -1.043500   -0.273600
  C      2.099500   -0.385800   -1.365800
  S      0.368500   -0.530100   -1.652200
  O     -0.077200    0.444200   -2.706500
  O      0.081600   -1.928400   -2.123200
  N     -0.493100   -0.201300   -0.178800
  C     -0.134900    0.979800    0.611800
  C     -1.341700    1.850900    0.825000
  C     -1.647500    2.872100   -0.089800
  C     -2.796500    3.650100    0.082500
  C     -3.650400    3.409100    1.162400
  C     -3.357900    2.388200    2.070900
  C     -2.209500    1.608500    1.902900
  C     -1.281600   -1.239700    0.420000
  N     -0.800000   -1.861200    1.531800
  C     -1.469400   -2.865800    2.151100
  C     -2.690600   -3.303700    1.644800
  Cl    -3.552200   -4.617800    2.424500
  C     -3.221000   -2.686200    0.511800
  C     -2.542200   -1.621000   -0.106900
  C     -3.151300   -0.971700   -1.333000
  F     -2.810200    0.363900   -1.419100
  F     -2.711400   -1.626300   -2.467300
  F     -4.533000   -1.046600   -1.288100
  C      2.904800    0.383200   -2.215200
  C      4.276900    0.496400   -1.971700
  H      7.877600   -0.622300    0.667400
  H      4.468800   -1.449100    0.825600
  H      2.064000   -1.641100    0.389400
  H      0.658400    1.565800    0.098800
  H      0.289400    0.664400    1.589900
  H     -1.001800    3.059200   -0.938900
  H     -3.027800    4.436400   -0.624400
  H     -4.540700    4.010600    1.292800
  H     -4.023200    2.198100    2.903100
  H     -2.000000    0.813300    2.607700
  H     -1.043900   -3.329200    3.031300
  H     -4.167500   -3.037200    0.119700
  H      2.474800    0.896400   -3.065400
  H      4.877800    1.097700   -2.642500

 Total Charge           Charge          ....    0
 Multiplicity           Mult            ....    1
 Number of Electrons    NEL             ....  240
 Basis Dimension        Dim             ....  470

ORBITAL ENERGIES
----------------

  NO   OCC          E(Eh)            E(eV)
   0   2.0000    -101.553105     -2763.4005
   1   2.0000     -89.103644     -2424.6334
   2   2.0000     -24.722183      -672.7248
   3   2.0000     -24.713772      -672.4959
   4   2.0000     -24.711248      -672.4272
   5   2.0000     -19.199277      -522.4389
   6   2.0000     -19.140850      -520.8490
   7   2.0000     -19.130646      -520.5713
   8   2.0000     -19.130020      -520.5543
   9   2.0000     -14.383462      -391.3939
  10   2.0000     -14.368205      -390.9787
  11   2.0000     -10.439902      -284.0842
  12   2.0000     -10.338498      -281.3248
  13   2.0000     -10.298808      -280.2448
  14   2.0000     -10.278332      -279.6876
  15   2.0000     -10.259319      -279.1703
  16   2.0000     -10.247571      -278.8506
  17   2.0000     -10.245299      -278.7888
  18   2.0000     -10.239878      -278.6412
  19   2.0000     -10.238938      -278.6157
  20   2.0000     -10.235730      -278.5284
  21   2.0000     -10.224604      -278.2256
  22   2.0000     -10.223680      -278.2005
  23   2.0000     -10.221467      -278.1403
  24   2.0000     -10.220932      -278.1257
  25   2.0000     -10.194676      -277.4113
  26   2.0000     -10.186831      -277.1978
  27   2.0000     -10.185400      -277.1588
  28   2.0000     -10.184331      -277.1297
  29   2.0000     -10.183907      -277.1182
  30   2.0000     -10.183477      -277.1065
  31   2.0000      -9.484834      -258.0955
  32   2.0000      -8.139536      -221.4880
  33   2.0000      -7.248051      -197.2295
  34   2.0000      -7.238365      -196.9659
  35   2.0000      -7.238010      -196.9563
  36   2.0000      -6.104845      -166.1213
  37   2.0000      -6.102311      -166.0523
  38   2.0000      -6.102078      -166.0460
  39   2.0000      -1.278341       -34.7854
  40   2.0000      -1.203862       -32.7587
  41   2.0000      -1.198515       -32.6133
  42   2.0000      -1.089214       -29.6390
  43   2.0000      -1.083818       -29.4922
  44   2.0000      -0.997964       -27.1560
  45   2.0000      -0.988674       -26.9032
  46   2.0000      -0.967214       -26.3192
  47   2.0000      -0.936891       -25.4941
  48   2.0000      -0.895026       -24.3549
  49   2.0000      -0.892019       -24.2731
  50   2.0000      -0.853932       -23.2367
  51   2.0000      -0.838355       -22.8128
  52   2.0000      -0.811776       -22.0895
  53   2.0000      -0.785523       -21.3752
  54   2.0000      -0.780702       -21.2440
  55   2.0000      -0.765290       -20.8246
  56   2.0000      -0.744871       -20.2690
  57   2.0000      -0.722242       -19.6532
  58   2.0000      -0.712696       -19.3934
  59   2.0000      -0.695354       -18.9215
  60   2.0000      -0.668396       -18.1880
  61   2.0000      -0.648649       -17.6506
  62   2.0000      -0.640956       -17.4413
  63   2.0000      -0.628078       -17.0909
  64   2.0000      -0.609131       -16.5753
  65   2.0000      -0.604794       -16.4573
  66   2.0000      -0.590254       -16.0616
  67   2.0000      -0.575369       -15.6566
  68   2.0000      -0.569294       -15.4913
  69   2.0000      -0.566248       -15.4084
  70   2.0000      -0.556321       -15.1383
  71   2.0000      -0.543762       -14.7965
  72   2.0000      -0.530529       -14.4364
  73   2.0000      -0.527047       -14.3417
  74   2.0000      -0.510411       -13.8890
  75   2.0000      -0.498869       -13.5749
  76   2.0000      -0.492440       -13.4000
  77   2.0000      -0.480625       -13.0785
  78   2.0000      -0.475901       -12.9499
  79   2.0000      -0.466416       -12.6918
  80   2.0000      -0.464611       -12.6427
  81   2.0000      -0.459671       -12.5083
  82   2.0000      -0.452349       -12.3090
  83   2.0000      -0.451635       -12.2896
  84   2.0000      -0.446982       -12.1630
  85   2.0000      -0.444987       -12.1087
  86   2.0000      -0.443288       -12.0625
  87   2.0000      -0.438306       -11.9269
  88   2.0000      -0.434303       -11.8180
  89   2.0000      -0.430984       -11.7277
  90   2.0000      -0.424455       -11.5500
  91   2.0000      -0.422049       -11.4845
  92   2.0000      -0.417961       -11.3733
  93   2.0000      -0.412801       -11.2329
  94   2.0000      -0.411143       -11.1878
  95   2.0000      -0.398870       -10.8538
  96   2.0000      -0.395792       -10.7700
  97   2.0000      -0.393264       -10.7013
  98   2.0000      -0.388339       -10.5673
  99   2.0000      -0.386188       -10.5087
 100   2.0000      -0.373089       -10.1523
 101   2.0000      -0.370114       -10.0713
 102   2.0000      -0.361185        -9.8284
 103   2.0000      -0.353186        -9.6107
 104   2.0000      -0.343458        -9.3460
 105   2.0000      -0.340766        -9.2727
 106   2.0000      -0.329684        -8.9711
 107   2.0000      -0.324176        -8.8213
 108   2.0000      -0.312245        -8.4966
 109   2.0000      -0.310051        -8.4369
 110   2.0000      -0.308510        -8.3950
 111   2.0000      -0.292069        -7.9476
 112   2.0000      -0.289648        -7.8817
 113   2.0000      -0.283704        -7.7200
 114   2.0000      -0.279342        -7.6013
 115   2.0000      -0.277524        -7.5518
 116   2.0000      -0.272704        -7.4207
 117   2.0000      -0.258400        -7.0314
 118   2.0000      -0.250249        -6.8096
 119   2.0000      -0.245005        -6.6669
 120   0.0000      -0.088756        -2.4152
 121   0.0000      -0.064767        -1.7624
 122   0.0000      -0.060514        -1.6467
 123   0.0000      -0.034347        -0.9346
 124   0.0000      -0.011705        -0.3185

MULLIKEN ATOMIC CHARGES
-----------------------
   0 O :   -0.442506
   1 C :    0.529103
   2 O :   -0.623775
   3 C :    0.083139
   4 C :   -0.147619
   5 C :   -0.148544
   6 C :   -0.131266
   7 S :    1.200139
   8 O :   -0.532431
   9 O :   -0.534846
  10 N :   -0.605470
  11 C :   -0.260337
  12 C :    0.170676
  13 C :   -0.157889
  14 C :   -0.126373
  15 C :   -0.121706
  16 C :   -0.127936
  17 C :   -0.178070
  18 C :    0.378452
  19 N :   -0.394567
  20 C :    0.025912
  21 C :   -0.076507
  22 Cl:    0.016158
  23 C :   -0.135977
  24 C :   -0.005795
  25 C :    0.938220
  26 F :   -0.285736
  27 F :   -0.277044
  28 F :   -0.306581
  29 C :   -0.146535
  30 C :   -0.139047
  31 H :    0.435067
  32 H :    0.174031
  33 H :    0.185161
  34 H :    0.174954
  35 H :    0.174759
  36 H :    0.145564
  37 H :    0.134559
  38 H :    0.130868
  39 H :    0.129740
  40 H :    0.129198
  41 H :    0.179683
  42 H :    0.193345
  43 H :    0.194216
  44 H :    0.183613
Sum of atomic charges:   -0.0000000

LOEWDIN ATOMIC CHARGES
----------------------
   0 O :   -0.258760
   1 C :    0.180018
   2 O :   -0.334525
   3 C :   -0.038231
   4 C :   -0.098365
   5 C :   -0.107197
   6 C :   -0.174613
   7 S :    1.254654
   8 O :   -0.565673
   9 O :   -0.565447
  10 N :   -0.280365
  11 C :   -0.148918
  12 C :   -0.033980
  13 C :   -0.118008
  14 C :   -0.123264
  15 C :   -0.125412
  16 C :   -0.128299
  17 C :   -0.137558
  18 C :    0.074353
  19 N :   -0.124424
  20 C :   -0.060181
  21 C :   -0.099484
  22 Cl:    0.061894
  23 C :   -0.086582
  24 C :   -0.053006
  25 C :    0.314732
  26 F :   -0.089261
  27 F :   -0.092462
  28 F :   -0.112314
  29 C :   -0.100943
  30 C :   -0.084400
  31 H :    0.350415
  32 H :    0.155284
  33 H :    0.157814
  34 H :    0.144517
  35 H :    0.134828
  36 H :    0.139230
  37 H :    0.134475
  38 H :    0.132715
  39 H :    0.132004
  40 H :    0.130964
  41 H :    0.151378
  42 H :    0.164917
  43 H :    0.165462
  44 H :    0.162016

  Mayer bond orders larger than 0.100000
B(  0-O ,  1-C ) :   1.8640 B(  1-C ,  2-O ) :   1.0255 B(  1-C ,  3-C ) :   1.0074
B(  2-O , 31-H ) :   0.7412 B(  3-C ,  4-C ) :   1.3829 B(  3-C , 30-C ) :   1.4029
B(  4-C ,  5-C ) :   1.4298 B(  4-C , 32-H ) :   0.9145 B(  5-C ,  6-C ) :   1.3816
B(  5-C , 33-H ) :   0.9043 B(  6-C ,  7-S ) :   0.8075 B(  6-C , 29-C ) :   1.3942
B(  7-S ,  8-O ) :   1.6517 B(  7-S ,  9-O ) :   1.6559 B(  7-S , 10-N ) :   0.7745
B( 10-N , 11-C ) :   0.9159 B( 10-N , 18-C ) :   0.9422 B( 11-C , 12-C ) :   0.9524
B( 11-C , 34-H ) :   0.9200 B( 11-C , 35-H ) :   0.9186 B( 12-C , 13-C ) :   1.4333
B( 12-C , 17-C ) :   1.4364 B( 13-C , 14-C ) :   1.4465 B( 13-C , 36-H ) :   0.9197
B( 14-C , 15-C ) :   1.4495 B( 14-C , 37-H ) :   0.9288 B( 15-C , 16-C ) :   1.4569
B( 15-C , 38-H ) :   0.9300 B( 16-C , 17-C ) :   1.4381 B( 16-C , 39-H ) :   0.9294
B( 17-C , 40-H ) :   0.9221 B( 18-C , 19-N ) :   1.3532 B( 18-C , 24-C ) :   1.3625
B( 19-N , 20-C ) :   1.4243 B( 20-C , 21-C ) :   1.3721 B( 20-C , 41-H ) :   0.9207
B( 21-C , 22-Cl) :   1.0325 B( 21-C , 23-C ) :   1.3930 B( 23-C , 24-C ) :   1.4033
B( 23-C , 42-H ) :   0.9064 B( 24-C , 25-C ) :   0.9543 B( 25-C , 26-F ) :   0.9382
B( 25-C , 27-F ) :   0.9763 B( 25-C , 28-F ) :   0.9397 B( 29-C , 30-C ) :   1.4162
B( 29-C , 43-H ) :   0.9067 B( 30-C , 44-H ) :   0.9088

FINAL SINGLE POINT ENERGY     -2337.833951074815

DIPOLE MOMENT
-------------

Method             : SCF
Type of density    : Electron Density
Multiplicity       :   1
Irrep              :   0
Energy             : -2337.8339510748151042 Eh
Relativity type    :
Basis              : AO
                                X                 Y                 Z
Electronic contribution:    -18.834036758     -20.988845890      -7.041229182
Nuclear contribution   :     19.403959616      21.071743452       9.327953960
                        -----------------------------------------
Total Dipole Moment    :      0.569922858       0.082897562       2.286724779
                        -----------------------------------------
Magnitude (a.u.)       :      2.358133644
Magnitude (Debye)      :      5.993899380

Rotational constants in cm-1:             0.005990             0.002644             0.002302
Rotational constants in MHz :           179.561463            79.263622            69.025999

                             ****ORCA TERMINATED NORMALLY****
TOTAL RUN TIME: 0 days 0 hours 5 minutes 43 seconds 503 msec
