                         Program Version 6.0.0  -   RELEASE  -
|  1> ! B3LYP 6-31G* SP
|  2>
|  3> * xyz 0 1
|  4> O 2.3291 -2.1965 -0.1751
|  5> C 1.7798 -1.0606 -0.1616
|  6> N 2.5969 0.1248 -0.2018
|  7> C 4.0143 0.1256 0.0421
|  8> C 4.8288 1.0448 -0.6344
|  9> C 6.2062 1.0833 -0.3979
| 10> C 6.7906 0.2081 0.5376
| 11> O 8.1671 0.2018 0.8156
| 12> C 9.1346 1.0536 0.2058
| 13> F 10.3807 0.7597 0.7245
| 14> F 8.8407 2.3783 0.4753
| 15> F 9.1602 0.8444 -1.1614
| 16> C 5.9729 -0.6935 1.2283
| 17> C 4.5959 -0.7329 0.9911
| 18> N 0.3390 -0.9692 -0.1314
| 19> C -0.3428 0.2717 -0.5313
| 20> C -1.8416 0.0373 -0.7606
| 21> C -2.5484 -0.6222 0.4605
| 22> C -1.6263 -1.6776 1.1484
| 23> C -0.4649 -2.1357 0.2623
| 24> C -2.9822 0.4312 1.5205
| 25> C -4.1450 1.3463 1.0710
| 26> O -3.6706 2.4258 0.3093
| 27> C -5.1941 0.6032 0.2821
| 28> C -6.4411 1.2055 0.0464
| 29> C -7.4266 0.5282 -0.6769
| 30> C -7.1757 -0.7539 -1.1708
| 31> C -5.9362 -1.3600 -0.9480
| 32> F -5.6984 -2.6038 -1.4340
| 33> C -4.9404 -0.6835 -0.2325
| 34> O -3.7079 -1.3087 -0.0201
| 35> H 2.1650 1.0302 -0.4892
| 36> H 4.3952 1.7268 -1.3554
| 37> H 6.8025 1.7983 -0.9464
| 38> H 6.4068 -1.3624 1.9610
| 39> H 3.9864 -1.4159 1.5678
| 40> H -0.1976 1.0450 0.2531
| 41> H 0.0902 0.6443 -1.4851
| 42> H -2.3226 0.9869 -1.0605
| 43> H -1.9444 -0.6368 -1.6402
| 44> H -1.1773 -1.2608 2.0782
| 45> H -2.2212 -2.5653 1.4569
| 46> H 0.1456 -2.8643 0.8391
| 47> H -0.8515 -2.6489 -0.6445
| 48> H -2.1119 1.0500 1.8302
| 49> H -3.3273 -0.1118 2.4293
| 50> H -4.6352 1.7442 1.9912
| 51> H -3.2188 3.0471 0.9386
| 52> H -6.6498 2.1979 0.4269
| 53> H -8.3864 0.9967 -0.8523
| 54> H -7.9422 -1.2768 -1.7282
| 55> *
| 56>
| 57>                          ****END OF INPUT****

CARTESIAN COORDINATES (ANGSTROEM)
---------------------------------
  O      2.329100   -2.196500   -0.175100
  C      1.779800   -1.060600   -0.161600
  N      2.596900    0.124800   -0.201800
  C      4.014300    0.125600    0.042100
  C      4.828800    1.044800   -0.634400
  C      6.206200    1.083300   -0.397900
  C      6.790600    0.208100    0.537600
  O      8.167100    0.201800    0.815600
  C      9.134600    1.053600    0.205800
  F     10.380700    0.759700    0.724500
  F      8.840700    2.378300    0.475300
  F      9.160200    0.844400   -1.161400
  C      5.972900   -0.693500    1.228300
  C      4.595900   -0.732900    0.991100
  N      0.339000   -0.969200   -0.131400
  C     -0.342800    0.271700   -0.531300
  C     -1.841600    0.037300   -0.760600
  C     -2.548400   -0.622200    0.460500
  C     -1.626300   -1.677600    1.148400
  C     -0.464900   -2.135700    0.262300
  C     -2.982200    0.431200    1.520500
  C     -4.145000    1.346300    1.071000
  O     -3.670600    2.425800    0.309300
  C     -5.194100    0.603200    0.282100
  C     -6.441100    1.205500    0.046400
  C     -7.426600    0.528200   -0.676900
  C     -7.175700   -0.753900   -1.170800
  C     -5.936200   -1.360000   -0.948000
  F     -5.698400   -2.603800   -1.434000
  C     -4.940400   -0.683500   -0.232500
  O     -3.707900   -1.308700   -0.020100
  H      2.165000    1.030200   -0.489200
  H      4.395200    1.726800   -1.355400
  H      6.802500    1.798300   -0.946400
  H      6.406800   -1.362400    1.961000
  H      3.986400   -1.415900    1.567800
  H     -0.197600    1.045000    0.253100
  H      0.090200    0.644300   -1.485100
  H     -2.322600    0.986900   -1.060500
  H     -1.944400   -0.636800   -1.640200
  H     -1.177300   -1.260800    2.078200
  H     -2.221200   -2.565300    1.456900
  H      0.145600   -2.864300    0.839100
  H     -0.851500   -2.648900   -0.644500
  H     -2.111900    1.050000    1.830200
  H     -3.327300   -0.111800    2.429300
  H     -4.635200    1.744200    1.991200
  H     -3.218800    3.047100    0.938600
  H     -6.649800    2.197900    0.426900
  H     -8.386400    0.996700   -0.852300
  H     -7.942200   -1.276800   -1.728200

 Total Charge           Charge          ....    0
 Multiplicity           Mult            ....    1
 Number of Electrons    NEL             ....  228
 Basis Dimension        Dim             ....  474

ORBITAL ENERGIES
----------------

  NO   OCC          E(Eh)            E(eV)
   0   2.0000     -24.735901      -673.0981
   1   2.0000     -24.733964      -673.0454
   2   2.0000     -24.733388      -673.0297
   3   2.0000     -24.696741      -672.0325
   4   2.0000     -19.204691      -522.5862
   5   2.0000     -19.171315      -521.6780
   6   2.0000     -19.155328      -521.2430
   7   2.0000     -19.098076      -519.6851
   8   2.0000     -14.367503      -390.9596
   9   2.0000     -14.353214      -390.5708
  10   2.0000     -10.497812      -285.6600
  11   2.0000     -10.314163      -280.6626
  12   2.0000     -10.269514      -279.4477
  13   2.0000     -10.261343      -279.2253
  14   2.0000     -10.257835      -279.1299
  15   2.0000     -10.256462      -279.0925
  16   2.0000     -10.250584      -278.9326
  17   2.0000     -10.232373      -278.4370
  18   2.0000     -10.231100      -278.4024
  19   2.0000     -10.215715      -277.9837
  20   2.0000     -10.197235      -277.4809
  21   2.0000     -10.194848      -277.4159
  22   2.0000     -10.192723      -277.3581
  23   2.0000     -10.192179      -277.3433
  24   2.0000     -10.191683      -277.3298
  25   2.0000     -10.190543      -277.2988
  26   2.0000     -10.189441      -277.2688
  27   2.0000     -10.189359      -277.2666
  28   2.0000     -10.188849      -277.2527
  29   2.0000     -10.187160      -277.2067
  30   2.0000     -10.186184      -277.1802
  31   2.0000      -1.298749       -35.3408
  32   2.0000      -1.219651       -33.1884
  33   2.0000      -1.219074       -33.1727
  34   2.0000      -1.209376       -32.9088
  35   2.0000      -1.074732       -29.2449
  36   2.0000      -1.058602       -28.8060
  37   2.0000      -1.037315       -28.2268
  38   2.0000      -1.015264       -27.6267
  39   2.0000      -0.922631       -25.1061
  40   2.0000      -0.914569       -24.8867
  41   2.0000      -0.861136       -23.4327
  42   2.0000      -0.847074       -23.0501
  43   2.0000      -0.815430       -22.1890
  44   2.0000      -0.781907       -21.2768
  45   2.0000      -0.768779       -20.9195
  46   2.0000      -0.759581       -20.6693
  47   2.0000      -0.750509       -20.4224
  48   2.0000      -0.744387       -20.2558
  49   2.0000      -0.732195       -19.9240
  50   2.0000      -0.696895       -18.9635
  51   2.0000      -0.664296       -18.0764
  52   2.0000      -0.655079       -17.8256
  53   2.0000      -0.647261       -17.6129
  54   2.0000      -0.634381       -17.2624
  55   2.0000      -0.622137       -16.9292
  56   2.0000      -0.611442       -16.6382
  57   2.0000      -0.600576       -16.3425
  58   2.0000      -0.590868       -16.0783
  59   2.0000      -0.587919       -15.9981
  60   2.0000      -0.575081       -15.6488
  61   2.0000      -0.563618       -15.3368
  62   2.0000      -0.548864       -14.9353
  63   2.0000      -0.543049       -14.7771
  64   2.0000      -0.540145       -14.6981
  65   2.0000      -0.526757       -14.3338
  66   2.0000      -0.520650       -14.1676
  67   2.0000      -0.501451       -13.6452
  68   2.0000      -0.495371       -13.4797
  69   2.0000      -0.482453       -13.1282
  70   2.0000      -0.479699       -13.0533
  71   2.0000      -0.472624       -12.8607
  72   2.0000      -0.464575       -12.6417
  73   2.0000      -0.464143       -12.6300
  74   2.0000      -0.459198       -12.4954
  75   2.0000      -0.458558       -12.4780
  76   2.0000      -0.454659       -12.3719
  77   2.0000      -0.454307       -12.3623
  78   2.0000      -0.447404       -12.1745
  79   2.0000      -0.439824       -11.9682
  80   2.0000      -0.438567       -11.9340
  81   2.0000      -0.435184       -11.8419
  82   2.0000      -0.430832       -11.7235
  83   2.0000      -0.424323       -11.5464
  84   2.0000      -0.421028       -11.4568
  85   2.0000      -0.417528       -11.3615
  86   2.0000      -0.411313       -11.1924
  87   2.0000      -0.405856       -11.0439
  88   2.0000      -0.402541       -10.9537
  89   2.0000      -0.400876       -10.9084
  90   2.0000      -0.393100       -10.6968
  91   2.0000      -0.390368       -10.6225
  92   2.0000      -0.389017       -10.5857
  93   2.0000      -0.384253       -10.4560
  94   2.0000      -0.379796       -10.3348
  95   2.0000      -0.377582       -10.2745
  96   2.0000      -0.371778       -10.1166
  97   2.0000      -0.364939        -9.9305
  98   2.0000      -0.361586        -9.8393
  99   2.0000      -0.355778        -9.6812
 100   2.0000      -0.346510        -9.4290
 101   2.0000      -0.345581        -9.4037
 102   2.0000      -0.342163        -9.3107
 103   2.0000      -0.333443        -9.0734
 104   2.0000      -0.318499        -8.6668
 105   2.0000      -0.306274        -8.3341
 106   2.0000      -0.281559        -7.6616
 107   2.0000      -0.275832        -7.5058
 108   2.0000      -0.258561        -7.0358
 109   2.0000      -0.246747        -6.7143
 110   2.0000      -0.245801        -6.6886
 111   2.0000      -0.225724        -6.1423
 112   2.0000      -0.222676        -6.0593
 113   2.0000      -0.210102        -5.7172
 114   0.0000      -0.015334        -0.4173
 115   0.0000      -0.005726        -0.1558
 116   0.0000      -0.004353        -0.1185
 117   0.0000       0.005682         0.1546
 118   0.0000       0.044635         1.2146

MULLIKEN ATOMIC CHARGES
-----------------------
   0 O :   -0.494939
   1 C :    0.684811
   2 N :   -0.731142
   3 C :    0.345063
   4 C :   -0.184371
   5 C :   -0.192702
   6 C :    0.349848
   7 O :   -0.547307
   8 C :    1.084473
   9 F :   -0.280389
  10 F :   -0.293456
  11 F :   -0.291892
  12 C :   -0.183942
  13 C :   -0.126131
  14 N :   -0.439919
  15 C :   -0.142201
  16 C :   -0.334080
  17 C :    0.365028
  18 C :   -0.320562
  19 C :   -0.127048
  20 C :   -0.327237
  21 C :    0.052069
  22 O :   -0.613002
  23 C :    0.109113
  24 C :   -0.171275
  25 C :   -0.123432
  26 C :   -0.208056
  27 C :    0.353696
  28 F :   -0.311066
  29 C :    0.242850
  30 O :   -0.548200
  31 H :    0.327653
  32 H :    0.129734
  33 H :    0.150293
  34 H :    0.149656
  35 H :    0.158979
  36 H :    0.132309
  37 H :    0.147778
  38 H :    0.184560
  39 H :    0.163095
  40 H :    0.147101
  41 H :    0.166980
  42 H :    0.179487
  43 H :    0.155545
  44 H :    0.130629
  45 H :    0.146606
  46 H :    0.125919
  47 H :    0.393899
  48 H :    0.133121
  49 H :    0.133935
  50 H :    0.148118
Sum of atomic charges:   -0.0000000

LOEWDIN ATOMIC CHARGES
----------------------
   0 O :   -0.311943
   1 C :    0.165094
   2 N :   -0.231996
   3 C :    0.035830
   4 C :   -0.143102
   5 C :   -0.158554
   6 C :    0.075494
   7 O :   -0.161815
   8 C :    0.358418
   9 F :   -0.088690
  10 F :   -0.106817
  11 F :   -0.105460
  12 C :   -0.137772
  13 C :   -0.116385
  14 N :   -0.132079
  15 C :   -0.156911
  16 C :   -0.246016
  17 C :    0.084998
  18 C :   -0.233774
  19 C :   -0.144477
  20 C :   -0.245144
  21 C :   -0.016396
  22 O :   -0.388664
  23 C :   -0.057692
  24 C :   -0.119811
  25 C :   -0.139900
  26 C :   -0.148822
  27 C :    0.097591
  28 F :   -0.099100
  29 C :    0.061997
  30 O :   -0.165847
  31 H :    0.253009
  32 H :    0.133338
  33 H :    0.141624
  34 H :    0.146192
  35 H :    0.151358
  36 H :    0.106416
  37 H :    0.123396
  38 H :    0.148755
  39 H :    0.135921
  40 H :    0.128104
  41 H :    0.143465
  42 H :    0.148857
  43 H :    0.122267
  44 H :    0.123682
  45 H :    0.129519
  46 H :    0.112420
  47 H :    0.312499
  48 H :    0.135634
  49 H :    0.135130
  50 H :    0.146159

  Mayer bond orders larger than 0.100000
B(  0-O ,  1-C ) :   1.7826 B(  1-C ,  2-N ) :   0.9949 B(  1-C , 14-N ) :   1.0583
B(  2-N ,  3-C ) :   0.8688 B(  2-N , 31-H ) :   0.8184 B(  3-C ,  4-C ) :   1.4098
B(  3-C , 13-C ) :   1.4193 B(  4-C ,  5-C ) :   1.4377 B(  4-C , 32-H ) :   0.9235
B(  5-C ,  6-C ) :   1.3976 B(  5-C , 33-H ) :   0.9095 B(  6-C ,  7-O ) :   0.8158
B(  6-C , 12-C ) :   1.4082 B(  7-O ,  8-C ) :   0.9968 B(  8-C ,  9-F ) :   1.0067
B(  8-C , 10-F ) :   0.9661 B(  8-C , 11-F ) :   0.9680 B( 12-C , 13-C ) :   1.4436
B( 12-C , 34-H ) :   0.9186 B( 13-C , 35-H ) :   0.9098 B( 14-N , 15-C ) :   0.9413
B( 14-N , 19-C ) :   0.9387 B( 15-C , 16-C ) :   1.0011 B( 15-C , 36-H ) :   0.9178
B( 15-C , 37-H ) :   0.9250 B( 16-C , 17-C ) :   0.9857 B( 16-C , 38-H ) :   0.9056
B( 16-C , 39-H ) :   0.9224 B( 17-C , 18-C ) :   0.9659 B( 17-C , 20-C ) :   0.9796
B( 17-C , 30-O ) :   0.8384 B( 18-C , 19-C ) :   0.9933 B( 18-C , 40-H ) :   0.9297
B( 18-C , 41-H ) :   0.9227 B( 19-C , 42-H ) :   0.9207 B( 19-C , 43-H ) :   0.9268
B( 20-C , 21-C ) :   0.9539 B( 20-C , 44-H ) :   0.9257 B( 20-C , 45-H ) :   0.9228
B( 21-C , 22-O ) :   0.9522 B( 21-C , 23-C ) :   0.9740 B( 21-C , 46-H ) :   0.9231
B( 22-O , 47-H ) :   0.7837 B( 23-C , 24-C ) :   1.4087 B( 23-C , 29-C ) :   1.3684
B( 24-C , 25-C ) :   1.4469 B( 24-C , 48-H ) :   0.9254 B( 25-C , 26-C ) :   1.4164
B( 25-C , 49-H ) :   0.9300 B( 26-C , 27-C ) :   1.4132 B( 26-C , 50-H ) :   0.9196
B( 27-C , 28-F ) :   0.9343 B( 27-C , 29-C ) :   1.2854 B( 29-C , 30-O ) :   0.9175

FINAL SINGLE POINT ENERGY     -1621.134254379155

DIPOLE MOMENT
-------------

Method             : SCF
Type of density    : Electron Density
Multiplicity       :   1
Irrep              :   0
Energy             : -1621.1342543791547541 Eh
Relativity type    :
Basis              : AO
                                X                 Y                 Z
Electronic contribution:     52.913898683       0.587074760      -5.107423446
Nuclear contribution   :    -54.658482217       1.348327079       5.956800540
                        -----------------------------------------
Total Dipole Moment    :     -1.744583533       1.935401839       0.849377094
                        -----------------------------------------
Magnitude (a.u.)       :      2.740582681
Magnitude (Debye)      :      6.966007577

Rotational constants in cm-1:             0.017572             0.001181             0.001145
Rotational constants in MHz :           526.784588            35.402314            34.328134

                             ****ORCA TERMINATED NORMALLY****
TOTAL RUN TIME: 0 days 0 hours 7 minutes 17 seconds 193 msec
