                         Program Version 6.0.0  -   RELEASE  -
|  1> ! B3LYP 6-31G* SP
|  2>
|  3> * xyz 0 1
|  4> O 7.2106 -2.0551 -2.0082
|  5> C 6.5184 -2.7699 -1.2336
|  6> O 6.8714 -4.1024 -1.0381
|  7> C 5.3437 -2.2006 -0.5382
|  8> C 4.5753 -2.9991 0.3273
|  9> C 3.4634 -2.4647 0.9847
| 10> C 3.1071 -1.1245 0.7911
| 11> S 1.6897 -0.4514 1.5865
| 12> O 1.2701 -1.3177 2.7417
| 13> O 2.0201 0.9172 2.1157
| 14> N 0.3926 -0.3500 0.4374
| 15> C -0.1619 -1.5832 -0.1257
| 16> C -1.6524 -1.6181 0.0698
| 17> C -2.5026 -1.0070 -0.8633
| 18> C -3.8841 -0.9928 -0.6546
| 19> C -4.4385 -1.5815 0.4877
| 20> O -5.8335 -1.5408 0.6433
| 21> C -6.5584 -2.1140 1.7297
| 22> F -7.9077 -1.8964 1.5320
| 23> F -6.1815 -1.5192 2.9204
| 24> F -6.3303 -3.4773 1.7889
| 25> C -3.5839 -2.1854 1.4303
| 26> C -2.2014 -2.1981 1.2225
| 27> C 0.1703 0.8947 -0.2369
| 28> N 0.7069 1.0452 -1.4756
| 29> C 0.5876 2.1845 -2.1933
| 30> C -0.0939 3.2780 -1.6622
| 31> C -0.1953 4.4664 -2.4024
| 32> C -0.8646 5.5683 -1.8730
| 33> C -1.4331 5.4947 -0.6034
| 34> C -1.3424 4.3175 0.1438
| 35> C -0.6774 3.1792 -0.3724
| 36> C -0.5728 1.9551 0.3550
| 37> C -1.2561 1.8043 1.7134
| 38> F -2.6039 2.0907 1.5886
| 39> F -0.6826 2.6800 2.6170
| 40> F -1.1624 0.5335 2.2416
| 41> C 3.8629 -0.3257 -0.0750
| 42> C 4.9749 -0.8573 -0.7339
| 43> H 7.6743 -4.5020 -1.5089
| 44> H 4.8302 -4.0378 0.4951
| 45> H 2.8794 -3.0990 1.6389
| 46> H 0.0847 -1.6471 -1.2080
| 47> H 0.3005 -2.4725 0.3554
| 48> H -2.0953 -0.5355 -1.7491
| 49> H -4.5286 -0.5195 -1.3841
| 50> H -3.9733 -2.6428 2.3282
| 51> H -1.5578 -2.6537 1.9647
| 52> H 1.0401 2.2363 -3.1760
| 53> H 0.2466 4.5437 -3.3890
| 54> H -0.9387 6.4833 -2.4464
| 55> H -1.9460 6.3554 -0.1937
| 56> H -1.7914 4.3239 1.1254
| 57> H 3.5880 0.7082 -0.2439
| 58> H 5.5431 -0.2178 -1.3979
| 59> *
| 60>
| 61>                          ****END OF INPUT****

CARTESIAN COORDINATES (ANGSTROEM)
---------------------------------
  O      7.210600   -2.055100   -2.008200
  C      6.518400   -2.769900   -1.233600
  O      6.871400   -4.102400   -1.038100
  C      5.343700   -2.200600   -0.538200
  C      4.575300   -2.999100    0.327300
  C      3.463400   -2.464700    0.984700
  C      3.107100   -1.124500    0.791100
  S      1.689700   -0.451400    1.586500
  O      1.270100   -1.317700    2.741700
  O      2.020100    0.917200    2.115700
  N      0.392600   -0.350000    0.437400
  C     -0.161900   -1.583200   -0.125700
  C     -1.652400   -1.618100    0.069800
  C     -2.502600   -1.007000   -0.863300
  C     -3.884100   -0.992800   -0.654600
  C     -4.438500   -1.581500    0.487700
  O     -5.833500   -1.540800    0.643300
  C     -6.558400   -2.114000    1.729700
  F     -7.907700   -1.896400    1.532000
  F     -6.181500   -1.519200    2.920400
  F     -6.330300   -3.477300    1.788900
  C     -3.583900   -2.185400    1.430300
  C     -2.201400   -2.198100    1.222500
  C      0.170300    0.894700   -0.236900
  N      0.706900    1.045200   -1.475600
  C      0.587600    2.184500   -2.193300
  C     -0.093900    3.278000   -1.662200
  C     -0.195300    4.466400   -2.402400
  C     -0.864600    5.568300   -1.873000
  C     -1.433100    5.494700   -0.603400
  C     -1.342400    4.317500    0.143800
  C     -0.677400    3.179200   -0.372400
  C     -0.572800    1.955100    0.355000
  C     -1.256100    1.804300    1.713400
  F     -2.603900    2.090700    1.588600
  F     -0.682600    2.680000    2.617000
  F     -1.162400    0.533500    2.241600
  C      3.862900   -0.325700   -0.075000
  C      4.974900   -0.857300   -0.733900
  H      7.674300   -4.502000   -1.508900
  H      4.830200   -4.037800    0.495100
  H      2.879400   -3.099000    1.638900
  H      0.084700   -1.647100   -1.208000
  H      0.300500   -2.472500    0.355400
  H     -2.095300   -0.535500   -1.749100
  H     -4.528600   -0.519500   -1.384100
  H     -3.973300   -2.642800    2.328200
  H     -1.557800   -2.653700    1.964700
  H      1.040100    2.236300   -3.176000
  H      0.246600    4.543700   -3.389000
  H     -0.938700    6.483300   -2.446400
  H     -1.946000    6.355400   -0.193700
  H     -1.791400    4.323900    1.125400
  H      3.588000    0.708200   -0.243900
  H      5.543100   -0.217800   -1.397900

 Total Charge           Charge          ....    0
 Multiplicity           Mult            ....    1
 Number of Electrons    NEL             ....  290
 Basis Dimension        Dim             ....  582

ORBITAL ENERGIES
----------------

  NO   OCC          E(Eh)            E(eV)
   0   2.0000     -89.098999     -2424.5070
   1   2.0000     -24.738414      -673.1665
   2   2.0000     -24.735954      -673.0995
   3   2.0000     -24.735063      -673.0753
   4   2.0000     -24.716890      -672.5808
   5   2.0000     -24.711903      -672.4451
   6   2.0000     -24.711440      -672.4325
   7   2.0000     -19.209880      -522.7274
   8   2.0000     -19.196653      -522.3675
   9   2.0000     -19.138236      -520.7779
  10   2.0000     -19.128512      -520.5133
  11   2.0000     -19.128424      -520.5109
  12   2.0000     -14.374751      -391.1569
  13   2.0000     -14.350708      -390.5026
  14   2.0000     -10.500769      -285.7405
  15   2.0000     -10.436541      -283.9927
  16   2.0000     -10.335607      -281.2462
  17   2.0000     -10.284557      -279.8570
  18   2.0000     -10.266201      -279.3575
  19   2.0000     -10.246942      -278.8335
  20   2.0000     -10.241905      -278.6964
  21   2.0000     -10.235064      -278.5103
  22   2.0000     -10.234726      -278.5011
  23   2.0000     -10.231702      -278.4188
  24   2.0000     -10.229480      -278.3583
  25   2.0000     -10.219952      -278.0990
  26   2.0000     -10.219879      -278.0970
  27   2.0000     -10.217760      -278.0394
  28   2.0000     -10.217205      -278.0243
  29   2.0000     -10.217044      -278.0199
  30   2.0000     -10.210496      -277.8417
  31   2.0000     -10.208532      -277.7883
  32   2.0000     -10.207440      -277.7586
  33   2.0000     -10.205801      -277.7140
  34   2.0000     -10.195789      -277.4415
  35   2.0000     -10.195356      -277.4297
  36   2.0000     -10.194747      -277.4132
  37   2.0000     -10.192604      -277.3549
  38   2.0000     -10.191425      -277.3228
  39   2.0000      -8.134850      -221.3605
  40   2.0000      -6.099927      -165.9874
  41   2.0000      -6.097871      -165.9315
  42   2.0000      -6.097416      -165.9191
  43   2.0000      -1.300951       -35.4007
  44   2.0000      -1.276707       -34.7410
  45   2.0000      -1.221688       -33.2438
  46   2.0000      -1.221093       -33.2276
  47   2.0000      -1.201258       -32.6879
  48   2.0000      -1.197295       -32.5800
  49   2.0000      -1.085549       -29.5393
  50   2.0000      -1.081314       -29.4241
  51   2.0000      -1.079669       -29.3793
  52   2.0000      -0.995391       -27.0860
  53   2.0000      -0.978261       -26.6198
  54   2.0000      -0.964190       -26.2370
  55   2.0000      -0.926685       -25.2164
  56   2.0000      -0.890213       -24.2239
  57   2.0000      -0.878900       -23.9161
  58   2.0000      -0.862275       -23.4637
  59   2.0000      -0.823218       -22.4009
  60   2.0000      -0.807465       -21.9722
  61   2.0000      -0.792957       -21.5775
  62   2.0000      -0.781762       -21.2728
  63   2.0000      -0.776263       -21.1232
  64   2.0000      -0.756084       -20.5741
  65   2.0000      -0.755747       -20.5649
  66   2.0000      -0.727861       -19.8061
  67   2.0000      -0.715978       -19.4828
  68   2.0000      -0.699588       -19.0368
  69   2.0000      -0.678673       -18.4676
  70   2.0000      -0.661395       -17.9975
  71   2.0000      -0.658835       -17.9278
  72   2.0000      -0.640245       -17.4219
  73   2.0000      -0.631953       -17.1963
  74   2.0000      -0.628999       -17.1159
  75   2.0000      -0.624298       -16.9880
  76   2.0000      -0.614521       -16.7220
  77   2.0000      -0.599232       -16.3059
  78   2.0000      -0.592857       -16.1324
  79   2.0000      -0.589006       -16.0277
  80   2.0000      -0.572269       -15.5722
  81   2.0000      -0.569617       -15.5001
  82   2.0000      -0.567427       -15.4405
  83   2.0000      -0.563847       -15.3431
  84   2.0000      -0.557495       -15.1702
  85   2.0000      -0.543070       -14.7777
  86   2.0000      -0.535595       -14.5743
  87   2.0000      -0.522817       -14.2266
  88   2.0000      -0.509669       -13.8688
  89   2.0000      -0.500519       -13.6198
  90   2.0000      -0.493749       -13.4356
  91   2.0000      -0.487316       -13.2606
  92   2.0000      -0.486294       -13.2327
  93   2.0000      -0.475559       -12.9406
  94   2.0000      -0.471473       -12.8294
  95   2.0000      -0.468794       -12.7565
  96   2.0000      -0.466726       -12.7003
  97   2.0000      -0.461149       -12.5485
  98   2.0000      -0.460330       -12.5262
  99   2.0000      -0.457025       -12.4363
 100   2.0000      -0.453490       -12.3401
 101   2.0000      -0.448383       -12.2011
 102   2.0000      -0.447702       -12.1826
 103   2.0000      -0.446349       -12.1458
 104   2.0000      -0.442668       -12.0456
 105   2.0000      -0.442097       -12.0301
 106   2.0000      -0.440801       -11.9948
 107   2.0000      -0.438552       -11.9336
 108   2.0000      -0.432269       -11.7627
 109   2.0000      -0.429735       -11.6937
 110   2.0000      -0.426757       -11.6127
 111   2.0000      -0.423141       -11.5142
 112   2.0000      -0.417320       -11.3559
 113   2.0000      -0.413155       -11.2425
 114   2.0000      -0.411876       -11.2077
 115   2.0000      -0.408976       -11.1288
 116   2.0000      -0.406338       -11.0570
 117   2.0000      -0.403086       -10.9685
 118   2.0000      -0.395690       -10.7673
 119   2.0000      -0.392197       -10.6722
 120   2.0000      -0.391775       -10.6607
 121   2.0000      -0.385823       -10.4988
 122   2.0000      -0.382773       -10.4158
 123   2.0000      -0.379924       -10.3383
 124   2.0000      -0.374657       -10.1949
 125   2.0000      -0.369495       -10.0545
 126   2.0000      -0.367078        -9.9887
 127   2.0000      -0.362077        -9.8526
 128   2.0000      -0.345882        -9.4119
 129   2.0000      -0.344415        -9.3720
 130   2.0000      -0.327928        -8.9234
 131   2.0000      -0.321588        -8.7509
 132   2.0000      -0.315457        -8.5840
 133   2.0000      -0.307135        -8.3576
 134   2.0000      -0.298468        -8.1217
 135   2.0000      -0.287047        -7.8109
 136   2.0000      -0.282596        -7.6898
 137   2.0000      -0.280066        -7.6210
 138   2.0000      -0.275601        -7.4995
 139   2.0000      -0.274123        -7.4593
 140   2.0000      -0.272028        -7.4022
 141   2.0000      -0.259320        -7.0564
 142   2.0000      -0.256450        -6.9784
 143   2.0000      -0.240753        -6.5512
 144   2.0000      -0.236921        -6.4470
 145   0.0000      -0.085444        -2.3251
 146   0.0000      -0.079178        -2.1545
 147   0.0000      -0.047431        -1.2907
 148   0.0000      -0.030393        -0.8270
 149   0.0000      -0.012284        -0.3343

MULLIKEN ATOMIC CHARGES
-----------------------
   0 O :   -0.445028
   1 C :    0.528172
   2 O :   -0.623525
   3 C :    0.082832
   4 C :   -0.146083
   5 C :   -0.152009
   6 C :   -0.122823
   7 S :    1.215302
   8 O :   -0.544787
   9 O :   -0.549565
  10 N :   -0.584658
  11 C :   -0.251207
  12 C :    0.163441
  13 C :   -0.171876
  14 C :   -0.170463
  15 C :    0.356137
  16 O :   -0.546467
  17 C :    1.086042
  18 F :   -0.279604
  19 F :   -0.289460
  20 F :   -0.291726
  21 C :   -0.188914
  22 C :   -0.158869
  23 C :    0.330440
  24 N :   -0.398691
  25 C :   -0.045300
  26 C :    0.134962
  27 C :   -0.203039
  28 C :   -0.122070
  29 C :   -0.120211
  30 C :   -0.185474
  31 C :    0.116649
  32 C :   -0.072936
  33 C :    0.946487
  34 F :   -0.306466
  35 F :   -0.298429
  36 F :   -0.279845
  37 C :   -0.132574
  38 C :   -0.141454
  39 H :    0.434134
  40 H :    0.172604
  41 H :    0.182653
  42 H :    0.173121
  43 H :    0.173877
  44 H :    0.140582
  45 H :    0.146556
  46 H :    0.155666
  47 H :    0.160076
  48 H :    0.162835
  49 H :    0.144284
  50 H :    0.142996
  51 H :    0.148517
  52 H :    0.163895
  53 H :    0.181809
  54 H :    0.179482
Sum of atomic charges:   -0.0000000

LOEWDIN ATOMIC CHARGES
----------------------
   0 O :   -0.261218
   1 C :    0.179852
   2 O :   -0.334428
   3 C :   -0.039377
   4 C :   -0.099529
   5 C :   -0.109158
   6 C :   -0.174594
   7 S :    1.260546
   8 O :   -0.569813
   9 O :   -0.567673
  10 N :   -0.275352
  11 C :   -0.147962
  12 C :   -0.039987
  13 C :   -0.126277
  14 C :   -0.141685
  15 C :    0.089345
  16 O :   -0.160224
  17 C :    0.359373
  18 F :   -0.087767
  19 F :   -0.103449
  20 F :   -0.105207
  21 C :   -0.155629
  22 C :   -0.107701
  23 C :    0.049828
  24 N :   -0.138632
  25 C :   -0.044546
  26 C :   -0.028618
  27 C :   -0.112426
  28 C :   -0.119264
  29 C :   -0.110013
  30 C :   -0.116263
  31 C :    0.010015
  32 C :   -0.051268
  33 C :    0.316196
  34 F :   -0.112012
  35 F :   -0.104668
  36 F :   -0.082609
  37 C :   -0.096241
  38 C :   -0.085425
  39 H :    0.349782
  40 H :    0.154623
  41 H :    0.158542
  42 H :    0.133555
  43 H :    0.144243
  44 H :    0.137903
  45 H :    0.144282
  46 H :    0.143644
  47 H :    0.146907
  48 H :    0.141841
  49 H :    0.139737
  50 H :    0.138852
  51 H :    0.141971
  52 H :    0.148754
  53 H :    0.159199
  54 H :    0.160028

  Mayer bond orders larger than 0.100000
B(  0-O ,  1-C ) :   1.8623 B(  1-C ,  2-O ) :   1.0253 B(  1-C ,  3-C ) :   1.0085
B(  2-O , 39-H ) :   0.7418 B(  3-C ,  4-C ) :   1.3882 B(  3-C , 38-C ) :   1.3972
B(  4-C ,  5-C ) :   1.4108 B(  4-C , 40-H ) :   0.9148 B(  5-C ,  6-C ) :   1.3988
B(  5-C , 41-H ) :   0.9094 B(  6-C ,  7-S ) :   0.8114 B(  6-C , 37-C ) :   1.3789
B(  7-S ,  8-O ) :   1.6328 B(  7-S ,  9-O ) :   1.6287 B(  7-S , 10-N ) :   0.7915
B( 10-N , 11-C ) :   0.9188 B( 10-N , 23-C ) :   0.9353 B( 11-C , 12-C ) :   0.9574
B( 11-C , 42-H ) :   0.9175 B( 11-C , 43-H ) :   0.9183 B( 12-C , 13-C ) :   1.4352
B( 12-C , 22-C ) :   1.4330 B( 13-C , 14-C ) :   1.4319 B( 13-C , 44-H ) :   0.9203
B( 14-C , 15-C ) :   1.4223 B( 14-C , 45-H ) :   0.9184 B( 15-C , 16-O ) :   0.8247
B( 15-C , 21-C ) :   1.3882 B( 16-O , 17-C ) :   0.9897 B( 17-C , 18-F ) :   1.0074
B( 17-C , 19-F ) :   0.9708 B( 17-C , 20-F ) :   0.9686 B( 21-C , 22-C ) :   1.4360
B( 21-C , 46-H ) :   0.9091 B( 22-C , 47-H ) :   0.9159 B( 23-C , 24-N ) :   1.2774
B( 23-C , 32-C ) :   1.4171 B( 24-N , 25-C ) :   1.4828 B( 25-C , 26-C ) :   1.2452
B( 25-C , 48-H ) :   0.9234 B( 26-C , 27-C ) :   1.2806 B( 26-C , 31-C ) :   1.2909
B( 27-C , 28-C ) :   1.5157 B( 27-C , 30-C ) :   0.1042 B( 27-C , 49-H ) :   0.9227
B( 28-C , 29-C ) :   1.3509 B( 28-C , 50-H ) :   0.9279 B( 29-C , 30-C ) :   1.5073
B( 29-C , 51-H ) :   0.9270 B( 30-C , 31-C ) :   1.3060 B( 30-C , 52-H ) :   0.8995
B( 31-C , 32-C ) :   1.2517 B( 32-C , 33-C ) :   0.9516 B( 33-C , 34-F ) :   0.9277
B( 33-C , 35-F ) :   0.9350 B( 33-C , 36-F ) :   0.9286 B( 37-C , 38-C ) :   1.4300
B( 37-C , 53-H ) :   0.9089 B( 38-C , 54-H ) :   0.9099

FINAL SINGLE POINT ENERGY     -2443.934872186351

DIPOLE MOMENT
-------------

Method             : SCF
Type of density    : Electron Density
Multiplicity       :   1
Irrep              :   0
Energy             : -2443.9348721863507308 Eh
Relativity type    :
Basis              : AO
                                X                 Y                 Z
Electronic contribution:    -34.841654575      -4.636824300      21.964261182
Nuclear contribution   :     35.190053518       4.825567812     -24.284016728
                        -----------------------------------------
Total Dipole Moment    :      0.348398943       0.188743512      -2.319755546
                        -----------------------------------------
Magnitude (a.u.)       :      2.353353295
Magnitude (Debye)      :      5.981748699

Rotational constants in cm-1:             0.003813             0.001750             0.001373
Rotational constants in MHz :           114.301012            52.452281            41.151948

                             ****ORCA TERMINATED NORMALLY****
TOTAL RUN TIME: 0 days 0 hours 11 minutes 56 seconds 214 msec
