                         Program Version 6.0.0  -   RELEASE  -
|  1> ! B3LYP 6-31G* SP
|  2>
|  3> * xyz 0 1
|  4> C 10.0587 -0.0911 -2.5899
|  5> C 8.7678 0.4756 -1.9834
|  6> C 8.5469 1.9132 -2.4793
|  7> C 8.8339 0.3989 -0.4393
|  8> C 7.5072 0.7347 0.2511
|  9> O 6.4771 -0.1382 -0.2085
| 10> C 5.1471 -0.1008 0.2355
| 11> C 4.7031 0.8049 1.2148
| 12> C 3.3671 0.8029 1.6260
| 13> C 2.4437 -0.1020 1.0658
| 14> C 1.0172 -0.1291 1.4906
| 15> C 0.4300 0.7988 2.3606
| 16> S -1.1876 0.3850 2.5587
| 17> C -1.0817 -0.9544 1.5451
| 18> N -2.1597 -1.8299 1.1850
| 19> C -3.4492 -1.8353 1.8176
| 20> O -3.6281 -1.2417 2.9153
| 21> C -4.5757 -2.6272 1.2161
| 22> C -5.8837 -1.8550 1.2598
| 23> C -6.7781 -2.2091 2.2823
| 24> C -8.0068 -1.5825 2.4058
| 25> C -8.3762 -0.5843 1.5166
| 26> C -7.5104 -0.1693 0.4759
| 27> C -6.2383 -0.8000 0.3489
| 28> C -5.3849 -0.3364 -0.6821
| 29> O -4.2186 -0.7990 -0.8033
| 30> N -5.8058 0.6310 -1.5534
| 31> C -4.9069 1.1023 -2.6263
| 32> C -7.0267 1.2269 -1.3966
| 33> O -7.3644 2.1571 -2.1847
| 34> N -7.8803 0.8343 -0.3962
| 35> C -9.1963 1.4988 -0.2625
| 36> N 0.1625 -1.0919 1.0399
| 37> C 2.8988 -1.0055 0.0872
| 38> C 4.2352 -1.0019 -0.3207
| 39> H 10.1994 -1.1479 -2.2764
| 40> H 10.0062 -0.0683 -3.6999
| 41> H 10.9395 0.5007 -2.2598
| 42> H 7.9249 -0.1530 -2.3462
| 43> H 9.3333 2.5900 -2.0830
| 44> H 8.5757 1.9452 -3.5897
| 45> H 7.5510 2.2884 -2.1659
| 46> H 9.6218 1.0875 -0.0619
| 47> H 9.1219 -0.6321 -0.1355
| 48> H 7.6382 0.6047 1.3475
| 49> H 7.2283 1.7918 0.0571
| 50> H 5.3825 1.5135 1.6679
| 51> H 3.0729 1.5083 2.3884
| 52> H 0.9032 1.6506 2.8274
| 53> H -1.9891 -2.5042 0.4058
| 54> H -4.3469 -2.9486 0.1789
| 55> H -4.6581 -3.5774 1.7875
| 56> H -6.5249 -2.9859 2.9943
| 57> H -8.6834 -1.8763 3.1986
| 58> H -9.3503 -0.1420 1.6663
| 59> H -4.1615 0.3317 -2.9137
| 60> H -5.4782 1.3323 -3.5500
| 61> H -4.3719 2.0152 -2.2908
| 62> H -9.3733 2.2861 -1.0238
| 63> H -9.2727 1.9920 0.7300
| 64> H -10.0109 0.7523 -0.3804
| 65> H 2.2218 -1.7169 -0.3690
| 66> H 4.5639 -1.7046 -1.0762
| 67> *
| 68>
| 69>                          ****END OF INPUT****

CARTESIAN COORDINATES (ANGSTROEM)
---------------------------------
  C     10.058700   -0.091100   -2.589900
  C      8.767800    0.475600   -1.983400
  C      8.546900    1.913200   -2.479300
  C      8.833900    0.398900   -0.439300
  C      7.507200    0.734700    0.251100
  O      6.477100   -0.138200   -0.208500
  C      5.147100   -0.100800    0.235500
  C      4.703100    0.804900    1.214800
  C      3.367100    0.802900    1.626000
  C      2.443700   -0.102000    1.065800
  C      1.017200   -0.129100    1.490600
  C      0.430000    0.798800    2.360600
  S     -1.187600    0.385000    2.558700
  C     -1.081700   -0.954400    1.545100
  N     -2.159700   -1.829900    1.185000
  C     -3.449200   -1.835300    1.817600
  O     -3.628100   -1.241700    2.915300
  C     -4.575700   -2.627200    1.216100
  C     -5.883700   -1.855000    1.259800
  C     -6.778100   -2.209100    2.282300
  C     -8.006800   -1.582500    2.405800
  C     -8.376200   -0.584300    1.516600
  C     -7.510400   -0.169300    0.475900
  C     -6.238300   -0.800000    0.348900
  C     -5.384900   -0.336400   -0.682100
  O     -4.218600   -0.799000   -0.803300
  N     -5.805800    0.631000   -1.553400
  C     -4.906900    1.102300   -2.626300
  C     -7.026700    1.226900   -1.396600
  O     -7.364400    2.157100   -2.184700
  N     -7.880300    0.834300   -0.396200
  C     -9.196300    1.498800   -0.262500
  N      0.162500   -1.091900    1.039900
  C      2.898800   -1.005500    0.087200
  C      4.235200   -1.001900   -0.320700
  H     10.199400   -1.147900   -2.276400
  H     10.006200   -0.068300   -3.699900
  H     10.939500    0.500700   -2.259800
  H      7.924900   -0.153000   -2.346200
  H      9.333300    2.590000   -2.083000
  H      8.575700    1.945200   -3.589700
  H      7.551000    2.288400   -2.165900
  H      9.621800    1.087500   -0.061900
  H      9.121900   -0.632100   -0.135500
  H      7.638200    0.604700    1.347500
  H      7.228300    1.791800    0.057100
  H      5.382500    1.513500    1.667900
  H      3.072900    1.508300    2.388400
  H      0.903200    1.650600    2.827400
  H     -1.989100   -2.504200    0.405800
  H     -4.346900   -2.948600    0.178900
  H     -4.658100   -3.577400    1.787500
  H     -6.524900   -2.985900    2.994300
  H     -8.683400   -1.876300    3.198600
  H     -9.350300   -0.142000    1.666300
  H     -4.161500    0.331700   -2.913700
  H     -5.478200    1.332300   -3.550000
  H     -4.371900    2.015200   -2.290800
  H     -9.373300    2.286100   -1.023800
  H     -9.272700    1.992000    0.730000
  H    -10.010900    0.752300   -0.380400
  H      2.221800   -1.716900   -0.369000
  H      4.563900   -1.704600   -1.076200

 Total Charge           Charge          ....    0
 Multiplicity           Mult            ....    1
 Number of Electrons    NEL             ....  260
 Basis Dimension        Dim             ....  550

ORBITAL ENERGIES
----------------

  NO   OCC          E(Eh)            E(eV)
   0   2.0000     -88.886724     -2418.7307
   1   2.0000     -19.155953      -521.2600
   2   2.0000     -19.120621      -520.2985
   3   2.0000     -19.115412      -520.1568
   4   2.0000     -19.110009      -520.0098
   5   2.0000     -14.403059      -391.9272
   6   2.0000     -14.397011      -391.7626
   7   2.0000     -14.378286      -391.2531
   8   2.0000     -14.314516      -389.5178
   9   2.0000     -10.325741      -280.9777
  10   2.0000     -10.301670      -280.3227
  11   2.0000     -10.296400      -280.1793
  12   2.0000     -10.273730      -279.5624
  13   2.0000     -10.259443      -279.1736
  14   2.0000     -10.236318      -278.5444
  15   2.0000     -10.233943      -278.4797
  16   2.0000     -10.229998      -278.3724
  17   2.0000     -10.225434      -278.2482
  18   2.0000     -10.218390      -278.0565
  19   2.0000     -10.214224      -277.9432
  20   2.0000     -10.209377      -277.8113
  21   2.0000     -10.205304      -277.7004
  22   2.0000     -10.204536      -277.6795
  23   2.0000     -10.201098      -277.5860
  24   2.0000     -10.193020      -277.3662
  25   2.0000     -10.188329      -277.2385
  26   2.0000     -10.180470      -277.0247
  27   2.0000     -10.177374      -276.9404
  28   2.0000     -10.176516      -276.9171
  29   2.0000     -10.175128      -276.8793
  30   2.0000     -10.173392      -276.8321
  31   2.0000     -10.170967      -276.7661
  32   2.0000     -10.169279      -276.7202
  33   2.0000     -10.162053      -276.5235
  34   2.0000     -10.161389      -276.5054
  35   2.0000      -7.962969      -216.6834
  36   2.0000      -5.926094      -161.2572
  37   2.0000      -5.921884      -161.1426
  38   2.0000      -5.919939      -161.0897
  39   2.0000      -1.068969       -29.0881
  40   2.0000      -1.034969       -28.1630
  41   2.0000      -1.024993       -27.8915
  42   2.0000      -1.020738       -27.7757
  43   2.0000      -0.970708       -26.4143
  44   2.0000      -0.960838       -26.1457
  45   2.0000      -0.940835       -25.6014
  46   2.0000      -0.899786       -24.4844
  47   2.0000      -0.869628       -23.6638
  48   2.0000      -0.841043       -22.8859
  49   2.0000      -0.801996       -21.8234
  50   2.0000      -0.797897       -21.7119
  51   2.0000      -0.792313       -21.5599
  52   2.0000      -0.787650       -21.4330
  53   2.0000      -0.761066       -20.7096
  54   2.0000      -0.745767       -20.2934
  55   2.0000      -0.736395       -20.0383
  56   2.0000      -0.731822       -19.9139
  57   2.0000      -0.723684       -19.6924
  58   2.0000      -0.710402       -19.3310
  59   2.0000      -0.689790       -18.7701
  60   2.0000      -0.669887       -18.2285
  61   2.0000      -0.656756       -17.8712
  62   2.0000      -0.653323       -17.7778
  63   2.0000      -0.631303       -17.1786
  64   2.0000      -0.620325       -16.8799
  65   2.0000      -0.608720       -16.5641
  66   2.0000      -0.597718       -16.2647
  67   2.0000      -0.586933       -15.9713
  68   2.0000      -0.572996       -15.5920
  69   2.0000      -0.559588       -15.2272
  70   2.0000      -0.548800       -14.9336
  71   2.0000      -0.546084       -14.8597
  72   2.0000      -0.542201       -14.7540
  73   2.0000      -0.518832       -14.1181
  74   2.0000      -0.515116       -14.0170
  75   2.0000      -0.504185       -13.7196
  76   2.0000      -0.499780       -13.5997
  77   2.0000      -0.489690       -13.3251
  78   2.0000      -0.486690       -13.2435
  79   2.0000      -0.473442       -12.8830
  80   2.0000      -0.471771       -12.8375
  81   2.0000      -0.467413       -12.7189
  82   2.0000      -0.461691       -12.5633
  83   2.0000      -0.460631       -12.5344
  84   2.0000      -0.455200       -12.3866
  85   2.0000      -0.446627       -12.1533
  86   2.0000      -0.443140       -12.0585
  87   2.0000      -0.442257       -12.0344
  88   2.0000      -0.434181       -11.8147
  89   2.0000      -0.426045       -11.5933
  90   2.0000      -0.420161       -11.4332
  91   2.0000      -0.417916       -11.3721
  92   2.0000      -0.413900       -11.2628
  93   2.0000      -0.411008       -11.1841
  94   2.0000      -0.408487       -11.1155
  95   2.0000      -0.403668       -10.9844
  96   2.0000      -0.402687       -10.9577
  97   2.0000      -0.400185       -10.8896
  98   2.0000      -0.393949       -10.7199
  99   2.0000      -0.389884       -10.6093
 100   2.0000      -0.384339       -10.4584
 101   2.0000      -0.382442       -10.4068
 102   2.0000      -0.378985       -10.3127
 103   2.0000      -0.376205       -10.2371
 104   2.0000      -0.375703       -10.2234
 105   2.0000      -0.372137       -10.1264
 106   2.0000      -0.366763        -9.9801
 107   2.0000      -0.361974        -9.8498
 108   2.0000      -0.357328        -9.7234
 109   2.0000      -0.353913        -9.6305
 110   2.0000      -0.343687        -9.3522
 111   2.0000      -0.335700        -9.1349
 112   2.0000      -0.324140        -8.8203
 113   2.0000      -0.320887        -8.7318
 114   2.0000      -0.316182        -8.6038
 115   2.0000      -0.314373        -8.5545
 116   2.0000      -0.306721        -8.3463
 117   2.0000      -0.296330        -8.0636
 118   2.0000      -0.291853        -7.9417
 119   2.0000      -0.275109        -7.4861
 120   2.0000      -0.269745        -7.3401
 121   2.0000      -0.267056        -7.2670
 122   2.0000      -0.263608        -7.1731
 123   2.0000      -0.260157        -7.0792
 124   2.0000      -0.252913        -6.8821
 125   2.0000      -0.250939        -6.8284
 126   2.0000      -0.239390        -6.5141
 127   2.0000      -0.230752        -6.2791
 128   2.0000      -0.223917        -6.0931
 129   2.0000      -0.186131        -5.0649
 130   0.0000      -0.059049        -1.6068
 131   0.0000      -0.026045        -0.7087
 132   0.0000      -0.016543        -0.4501
 133   0.0000      -0.003250        -0.0884
 134   0.0000       0.010175         0.2769

MULLIKEN ATOMIC CHARGES
-----------------------
   0 C :   -0.434869
   1 C :   -0.056720
   2 C :   -0.443973
   3 C :   -0.271316
   4 C :   -0.018907
   5 O :   -0.523871
   6 C :    0.377526
   7 C :   -0.211983
   8 C :   -0.178830
   9 C :    0.113836
  10 C :    0.217993
  11 C :   -0.411469
  12 S :    0.303769
  13 C :    0.264860
  14 N :   -0.629836
  15 C :    0.593049
  16 O :   -0.464686
  17 C :   -0.439897
  18 C :    0.132788
  19 C :   -0.176027
  20 C :   -0.105787
  21 C :   -0.196077
  22 C :    0.318646
  23 C :    0.009468
  24 C :    0.508725
  25 O :   -0.507517
  26 N :   -0.464895
  27 C :   -0.313543
  28 C :    0.673455
  29 O :   -0.510919
  30 N :   -0.511980
  31 C :   -0.336249
  32 N :   -0.441364
  33 C :   -0.167780
  34 C :   -0.179292
  35 H :    0.137318
  36 H :    0.136736
  37 H :    0.131957
  38 H :    0.143532
  39 H :    0.131775
  40 H :    0.139566
  41 H :    0.145591
  42 H :    0.130273
  43 H :    0.140399
  44 H :    0.129605
  45 H :    0.131733
  46 H :    0.130663
  47 H :    0.122890
  48 H :    0.173702
  49 H :    0.355090
  50 H :    0.177906
  51 H :    0.176081
  52 H :    0.141169
  53 H :    0.144899
  54 H :    0.141162
  55 H :    0.195735
  56 H :    0.191284
  57 H :    0.181938
  58 H :    0.223958
  59 H :    0.174127
  60 H :    0.170953
  61 H :    0.150423
  62 H :    0.133210
Sum of atomic charges:   -0.0000000

LOEWDIN ATOMIC CHARGES
----------------------
   0 C :   -0.352565
   1 C :   -0.129408
   2 C :   -0.356191
   3 C :   -0.229515
   4 C :   -0.088305
   5 O :   -0.190232
   6 C :    0.087675
   7 C :   -0.174320
   8 C :   -0.119023
   9 C :   -0.035000
  10 C :   -0.004505
  11 C :   -0.359501
  12 S :    0.417065
  13 C :   -0.076667
  14 N :   -0.189734
  15 C :    0.160619
  16 O :   -0.267334
  17 C :   -0.241506
  18 C :    0.046257
  19 C :   -0.134072
  20 C :   -0.097589
  21 C :   -0.164106
  22 C :    0.053664
  23 C :   -0.072402
  24 C :    0.116405
  25 O :   -0.295868
  26 N :   -0.019902
  27 C :   -0.258286
  28 C :    0.137339
  29 O :   -0.319194
  30 N :   -0.026826
  31 C :   -0.265153
  32 N :   -0.190205
  33 C :   -0.109245
  34 C :   -0.150178
  35 H :    0.120260
  36 H :    0.120752
  37 H :    0.117337
  38 H :    0.125804
  39 H :    0.117423
  40 H :    0.123078
  41 H :    0.122644
  42 H :    0.124041
  43 H :    0.124947
  44 H :    0.110693
  45 H :    0.108911
  46 H :    0.134053
  47 H :    0.129952
  48 H :    0.156561
  49 H :    0.276214
  50 H :    0.147518
  51 H :    0.147791
  52 H :    0.139403
  53 H :    0.140860
  54 H :    0.140363
  55 H :    0.152981
  56 H :    0.150191
  57 H :    0.143042
  58 H :    0.167917
  59 H :    0.136313
  60 H :    0.134695
  61 H :    0.145562
  62 H :    0.138505

  Mayer bond orders larger than 0.100000
B(  0-C ,  1-C ) :   1.0066 B(  0-C , 35-H ) :   0.9494 B(  0-C , 36-H ) :   0.9499
B(  0-C , 37-H ) :   0.9488 B(  1-C ,  2-C ) :   1.0066 B(  1-C ,  3-C ) :   0.9982
B(  1-C , 38-H ) :   0.9256 B(  2-C , 39-H ) :   0.9481 B(  2-C , 40-H ) :   0.9492
B(  2-C , 41-H ) :   0.9461 B(  3-C ,  4-C ) :   1.0102 B(  3-C , 42-H ) :   0.9287
B(  3-C , 43-H ) :   0.9341 B(  4-C ,  5-O ) :   0.8953 B(  4-C , 44-H ) :   0.9225
B(  4-C , 45-H ) :   0.9152 B(  5-O ,  6-C ) :   0.9150 B(  6-C ,  7-C ) :   1.3614
B(  6-C , 34-C ) :   1.3930 B(  7-C ,  8-C ) :   1.4310 B(  7-C , 46-H ) :   0.9181
B(  8-C ,  9-C ) :   1.4058 B(  8-C , 47-H ) :   0.9205 B(  9-C , 10-C ) :   1.0623
B(  9-C , 33-C ) :   1.3885 B( 10-C , 11-C ) :   1.5152 B( 10-C , 32-N ) :   1.2882
B( 11-C , 12-S ) :   1.1025 B( 11-C , 13-C ) :   0.1094 B( 11-C , 48-H ) :   0.9022
B( 12-S , 13-C ) :   1.1808 B( 13-C , 14-N ) :   0.9511 B( 13-C , 32-N ) :   1.4775
B( 14-N , 15-C ) :   1.0270 B( 14-N , 49-H ) :   0.8099 B( 15-C , 16-O ) :   1.8297
B( 15-C , 17-C ) :   0.9382 B( 17-C , 18-C ) :   0.9978 B( 17-C , 50-H ) :   0.9044
B( 17-C , 51-H ) :   0.9111 B( 18-C , 19-C ) :   1.4412 B( 18-C , 23-C ) :   1.3590
B( 19-C , 20-C ) :   1.4041 B( 19-C , 52-H ) :   0.9214 B( 20-C , 21-C ) :   1.4690
B( 20-C , 53-H ) :   0.9257 B( 21-C , 22-C ) :   1.3453 B( 21-C , 54-H ) :   0.9145
B( 22-C , 23-C ) :   1.2850 B( 22-C , 30-N ) :   0.9688 B( 23-C , 24-C ) :   1.0629
B( 24-C , 25-O ) :   1.7341 B( 24-C , 26-N ) :   1.0016 B( 26-N , 27-C ) :   0.9163
B( 26-N , 28-C ) :   1.0409 B( 27-C , 55-H ) :   0.9227 B( 27-C , 56-H ) :   0.9283
B( 27-C , 57-H ) :   0.9397 B( 28-C , 29-O ) :   1.7825 B( 28-C , 30-N ) :   1.0468
B( 30-N , 31-C ) :   0.9344 B( 31-C , 58-H ) :   0.9140 B( 31-C , 59-H ) :   0.9314
B( 31-C , 60-H ) :   0.9322 B( 33-C , 34-C ) :   1.4304 B( 33-C , 61-H ) :   0.9122
B( 34-C , 62-H ) :   0.9215

FINAL SINGLE POINT ENERGY     -1924.764519842458

DIPOLE MOMENT
-------------

Method             : SCF
Type of density    : Electron Density
Multiplicity       :   1
Irrep              :   0
Energy             : -1924.7645198424579576 Eh
Relativity type    :
Basis              : AO
                                X                 Y                 Z
Electronic contribution:    -60.981598597      -8.562420202      19.667532568
Nuclear contribution   :     59.661350296       8.226582746     -19.532438886
                        -----------------------------------------
Total Dipole Moment    :     -1.320248301      -0.335837455       0.135093682
                        -----------------------------------------
Magnitude (a.u.)       :      1.368975046
Magnitude (Debye)      :      3.479658034

Rotational constants in cm-1:             0.008683             0.000978             0.000922
Rotational constants in MHz :           260.298826            29.329250            27.640394

                             ****ORCA TERMINATED NORMALLY****
TOTAL RUN TIME: 0 days 0 hours 9 minutes 24 seconds 369 msec
