                         Program Version 6.0.0  -   RELEASE  -
|  1> ! B3LYP 6-31G* SP
|  2>
|  3> * xyz 0 1
|  4> C 8.5284 -0.1579 -0.0303
|  5> C 7.0336 -0.0646 -0.1109
|  6> C 6.2525 -0.2191 1.0438
|  7> C 4.8575 -0.1699 0.9642
|  8> C 4.2230 0.0359 -0.2739
|  9> N 2.7897 0.0635 -0.3871
| 10> C 1.9193 0.6417 0.6043
| 11> O 2.4080 1.3362 1.5375
| 12> N 0.4902 0.4559 0.5349
| 13> C -0.1621 0.1050 -0.7363
| 14> C -1.6605 0.4343 -0.7014
| 15> C -2.4063 -0.2224 0.5004
| 16> C -2.9500 -1.6304 0.1332
| 17> C -4.0895 -1.5854 -0.8982
| 18> C -5.0933 -0.5044 -0.5982
| 19> C -6.3562 -0.5372 -1.2086
| 20> C -7.2884 0.4714 -0.9520
| 21> C -6.9644 1.5226 -0.0912
| 22> C -5.7034 1.5729 0.5122
| 23> Cl -5.3103 2.9070 1.5850
| 24> C -4.7607 0.5672 0.2529
| 25> O -3.5019 0.6255 0.8625
| 26> C -1.4811 -0.3504 1.7462
| 27> C -0.3325 0.6606 1.7356
| 28> C 5.0067 0.1473 -1.4319
| 29> C 6.4015 0.0992 -1.3522
| 30> H 8.8919 0.2174 0.9500
| 31> H 9.0026 0.4523 -0.8285
| 32> H 8.8392 -1.2167 -0.1509
| 33> H 6.7230 -0.3860 2.0050
| 34> H 4.2780 -0.3225 1.8649
| 35> H 2.3775 -0.3029 -1.2730
| 36> H 0.2907 0.6916 -1.5652
| 37> H -0.0163 -0.9770 -0.9423
| 38> H -2.1153 0.1605 -1.6740
| 39> H -1.7562 1.5403 -0.6224
| 40> H -2.1297 -2.2719 -0.2565
| 41> H -3.3450 -2.1159 1.0539
| 42> H -4.5990 -2.5738 -0.9005
| 43> H -3.6816 -1.4291 -1.9183
| 44> H -6.6187 -1.3450 -1.8806
| 45> H -8.2631 0.4385 -1.4215
| 46> H -7.6928 2.2995 0.1036
| 47> H -2.0740 -0.2242 2.6787
| 48> H -1.0248 -1.3651 1.7917
| 49> H -0.7312 1.6980 1.7452
| 50> H 0.2725 0.5088 2.6563
| 51> H 4.5345 0.2786 -2.3975
| 52> H 6.9879 0.1882 -2.2584
| 53> *
| 54>
| 55>                          ****END OF INPUT****

CARTESIAN COORDINATES (ANGSTROEM)
---------------------------------
  C      8.528400   -0.157900   -0.030300
  C      7.033600   -0.064600   -0.110900
  C      6.252500   -0.219100    1.043800
  C      4.857500   -0.169900    0.964200
  C      4.223000    0.035900   -0.273900
  N      2.789700    0.063500   -0.387100
  C      1.919300    0.641700    0.604300
  O      2.408000    1.336200    1.537500
  N      0.490200    0.455900    0.534900
  C     -0.162100    0.105000   -0.736300
  C     -1.660500    0.434300   -0.701400
  C     -2.406300   -0.222400    0.500400
  C     -2.950000   -1.630400    0.133200
  C     -4.089500   -1.585400   -0.898200
  C     -5.093300   -0.504400   -0.598200
  C     -6.356200   -0.537200   -1.208600
  C     -7.288400    0.471400   -0.952000
  C     -6.964400    1.522600   -0.091200
  C     -5.703400    1.572900    0.512200
  Cl    -5.310300    2.907000    1.585000
  C     -4.760700    0.567200    0.252900
  O     -3.501900    0.625500    0.862500
  C     -1.481100   -0.350400    1.746200
  C     -0.332500    0.660600    1.735600
  C      5.006700    0.147300   -1.431900
  C      6.401500    0.099200   -1.352200
  H      8.891900    0.217400    0.950000
  H      9.002600    0.452300   -0.828500
  H      8.839200   -1.216700   -0.150900
  H      6.723000   -0.386000    2.005000
  H      4.278000   -0.322500    1.864900
  H      2.377500   -0.302900   -1.273000
  H      0.290700    0.691600   -1.565200
  H     -0.016300   -0.977000   -0.942300
  H     -2.115300    0.160500   -1.674000
  H     -1.756200    1.540300   -0.622400
  H     -2.129700   -2.271900   -0.256500
  H     -3.345000   -2.115900    1.053900
  H     -4.599000   -2.573800   -0.900500
  H     -3.681600   -1.429100   -1.918300
  H     -6.618700   -1.345000   -1.880600
  H     -8.263100    0.438500   -1.421500
  H     -7.692800    2.299500    0.103600
  H     -2.074000   -0.224200    2.678700
  H     -1.024800   -1.365100    1.791700
  H     -0.731200    1.698000    1.745200
  H      0.272500    0.508800    2.656300
  H      4.534500    0.278600   -2.397500
  H      6.987900    0.188200   -2.258400

 Total Charge           Charge          ....    0
 Multiplicity           Mult            ....    1
 Number of Electrons    NEL             ....  196
 Basis Dimension        Dim             ....  414

ORBITAL ENERGIES
----------------

  NO   OCC          E(Eh)            E(eV)
   0   2.0000    -101.520927     -2762.5249
   1   2.0000     -19.170474      -521.6551
   2   2.0000     -19.092176      -519.5245
   3   2.0000     -14.360150      -390.7596
   4   2.0000     -14.348362      -390.4388
   5   2.0000     -10.308001      -280.4950
   6   2.0000     -10.260131      -279.1924
   7   2.0000     -10.256695      -279.0989
   8   2.0000     -10.242076      -278.7011
   9   2.0000     -10.230937      -278.3979
  10   2.0000     -10.219995      -278.1002
  11   2.0000     -10.212502      -277.8963
  12   2.0000     -10.198344      -277.5110
  13   2.0000     -10.197479      -277.4875
  14   2.0000     -10.196181      -277.4522
  15   2.0000     -10.194550      -277.4078
  16   2.0000     -10.193162      -277.3700
  17   2.0000     -10.189153      -277.2610
  18   2.0000     -10.188733      -277.2495
  19   2.0000     -10.185921      -277.1730
  20   2.0000     -10.177624      -276.9472
  21   2.0000     -10.176390      -276.9137
  22   2.0000     -10.172774      -276.8153
  23   2.0000     -10.169913      -276.7374
  24   2.0000     -10.169542      -276.7273
  25   2.0000     -10.169472      -276.7254
  26   2.0000      -9.452357      -257.2117
  27   2.0000      -7.215549      -196.3451
  28   2.0000      -7.206003      -196.0853
  29   2.0000      -7.205547      -196.0729
  30   2.0000      -1.057275       -28.7699
  31   2.0000      -1.009285       -27.4640
  32   2.0000      -0.919261       -25.0144
  33   2.0000      -0.906003       -24.6536
  34   2.0000      -0.881508       -23.9870
  35   2.0000      -0.838154       -22.8073
  36   2.0000      -0.835153       -22.7257
  37   2.0000      -0.816273       -22.2119
  38   2.0000      -0.784685       -21.3524
  39   2.0000      -0.768610       -20.9149
  40   2.0000      -0.754484       -20.5306
  41   2.0000      -0.734263       -19.9803
  42   2.0000      -0.731992       -19.9185
  43   2.0000      -0.727225       -19.7888
  44   2.0000      -0.677258       -18.4291
  45   2.0000      -0.659533       -17.9468
  46   2.0000      -0.651692       -17.7334
  47   2.0000      -0.641293       -17.4505
  48   2.0000      -0.608700       -16.5636
  49   2.0000      -0.599545       -16.3144
  50   2.0000      -0.598437       -16.2843
  51   2.0000      -0.574017       -15.6198
  52   2.0000      -0.558168       -15.1885
  53   2.0000      -0.544370       -14.8131
  54   2.0000      -0.536976       -14.6119
  55   2.0000      -0.517275       -14.0758
  56   2.0000      -0.509696       -13.8695
  57   2.0000      -0.498874       -13.5750
  58   2.0000      -0.487672       -13.2702
  59   2.0000      -0.472539       -12.8585
  60   2.0000      -0.461418       -12.5558
  61   2.0000      -0.455045       -12.3824
  62   2.0000      -0.452207       -12.3052
  63   2.0000      -0.447910       -12.1883
  64   2.0000      -0.445501       -12.1227
  65   2.0000      -0.440572       -11.9886
  66   2.0000      -0.431901       -11.7526
  67   2.0000      -0.418454       -11.3867
  68   2.0000      -0.413671       -11.2566
  69   2.0000      -0.412540       -11.2258
  70   2.0000      -0.411027       -11.1846
  71   2.0000      -0.407514       -11.0890
  72   2.0000      -0.403476       -10.9791
  73   2.0000      -0.400130       -10.8881
  74   2.0000      -0.393902       -10.7186
  75   2.0000      -0.385394       -10.4871
  76   2.0000      -0.381065       -10.3693
  77   2.0000      -0.377110       -10.2617
  78   2.0000      -0.374425       -10.1886
  79   2.0000      -0.368862       -10.0373
  80   2.0000      -0.360680        -9.8146
  81   2.0000      -0.358389        -9.7523
  82   2.0000      -0.352269        -9.5857
  83   2.0000      -0.340796        -9.2735
  84   2.0000      -0.339430        -9.2364
  85   2.0000      -0.336969        -9.1694
  86   2.0000      -0.332818        -9.0564
  87   2.0000      -0.319854        -8.7037
  88   2.0000      -0.312151        -8.4941
  89   2.0000      -0.304905        -8.2969
  90   2.0000      -0.297526        -8.0961
  91   2.0000      -0.274925        -7.4811
  92   2.0000      -0.248496        -6.7619
  93   2.0000      -0.240421        -6.5422
  94   2.0000      -0.236059        -6.4235
  95   2.0000      -0.222118        -6.0441
  96   2.0000      -0.220325        -5.9954
  97   2.0000      -0.202474        -5.5096
  98   0.0000      -0.012769        -0.3475
  99   0.0000       0.004007         0.1090
 100   0.0000       0.004555         0.1240
 101   0.0000       0.008888         0.2419
 102   0.0000       0.033664         0.9160

MULLIKEN ATOMIC CHARGES
-----------------------
   0 C :   -0.522983
   1 C :    0.170250
   2 C :   -0.184225
   3 C :   -0.128783
   4 C :    0.338758
   5 N :   -0.728262
   6 C :    0.684215
   7 O :   -0.494651
   8 N :   -0.441626
   9 C :   -0.140550
  10 C :   -0.326145
  11 C :    0.364232
  12 C :   -0.310536
  13 C :   -0.354148
  14 C :    0.117653
  15 C :   -0.183466
  16 C :   -0.124539
  17 C :   -0.133097
  18 C :   -0.142391
  19 Cl:   -0.008194
  20 C :    0.327703
  21 O :   -0.541732
  22 C :   -0.318345
  23 C :   -0.123910
  24 C :   -0.183052
  25 C :   -0.175424
  26 H :    0.152589
  27 H :    0.150039
  28 H :    0.159580
  29 H :    0.123637
  30 H :    0.147250
  31 H :    0.324529
  32 H :    0.149416
  33 H :    0.133971
  34 H :    0.149413
  35 H :    0.174538
  36 H :    0.139062
  37 H :    0.153048
  38 H :    0.156142
  39 H :    0.154847
  40 H :    0.127596
  41 H :    0.132086
  42 H :    0.151078
  43 H :    0.168030
  44 H :    0.147779
  45 H :    0.159018
  46 H :    0.174690
  47 H :    0.115363
  48 H :    0.119550
Sum of atomic charges:   -0.0000000

LOEWDIN ATOMIC CHARGES
----------------------
   0 C :   -0.351594
   1 C :   -0.030093
   2 C :   -0.132716
   3 C :   -0.121942
   4 C :    0.033324
   5 N :   -0.230972
   6 C :    0.164845
   7 O :   -0.311393
   8 N :   -0.135623
   9 C :   -0.157143
  10 C :   -0.238115
  11 C :    0.082613
  12 C :   -0.232596
  13 C :   -0.225893
  14 C :   -0.051246
  15 C :   -0.127979
  16 C :   -0.140722
  17 C :   -0.131239
  18 C :   -0.109977
  19 Cl:    0.040109
  20 C :    0.074932
  21 O :   -0.164993
  22 C :   -0.232395
  23 C :   -0.143264
  24 C :   -0.149722
  25 C :   -0.135509
  26 H :    0.130670
  27 H :    0.129455
  28 H :    0.134684
  29 H :    0.130872
  30 H :    0.144667
  31 H :    0.251008
  32 H :    0.125416
  33 H :    0.106611
  34 H :    0.131712
  35 H :    0.141642
  36 H :    0.126489
  37 H :    0.129888
  38 H :    0.136562
  39 H :    0.128787
  40 H :    0.132374
  41 H :    0.134658
  42 H :    0.145509
  43 H :    0.144223
  44 H :    0.129110
  45 H :    0.123895
  46 H :    0.145982
  47 H :    0.126061
  48 H :    0.129030

  Mayer bond orders larger than 0.100000
B(  0-C ,  1-C ) :   0.9869 B(  0-C , 26-H ) :   0.9467 B(  0-C , 27-H ) :   0.9473
B(  0-C , 28-H ) :   0.9349 B(  1-C ,  2-C ) :   1.4267 B(  1-C , 25-C ) :   1.4418
B(  2-C ,  3-C ) :   1.4350 B(  2-C , 29-H ) :   0.9263 B(  3-C ,  4-C ) :   1.4222
B(  3-C , 30-H ) :   0.9124 B(  4-C ,  5-N ) :   0.8596 B(  4-C , 24-C ) :   1.4105
B(  5-N ,  6-C ) :   1.0052 B(  5-N , 31-H ) :   0.8202 B(  6-C ,  7-O ) :   1.7842
B(  6-C ,  8-N ) :   1.0495 B(  8-N ,  9-C ) :   0.9493 B(  8-N , 23-C ) :   0.9385
B(  9-C , 10-C ) :   0.9995 B(  9-C , 32-H ) :   0.9249 B(  9-C , 33-H ) :   0.9183
B( 10-C , 11-C ) :   0.9752 B( 10-C , 34-H ) :   0.9253 B( 10-C , 35-H ) :   0.9229
B( 11-C , 12-C ) :   0.9767 B( 11-C , 21-O ) :   0.8394 B( 11-C , 22-C ) :   0.9736
B( 12-C , 13-C ) :   0.9927 B( 12-C , 36-H ) :   0.9284 B( 12-C , 37-H ) :   0.9325
B( 13-C , 14-C ) :   0.9794 B( 13-C , 38-H ) :   0.9314 B( 13-C , 39-H ) :   0.9207
B( 14-C , 15-C ) :   1.4174 B( 14-C , 20-C ) :   1.3690 B( 15-C , 16-C ) :   1.4385
B( 15-C , 40-H ) :   0.9271 B( 16-C , 17-C ) :   1.4439 B( 16-C , 41-H ) :   0.9286
B( 17-C , 18-C ) :   1.4271 B( 17-C , 42-H ) :   0.9231 B( 18-C , 19-Cl) :   1.0270
B( 18-C , 20-C ) :   1.3212 B( 20-C , 21-O ) :   0.9404 B( 22-C , 23-C ) :   0.9916
B( 22-C , 43-H ) :   0.9233 B( 22-C , 44-H ) :   0.9284 B( 23-C , 45-H ) :   0.9259
B( 23-C , 46-H ) :   0.9233 B( 24-C , 25-C ) :   1.4340 B( 24-C , 47-H ) :   0.9252
B( 25-C , 48-H ) :   0.9259

FINAL SINGLE POINT ENERGY     -1533.491346756463

DIPOLE MOMENT
-------------

Method             : SCF
Type of density    : Electron Density
Multiplicity       :   1
Irrep              :   0
Energy             : -1533.4913467564626899 Eh
Relativity type    :
Basis              : AO
                                X                 Y                 Z
Electronic contribution:    -27.021376986      15.757234043       8.082877673
Nuclear contribution   :     26.364646781     -17.502356339      -9.651122674
                        -----------------------------------------
Total Dipole Moment    :     -0.656730205      -1.745122296      -1.568245001
                        -----------------------------------------
Magnitude (a.u.)       :      2.436419252
Magnitude (Debye)      :      6.192885583

Rotational constants in cm-1:             0.020473             0.001974             0.001887
Rotational constants in MHz :           613.780042            59.165852            56.560429

                             ****ORCA TERMINATED NORMALLY****
TOTAL RUN TIME: 0 days 0 hours 5 minutes 15 seconds 418 msec
