                         Program Version 6.0.0  -   RELEASE  -
|  1> ! B3LYP 6-31G* SP
|  2>
|  3> * xyz 0 1
|  4> C -6.5913 3.1083 -0.5935
|  5> N -5.9823 1.7675 -0.4867
|  6> C -4.6522 1.6531 -0.1902
|  7> O -3.9691 2.7043 -0.0510
|  8> C -4.0440 0.3776 -0.0739
|  9> C -2.6715 0.1865 0.3177
| 10> C -1.7845 1.3481 0.7685
| 11> C -0.4774 0.9498 1.4001
| 12> O -0.4488 0.6778 2.6305
| 13> N 0.7086 0.8524 0.5941
| 14> C 1.9632 0.3156 1.0387
| 15> N 3.0714 0.3384 0.2684
| 16> C 4.1389 -0.2515 0.8766
| 17> C 5.4666 -0.3369 0.2140
| 18> C 6.3820 -1.3430 0.5726
| 19> C 7.6270 -1.4324 -0.0551
| 20> C 7.9869 -0.5196 -1.0608
| 21> C 9.3293 -0.5990 -1.7486
| 22> F 10.0359 0.5674 -1.5160
| 23> F 9.1428 -0.7497 -3.1109
| 24> F 10.0796 -1.6674 -1.2885
| 25> C 7.0749 0.4867 -1.4240
| 26> F 7.3975 1.3885 -2.3868
| 27> C 5.8272 0.5771 -0.7967
| 28> F 4.9845 1.5760 -1.1652
| 29> C 3.8707 -0.7566 2.1526
| 30> S 2.2564 -0.4495 2.5094
| 31> C -2.1324 -1.1160 0.2747
| 32> C -2.9165 -2.2067 -0.0606
| 33> C -4.2570 -2.0394 -0.3676
| 34> C -4.8512 -0.7562 -0.3823
| 35> N -6.1834 -0.5971 -0.7053
| 36> C -7.0325 -1.7741 -0.9966
| 37> C -6.7324 0.6587 -0.7662
| 38> O -7.9452 0.7999 -1.0953
| 39> H -6.1366 3.8162 0.1328
| 40> H -6.4507 3.5004 -1.6232
| 41> H -7.6765 3.0855 -0.3572
| 42> H -1.5713 2.0001 -0.1051
| 43> H -2.3305 1.9458 1.5295
| 44> H 0.6569 1.1808 -0.3964
| 45> H 6.1333 -2.0786 1.3261
| 46> H 8.3025 -2.2220 0.2477
| 47> H 4.5721 -1.2411 2.8170
| 48> H -1.0958 -1.3125 0.5105
| 49> H -2.4811 -3.1981 -0.0742
| 50> H -4.8110 -2.9342 -0.6119
| 51> H -8.0977 -1.5183 -1.1723
| 52> H -7.0205 -2.4739 -0.1332
| 53> H -6.6646 -2.2887 -1.9101
| 54> *
| 55>
| 56>                          ****END OF INPUT****

CARTESIAN COORDINATES (ANGSTROEM)
---------------------------------
  C     -6.591300    3.108300   -0.593500
  N     -5.982300    1.767500   -0.486700
  C     -4.652200    1.653100   -0.190200
  O     -3.969100    2.704300   -0.051000
  C     -4.044000    0.377600   -0.073900
  C     -2.671500    0.186500    0.317700
  C     -1.784500    1.348100    0.768500
  C     -0.477400    0.949800    1.400100
  O     -0.448800    0.677800    2.630500
  N      0.708600    0.852400    0.594100
  C      1.963200    0.315600    1.038700
  N      3.071400    0.338400    0.268400
  C      4.138900   -0.251500    0.876600
  C      5.466600   -0.336900    0.214000
  C      6.382000   -1.343000    0.572600
  C      7.627000   -1.432400   -0.055100
  C      7.986900   -0.519600   -1.060800
  C      9.329300   -0.599000   -1.748600
  F     10.035900    0.567400   -1.516000
  F      9.142800   -0.749700   -3.110900
  F     10.079600   -1.667400   -1.288500
  C      7.074900    0.486700   -1.424000
  F      7.397500    1.388500   -2.386800
  C      5.827200    0.577100   -0.796700
  F      4.984500    1.576000   -1.165200
  C      3.870700   -0.756600    2.152600
  S      2.256400   -0.449500    2.509400
  C     -2.132400   -1.116000    0.274700
  C     -2.916500   -2.206700   -0.060600
  C     -4.257000   -2.039400   -0.367600
  C     -4.851200   -0.756200   -0.382300
  N     -6.183400   -0.597100   -0.705300
  C     -7.032500   -1.774100   -0.996600
  C     -6.732400    0.658700   -0.766200
  O     -7.945200    0.799900   -1.095300
  H     -6.136600    3.816200    0.132800
  H     -6.450700    3.500400   -1.623200
  H     -7.676500    3.085500   -0.357200
  H     -1.571300    2.000100   -0.105100
  H     -2.330500    1.945800    1.529500
  H      0.656900    1.180800   -0.396400
  H      6.133300   -2.078600    1.326100
  H      8.302500   -2.222000    0.247700
  H      4.572100   -1.241100    2.817000
  H     -1.095800   -1.312500    0.510500
  H     -2.481100   -3.198100   -0.074200
  H     -4.811000   -2.934200   -0.611900
  H     -8.097700   -1.518300   -1.172300
  H     -7.020500   -2.473900   -0.133200
  H     -6.664600   -2.288700   -1.910100

 Total Charge           Charge          ....    0
 Multiplicity           Mult            ....    1
 Number of Electrons    NEL             ....  260
 Basis Dimension        Dim             ....  524

ORBITAL ENERGIES
----------------

  NO   OCC          E(Eh)            E(eV)
   0   2.0000     -88.910729     -2419.3839
   1   2.0000     -24.725590      -672.8175
   2   2.0000     -24.716702      -672.5756
   3   2.0000     -24.716340      -672.5658
   4   2.0000     -24.716272      -672.5639
   5   2.0000     -24.708990      -672.3658
   6   2.0000     -19.135740      -520.7100
   7   2.0000     -19.117517      -520.2141
   8   2.0000     -19.113252      -520.0980
   9   2.0000     -14.406993      -392.0342
  10   2.0000     -14.402855      -391.9216
  11   2.0000     -14.400497      -391.8574
  12   2.0000     -14.337818      -390.1519
  13   2.0000     -10.440855      -284.1101
  14   2.0000     -10.329185      -281.0714
  15   2.0000     -10.313622      -280.6479
  16   2.0000     -10.299019      -280.2505
  17   2.0000     -10.296404      -280.1794
  18   2.0000     -10.295145      -280.1451
  19   2.0000     -10.290220      -280.0111
  20   2.0000     -10.263533      -279.2849
  21   2.0000     -10.239621      -278.6343
  22   2.0000     -10.237498      -278.5765
  23   2.0000     -10.234975      -278.5078
  24   2.0000     -10.229125      -278.3486
  25   2.0000     -10.227160      -278.2952
  26   2.0000     -10.222008      -278.1550
  27   2.0000     -10.218256      -278.0529
  28   2.0000     -10.217167      -278.0233
  29   2.0000     -10.214606      -277.9536
  30   2.0000     -10.211644      -277.8730
  31   2.0000     -10.210387      -277.8388
  32   2.0000     -10.208957      -277.7998
  33   2.0000     -10.205094      -277.6947
  34   2.0000     -10.199746      -277.5492
  35   2.0000      -7.986807      -217.3321
  36   2.0000      -5.949898      -161.9050
  37   2.0000      -5.945666      -161.7898
  38   2.0000      -5.943833      -161.7399
  39   2.0000      -1.280905       -34.8552
  40   2.0000      -1.232162       -33.5288
  41   2.0000      -1.216814       -33.1112
  42   2.0000      -1.207240       -32.8507
  43   2.0000      -1.202620       -32.7250
  44   2.0000      -1.072587       -29.1866
  45   2.0000      -1.037170       -28.2228
  46   2.0000      -1.027178       -27.9509
  47   2.0000      -0.984828       -26.7985
  48   2.0000      -0.974604       -26.5203
  49   2.0000      -0.944021       -25.6881
  50   2.0000      -0.923613       -25.1328
  51   2.0000      -0.887179       -24.1414
  52   2.0000      -0.874672       -23.8010
  53   2.0000      -0.819152       -22.2902
  54   2.0000      -0.808993       -22.0138
  55   2.0000      -0.802292       -21.8315
  56   2.0000      -0.792126       -21.5548
  57   2.0000      -0.769155       -20.9298
  58   2.0000      -0.754634       -20.5346
  59   2.0000      -0.747718       -20.3464
  60   2.0000      -0.730825       -19.8868
  61   2.0000      -0.714221       -19.4349
  62   2.0000      -0.697672       -18.9846
  63   2.0000      -0.663179       -18.0460
  64   2.0000      -0.657113       -17.8809
  65   2.0000      -0.645331       -17.5603
  66   2.0000      -0.643375       -17.5071
  67   2.0000      -0.629420       -17.1274
  68   2.0000      -0.613257       -16.6876
  69   2.0000      -0.595257       -16.1978
  70   2.0000      -0.582294       -15.8450
  71   2.0000      -0.576677       -15.6922
  72   2.0000      -0.571298       -15.5458
  73   2.0000      -0.570221       -15.5165
  74   2.0000      -0.568991       -15.4830
  75   2.0000      -0.552394       -15.0314
  76   2.0000      -0.540712       -14.7135
  77   2.0000      -0.526412       -14.3244
  78   2.0000      -0.522848       -14.2274
  79   2.0000      -0.516731       -14.0610
  80   2.0000      -0.507207       -13.8018
  81   2.0000      -0.504049       -13.7159
  82   2.0000      -0.494104       -13.4453
  83   2.0000      -0.492629       -13.4051
  84   2.0000      -0.485717       -13.2170
  85   2.0000      -0.483280       -13.1507
  86   2.0000      -0.468828       -12.7575
  87   2.0000      -0.465970       -12.6797
  88   2.0000      -0.464389       -12.6367
  89   2.0000      -0.457217       -12.4415
  90   2.0000      -0.452623       -12.3165
  91   2.0000      -0.451607       -12.2889
  92   2.0000      -0.446283       -12.1440
  93   2.0000      -0.445176       -12.1138
  94   2.0000      -0.439584       -11.9617
  95   2.0000      -0.438467       -11.9313
  96   2.0000      -0.435044       -11.8381
  97   2.0000      -0.429273       -11.6811
  98   2.0000      -0.420629       -11.4459
  99   2.0000      -0.417560       -11.3624
 100   2.0000      -0.417114       -11.3503
 101   2.0000      -0.415456       -11.3051
 102   2.0000      -0.409419       -11.1409
 103   2.0000      -0.406351       -11.0574
 104   2.0000      -0.405609       -11.0372
 105   2.0000      -0.397820       -10.8252
 106   2.0000      -0.397441       -10.8149
 107   2.0000      -0.393707       -10.7133
 108   2.0000      -0.388789       -10.5795
 109   2.0000      -0.387585       -10.5467
 110   2.0000      -0.385532       -10.4909
 111   2.0000      -0.378274       -10.2934
 112   2.0000      -0.376574       -10.2471
 113   2.0000      -0.374756       -10.1976
 114   2.0000      -0.370791       -10.0897
 115   2.0000      -0.362562        -9.8658
 116   2.0000      -0.355094        -9.6626
 117   2.0000      -0.322915        -8.7870
 118   2.0000      -0.317322        -8.6348
 119   2.0000      -0.302205        -8.2234
 120   2.0000      -0.280061        -7.6208
 121   2.0000      -0.278110        -7.5678
 122   2.0000      -0.271736        -7.3943
 123   2.0000      -0.269626        -7.3369
 124   2.0000      -0.268169        -7.2972
 125   2.0000      -0.264195        -7.1891
 126   2.0000      -0.258240        -7.0271
 127   2.0000      -0.251949        -6.8559
 128   2.0000      -0.235335        -6.4038
 129   2.0000      -0.224740        -6.1155
 130   0.0000      -0.062599        -1.7034
 131   0.0000      -0.054613        -1.4861
 132   0.0000      -0.038978        -1.0606
 133   0.0000      -0.023938        -0.6514
 134   0.0000      -0.017517        -0.4767

MULLIKEN ATOMIC CHARGES
-----------------------
   0 C :   -0.313975
   1 N :   -0.463303
   2 C :    0.503017
   3 O :   -0.499077
   4 C :    0.002176
   5 C :    0.096421
   6 C :   -0.391550
   7 C :    0.538319
   8 O :   -0.447961
   9 N :   -0.641075
  10 C :    0.253705
  11 N :   -0.414905
  12 C :    0.215560
  13 C :    0.044229
  14 C :   -0.172603
  15 C :   -0.163599
  16 C :   -0.108948
  17 C :    0.922957
  18 F :   -0.296493
  19 F :   -0.297032
  20 F :   -0.304763
  21 C :    0.319185
  22 F :   -0.291857
  23 C :    0.303147
  24 F :   -0.288002
  25 C :   -0.395485
  26 S :    0.323692
  27 C :   -0.182250
  28 C :   -0.110326
  29 C :   -0.196301
  30 C :    0.316630
  31 N :   -0.509650
  32 C :   -0.336457
  33 C :    0.671457
  34 O :   -0.509484
  35 H :    0.192934
  36 H :    0.178506
  37 H :    0.197655
  38 H :    0.175793
  39 H :    0.217332
  40 H :    0.360624
  41 H :    0.145970
  42 H :    0.162558
  43 H :    0.184164
  44 H :    0.148474
  45 H :    0.147464
  46 H :    0.142275
  47 H :    0.224872
  48 H :    0.173023
  49 H :    0.172958
Sum of atomic charges:    0.0000000

LOEWDIN ATOMIC CHARGES
----------------------
   0 C :   -0.258126
   1 N :   -0.020353
   2 C :    0.114473
   3 O :   -0.291037
   4 C :   -0.075303
   5 C :    0.040292
   6 C :   -0.238209
   7 C :    0.147383
   8 O :   -0.257742
   9 N :   -0.201230
  10 C :   -0.081148
  11 N :   -0.176890
  12 C :   -0.009213
  13 C :   -0.025203
  14 C :   -0.126499
  15 C :   -0.117278
  16 C :   -0.094418
  17 C :    0.316189
  18 F :   -0.110361
  19 F :   -0.110278
  20 F :   -0.109738
  21 C :    0.112398
  22 F :   -0.084139
  23 C :    0.107365
  24 F :   -0.077750
  25 C :   -0.345047
  26 S :    0.431542
  27 C :   -0.149456
  28 C :   -0.097675
  29 C :   -0.165684
  30 C :    0.053738
  31 N :   -0.026631
  32 C :   -0.265151
  33 C :    0.136842
  34 O :   -0.318660
  35 H :    0.151241
  36 H :    0.141214
  37 H :    0.153868
  38 H :    0.150607
  39 H :    0.177612
  40 H :    0.278832
  41 H :    0.141820
  42 H :    0.149876
  43 H :    0.162468
  44 H :    0.142402
  45 H :    0.141935
  46 H :    0.141063
  47 H :    0.168426
  48 H :    0.136046
  49 H :    0.135589

  Mayer bond orders larger than 0.100000
B(  0-C ,  1-N ) :   0.9165 B(  0-C , 35-H ) :   0.9258 B(  0-C , 36-H ) :   0.9405
B(  0-C , 37-H ) :   0.9242 B(  1-N ,  2-C ) :   1.0062 B(  1-N , 33-C ) :   1.0397
B(  2-C ,  3-O ) :   1.7350 B(  2-C ,  4-C ) :   1.0603 B(  4-C ,  5-C ) :   1.3622
B(  4-C , 30-C ) :   1.2874 B(  5-C ,  6-C ) :   1.0014 B(  5-C , 27-C ) :   1.4431
B(  6-C ,  7-C ) :   0.9343 B(  6-C , 38-H ) :   0.9003 B(  6-C , 39-H ) :   0.8942
B(  7-C ,  8-O ) :   1.8287 B(  7-C ,  9-N ) :   1.0067 B(  9-N , 10-C ) :   0.9468
B(  9-N , 40-H ) :   0.8059 B( 10-C , 11-N ) :   1.4829 B( 10-C , 25-C ) :   0.1072
B( 10-C , 26-S ) :   1.1778 B( 11-N , 12-C ) :   1.2924 B( 12-C , 13-C ) :   1.0301
B( 12-C , 25-C ) :   1.5177 B( 13-C , 14-C ) :   1.4017 B( 13-C , 23-C ) :   1.2962
B( 14-C , 15-C ) :   1.4348 B( 14-C , 41-H ) :   0.9197 B( 15-C , 16-C ) :   1.4082
B( 15-C , 42-H ) :   0.9169 B( 16-C , 17-C ) :   0.9667 B( 16-C , 21-C ) :   1.3170
B( 17-C , 18-F ) :   0.9755 B( 17-C , 19-F ) :   0.9725 B( 17-C , 20-F ) :   0.9467
B( 21-C , 22-F ) :   0.9627 B( 21-C , 23-C ) :   1.2876 B( 23-C , 24-F ) :   0.9532
B( 25-C , 26-S ) :   1.1157 B( 25-C , 43-H ) :   0.9031 B( 27-C , 28-C ) :   1.4049
B( 27-C , 44-H ) :   0.9119 B( 28-C , 29-C ) :   1.4696 B( 28-C , 45-H ) :   0.9253
B( 29-C , 30-C ) :   1.3456 B( 29-C , 46-H ) :   0.9140 B( 30-C , 31-N ) :   0.9716
B( 31-N , 32-C ) :   0.9336 B( 31-N , 33-C ) :   1.0456 B( 32-C , 47-H ) :   0.9138
B( 32-C , 48-H ) :   0.9312 B( 32-C , 49-H ) :   0.9322 B( 33-C , 34-O ) :   1.7855

FINAL SINGLE POINT ENERGY     -2188.461331236543

DIPOLE MOMENT
-------------

Method             : SCF
Type of density    : Electron Density
Multiplicity       :   1
Irrep              :   0
Energy             : -2188.4613312365431739 Eh
Relativity type    :
Basis              : AO
                                X                 Y                 Z
Electronic contribution:     82.303005167       3.656283398     -10.343457023
Nuclear contribution   :    -83.502465958      -5.590744254      10.576282092
                        -----------------------------------------
Total Dipole Moment    :     -1.199460790      -1.934460857       0.232825069
                        -----------------------------------------
Magnitude (a.u.)       :      2.288023712
Magnitude (Debye)      :      5.815694095

Rotational constants in cm-1:             0.009741             0.000950             0.000939
Rotational constants in MHz :           292.042071            28.465328            28.145405

                             ****ORCA TERMINATED NORMALLY****
TOTAL RUN TIME: 0 days 0 hours 5 minutes 1 seconds 118 msec
