                         Program Version 6.0.0  -   RELEASE  -
|  1> ! B3LYP 6-31G* SP
|  2>
|  3> * xyz 0 1
|  4> C -0.2447 -1.5520 2.5794
|  5> C -1.1881 -1.4263 1.4026
|  6> C -1.2388 -0.2328 0.6498
|  7> N -0.4527 0.9113 1.0063
|  8> C 0.5909 1.3866 0.0975
|  9> C 1.7484 0.4272 0.1047
| 10> C 2.7116 0.4993 1.1169
| 11> C 3.7608 -0.4191 1.1592
| 12> C 3.8611 -1.4495 0.2031
| 13> C 5.0443 -2.4011 0.2641
| 14> F 5.5241 -2.4771 1.5620
| 15> F 4.6534 -3.6826 -0.0909
| 16> C 6.1758 -1.8632 -0.6335
| 17> C 7.3766 -2.7917 -0.7411
| 18> C 6.4742 -2.5797 -1.9439
| 19> C 2.8925 -1.5072 -0.8311
| 20> Cl 2.9503 -2.6983 -2.1255
| 21> C 1.8397 -0.5838 -0.8597
| 22> S -0.9442 1.9015 2.3449
| 23> O 0.2259 2.1061 3.2652
| 24> O -2.0453 1.2273 3.1143
| 25> C -1.5344 3.4424 1.7344
| 26> C -2.7043 3.4797 0.9662
| 27> C -3.1755 4.6939 0.4578
| 28> C -2.4782 5.8898 0.7094
| 29> C -2.9696 7.1782 0.1728
| 30> O -4.0339 7.2249 -0.5018
| 31> O -2.2601 8.3532 0.4090
| 32> C -1.3007 5.8436 1.4761
| 33> C -0.8318 4.6278 1.9833
| 34> N -2.0334 -0.1535 -0.4458
| 35> C -2.8177 -1.1749 -0.8708
| 36> C -3.6743 -0.9545 -2.0915
| 37> C -2.9940 -0.2167 -3.2395
| 38> C -3.2259 -1.7139 -3.3330
| 39> C -2.8626 -2.3728 -0.1246
| 40> C -3.7083 -3.4403 -0.4929
| 41> C -3.7405 -4.6126 0.2607
| 42> C -2.9370 -4.7398 1.3896
| 43> C -2.0930 -3.6977 1.7736
| 44> C -2.0373 -2.4997 1.0267
| 45> H -0.8287 -1.5990 3.5219
| 46> H 0.4653 -0.7057 2.6549
| 47> H 0.3733 -2.4684 2.4745
| 48> H 0.9463 2.3948 0.4056
| 49> H 0.1753 1.4963 -0.9294
| 50> H 2.6496 1.2682 1.8775
| 51> H 4.4966 -0.3186 1.9453
| 52> H 6.4721 -0.7926 -0.5608
| 53> H 8.3622 -2.2868 -0.8401
| 54> H 7.2739 -3.8001 -0.2860
| 55> H 6.9012 -1.9195 -2.7280
| 56> H 5.8407 -3.4556 -2.1967
| 57> H 1.0905 -0.6521 -1.6391
| 58> H -3.2486 2.5670 0.7570
| 59> H -4.0816 4.6957 -0.1355
| 60> H -2.5869 9.2416 0.0491
| 61> H -0.7390 6.7467 1.6813
| 62> H 0.0815 4.6138 2.5640
| 63> H -4.7670 -0.7830 -1.9859
| 64> H -1.9231 0.0484 -3.1054
| 65> H -3.6777 0.3806 -3.8789
| 66> H -2.3074 -2.3273 -3.2151
| 67> H -4.0558 -2.0051 -4.0109
| 68> H -4.3525 -3.3768 -1.3596
| 69> H -4.3946 -5.4251 -0.0298
| 70> H -2.9698 -5.6496 1.9743
| 71> H -1.4991 -3.8400 2.6644
| 72> *
| 73>
| 74>                          ****END OF INPUT****

CARTESIAN COORDINATES (ANGSTROEM)
---------------------------------
  C     -0.244700   -1.552000    2.579400
  C     -1.188100   -1.426300    1.402600
  C     -1.238800   -0.232800    0.649800
  N     -0.452700    0.911300    1.006300
  C      0.590900    1.386600    0.097500
  C      1.748400    0.427200    0.104700
  C      2.711600    0.499300    1.116900
  C      3.760800   -0.419100    1.159200
  C      3.861100   -1.449500    0.203100
  C      5.044300   -2.401100    0.264100
  F      5.524100   -2.477100    1.562000
  F      4.653400   -3.682600   -0.090900
  C      6.175800   -1.863200   -0.633500
  C      7.376600   -2.791700   -0.741100
  C      6.474200   -2.579700   -1.943900
  C      2.892500   -1.507200   -0.831100
  Cl     2.950300   -2.698300   -2.125500
  C      1.839700   -0.583800   -0.859700
  S     -0.944200    1.901500    2.344900
  O      0.225900    2.106100    3.265200
  O     -2.045300    1.227300    3.114300
  C     -1.534400    3.442400    1.734400
  C     -2.704300    3.479700    0.966200
  C     -3.175500    4.693900    0.457800
  C     -2.478200    5.889800    0.709400
  C     -2.969600    7.178200    0.172800
  O     -4.033900    7.224900   -0.501800
  O     -2.260100    8.353200    0.409000
  C     -1.300700    5.843600    1.476100
  C     -0.831800    4.627800    1.983300
  N     -2.033400   -0.153500   -0.445800
  C     -2.817700   -1.174900   -0.870800
  C     -3.674300   -0.954500   -2.091500
  C     -2.994000   -0.216700   -3.239500
  C     -3.225900   -1.713900   -3.333000
  C     -2.862600   -2.372800   -0.124600
  C     -3.708300   -3.440300   -0.492900
  C     -3.740500   -4.612600    0.260700
  C     -2.937000   -4.739800    1.389600
  C     -2.093000   -3.697700    1.773600
  C     -2.037300   -2.499700    1.026700
  H     -0.828700   -1.599000    3.521900
  H      0.465300   -0.705700    2.654900
  H      0.373300   -2.468400    2.474500
  H      0.946300    2.394800    0.405600
  H      0.175300    1.496300   -0.929400
  H      2.649600    1.268200    1.877500
  H      4.496600   -0.318600    1.945300
  H      6.472100   -0.792600   -0.560800
  H      8.362200   -2.286800   -0.840100
  H      7.273900   -3.800100   -0.286000
  H      6.901200   -1.919500   -2.728000
  H      5.840700   -3.455600   -2.196700
  H      1.090500   -0.652100   -1.639100
  H     -3.248600    2.567000    0.757000
  H     -4.081600    4.695700   -0.135500
  H     -2.586900    9.241600    0.049100
  H     -0.739000    6.746700    1.681300
  H      0.081500    4.613800    2.564000
  H     -4.767000   -0.783000   -1.985900
  H     -1.923100    0.048400   -3.105400
  H     -3.677700    0.380600   -3.878900
  H     -2.307400   -2.327300   -3.215100
  H     -4.055800   -2.005100   -4.010900
  H     -4.352500   -3.376800   -1.359600
  H     -4.394600   -5.425100   -0.029800
  H     -2.969800   -5.649600    1.974300
  H     -1.499100   -3.840000    2.664400

 Total Charge           Charge          ....    0
 Multiplicity           Mult            ....    1
 Number of Electrons    NEL             ....  310
 Basis Dimension        Dim             ....  636

ORBITAL ENERGIES
----------------

  NO   OCC          E(Eh)            E(eV)
   0   2.0000    -101.526834     -2762.6856
   1   2.0000     -89.098566     -2424.4952
   2   2.0000     -24.695919      -672.0101
   3   2.0000     -24.689008      -671.8221
   4   2.0000     -19.196284      -522.3574
   5   2.0000     -19.138025      -520.7721
   6   2.0000     -19.128836      -520.5221
   7   2.0000     -19.127651      -520.4898
   8   2.0000     -14.372341      -391.0913
   9   2.0000     -14.327622      -389.8744
  10   2.0000     -10.351476      -281.6780
  11   2.0000     -10.335422      -281.2411
  12   2.0000     -10.255780      -279.0740
  13   2.0000     -10.253558      -279.0135
  14   2.0000     -10.241781      -278.6930
  15   2.0000     -10.237508      -278.5767
  16   2.0000     -10.231567      -278.4151
  17   2.0000     -10.230477      -278.3854
  18   2.0000     -10.219596      -278.0894
  19   2.0000     -10.219358      -278.0829
  20   2.0000     -10.217006      -278.0189
  21   2.0000     -10.216740      -278.0116
  22   2.0000     -10.213843      -277.9328
  23   2.0000     -10.205398      -277.7030
  24   2.0000     -10.203649      -277.6554
  25   2.0000     -10.200932      -277.5815
  26   2.0000     -10.200900      -277.5806
  27   2.0000     -10.200605      -277.5726
  28   2.0000     -10.199127      -277.5324
  29   2.0000     -10.196798      -277.4690
  30   2.0000     -10.196171      -277.4519
  31   2.0000     -10.192000      -277.3384
  32   2.0000     -10.191732      -277.3311
  33   2.0000     -10.191035      -277.3122
  34   2.0000     -10.190460      -277.2965
  35   2.0000     -10.190007      -277.2842
  36   2.0000     -10.187149      -277.2064
  37   2.0000     -10.186127      -277.1786
  38   2.0000     -10.183566      -277.1089
  39   2.0000     -10.183219      -277.0995
  40   2.0000     -10.168099      -276.6880
  41   2.0000      -9.458622      -257.3822
  42   2.0000      -8.134395      -221.3481
  43   2.0000      -7.221849      -196.5165
  44   2.0000      -7.212255      -196.2554
  45   2.0000      -7.211679      -196.2398
  46   2.0000      -6.099391      -165.9729
  47   2.0000      -6.097428      -165.9194
  48   2.0000      -6.097048      -165.9091
  49   2.0000      -1.232731       -33.5443
  50   2.0000      -1.177687       -32.0465
  51   2.0000      -1.085863       -29.5478
  52   2.0000      -1.080855       -29.4116
  53   2.0000      -0.995104       -27.0782
  54   2.0000      -0.965597       -26.2752
  55   2.0000      -0.962462       -26.1899
  56   2.0000      -0.916869       -24.9493
  57   2.0000      -0.892669       -24.2908
  58   2.0000      -0.889599       -24.2072
  59   2.0000      -0.860063       -23.4035
  60   2.0000      -0.857924       -23.3453
  61   2.0000      -0.853533       -23.2258
  62   2.0000      -0.839688       -22.8491
  63   2.0000      -0.807783       -21.9809
  64   2.0000      -0.800391       -21.7798
  65   2.0000      -0.790459       -21.5095
  66   2.0000      -0.775671       -21.1071
  67   2.0000      -0.769462       -20.9381
  68   2.0000      -0.741696       -20.1826
  69   2.0000      -0.740279       -20.1440
  70   2.0000      -0.729130       -19.8406
  71   2.0000      -0.707537       -19.2531
  72   2.0000      -0.692369       -18.8403
  73   2.0000      -0.673456       -18.3257
  74   2.0000      -0.653708       -17.7883
  75   2.0000      -0.640974       -17.4418
  76   2.0000      -0.638338       -17.3701
  77   2.0000      -0.619366       -16.8538
  78   2.0000      -0.618092       -16.8191
  79   2.0000      -0.609624       -16.5887
  80   2.0000      -0.602017       -16.3817
  81   2.0000      -0.592876       -16.1330
  82   2.0000      -0.587820       -15.9954
  83   2.0000      -0.585528       -15.9330
  84   2.0000      -0.581133       -15.8134
  85   2.0000      -0.567753       -15.4493
  86   2.0000      -0.554247       -15.0818
  87   2.0000      -0.541223       -14.7274
  88   2.0000      -0.538452       -14.6520
  89   2.0000      -0.532858       -14.4998
  90   2.0000      -0.530076       -14.4241
  91   2.0000      -0.519398       -14.1335
  92   2.0000      -0.514179       -13.9915
  93   2.0000      -0.503676       -13.7057
  94   2.0000      -0.490972       -13.3600
  95   2.0000      -0.487412       -13.2632
  96   2.0000      -0.484937       -13.1958
  97   2.0000      -0.479512       -13.0482
  98   2.0000      -0.474953       -12.9241
  99   2.0000      -0.470035       -12.7903
 100   2.0000      -0.468179       -12.7398
 101   2.0000      -0.465169       -12.6579
 102   2.0000      -0.460212       -12.5230
 103   2.0000      -0.456120       -12.4117
 104   2.0000      -0.449107       -12.2208
 105   2.0000      -0.447695       -12.1824
 106   2.0000      -0.443527       -12.0690
 107   2.0000      -0.442077       -12.0295
 108   2.0000      -0.433882       -11.8065
 109   2.0000      -0.432757       -11.7759
 110   2.0000      -0.426155       -11.5963
 111   2.0000      -0.424031       -11.5385
 112   2.0000      -0.421029       -11.4568
 113   2.0000      -0.416024       -11.3206
 114   2.0000      -0.411285       -11.1916
 115   2.0000      -0.404906       -11.0181
 116   2.0000      -0.401974       -10.9383
 117   2.0000      -0.397282       -10.8106
 118   2.0000      -0.391834       -10.6623
 119   2.0000      -0.389496       -10.5987
 120   2.0000      -0.387601       -10.5472
 121   2.0000      -0.385334       -10.4855
 122   2.0000      -0.385052       -10.4778
 123   2.0000      -0.383402       -10.4329
 124   2.0000      -0.382365       -10.4047
 125   2.0000      -0.373339       -10.1591
 126   2.0000      -0.370132       -10.0718
 127   2.0000      -0.367733       -10.0065
 128   2.0000      -0.365178        -9.9370
 129   2.0000      -0.362519        -9.8647
 130   2.0000      -0.360307        -9.8044
 131   2.0000      -0.351853        -9.5744
 132   2.0000      -0.342655        -9.3241
 133   2.0000      -0.335539        -9.1305
 134   2.0000      -0.333729        -9.0812
 135   2.0000      -0.326596        -8.8871
 136   2.0000      -0.321458        -8.7473
 137   2.0000      -0.309966        -8.4346
 138   2.0000      -0.305273        -8.3069
 139   2.0000      -0.303686        -8.2637
 140   2.0000      -0.296655        -8.0724
 141   2.0000      -0.294670        -8.0184
 142   2.0000      -0.289528        -7.8785
 143   2.0000      -0.287613        -7.8263
 144   2.0000      -0.282026        -7.6743
 145   2.0000      -0.279091        -7.5945
 146   2.0000      -0.278943        -7.5904
 147   2.0000      -0.274324        -7.4647
 148   2.0000      -0.273130        -7.4322
 149   2.0000      -0.264168        -7.1884
 150   2.0000      -0.259870        -7.0714
 151   2.0000      -0.253610        -6.9011
 152   2.0000      -0.250668        -6.8210
 153   2.0000      -0.242136        -6.5889
 154   2.0000      -0.216168        -5.8822
 155   0.0000      -0.083335        -2.2677
 156   0.0000      -0.057503        -1.5647
 157   0.0000      -0.031947        -0.8693
 158   0.0000      -0.029451        -0.8014
 159   0.0000      -0.027886        -0.7588

MULLIKEN ATOMIC CHARGES
-----------------------
   0 C :   -0.546162
   1 C :    0.130057
   2 C :    0.301493
   3 N :   -0.611890
   4 C :   -0.246812
   5 C :    0.186609
   6 C :   -0.174318
   7 C :   -0.163129
   8 C :    0.020843
   9 C :    0.684402
  10 F :   -0.334602
  11 F :   -0.330495
  12 C :   -0.184258
  13 C :   -0.315753
  14 C :   -0.297082
  15 C :   -0.107001
  16 Cl:   -0.002404
  17 C :   -0.180032
  18 S :    1.223310
  19 O :   -0.554448
  20 O :   -0.542931
  21 C :   -0.128618
  22 C :   -0.138695
  23 C :   -0.141595
  24 C :    0.083111
  25 C :    0.528270
  26 O :   -0.444187
  27 O :   -0.624249
  28 C :   -0.146403
  29 C :   -0.151988
  30 N :   -0.434475
  31 C :    0.153610
  32 C :   -0.160819
  33 C :   -0.295781
  34 C :   -0.304254
  35 C :    0.110978
  36 C :   -0.202308
  37 C :   -0.122634
  38 C :   -0.117988
  39 C :   -0.196625
  40 C :    0.121132
  41 H :    0.179968
  42 H :    0.192473
  43 H :    0.155334
  44 H :    0.170708
  45 H :    0.176502
  46 H :    0.164241
  47 H :    0.157676
  48 H :    0.162728
  49 H :    0.150375
  50 H :    0.168352
  51 H :    0.149424
  52 H :    0.178421
  53 H :    0.156324
  54 H :    0.191144
  55 H :    0.181268
  56 H :    0.434199
  57 H :    0.172405
  58 H :    0.184759
  59 H :    0.161199
  60 H :    0.158834
  61 H :    0.144959
  62 H :    0.160260
  63 H :    0.146175
  64 H :    0.145379
  65 H :    0.134188
  66 H :    0.136700
  67 H :    0.144127
Sum of atomic charges:    0.0000000

LOEWDIN ATOMIC CHARGES
----------------------
   0 C :   -0.362985
   1 C :    0.005485
   2 C :    0.019236
   3 N :   -0.277211
   4 C :   -0.145393
   5 C :   -0.022716
   6 C :   -0.122678
   7 C :   -0.116495
   8 C :   -0.052138
   9 C :    0.240315
  10 F :   -0.132088
  11 F :   -0.122846
  12 C :   -0.166300
  13 C :   -0.253081
  14 C :   -0.244689
  15 C :   -0.076954
  16 Cl:    0.039509
  17 C :   -0.134202
  18 S :    1.262815
  19 O :   -0.580360
  20 O :   -0.565812
  21 C :   -0.176320
  22 C :   -0.096749
  23 C :   -0.085089
  24 C :   -0.039339
  25 C :    0.180060
  26 O :   -0.260449
  27 O :   -0.335176
  28 C :   -0.100121
  29 C :   -0.108841
  30 N :   -0.139204
  31 C :    0.038328
  32 C :   -0.143827
  33 C :   -0.241658
  34 C :   -0.252560
  35 C :   -0.023901
  36 C :   -0.113811
  37 C :   -0.124450
  38 C :   -0.117463
  39 C :   -0.117841
  40 C :   -0.004043
  41 H :    0.147938
  42 H :    0.149937
  43 H :    0.133307
  44 H :    0.142933
  45 H :    0.136120
  46 H :    0.147978
  47 H :    0.147304
  48 H :    0.144739
  49 H :    0.132957
  50 H :    0.140954
  51 H :    0.133697
  52 H :    0.146276
  53 H :    0.146150
  54 H :    0.162616
  55 H :    0.160848
  56 H :    0.349795
  57 H :    0.154503
  58 H :    0.159973
  59 H :    0.140169
  60 H :    0.138743
  61 H :    0.132163
  62 H :    0.136796
  63 H :    0.130248
  64 H :    0.142478
  65 H :    0.134662
  66 H :    0.136077
  67 H :    0.141683

  Mayer bond orders larger than 0.100000
B(  0-C ,  1-C ) :   1.0099 B(  0-C , 41-H ) :   0.9198 B(  0-C , 42-H ) :   0.9176
B(  0-C , 43-H ) :   0.9270 B(  1-C ,  2-C ) :   1.4365 B(  1-C , 40-C ) :   1.2586
B(  2-C ,  3-N ) :   0.8801 B(  2-C , 30-N ) :   1.2735 B(  3-N ,  4-C ) :   0.9273
B(  3-N , 18-S ) :   0.8014 B(  4-C ,  5-C ) :   0.9532 B(  4-C , 44-H ) :   0.9196
B(  4-C , 45-H ) :   0.9160 B(  5-C ,  6-C ) :   1.4236 B(  5-C , 17-C ) :   1.4382
B(  6-C ,  7-C ) :   1.4190 B(  6-C , 46-H ) :   0.9119 B(  7-C ,  8-C ) :   1.3988
B(  7-C , 47-H ) :   0.9170 B(  8-C ,  9-C ) :   0.9733 B(  8-C , 15-C ) :   1.3702
B(  9-C , 10-F ) :   0.8866 B(  9-C , 11-F ) :   0.8724 B(  9-C , 12-C ) :   0.9912
B( 12-C , 13-C ) :   0.9274 B( 12-C , 14-C ) :   0.9386 B( 12-C , 48-H ) :   0.9257
B( 13-C , 14-C ) :   0.9652 B( 13-C , 49-H ) :   0.9458 B( 13-C , 50-H ) :   0.9387
B( 14-C , 51-H ) :   0.9424 B( 14-C , 52-H ) :   0.9320 B( 15-C , 16-Cl) :   1.0353
B( 15-C , 17-C ) :   1.3827 B( 17-C , 53-H ) :   0.9142 B( 18-S , 19-O ) :   1.6143
B( 18-S , 20-O ) :   1.6457 B( 18-S , 21-C ) :   0.8109 B( 21-C , 22-C ) :   1.3768
B( 21-C , 29-C ) :   1.4007 B( 22-C , 23-C ) :   1.4331 B( 22-C , 54-H ) :   0.9054
B( 23-C , 24-C ) :   1.3955 B( 23-C , 55-H ) :   0.9096 B( 24-C , 25-C ) :   1.0081
B( 24-C , 28-C ) :   1.3889 B( 25-C , 26-O ) :   1.8631 B( 25-C , 27-O ) :   1.0242
B( 27-O , 56-H ) :   0.7417 B( 28-C , 29-C ) :   1.4084 B( 28-C , 57-H ) :   0.9149
B( 29-C , 58-H ) :   0.9090 B( 30-N , 31-C ) :   1.4428 B( 31-C , 32-C ) :   1.0228
B( 31-C , 35-C ) :   1.2328 B( 32-C , 33-C ) :   0.9499 B( 32-C , 34-C ) :   0.9254
B( 32-C , 59-H ) :   0.9212 B( 33-C , 34-C ) :   0.9651 B( 33-C , 60-H ) :   0.9378
B( 33-C , 61-H ) :   0.9434 B( 34-C , 62-H ) :   0.9431 B( 34-C , 63-H ) :   0.9430
B( 35-C , 36-C ) :   1.3037 B( 35-C , 40-C ) :   1.2799 B( 36-C , 37-C ) :   1.5012
B( 36-C , 39-C ) :   0.1055 B( 36-C , 64-H ) :   0.9125 B( 37-C , 38-C ) :   1.3561
B( 37-C , 65-H ) :   0.9296 B( 38-C , 39-C ) :   1.5073 B( 38-C , 66-H ) :   0.9291
B( 39-C , 40-C ) :   1.2938 B( 39-C , 67-H ) :   0.9150

FINAL SINGLE POINT ENERGY     -2664.676701394288

DIPOLE MOMENT
-------------

Method             : SCF
Type of density    : Electron Density
Multiplicity       :   1
Irrep              :   0
Energy             : -2664.6767013942881022 Eh
Relativity type    :
Basis              : AO
                                X                 Y                 Z
Electronic contribution:     11.825147992       2.120264639       8.031352154
Nuclear contribution   :    -11.637926869      -1.478177456      -9.390144543
                        -----------------------------------------
Total Dipole Moment    :      0.187221123       0.642087183      -1.358792389
                        -----------------------------------------
Magnitude (a.u.)       :      1.514478278
Magnitude (Debye)      :      3.849497859

Rotational constants in cm-1:             0.003102             0.001569             0.001263
Rotational constants in MHz :            93.007951            47.034164            37.850013

                             ****ORCA TERMINATED NORMALLY****
TOTAL RUN TIME: 0 days 0 hours 10 minutes 4 seconds 539 msec
