                         Program Version 6.0.0  -   RELEASE  -
|  1> ! B3LYP 6-31G* SP
|  2>
|  3> * xyz 0 1
|  4> O 2.4115 2.1892 -0.2904
|  5> C 1.7937 1.1327 0.0168
|  6> N 2.5344 -0.0443 0.3919
|  7> C 3.9606 -0.1706 0.2556
|  8> C 4.6795 -0.9083 1.2065
|  9> C 6.0636 -1.0657 1.0871
| 10> C 6.7513 -0.4969 -0.0019
| 11> O 8.1396 -0.6219 -0.1728
| 12> C 9.0167 -1.3283 0.7014
| 13> F 10.3052 -1.2379 0.2119
| 14> F 8.9801 -0.7695 1.9663
| 15> F 8.6554 -2.6621 0.7633
| 16> C 6.0291 0.2213 -0.9621
| 17> C 4.6451 0.3785 -0.8427
| 18> N 0.3505 1.1308 0.0143
| 19> C -0.3822 2.1667 -0.7284
| 20> C -1.6401 1.5593 -1.3563
| 21> C -2.5867 0.8904 -0.3114
| 22> C -1.8493 0.5971 1.0284
| 23> C -0.3987 0.1496 0.8133
| 24> C -3.8156 1.8022 -0.0591
| 25> C -4.8747 1.1095 0.8244
| 26> O -6.0522 1.8788 0.8518
| 27> C -5.1541 -0.3087 0.3637
| 28> C -6.3035 -0.9866 0.8042
| 29> C -6.5479 -2.3000 0.3954
| 30> C -5.6427 -2.9534 -0.4438
| 31> C -4.4808 -2.3006 -0.8674
| 32> Cl -3.3422 -3.1468 -1.9034
| 33> C -4.2233 -0.9859 -0.4525
| 34> O -3.0432 -0.3505 -0.8625
| 35> H 2.0322 -0.8329 0.8562
| 36> H 4.1653 -1.3557 2.0484
| 37> H 6.5844 -1.6335 1.8453
| 38> H 6.5428 0.6502 -1.8131
| 39> H 4.1109 0.9044 -1.6226
| 40> H -0.6580 2.9959 -0.0413
| 41> H 0.2464 2.5848 -1.5451
| 42> H -1.3064 0.7956 -2.0944
| 43> H -2.1635 2.3459 -1.9431
| 44> H -2.3840 -0.1920 1.6007
| 45> H -1.8348 1.5102 1.6641
| 46> H 0.0731 0.0417 1.8142
| 47> H -0.3824 -0.8358 0.2999
| 48> H -3.5006 2.7580 0.4141
| 49> H -4.2851 2.0522 -1.0370
| 50> H -4.4867 1.0552 1.8640
| 51> H -6.4395 1.8685 -0.0628
| 52> H -7.0120 -0.4976 1.4614
| 53> H -7.4402 -2.8127 0.7308
| 54> H -5.8410 -3.9704 -0.7571
| 55> *
| 56>
| 57>                          ****END OF INPUT****

CARTESIAN COORDINATES (ANGSTROEM)
---------------------------------
  O      2.411500    2.189200   -0.290400
  C      1.793700    1.132700    0.016800
  N      2.534400   -0.044300    0.391900
  C      3.960600   -0.170600    0.255600
  C      4.679500   -0.908300    1.206500
  C      6.063600   -1.065700    1.087100
  C      6.751300   -0.496900   -0.001900
  O      8.139600   -0.621900   -0.172800
  C      9.016700   -1.328300    0.701400
  F     10.305200   -1.237900    0.211900
  F      8.980100   -0.769500    1.966300
  F      8.655400   -2.662100    0.763300
  C      6.029100    0.221300   -0.962100
  C      4.645100    0.378500   -0.842700
  N      0.350500    1.130800    0.014300
  C     -0.382200    2.166700   -0.728400
  C     -1.640100    1.559300   -1.356300
  C     -2.586700    0.890400   -0.311400
  C     -1.849300    0.597100    1.028400
  C     -0.398700    0.149600    0.813300
  C     -3.815600    1.802200   -0.059100
  C     -4.874700    1.109500    0.824400
  O     -6.052200    1.878800    0.851800
  C     -5.154100   -0.308700    0.363700
  C     -6.303500   -0.986600    0.804200
  C     -6.547900   -2.300000    0.395400
  C     -5.642700   -2.953400   -0.443800
  C     -4.480800   -2.300600   -0.867400
  Cl    -3.342200   -3.146800   -1.903400
  C     -4.223300   -0.985900   -0.452500
  O     -3.043200   -0.350500   -0.862500
  H      2.032200   -0.832900    0.856200
  H      4.165300   -1.355700    2.048400
  H      6.584400   -1.633500    1.845300
  H      6.542800    0.650200   -1.813100
  H      4.110900    0.904400   -1.622600
  H     -0.658000    2.995900   -0.041300
  H      0.246400    2.584800   -1.545100
  H     -1.306400    0.795600   -2.094400
  H     -2.163500    2.345900   -1.943100
  H     -2.384000   -0.192000    1.600700
  H     -1.834800    1.510200    1.664100
  H      0.073100    0.041700    1.814200
  H     -0.382400   -0.835800    0.299900
  H     -3.500600    2.758000    0.414100
  H     -4.285100    2.052200   -1.037000
  H     -4.486700    1.055200    1.864000
  H     -6.439500    1.868500   -0.062800
  H     -7.012000   -0.497600    1.461400
  H     -7.440200   -2.812700    0.730800
  H     -5.841000   -3.970400   -0.757100

 Total Charge           Charge          ....    0
 Multiplicity           Mult            ....    1
 Number of Electrons    NEL             ....  236
 Basis Dimension        Dim             ....  478

ORBITAL ENERGIES
----------------

  NO   OCC          E(Eh)            E(eV)
   0   2.0000    -101.528610     -2762.7339
   1   2.0000     -24.735594      -673.0897
   2   2.0000     -24.733662      -673.0372
   3   2.0000     -24.733218      -673.0251
   4   2.0000     -19.204578      -522.5831
   5   2.0000     -19.178690      -521.8787
   6   2.0000     -19.153615      -521.1964
   7   2.0000     -19.099895      -519.7346
   8   2.0000     -14.368624      -390.9901
   9   2.0000     -14.355190      -390.6246
  10   2.0000     -10.497617      -285.6547
  11   2.0000     -10.316031      -280.7135
  12   2.0000     -10.267224      -279.3854
  13   2.0000     -10.266081      -279.3543
  14   2.0000     -10.258093      -279.1369
  15   2.0000     -10.251103      -278.9467
  16   2.0000     -10.250198      -278.9221
  17   2.0000     -10.232231      -278.4332
  18   2.0000     -10.231991      -278.4266
  19   2.0000     -10.223288      -278.1898
  20   2.0000     -10.204512      -277.6789
  21   2.0000     -10.202782      -277.6318
  22   2.0000     -10.201602      -277.5997
  23   2.0000     -10.195953      -277.4460
  24   2.0000     -10.195459      -277.4326
  25   2.0000     -10.195186      -277.4251
  26   2.0000     -10.192735      -277.3584
  27   2.0000     -10.192263      -277.3456
  28   2.0000     -10.191624      -277.3282
  29   2.0000     -10.189142      -277.2606
  30   2.0000     -10.185976      -277.1745
  31   2.0000      -9.460033      -257.4206
  32   2.0000      -7.223239      -196.5543
  33   2.0000      -7.213675      -196.2941
  34   2.0000      -7.213212      -196.2815
  35   2.0000      -1.298560       -35.3356
  36   2.0000      -1.219444       -33.1828
  37   2.0000      -1.218874       -33.1672
  38   2.0000      -1.074702       -29.2441
  39   2.0000      -1.065560       -28.9954
  40   2.0000      -1.034226       -28.1427
  41   2.0000      -1.017094       -27.6765
  42   2.0000      -0.925689       -25.1893
  43   2.0000      -0.915381       -24.9088
  44   2.0000      -0.888980       -24.1904
  45   2.0000      -0.847245       -23.0547
  46   2.0000      -0.839835       -22.8531
  47   2.0000      -0.820746       -22.3336
  48   2.0000      -0.780894       -21.2492
  49   2.0000      -0.774736       -21.0816
  50   2.0000      -0.760068       -20.6825
  51   2.0000      -0.750528       -20.4229
  52   2.0000      -0.738099       -20.0847
  53   2.0000      -0.734622       -19.9901
  54   2.0000      -0.697128       -18.9698
  55   2.0000      -0.667459       -18.1625
  56   2.0000      -0.654945       -17.8220
  57   2.0000      -0.652642       -17.7593
  58   2.0000      -0.635822       -17.3016
  59   2.0000      -0.622430       -16.9372
  60   2.0000      -0.607695       -16.5362
  61   2.0000      -0.604585       -16.4516
  62   2.0000      -0.590686       -16.0734
  63   2.0000      -0.587706       -15.9923
  64   2.0000      -0.579122       -15.7587
  65   2.0000      -0.565841       -15.3973
  66   2.0000      -0.550969       -14.9926
  67   2.0000      -0.544898       -14.8274
  68   2.0000      -0.526625       -14.3302
  69   2.0000      -0.520549       -14.1649
  70   2.0000      -0.509937       -13.8761
  71   2.0000      -0.499025       -13.5792
  72   2.0000      -0.493692       -13.4340
  73   2.0000      -0.483337       -13.1523
  74   2.0000      -0.479267       -13.0415
  75   2.0000      -0.464588       -12.6421
  76   2.0000      -0.464364       -12.6360
  77   2.0000      -0.462682       -12.5902
  78   2.0000      -0.458954       -12.4888
  79   2.0000      -0.455624       -12.3982
  80   2.0000      -0.452238       -12.3060
  81   2.0000      -0.446711       -12.1556
  82   2.0000      -0.444085       -12.0842
  83   2.0000      -0.439569       -11.9613
  84   2.0000      -0.437386       -11.9019
  85   2.0000      -0.430740       -11.7210
  86   2.0000      -0.427421       -11.6307
  87   2.0000      -0.420740       -11.4489
  88   2.0000      -0.419969       -11.4279
  89   2.0000      -0.411094       -11.1864
  90   2.0000      -0.407083       -11.0773
  91   2.0000      -0.405214       -11.0264
  92   2.0000      -0.402130       -10.9425
  93   2.0000      -0.395717       -10.7680
  94   2.0000      -0.395081       -10.7507
  95   2.0000      -0.389221       -10.5912
  96   2.0000      -0.385872       -10.5001
  97   2.0000      -0.381751       -10.3880
  98   2.0000      -0.380030       -10.3411
  99   2.0000      -0.374069       -10.1789
 100   2.0000      -0.366832        -9.9820
 101   2.0000      -0.360872        -9.8198
 102   2.0000      -0.354503        -9.6465
 103   2.0000      -0.351731        -9.5711
 104   2.0000      -0.346325        -9.4240
 105   2.0000      -0.342403        -9.3173
 106   2.0000      -0.331131        -9.0105
 107   2.0000      -0.319688        -8.6991
 108   2.0000      -0.310528        -8.4499
 109   2.0000      -0.309318        -8.4170
 110   2.0000      -0.281808        -7.6684
 111   2.0000      -0.279814        -7.6141
 112   2.0000      -0.259642        -7.0652
 113   2.0000      -0.248409        -6.7596
 114   2.0000      -0.247740        -6.7413
 115   2.0000      -0.230323        -6.2674
 116   2.0000      -0.227399        -6.1878
 117   2.0000      -0.211325        -5.7504
 118   0.0000      -0.022368        -0.6087
 119   0.0000      -0.006404        -0.1743
 120   0.0000      -0.005476        -0.1490
 121   0.0000      -0.004847        -0.1319
 122   0.0000       0.026178         0.7123

MULLIKEN ATOMIC CHARGES
-----------------------
   0 O :   -0.496769
   1 C :    0.687235
   2 N :   -0.728649
   3 C :    0.340837
   4 C :   -0.182134
   5 C :   -0.193050
   6 C :    0.350687
   7 O :   -0.546996
   8 C :    1.084552
   9 F :   -0.280336
  10 F :   -0.292175
  11 F :   -0.292943
  12 C :   -0.184202
  13 C :   -0.123634
  14 N :   -0.441888
  15 C :   -0.123033
  16 C :   -0.327220
  17 C :    0.355343
  18 C :   -0.316764
  19 C :   -0.140514
  20 C :   -0.332713
  21 C :    0.106033
  22 O :   -0.624327
  23 C :    0.033523
  24 C :   -0.177901
  25 C :   -0.124700
  26 C :   -0.129524
  27 C :   -0.146715
  28 Cl:   -0.006712
  29 C :    0.334088
  30 O :   -0.542727
  31 H :    0.330311
  32 H :    0.129783
  33 H :    0.150520
  34 H :    0.150050
  35 H :    0.160959
  36 H :    0.141603
  37 H :    0.182099
  38 H :    0.174034
  39 H :    0.149697
  40 H :    0.161583
  41 H :    0.153084
  42 H :    0.145108
  43 H :    0.157460
  44 H :    0.153310
  45 H :    0.134537
  46 H :    0.155666
  47 H :    0.392354
  48 H :    0.150074
  49 H :    0.136847
  50 H :    0.154248
Sum of atomic charges:   -0.0000000

LOEWDIN ATOMIC CHARGES
----------------------
   0 O :   -0.313056
   1 C :    0.166435
   2 N :   -0.229362
   3 C :    0.034012
   4 C :   -0.141645
   5 C :   -0.158840
   6 C :    0.076750
   7 O :   -0.161462
   8 C :    0.358228
   9 F :   -0.088591
  10 F :   -0.105663
  11 F :   -0.106307
  12 C :   -0.137990
  13 C :   -0.114405
  14 N :   -0.133369
  15 C :   -0.142011
  16 C :   -0.232811
  17 C :    0.080315
  18 C :   -0.237178
  19 C :   -0.157851
  20 C :   -0.241294
  21 C :   -0.015397
  22 O :   -0.381222
  23 C :   -0.075759
  24 C :   -0.120922
  25 C :   -0.140418
  26 C :   -0.126553
  27 C :   -0.111521
  28 Cl:    0.040747
  29 C :    0.075253
  30 O :   -0.167906
  31 H :    0.254418
  32 H :    0.133435
  33 H :    0.141705
  34 H :    0.146389
  35 H :    0.152426
  36 H :    0.113831
  37 H :    0.150297
  38 H :    0.142901
  39 H :    0.131864
  40 H :    0.140083
  41 H :    0.130810
  42 H :    0.122329
  43 H :    0.120614
  44 H :    0.134473
  45 H :    0.122727
  46 H :    0.130507
  47 H :    0.314037
  48 H :    0.143297
  49 H :    0.136747
  50 H :    0.146903

  Mayer bond orders larger than 0.100000
B(  0-O ,  1-C ) :   1.7810 B(  1-C ,  2-N ) :   1.0039 B(  1-C , 14-N ) :   1.0533
B(  2-N ,  3-C ) :   0.8653 B(  2-N , 31-H ) :   0.8175 B(  3-C ,  4-C ) :   1.4109
B(  3-C , 13-C ) :   1.4208 B(  4-C ,  5-C ) :   1.4375 B(  4-C , 32-H ) :   0.9236
B(  5-C ,  6-C ) :   1.3975 B(  5-C , 33-H ) :   0.9094 B(  6-C ,  7-O ) :   0.8166
B(  6-C , 12-C ) :   1.4081 B(  7-O ,  8-C ) :   0.9965 B(  8-C ,  9-F ) :   1.0068
B(  8-C , 10-F ) :   0.9675 B(  8-C , 11-F ) :   0.9668 B( 12-C , 13-C ) :   1.4421
B( 12-C , 34-H ) :   0.9185 B( 13-C , 35-H ) :   0.9094 B( 14-N , 15-C ) :   0.9439
B( 14-N , 19-C ) :   0.9429 B( 15-C , 16-C ) :   0.9846 B( 15-C , 36-H ) :   0.9282
B( 15-C , 37-H ) :   0.9213 B( 16-C , 17-C ) :   0.9697 B( 16-C , 38-H ) :   0.9221
B( 16-C , 39-H ) :   0.9303 B( 17-C , 18-C ) :   0.9726 B( 17-C , 20-C ) :   0.9630
B( 17-C , 30-O ) :   0.8255 B( 18-C , 19-C ) :   1.0107 B( 18-C , 40-H ) :   0.9236
B( 18-C , 41-H ) :   0.9233 B( 19-C , 42-H ) :   0.9253 B( 19-C , 43-H ) :   0.9155
B( 20-C , 21-C ) :   0.9758 B( 20-C , 44-H ) :   0.9249 B( 20-C , 45-H ) :   0.9269
B( 21-C , 22-O ) :   0.9359 B( 21-C , 23-C ) :   0.9632 B( 21-C , 46-H ) :   0.9120
B( 22-O , 47-H ) :   0.7807 B( 23-C , 24-C ) :   1.4156 B( 23-C , 29-C ) :   1.3429
B( 24-C , 25-C ) :   1.4289 B( 24-C , 48-H ) :   0.9180 B( 25-C , 26-C ) :   1.4426
B( 25-C , 49-H ) :   0.9286 B( 26-C , 27-C ) :   1.4266 B( 26-C , 50-H ) :   0.9226
B( 27-C , 28-Cl) :   1.0286 B( 27-C , 29-C ) :   1.3238 B( 29-C , 30-O ) :   0.9437

FINAL SINGLE POINT ENERGY     -1981.469144305864

DIPOLE MOMENT
-------------

Method             : SCF
Type of density    : Electron Density
Multiplicity       :   1
Irrep              :   0
Energy             : -1981.4691443058638924 Eh
Relativity type    :
Basis              : AO
                                X                 Y                 Z
Electronic contribution:     54.365028960     -21.603625572      -2.542692787
Nuclear contribution   :    -56.493874763      21.166529066       3.025377291
                        -----------------------------------------
Total Dipole Moment    :     -2.128845802      -0.437096506       0.482684504
                        -----------------------------------------
Magnitude (a.u.)       :      2.226212509
Magnitude (Debye)      :      5.658582504

Rotational constants in cm-1:             0.010913             0.001229             0.001160
Rotational constants in MHz :           327.155699            36.838885            34.788695

                             ****ORCA TERMINATED NORMALLY****
TOTAL RUN TIME: 0 days 0 hours 7 minutes 35 seconds 686 msec
