                         Program Version 6.0.0  -   RELEASE  -
|  1> ! B3LYP 6-31G* SP
|  2>
|  3> * xyz 0 1
|  4> C 7.2587 -0.6724 -1.7802
|  5> N 6.2993 -0.1220 -0.8059
|  6> C 5.0521 -0.6877 -0.6830
|  7> O 4.7312 -1.6839 -1.3879
|  8> C 4.1412 -0.1511 0.2347
|  9> C 2.8319 -0.5971 0.5427
| 10> C 2.1705 -1.7904 -0.1140
| 11> C 0.7502 -2.0052 0.3253
| 12> O 0.5051 -2.8665 1.2118
| 13> N -0.3002 -1.2037 -0.2403
| 14> C -1.6793 -1.2487 0.1556
| 15> N -2.6217 -0.4754 -0.4241
| 16> C -3.8578 -0.6751 0.1137
| 17> C -5.0365 0.0918 -0.3566
| 18> C -4.8525 1.3933 -0.8477
| 19> C -5.9368 2.1354 -1.3119
| 20> C -7.2237 1.5970 -1.2874
| 21> F -8.2455 2.3400 -1.7832
| 22> C -7.4441 0.3007 -0.7781
| 23> C -8.8295 -0.3118 -0.7972
| 24> F -8.9991 -1.1774 0.2693
| 25> F -9.0004 -1.0117 -1.9768
| 26> F -9.8103 0.6600 -0.7049
| 27> C -6.3350 -0.4617 -0.3490
| 28> F -6.5136 -1.7585 0.0136
| 29> C -3.8958 -1.6106 1.1510
| 30> S -2.3384 -2.2019 1.3772
| 31> C 2.2313 0.1809 1.5441
| 32> S 3.2936 1.3985 2.0194
| 33> C 4.5285 0.9526 0.9680
| 34> N 5.7433 1.5496 0.8154
| 35> C 6.1021 2.7162 1.6369
| 36> C 6.6355 0.9977 -0.0730
| 37> O 7.7760 1.5221 -0.2199
| 38> H 7.1152 -1.7653 -1.9188
| 39> H 8.3059 -0.5403 -1.4337
| 40> H 7.1305 -0.1616 -2.7577
| 41> H 2.7646 -2.7015 0.1150
| 42> H 2.1741 -1.6476 -1.2154
| 43> H -0.0426 -0.5211 -0.9883
| 44> H -3.8659 1.8397 -0.8713
| 45> H -5.7770 3.1336 -1.6991
| 46> H -4.7583 -1.8869 1.7416
| 47> H 1.2434 0.0378 1.9605
| 48> H 5.2427 3.4151 1.7195
| 49> H 6.3994 2.3790 2.6522
| 50> H 6.9374 3.2958 1.1909
| 51> *
| 52>
| 53>                          ****END OF INPUT****

CARTESIAN COORDINATES (ANGSTROEM)
---------------------------------
  C      7.258700   -0.672400   -1.780200
  N      6.299300   -0.122000   -0.805900
  C      5.052100   -0.687700   -0.683000
  O      4.731200   -1.683900   -1.387900
  C      4.141200   -0.151100    0.234700
  C      2.831900   -0.597100    0.542700
  C      2.170500   -1.790400   -0.114000
  C      0.750200   -2.005200    0.325300
  O      0.505100   -2.866500    1.211800
  N     -0.300200   -1.203700   -0.240300
  C     -1.679300   -1.248700    0.155600
  N     -2.621700   -0.475400   -0.424100
  C     -3.857800   -0.675100    0.113700
  C     -5.036500    0.091800   -0.356600
  C     -4.852500    1.393300   -0.847700
  C     -5.936800    2.135400   -1.311900
  C     -7.223700    1.597000   -1.287400
  F     -8.245500    2.340000   -1.783200
  C     -7.444100    0.300700   -0.778100
  C     -8.829500   -0.311800   -0.797200
  F     -8.999100   -1.177400    0.269300
  F     -9.000400   -1.011700   -1.976800
  F     -9.810300    0.660000   -0.704900
  C     -6.335000   -0.461700   -0.349000
  F     -6.513600   -1.758500    0.013600
  C     -3.895800   -1.610600    1.151000
  S     -2.338400   -2.201900    1.377200
  C      2.231300    0.180900    1.544100
  S      3.293600    1.398500    2.019400
  C      4.528500    0.952600    0.968000
  N      5.743300    1.549600    0.815400
  C      6.102100    2.716200    1.636900
  C      6.635500    0.997700   -0.073000
  O      7.776000    1.522100   -0.219900
  H      7.115200   -1.765300   -1.918800
  H      8.305900   -0.540300   -1.433700
  H      7.130500   -0.161600   -2.757700
  H      2.764600   -2.701500    0.115000
  H      2.174100   -1.647600   -1.215400
  H     -0.042600   -0.521100   -0.988300
  H     -3.865900    1.839700   -0.871300
  H     -5.777000    3.133600   -1.699100
  H     -4.758300   -1.886900    1.741600
  H      1.243400    0.037800    1.960500
  H      5.242700    3.415100    1.719500
  H      6.399400    2.379000    2.652200
  H      6.937400    3.295800    1.190900

 Total Charge           Charge          ....    0
 Multiplicity           Mult            ....    1
 Number of Electrons    NEL             ....  262
 Basis Dimension        Dim             ....  510

ORBITAL ENERGIES
----------------

  NO   OCC          E(Eh)            E(eV)
   0   2.0000     -88.923221     -2419.7239
   1   2.0000     -88.909045     -2419.3381
   2   2.0000     -24.724829      -672.7968
   3   2.0000     -24.718060      -672.6126
   4   2.0000     -24.717147      -672.5878
   5   2.0000     -24.716802      -672.5784
   6   2.0000     -24.715934      -672.5548
   7   2.0000     -19.139427      -520.8103
   8   2.0000     -19.122492      -520.3495
   9   2.0000     -19.118515      -520.2412
  10   2.0000     -14.422662      -392.4606
  11   2.0000     -14.404866      -391.9763
  12   2.0000     -14.404000      -391.9528
  13   2.0000     -14.339536      -390.1986
  14   2.0000     -10.441774      -284.1351
  15   2.0000     -10.339026      -281.3392
  16   2.0000     -10.316895      -280.7370
  17   2.0000     -10.303396      -280.3697
  18   2.0000     -10.300496      -280.2907
  19   2.0000     -10.299263      -280.2572
  20   2.0000     -10.296972      -280.1948
  21   2.0000     -10.281855      -279.7835
  22   2.0000     -10.248520      -278.8764
  23   2.0000     -10.234738      -278.5014
  24   2.0000     -10.232219      -278.4328
  25   2.0000     -10.229097      -278.3479
  26   2.0000     -10.226714      -278.2830
  27   2.0000     -10.225545      -278.2512
  28   2.0000     -10.221818      -278.1498
  29   2.0000     -10.213923      -277.9350
  30   2.0000     -10.212926      -277.9079
  31   2.0000     -10.211218      -277.8614
  32   2.0000     -10.209312      -277.8095
  33   2.0000     -10.206876      -277.7432
  34   2.0000      -8.000191      -217.6963
  35   2.0000      -7.985078      -217.2850
  36   2.0000      -5.963470      -162.2743
  37   2.0000      -5.959214      -162.1585
  38   2.0000      -5.956873      -162.0948
  39   2.0000      -5.948190      -161.8585
  40   2.0000      -5.943901      -161.7418
  41   2.0000      -5.942128      -161.6935
  42   2.0000      -1.279137       -34.8071
  43   2.0000      -1.236974       -33.6598
  44   2.0000      -1.230751       -33.4904
  45   2.0000      -1.202999       -32.7353
  46   2.0000      -1.201494       -32.6943
  47   2.0000      -1.079414       -29.3724
  48   2.0000      -1.040135       -28.3035
  49   2.0000      -1.029118       -28.0037
  50   2.0000      -0.992625       -27.0107
  51   2.0000      -0.985005       -26.8034
  52   2.0000      -0.947782       -25.7905
  53   2.0000      -0.925073       -25.1725
  54   2.0000      -0.914676       -24.8896
  55   2.0000      -0.887684       -24.1551
  56   2.0000      -0.818296       -22.2670
  57   2.0000      -0.811372       -22.0785
  58   2.0000      -0.804454       -21.8903
  59   2.0000      -0.796815       -21.6824
  60   2.0000      -0.782907       -21.3040
  61   2.0000      -0.747961       -20.3531
  62   2.0000      -0.741793       -20.1852
  63   2.0000      -0.728259       -19.8169
  64   2.0000      -0.710719       -19.3397
  65   2.0000      -0.702294       -19.1104
  66   2.0000      -0.659058       -17.9339
  67   2.0000      -0.648880       -17.6569
  68   2.0000      -0.645146       -17.5553
  69   2.0000      -0.641161       -17.4469
  70   2.0000      -0.630016       -17.1436
  71   2.0000      -0.602122       -16.3846
  72   2.0000      -0.597388       -16.2558
  73   2.0000      -0.582014       -15.8374
  74   2.0000      -0.575632       -15.6637
  75   2.0000      -0.571961       -15.5639
  76   2.0000      -0.569979       -15.5099
  77   2.0000      -0.560146       -15.2423
  78   2.0000      -0.548257       -14.9188
  79   2.0000      -0.530094       -14.4246
  80   2.0000      -0.524746       -14.2791
  81   2.0000      -0.517568       -14.0837
  82   2.0000      -0.517152       -14.0724
  83   2.0000      -0.506711       -13.7883
  84   2.0000      -0.499681       -13.5970
  85   2.0000      -0.489595       -13.3226
  86   2.0000      -0.487390       -13.2626
  87   2.0000      -0.482689       -13.1346
  88   2.0000      -0.479030       -13.0351
  89   2.0000      -0.472026       -12.8445
  90   2.0000      -0.468897       -12.7593
  91   2.0000      -0.458157       -12.4671
  92   2.0000      -0.455119       -12.3844
  93   2.0000      -0.449372       -12.2280
  94   2.0000      -0.444341       -12.0911
  95   2.0000      -0.443431       -12.0664
  96   2.0000      -0.441950       -12.0261
  97   2.0000      -0.438559       -11.9338
  98   2.0000      -0.436930       -11.8895
  99   2.0000      -0.430838       -11.7237
 100   2.0000      -0.422189       -11.4883
 101   2.0000      -0.420128       -11.4323
 102   2.0000      -0.415916       -11.3176
 103   2.0000      -0.414929       -11.2908
 104   2.0000      -0.414389       -11.2761
 105   2.0000      -0.408996       -11.1294
 106   2.0000      -0.407624       -11.0920
 107   2.0000      -0.406478       -11.0608
 108   2.0000      -0.398366       -10.8401
 109   2.0000      -0.395997       -10.7756
 110   2.0000      -0.392576       -10.6825
 111   2.0000      -0.386392       -10.5143
 112   2.0000      -0.385825       -10.4988
 113   2.0000      -0.384154       -10.4534
 114   2.0000      -0.370105       -10.0711
 115   2.0000      -0.363688        -9.8965
 116   2.0000      -0.360988        -9.8230
 117   2.0000      -0.357207        -9.7201
 118   2.0000      -0.326163        -8.8753
 119   2.0000      -0.320240        -8.7142
 120   2.0000      -0.297970        -8.1082
 121   2.0000      -0.285252        -7.7621
 122   2.0000      -0.283513        -7.7148
 123   2.0000      -0.276283        -7.5180
 124   2.0000      -0.274093        -7.4585
 125   2.0000      -0.273804        -7.4506
 126   2.0000      -0.269134        -7.3235
 127   2.0000      -0.262005        -7.1295
 128   2.0000      -0.256446        -6.9783
 129   2.0000      -0.230596        -6.2748
 130   2.0000      -0.220789        -6.0080
 131   0.0000      -0.043692        -1.1889
 132   0.0000      -0.041917        -1.1406
 133   0.0000      -0.040316        -1.0970
 134   0.0000      -0.029754        -0.8096
 135   0.0000      -0.024176        -0.6579

MULLIKEN ATOMIC CHARGES
-----------------------
   0 C :   -0.316457
   1 N :   -0.477845
   2 C :    0.517941
   3 O :   -0.502249
   4 C :    0.042042
   5 C :    0.109813
   6 C :   -0.384926
   7 C :    0.537572
   8 O :   -0.447644
   9 N :   -0.640362
  10 C :    0.252248
  11 N :   -0.431523
  12 C :    0.205991
  13 C :    0.023663
  14 C :   -0.130561
  15 C :   -0.213191
  16 C :    0.406485
  17 F :   -0.298148
  18 C :   -0.216510
  19 C :    0.929265
  20 F :   -0.300125
  21 F :   -0.292790
  22 F :   -0.298042
  23 C :    0.349851
  24 F :   -0.293515
  25 C :   -0.388648
  26 S :    0.322916
  27 C :   -0.406491
  28 S :    0.285059
  29 C :    0.034712
  30 N :   -0.454390
  31 C :   -0.342046
  32 C :    0.681546
  33 O :   -0.502361
  34 H :    0.198273
  35 H :    0.196168
  36 H :    0.178386
  37 H :    0.218270
  38 H :    0.180062
  39 H :    0.357158
  40 H :    0.168293
  41 H :    0.156842
  42 H :    0.193284
  43 H :    0.201445
  44 H :    0.181835
  45 H :    0.187692
  46 H :    0.221009
Sum of atomic charges:   -0.0000000

LOEWDIN ATOMIC CHARGES
----------------------
   0 C :   -0.259635
   1 N :   -0.026337
   2 C :    0.114526
   3 O :   -0.298652
   4 C :   -0.111009
   5 C :   -0.010498
   6 C :   -0.234313
   7 C :    0.148487
   8 O :   -0.255435
   9 N :   -0.201120
  10 C :   -0.083867
  11 N :   -0.189280
  12 C :   -0.011915
  13 C :   -0.047668
  14 C :   -0.087799
  15 C :   -0.159393
  16 C :    0.137401
  17 F :   -0.088213
  18 C :   -0.124891
  19 C :    0.317428
  20 F :   -0.110084
  21 F :   -0.110257
  22 F :   -0.107302
  23 C :    0.142774
  24 F :   -0.082971
  25 C :   -0.340762
  26 S :    0.430908
  27 C :   -0.337512
  28 S :    0.408114
  29 C :   -0.115896
  30 N :   -0.023837
  31 C :   -0.264049
  32 C :    0.143286
  33 O :   -0.312078
  34 H :    0.154312
  35 H :    0.153011
  36 H :    0.140716
  37 H :    0.176205
  38 H :    0.154292
  39 H :    0.277158
  40 H :    0.154703
  41 H :    0.150521
  42 H :    0.167579
  43 H :    0.170509
  44 H :    0.142770
  45 H :    0.142645
  46 H :    0.167429

  Mayer bond orders larger than 0.100000
B(  0-C ,  1-N ) :   0.9160 B(  0-C , 34-H ) :   0.9230 B(  0-C , 35-H ) :   0.9259
B(  0-C , 36-H ) :   0.9406 B(  1-N ,  2-C ) :   0.9851 B(  1-N , 32-C ) :   1.0423
B(  2-C ,  3-O ) :   1.7543 B(  2-C ,  4-C ) :   1.0881 B(  4-C ,  5-C ) :   1.2972
B(  4-C , 29-C ) :   1.3611 B(  5-C ,  6-C ) :   1.0022 B(  5-C , 27-C ) :   1.5875
B(  6-C ,  7-C ) :   0.9432 B(  6-C , 37-H ) :   0.9006 B(  6-C , 38-H ) :   0.8990
B(  7-C ,  8-O ) :   1.8227 B(  7-C ,  9-N ) :   1.0136 B(  9-N , 10-C ) :   0.9448
B(  9-N , 39-H ) :   0.8082 B( 10-C , 11-N ) :   1.4830 B( 10-C , 25-C ) :   0.1092
B( 10-C , 26-S ) :   1.1851 B( 11-N , 12-C ) :   1.2919 B( 12-C , 13-C ) :   1.0146
B( 12-C , 25-C ) :   1.5274 B( 13-C , 14-C ) :   1.3994 B( 13-C , 23-C ) :   1.3326
B( 14-C , 15-C ) :   1.4158 B( 14-C , 40-H ) :   0.9132 B( 15-C , 16-C ) :   1.3856
B( 15-C , 41-H ) :   0.9177 B( 16-C , 17-F ) :   0.9508 B( 16-C , 18-C ) :   1.3247
B( 18-C , 19-C ) :   0.9445 B( 18-C , 23-C ) :   1.3101 B( 19-C , 20-F ) :   0.9565
B( 19-C , 21-F ) :   0.9983 B( 19-C , 22-F ) :   0.9588 B( 23-C , 24-F ) :   0.9536
B( 25-C , 26-S ) :   1.1094 B( 25-C , 42-H ) :   0.8997 B( 27-C , 28-S ) :   1.0709
B( 27-C , 43-H ) :   0.8975 B( 28-S , 29-C ) :   1.1534 B( 29-C , 30-N ) :   0.9914
B( 30-N , 31-C ) :   0.9268 B( 30-N , 32-C ) :   1.0362 B( 31-C , 44-H ) :   0.9242
B( 31-C , 45-H ) :   0.9317 B( 31-C , 46-H ) :   0.9167 B( 32-C , 33-O ) :   1.7914

FINAL SINGLE POINT ENERGY     -2509.204843204532

DIPOLE MOMENT
-------------

Method             : SCF
Type of density    : Electron Density
Multiplicity       :   1
Irrep              :   0
Energy             : -2509.2048432045316986 Eh
Relativity type    :
Basis              : AO
                                X                 Y                 Z
Electronic contribution:    -77.264475734      -4.910729479      -1.925688383
Nuclear contribution   :     78.848690694       6.734704135       2.473741072
                        -----------------------------------------
Total Dipole Moment    :      1.584214960       1.823974656       0.548052689
                        -----------------------------------------
Magnitude (a.u.)       :      2.477293348
Magnitude (Debye)      :      6.296779278

Rotational constants in cm-1:             0.009926             0.000987             0.000955
Rotational constants in MHz :           297.565459            29.601270            28.630660

                             ****ORCA TERMINATED NORMALLY****
TOTAL RUN TIME: 0 days 0 hours 5 minutes 3 seconds 864 msec
