                         Program Version 6.0.0  -   RELEASE  -
|  1> ! B3LYP 6-31G* SP
|  2>
|  3> * xyz -1 1
|  4> C 0.2757 2.4362 3.5419
|  5> C -0.5263 2.6710 2.2807
|  6> C -0.7333 1.6207 1.3544
|  7> N -0.1228 0.3356 1.5337
|  8> C 1.3216 0.1757 1.3359
|  9> C 1.5999 -0.4684 0.0061
| 10> C 1.2763 0.1144 -1.2158
| 11> C 1.6107 -0.8249 -2.1638
| 12> C 1.4648 -0.7904 -3.5485
| 13> C 1.8707 -1.9195 -4.2799
| 14> C 2.4097 -3.0430 -3.6180
| 15> C 2.5435 -3.0510 -2.2179
| 16> C 2.1248 -1.9175 -1.5101
| 17> N 2.1140 -1.7160 -0.1738
| 18> C 2.6136 -2.6198 0.8649
| 19> S -1.1337 -1.0556 1.7969
| 20> O -0.5967 -1.8328 2.9662
| 21> O -2.5332 -0.6152 2.1245
| 22> C -1.1767 -2.0654 0.3521
| 23> C -0.6901 -3.3790 0.3827
| 24> C -0.6404 -4.1402 -0.7887
| 25> C -1.0865 -3.6017 -2.0077
| 26> C -0.9954 -4.3945 -3.2529
| 27> O -1.3830 -3.9114 -4.3498
| 28> O -0.4724 -5.6823 -3.2311
| 29> C -1.6062 -2.2954 -2.0256
| 30> C -1.6539 -1.5366 -0.8532
| 31> N -1.5161 1.8215 0.2626
| 32> C -2.1022 3.0125 -0.0061
| 33> C -1.8993 4.1017 0.8442
| 34> C -2.4842 5.3440 0.5544
| 35> C -2.2719 6.4335 1.3994
| 36> C -1.4744 6.2931 2.5348
| 37> C -0.8880 5.0611 2.8372
| 38> C -1.0958 3.9413 2.0011
| 39> H -0.2875 2.8031 4.4253
| 40> H 1.2469 2.9689 3.4711
| 41> H 0.4741 1.3618 3.7283
| 42> H 1.8265 1.1660 1.3548
| 43> H 1.7470 -0.4109 2.1738
| 44> H 0.8258 1.0840 -1.3837
| 45> H 1.0452 0.0743 -4.0462
| 46> H 1.7674 -1.9279 -5.3570
| 47> H 2.7171 -3.9077 -4.1915
| 48> H 2.9509 -3.9197 -1.7210
| 49> H 2.6812 -3.6613 0.4937
| 50> H 1.9219 -2.6326 1.7314
| 51> H 3.6175 -2.2843 1.1983
| 52> H -0.3235 -3.8090 1.3053
| 53> H -0.2374 -5.1439 -0.7414
| 54> H -1.9600 -1.8529 -2.9483
| 55> H -2.0410 -0.5281 -0.8926
| 56> H -2.7148 3.1091 -0.8939
| 57> H -3.1023 5.4724 -0.3265
| 58> H -2.7233 7.3905 1.1713
| 59> H -1.3075 7.1435 3.1834
| 60> H -0.2676 5.0030 3.7208
| 61> *
| 62>
| 63>                          ****END OF INPUT****

CARTESIAN COORDINATES (ANGSTROEM)
---------------------------------
  C      0.275700    2.436200    3.541900
  C     -0.526300    2.671000    2.280700
  C     -0.733300    1.620700    1.354400
  N     -0.122800    0.335600    1.533700
  C      1.321600    0.175700    1.335900
  C      1.599900   -0.468400    0.006100
  C      1.276300    0.114400   -1.215800
  C      1.610700   -0.824900   -2.163800
  C      1.464800   -0.790400   -3.548500
  C      1.870700   -1.919500   -4.279900
  C      2.409700   -3.043000   -3.618000
  C      2.543500   -3.051000   -2.217900
  C      2.124800   -1.917500   -1.510100
  N      2.114000   -1.716000   -0.173800
  C      2.613600   -2.619800    0.864900
  S     -1.133700   -1.055600    1.796900
  O     -0.596700   -1.832800    2.966200
  O     -2.533200   -0.615200    2.124500
  C     -1.176700   -2.065400    0.352100
  C     -0.690100   -3.379000    0.382700
  C     -0.640400   -4.140200   -0.788700
  C     -1.086500   -3.601700   -2.007700
  C     -0.995400   -4.394500   -3.252900
  O     -1.383000   -3.911400   -4.349800
  O     -0.472400   -5.682300   -3.231100
  C     -1.606200   -2.295400   -2.025600
  C     -1.653900   -1.536600   -0.853200
  N     -1.516100    1.821500    0.262600
  C     -2.102200    3.012500   -0.006100
  C     -1.899300    4.101700    0.844200
  C     -2.484200    5.344000    0.554400
  C     -2.271900    6.433500    1.399400
  C     -1.474400    6.293100    2.534800
  C     -0.888000    5.061100    2.837200
  C     -1.095800    3.941300    2.001100
  H     -0.287500    2.803100    4.425300
  H      1.246900    2.968900    3.471100
  H      0.474100    1.361800    3.728300
  H      1.826500    1.166000    1.354800
  H      1.747000   -0.410900    2.173800
  H      0.825800    1.084000   -1.383700
  H      1.045200    0.074300   -4.046200
  H      1.767400   -1.927900   -5.357000
  H      2.717100   -3.907700   -4.191500
  H      2.950900   -3.919700   -1.721000
  H      2.681200   -3.661300    0.493700
  H      1.921900   -2.632600    1.731400
  H      3.617500   -2.284300    1.198300
  H     -0.323500   -3.809000    1.305300
  H     -0.237400   -5.143900   -0.741400
  H     -1.960000   -1.852900   -2.948300
  H     -2.041000   -0.528100   -0.892600
  H     -2.714800    3.109100   -0.893900
  H     -3.102300    5.472400   -0.326500
  H     -2.723300    7.390500    1.171300
  H     -1.307500    7.143500    3.183400
  H     -0.267600    5.003000    3.720800

 Total Charge           Charge          ....   -1
 Multiplicity           Mult            ....    1
 Number of Electrons    NEL             ....  254
 Basis Dimension        Dim             ....  538

ORBITAL ENERGIES
----------------

  NO   OCC          E(Eh)            E(eV)
   0   2.0000     -88.996959     -2421.7304
   1   2.0000     -19.031028      -517.8606
   2   2.0000     -19.024393      -517.6800
   3   2.0000     -18.896028      -514.1871
   4   2.0000     -18.875933      -513.6402
   5   2.0000     -14.283572      -388.6757
   6   2.0000     -14.282001      -388.6330
   7   2.0000     -14.261031      -388.0624
   8   2.0000     -10.189931      -277.2821
   9   2.0000     -10.157363      -276.3959
  10   2.0000     -10.155412      -276.3428
  11   2.0000     -10.142554      -275.9929
  12   2.0000     -10.142267      -275.9851
  13   2.0000     -10.139495      -275.9097
  14   2.0000     -10.138587      -275.8850
  15   2.0000     -10.137207      -275.8474
  16   2.0000     -10.135479      -275.8004
  17   2.0000     -10.135169      -275.7920
  18   2.0000     -10.135048      -275.7887
  19   2.0000     -10.119398      -275.3628
  20   2.0000     -10.115742      -275.2633
  21   2.0000     -10.104411      -274.9550
  22   2.0000     -10.099447      -274.8199
  23   2.0000     -10.081723      -274.3376
  24   2.0000     -10.081113      -274.3210
  25   2.0000     -10.077371      -274.2192
  26   2.0000     -10.073188      -274.1054
  27   2.0000     -10.068789      -273.9857
  28   2.0000     -10.067650      -273.9547
  29   2.0000     -10.065706      -273.9018
  30   2.0000     -10.061373      -273.7839
  31   2.0000     -10.060843      -273.7695
  32   2.0000     -10.060522      -273.7607
  33   2.0000     -10.060094      -273.7491
  34   2.0000     -10.059897      -273.7437
  35   2.0000      -8.032506      -218.5756
  36   2.0000      -5.998051      -163.2153
  37   2.0000      -5.995742      -163.1524
  38   2.0000      -5.994404      -163.1160
  39   2.0000      -0.985279       -26.8108
  40   2.0000      -0.905753       -24.6468
  41   2.0000      -0.885121       -24.0854
  42   2.0000      -0.864338       -23.5198
  43   2.0000      -0.835408       -22.7326
  44   2.0000      -0.805523       -21.9194
  45   2.0000      -0.800441       -21.7811
  46   2.0000      -0.744713       -20.2647
  47   2.0000      -0.741956       -20.1896
  48   2.0000      -0.740474       -20.1493
  49   2.0000      -0.714080       -19.4311
  50   2.0000      -0.702566       -19.1178
  51   2.0000      -0.687019       -18.6947
  52   2.0000      -0.680935       -18.5292
  53   2.0000      -0.665860       -18.1190
  54   2.0000      -0.652310       -17.7503
  55   2.0000      -0.638693       -17.3797
  56   2.0000      -0.630320       -17.1519
  57   2.0000      -0.627189       -17.0667
  58   2.0000      -0.603189       -16.4136
  59   2.0000      -0.585612       -15.9353
  60   2.0000      -0.581855       -15.8331
  61   2.0000      -0.578897       -15.7526
  62   2.0000      -0.541050       -14.7227
  63   2.0000      -0.531908       -14.4740
  64   2.0000      -0.506151       -13.7731
  65   2.0000      -0.493232       -13.4215
  66   2.0000      -0.489267       -13.3136
  67   2.0000      -0.484787       -13.1917
  68   2.0000      -0.469735       -12.7821
  69   2.0000      -0.465516       -12.6673
  70   2.0000      -0.449865       -12.2414
  71   2.0000      -0.438005       -11.9187
  72   2.0000      -0.429419       -11.6851
  73   2.0000      -0.420015       -11.4292
  74   2.0000      -0.413313       -11.2468
  75   2.0000      -0.406332       -11.0569
  76   2.0000      -0.394311       -10.7298
  77   2.0000      -0.387881       -10.5548
  78   2.0000      -0.382813       -10.4169
  79   2.0000      -0.377798       -10.2804
  80   2.0000      -0.373630       -10.1670
  81   2.0000      -0.367666       -10.0047
  82   2.0000      -0.365202        -9.9377
  83   2.0000      -0.359309        -9.7773
  84   2.0000      -0.349054        -9.4983
  85   2.0000      -0.344119        -9.3640
  86   2.0000      -0.341176        -9.2839
  87   2.0000      -0.336448        -9.1552
  88   2.0000      -0.332930        -9.0595
  89   2.0000      -0.324189        -8.8216
  90   2.0000      -0.323289        -8.7972
  91   2.0000      -0.319889        -8.7046
  92   2.0000      -0.318968        -8.6796
  93   2.0000      -0.311351        -8.4723
  94   2.0000      -0.307381        -8.3643
  95   2.0000      -0.304933        -8.2977
  96   2.0000      -0.301036        -8.1916
  97   2.0000      -0.298984        -8.1358
  98   2.0000      -0.290087        -7.8937
  99   2.0000      -0.286736        -7.8025
 100   2.0000      -0.285561        -7.7705
 101   2.0000      -0.280724        -7.6389
 102   2.0000      -0.256296        -6.9742
 103   2.0000      -0.244436        -6.6514
 104   2.0000      -0.234147        -6.3715
 105   2.0000      -0.233419        -6.3517
 106   2.0000      -0.232147        -6.3170
 107   2.0000      -0.226503        -6.1635
 108   2.0000      -0.224253        -6.1022
 109   2.0000      -0.219191        -5.9645
 110   2.0000      -0.209963        -5.7134
 111   2.0000      -0.201461        -5.4820
 112   2.0000      -0.198658        -5.4058
 113   2.0000      -0.185537        -5.0487
 114   2.0000      -0.185046        -5.0354
 115   2.0000      -0.179818        -4.8931
 116   2.0000      -0.175452        -4.7743
 117   2.0000      -0.172508        -4.6942
 118   2.0000      -0.170424        -4.6375
 119   2.0000      -0.151503        -4.1226
 120   2.0000      -0.132505        -3.6056
 121   2.0000      -0.123704        -3.3662
 122   2.0000      -0.108787        -2.9602
 123   2.0000      -0.091528        -2.4906
 124   2.0000      -0.050568        -1.3760
 125   2.0000      -0.029420        -0.8006
 126   2.0000      -0.012750        -0.3469
 127   0.0000       0.003327         0.0905
 128   0.0000       0.038085         1.0363
 129   0.0000       0.071441         1.9440
 130   0.0000       0.082974         2.2578
 131   0.0000       0.093626         2.5477

MULLIKEN ATOMIC CHARGES
-----------------------
   0 C :   -0.544648
   1 C :    0.090857
   2 C :    0.350834
   3 N :   -0.606385
   4 C :   -0.249486
   5 C :    0.257342
   6 C :   -0.249000
   7 C :    0.143655
   8 C :   -0.201827
   9 C :   -0.122046
  10 C :   -0.118682
  11 C :   -0.177050
  12 C :    0.291667
  13 N :   -0.459477
  14 C :   -0.346226
  15 S :    1.194968
  16 O :   -0.572368
  17 O :   -0.552461
  18 C :   -0.147481
  19 C :   -0.160830
  20 C :   -0.155207
  21 C :    0.112809
  22 C :    0.419771
  23 O :   -0.556424
  24 O :   -0.669390
  25 C :   -0.151825
  26 C :   -0.141580
  27 N :   -0.373041
  28 C :   -0.047645
  29 C :    0.131387
  30 C :   -0.202112
  31 C :   -0.130946
  32 C :   -0.122700
  33 C :   -0.199980
  34 C :    0.125286
  35 H :    0.157161
  36 H :    0.146074
  37 H :    0.199260
  38 H :    0.167068
  39 H :    0.162901
  40 H :    0.114078
  41 H :    0.099873
  42 H :    0.109440
  43 H :    0.123860
  44 H :    0.109799
  45 H :    0.183730
  46 H :    0.191910
  47 H :    0.144464
  48 H :    0.136619
  49 H :    0.141237
  50 H :    0.141947
  51 H :    0.159116
  52 H :    0.149447
  53 H :    0.131667
  54 H :    0.120022
  55 H :    0.121443
  56 H :    0.129122
Sum of atomic charges:   -1.0000000

LOEWDIN ATOMIC CHARGES
----------------------
   0 C :   -0.361168
   1 C :   -0.022872
   2 C :    0.050871
   3 N :   -0.285451
   4 C :   -0.156056
   5 C :   -0.027307
   6 C :   -0.188203
   7 C :   -0.040493
   8 C :   -0.135915
   9 C :   -0.132661
  10 C :   -0.123618
  11 C :   -0.150397
  12 C :    0.007490
  13 N :    0.013375
  14 C :   -0.271544
  15 S :    1.265782
  16 O :   -0.598439
  17 O :   -0.583709
  18 C :   -0.212548
  19 C :   -0.131498
  20 C :   -0.115765
  21 C :   -0.000338
  22 C :    0.075168
  23 O :   -0.378831
  24 O :   -0.514575
  25 C :   -0.109189
  26 C :   -0.114315
  27 N :   -0.114679
  28 C :   -0.059585
  29 C :   -0.032678
  30 C :   -0.112646
  31 C :   -0.138788
  32 C :   -0.126324
  33 C :   -0.128280
  34 C :   -0.005752
  35 H :    0.134161
  36 H :    0.128605
  37 H :    0.152069
  38 H :    0.142238
  39 H :    0.131789
  40 H :    0.129378
  41 H :    0.121185
  42 H :    0.124935
  43 H :    0.132728
  44 H :    0.124311
  45 H :    0.145907
  46 H :    0.144065
  47 H :    0.118789
  48 H :    0.135104
  49 H :    0.145131
  50 H :    0.144850
  51 H :    0.144680
  52 H :    0.135841
  53 H :    0.133702
  54 H :    0.128014
  55 H :    0.128934
  56 H :    0.134520

  Mayer bond orders larger than 0.100000
B(  0-C ,  1-C ) :   0.9990 B(  0-C , 35-H ) :   0.9312 B(  0-C , 36-H ) :   0.9300
B(  0-C , 37-H ) :   0.9248 B(  1-C ,  2-C ) :   1.4286 B(  1-C , 28-C ) :   0.1036
B(  1-C , 34-C ) :   1.2683 B(  2-C ,  3-N ) :   0.9129 B(  2-C , 27-N ) :   1.2713
B(  3-N ,  4-C ) :   0.9289 B(  3-N , 15-S ) :   0.7658 B(  4-C ,  5-C ) :   0.9699
B(  4-C , 38-H ) :   0.9232 B(  4-C , 39-H ) :   0.9176 B(  5-C ,  6-C ) :   1.5067
B(  5-C , 13-N ) :   1.1267 B(  6-C ,  7-C ) :   1.2851 B(  6-C , 40-H ) :   0.9254
B(  7-C ,  8-C ) :   1.3319 B(  7-C , 12-C ) :   1.3225 B(  8-C ,  9-C ) :   1.4797
B(  8-C , 11-C ) :   0.1042 B(  8-C , 41-H ) :   0.9303 B(  9-C , 10-C ) :   1.3797
B(  9-C , 42-H ) :   0.9325 B( 10-C , 11-C ) :   1.4854 B( 10-C , 43-H ) :   0.9301
B( 11-C , 12-C ) :   1.3376 B( 11-C , 44-H ) :   0.9200 B( 12-C , 13-N ) :   1.0222
B( 13-N , 14-C ) :   0.9564 B( 14-C , 45-H ) :   0.9327 B( 14-C , 46-H ) :   0.9182
B( 14-C , 47-H ) :   0.9365 B( 15-S , 16-O ) :   1.5977 B( 15-S , 17-O ) :   1.6609
B( 15-S , 18-C ) :   0.8470 B( 18-C , 19-C ) :   1.3674 B( 18-C , 26-C ) :   1.3681
B( 19-C , 20-C ) :   1.3962 B( 19-C , 48-H ) :   0.9203 B( 20-C , 21-C ) :   1.4032
B( 20-C , 49-H ) :   0.9024 B( 21-C , 22-C ) :   0.9285 B( 21-C , 25-C ) :   1.3874
B( 22-C , 23-O ) :   1.7051 B( 22-C , 24-O ) :   1.5437 B( 23-O , 24-O ) :   0.1442
B( 25-C , 26-C ) :   1.4149 B( 25-C , 50-H ) :   0.9084 B( 26-C , 51-H ) :   0.9029
B( 27-N , 28-C ) :   1.4956 B( 28-C , 29-C ) :   1.2288 B( 28-C , 52-H ) :   0.9270
B( 29-C , 30-C ) :   1.2865 B( 29-C , 34-C ) :   1.2878 B( 30-C , 31-C ) :   1.5130
B( 30-C , 33-C ) :   0.1063 B( 30-C , 53-H ) :   0.9240 B( 31-C , 32-C ) :   1.3523
B( 31-C , 54-H ) :   0.9317 B( 32-C , 33-C ) :   1.5111 B( 32-C , 55-H ) :   0.9316
B( 33-C , 34-C ) :   1.2916 B( 33-C , 56-H ) :   0.9175

FINAL SINGLE POINT ENERGY     -1904.427009725331

DIPOLE MOMENT
-------------

Method             : SCF
Type of density    : Electron Density
Multiplicity       :   1
Irrep              :   0
Energy             : -1904.4270097253308904 Eh
Relativity type    :
Basis              : AO
                                X                 Y                 Z
Electronic contribution:    -10.498591262      -5.603889502      -2.281481852
Nuclear contribution   :     12.802165200      13.328044341       6.765835061
                        -----------------------------------------
Total Dipole Moment    :      2.303573939       7.724154839       4.484353209
                        -----------------------------------------
Magnitude (a.u.)       :      9.223797730
Magnitude (Debye)      :     23.445030623

Rotational constants in cm-1:             0.007614             0.002343             0.002263
Rotational constants in MHz :           228.262886            70.241892            67.851430

                             ****ORCA TERMINATED NORMALLY****
TOTAL RUN TIME: 0 days 0 hours 15 minutes 3 seconds 733 msec
