                         Program Version 6.0.0  -   RELEASE  -
|  1> ! B3LYP 6-31G* SP
|  2>
|  3> * xyz 0 1
|  4> O -0.5274 -0.2247 2.6802
|  5> C -0.6611 0.2334 1.5130
|  6> N -1.8525 0.9462 1.1770
|  7> C -2.2025 1.2292 -0.2102
|  8> C -2.9214 0.0254 -0.8429
|  9> C -4.2110 -0.2837 -0.1274
| 10> C -4.2460 -1.2572 0.8855
| 11> C -5.4370 -1.5186 1.5698
| 12> C -6.5975 -0.8070 1.2534
| 13> C -6.5681 0.1700 0.2544
| 14> C -5.3790 0.4350 -0.4321
| 15> C -0.9625 1.5529 -0.9899
| 16> O -1.0424 2.3683 -1.9495
| 17> N 0.2899 0.8994 -0.6908
| 18> C 1.3308 0.9199 -1.7430
| 19> C 2.6433 0.4101 -1.2406
| 20> N 3.7839 0.3325 -1.9634
| 21> C 4.7158 -0.1272 -1.1057
| 22> C 6.0662 -0.3543 -1.3669
| 23> C 6.8728 -0.8124 -0.3083
| 24> C 6.3198 -1.0257 0.9747
| 25> C 4.9541 -0.7851 1.2124
| 26> C 4.1796 -0.3398 0.1427
| 27> C 2.8448 -0.0109 0.0547
| 28> C 1.8018 0.0550 1.1140
| 29> C 0.3999 -0.0299 0.4671
| 30> H -2.5524 1.1496 1.9261
| 31> H -2.8804 2.1119 -0.2340
| 32> H -2.2554 -0.8658 -0.8299
| 33> H -3.1428 0.2457 -1.9108
| 34> H -3.3516 -1.8090 1.1473
| 35> H -5.4595 -2.2707 2.3478
| 36> H -7.5183 -1.0098 1.7849
| 37> H -7.4661 0.7243 0.0140
| 38> H -5.3668 1.2003 -1.1983
| 39> H 1.0014 0.2967 -2.6015
| 40> H 1.4886 1.9618 -2.0952
| 41> H 3.9174 0.5954 -2.9653
| 42> H 6.4832 -0.1807 -2.3504
| 43> H 7.9253 -0.9989 -0.4774
| 44> H 6.9517 -1.3745 1.7811
| 45> H 4.5232 -0.9418 2.1928
| 46> H 1.9147 1.0172 1.6595
| 47> H 1.9449 -0.7857 1.8270
| 48> H 0.2485 -1.0666 0.0935
| 49> *
| 50>
| 51>                          ****END OF INPUT****

CARTESIAN COORDINATES (ANGSTROEM)
---------------------------------
  O     -0.527400   -0.224700    2.680200
  C     -0.661100    0.233400    1.513000
  N     -1.852500    0.946200    1.177000
  C     -2.202500    1.229200   -0.210200
  C     -2.921400    0.025400   -0.842900
  C     -4.211000   -0.283700   -0.127400
  C     -4.246000   -1.257200    0.885500
  C     -5.437000   -1.518600    1.569800
  C     -6.597500   -0.807000    1.253400
  C     -6.568100    0.170000    0.254400
  C     -5.379000    0.435000   -0.432100
  C     -0.962500    1.552900   -0.989900
  O     -1.042400    2.368300   -1.949500
  N      0.289900    0.899400   -0.690800
  C      1.330800    0.919900   -1.743000
  C      2.643300    0.410100   -1.240600
  N      3.783900    0.332500   -1.963400
  C      4.715800   -0.127200   -1.105700
  C      6.066200   -0.354300   -1.366900
  C      6.872800   -0.812400   -0.308300
  C      6.319800   -1.025700    0.974700
  C      4.954100   -0.785100    1.212400
  C      4.179600   -0.339800    0.142700
  C      2.844800   -0.010900    0.054700
  C      1.801800    0.055000    1.114000
  C      0.399900   -0.029900    0.467100
  H     -2.552400    1.149600    1.926100
  H     -2.880400    2.111900   -0.234000
  H     -2.255400   -0.865800   -0.829900
  H     -3.142800    0.245700   -1.910800
  H     -3.351600   -1.809000    1.147300
  H     -5.459500   -2.270700    2.347800
  H     -7.518300   -1.009800    1.784900
  H     -7.466100    0.724300    0.014000
  H     -5.366800    1.200300   -1.198300
  H      1.001400    0.296700   -2.601500
  H      1.488600    1.961800   -2.095200
  H      3.917400    0.595400   -2.965300
  H      6.483200   -0.180700   -2.350400
  H      7.925300   -0.998900   -0.477400
  H      6.951700   -1.374500    1.781100
  H      4.523200   -0.941800    2.192800
  H      1.914700    1.017200    1.659500
  H      1.944900   -0.785700    1.827000
  H      0.248500   -1.066600    0.093500

 Total Charge           Charge          ....    0
 Multiplicity           Mult            ....    1
 Number of Electrons    NEL             ....  182
 Basis Dimension        Dim             ....  402

ORBITAL ENERGIES
----------------

  NO   OCC          E(Eh)            E(eV)
   0   2.0000     -19.119070      -520.2563
   1   2.0000     -19.114895      -520.1427
   2   2.0000     -14.378492      -391.2587
   3   2.0000     -14.371890      -391.0790
   4   2.0000     -14.362598      -390.8262
   5   2.0000     -10.298263      -280.2300
   6   2.0000     -10.295756      -280.1618
   7   2.0000     -10.246731      -278.8277
   8   2.0000     -10.244064      -278.7551
   9   2.0000     -10.233274      -278.4615
  10   2.0000     -10.213770      -277.9308
  11   2.0000     -10.202752      -277.6310
  12   2.0000     -10.197901      -277.4990
  13   2.0000     -10.196562      -277.4626
  14   2.0000     -10.189858      -277.2801
  15   2.0000     -10.186853      -277.1984
  16   2.0000     -10.186423      -277.1867
  17   2.0000     -10.185659      -277.1659
  18   2.0000     -10.185070      -277.1498
  19   2.0000     -10.184652      -277.1385
  20   2.0000     -10.175249      -276.8826
  21   2.0000     -10.171138      -276.7707
  22   2.0000     -10.169753      -276.7330
  23   2.0000     -10.167756      -276.6787
  24   2.0000     -10.162423      -276.5336
  25   2.0000     -10.161875      -276.5187
  26   2.0000      -1.025042       -27.8928
  27   2.0000      -1.012632       -27.5551
  28   2.0000      -1.000140       -27.2152
  29   2.0000      -0.936421       -25.4813
  30   2.0000      -0.916153       -24.9298
  31   2.0000      -0.856420       -23.3044
  32   2.0000      -0.836853       -22.7719
  33   2.0000      -0.806027       -21.9331
  34   2.0000      -0.790608       -21.5135
  35   2.0000      -0.778045       -21.1717
  36   2.0000      -0.750614       -20.4252
  37   2.0000      -0.746049       -20.3010
  38   2.0000      -0.733082       -19.9482
  39   2.0000      -0.724427       -19.7126
  40   2.0000      -0.679067       -18.4783
  41   2.0000      -0.672984       -18.3128
  42   2.0000      -0.651703       -17.7337
  43   2.0000      -0.619569       -16.8593
  44   2.0000      -0.607994       -16.5443
  45   2.0000      -0.599341       -16.3089
  46   2.0000      -0.584801       -15.9132
  47   2.0000      -0.580333       -15.7917
  48   2.0000      -0.563650       -15.3377
  49   2.0000      -0.539911       -14.6917
  50   2.0000      -0.525450       -14.2982
  51   2.0000      -0.522141       -14.2082
  52   2.0000      -0.513052       -13.9609
  53   2.0000      -0.504676       -13.7329
  54   2.0000      -0.487263       -13.2591
  55   2.0000      -0.482589       -13.1319
  56   2.0000      -0.464737       -12.6461
  57   2.0000      -0.458875       -12.4866
  58   2.0000      -0.457281       -12.4433
  59   2.0000      -0.454402       -12.3649
  60   2.0000      -0.444131       -12.0854
  61   2.0000      -0.440725       -11.9927
  62   2.0000      -0.431528       -11.7425
  63   2.0000      -0.427432       -11.6310
  64   2.0000      -0.423367       -11.5204
  65   2.0000      -0.421739       -11.4761
  66   2.0000      -0.414203       -11.2710
  67   2.0000      -0.409301       -11.1376
  68   2.0000      -0.406715       -11.0673
  69   2.0000      -0.397855       -10.8262
  70   2.0000      -0.389790       -10.6067
  71   2.0000      -0.381163       -10.3720
  72   2.0000      -0.373894       -10.1742
  73   2.0000      -0.367509       -10.0004
  74   2.0000      -0.362960        -9.8766
  75   2.0000      -0.359962        -9.7951
  76   2.0000      -0.347711        -9.4617
  77   2.0000      -0.342927        -9.3315
  78   2.0000      -0.340278        -9.2594
  79   2.0000      -0.336298        -9.1511
  80   2.0000      -0.329287        -8.9604
  81   2.0000      -0.324428        -8.8281
  82   2.0000      -0.268917        -7.3176
  83   2.0000      -0.267089        -7.2679
  84   2.0000      -0.255957        -6.9650
  85   2.0000      -0.253615        -6.9012
  86   2.0000      -0.250685        -6.8215
  87   2.0000      -0.245052        -6.6682
  88   2.0000      -0.235437        -6.4066
  89   2.0000      -0.216145        -5.8816
  90   2.0000      -0.191669        -5.2156
  91   0.0000      -0.013927        -0.3790
  92   0.0000      -0.005422        -0.1475
  93   0.0000      -0.004231        -0.1151
  94   0.0000       0.001262         0.0343
  95   0.0000       0.005833         0.1587

MULLIKEN ATOMIC CHARGES
-----------------------
   0 O :   -0.486892
   1 C :    0.559670
   2 N :   -0.600220
   3 C :   -0.046223
   4 C :   -0.357151
   5 C :    0.155122
   6 C :   -0.176832
   7 C :   -0.128906
   8 C :   -0.125527
   9 C :   -0.127165
  10 C :   -0.178629
  11 C :    0.565311
  12 O :   -0.490386
  13 N :   -0.478995
  14 C :   -0.167371
  15 C :    0.234759
  16 N :   -0.696294
  17 C :    0.310364
  18 C :   -0.196885
  19 C :   -0.141745
  20 C :   -0.150314
  21 C :   -0.202162
  22 C :    0.096711
  23 C :    0.030302
  24 C :   -0.325430
  25 C :   -0.047017
  26 H :    0.346378
  27 H :    0.179995
  28 H :    0.147786
  29 H :    0.166967
  30 H :    0.137883
  31 H :    0.134361
  32 H :    0.130364
  33 H :    0.131443
  34 H :    0.131189
  35 H :    0.154352
  36 H :    0.187772
  37 H :    0.333351
  38 H :    0.114321
  39 H :    0.119574
  40 H :    0.119008
  41 H :    0.126255
  42 H :    0.165471
  43 H :    0.172587
  44 H :    0.172851
Sum of atomic charges:   -0.0000000

LOEWDIN ATOMIC CHARGES
----------------------
   0 O :   -0.286020
   1 C :    0.139615
   2 N :   -0.222020
   3 C :   -0.075901
   4 C :   -0.220923
   5 C :   -0.026716
   6 C :   -0.134356
   7 C :   -0.126131
   8 C :   -0.131009
   9 C :   -0.126787
  10 C :   -0.137375
  11 C :    0.144718
  12 O :   -0.285734
  13 N :   -0.108542
  14 C :   -0.139527
  15 C :   -0.016328
  16 N :   -0.116511
  17 C :    0.010126
  18 C :   -0.155722
  19 C :   -0.143231
  20 C :   -0.144850
  21 C :   -0.135980
  22 C :   -0.042315
  23 C :   -0.090124
  24 C :   -0.204844
  25 C :   -0.065547
  26 H :    0.268329
  27 H :    0.150859
  28 H :    0.128528
  29 H :    0.140482
  30 H :    0.135336
  31 H :    0.134185
  32 H :    0.132464
  33 H :    0.132791
  34 H :    0.132090
  35 H :    0.127055
  36 H :    0.150667
  37 H :    0.268391
  38 H :    0.126171
  39 H :    0.128741
  40 H :    0.127630
  41 H :    0.132267
  42 H :    0.140273
  43 H :    0.146818
  44 H :    0.138960

  Mayer bond orders larger than 0.100000
B(  0-O ,  1-C ) :   1.7954 B(  0-O ,  2-N ) :   0.1050 B(  1-C ,  2-N ) :   1.0976
B(  1-C , 25-C ) :   0.9305 B(  2-N ,  3-C ) :   0.9145 B(  2-N , 26-H ) :   0.8123
B(  3-C ,  4-C ) :   0.9517 B(  3-C , 11-C ) :   0.9530 B(  3-C , 27-H ) :   0.9146
B(  4-C ,  5-C ) :   0.9786 B(  4-C , 28-H ) :   0.9280 B(  4-C , 29-H ) :   0.9201
B(  5-C ,  6-C ) :   1.4309 B(  5-C , 10-C ) :   1.4291 B(  6-C ,  7-C ) :   1.4377
B(  6-C , 30-H ) :   0.9221 B(  7-C ,  8-C ) :   1.4549 B(  7-C , 31-H ) :   0.9286
B(  8-C ,  9-C ) :   1.4518 B(  8-C , 32-H ) :   0.9301 B(  9-C , 10-C ) :   1.4426
B(  9-C , 33-H ) :   0.9292 B( 10-C , 34-H ) :   0.9245 B( 11-C , 12-O ) :   1.7802
B( 11-C , 13-N ) :   1.0831 B( 13-N , 14-C ) :   0.9201 B( 13-N , 25-C ) :   0.8915
B( 14-C , 15-C ) :   0.9790 B( 14-C , 35-H ) :   0.9147 B( 14-C , 36-H ) :   0.9077
B( 15-C , 16-N ) :   1.0360 B( 15-C , 23-C ) :   1.5434 B( 16-N , 17-C ) :   0.9946
B( 16-N , 37-H ) :   0.8372 B( 17-C , 18-C ) :   1.3595 B( 17-C , 22-C ) :   1.3089
B( 18-C , 19-C ) :   1.4711 B( 18-C , 21-C ) :   0.1023 B( 18-C , 38-H ) :   0.9235
B( 19-C , 20-C ) :   1.3877 B( 19-C , 39-H ) :   0.9321 B( 20-C , 21-C ) :   1.4618
B( 20-C , 40-H ) :   0.9320 B( 21-C , 22-C ) :   1.3512 B( 21-C , 41-H ) :   0.9240
B( 22-C , 23-C ) :   1.2742 B( 23-C , 24-C ) :   0.9761 B( 24-C , 25-C ) :   0.9755
B( 24-C , 42-H ) :   0.9217 B( 24-C , 43-H ) :   0.9137 B( 25-C , 44-H ) :   0.8998

FINAL SINGLE POINT ENERGY     -1125.690523815078

DIPOLE MOMENT
-------------

Method             : SCF
Type of density    : Electron Density
Multiplicity       :   1
Irrep              :   0
Energy             : -1125.6905238150777677 Eh
Relativity type    :
Basis              : AO
                                X                 Y                 Z
Electronic contribution:      4.932044311       3.419318098      -0.862501367
Nuclear contribution   :     -5.334905800      -3.639558686      -0.100982940
                        -----------------------------------------
Total Dipole Moment    :     -0.402861489      -0.220240589      -0.963484306
                        -----------------------------------------
Magnitude (a.u.)       :      1.067288763
Magnitude (Debye)      :      2.712832444

Rotational constants in cm-1:             0.020624             0.002943             0.002702
Rotational constants in MHz :           618.283341            88.230222            80.994142

                             ****ORCA TERMINATED NORMALLY****
TOTAL RUN TIME: 0 days 0 hours 4 minutes 33 seconds 605 msec
