                         Program Version 6.0.0  -   RELEASE  -
|  1> ! B3LYP 6-31G* SP
|  2>
|  3> * xyz 0 1
|  4> C -3.1726 -1.1623 -0.4942
|  5> C -2.3126 -1.5735 0.6813
|  6> C -1.0817 -0.9237 0.9379
|  7> N -0.5977 0.1167 0.0814
|  8> C 0.0617 -0.2136 -1.1824
|  9> C 1.5528 -0.1818 -1.0154
| 10> C 2.3504 0.6382 -1.8246
| 11> C 3.7342 0.6421 -1.6447
| 12> C 4.3224 -0.1678 -0.6599
| 13> C 5.7924 -0.1684 -0.4544
| 14> C 6.3324 -0.1911 0.8466
| 15> C 7.7176 -0.1865 1.0376
| 16> C 8.5771 -0.1656 -0.0634
| 17> C 8.0531 -0.1446 -1.3589
| 18> C 6.6689 -0.1443 -1.5568
| 19> C 3.4836 -0.9766 0.1259
| 20> N 2.1390 -0.9682 -0.0723
| 21> S -0.7126 1.7692 0.5996
| 22> O 0.5790 2.4855 0.3170
| 23> O -0.9684 1.8282 2.0807
| 24> C -2.0394 2.5430 -0.2565
| 25> C -3.3551 2.3628 0.1855
| 26> C -4.4191 2.9423 -0.5108
| 27> C -4.1806 3.7101 -1.6634
| 28> C -5.3088 4.3207 -2.4003
| 29> O -5.0966 5.0156 -3.4317
| 30> O -6.6177 4.1326 -1.9612
| 31> C -2.8561 3.8824 -2.1060
| 32> C -1.7945 3.2992 -1.4083
| 33> N -0.3310 -1.2816 2.0124
| 34> C -0.7035 -2.2671 2.8644
| 35> C -1.8986 -2.9605 2.6568
| 36> C -2.2809 -3.9903 3.5313
| 37> C -3.4757 -4.6806 3.3231
| 38> C -4.2967 -4.3484 2.2449
| 39> C -3.9277 -3.3268 1.3652
| 40> C -2.7218 -2.6149 1.5551
| 41> H -3.2696 -2.0133 -1.2013
| 42> H -4.1788 -0.8602 -0.1347
| 43> H -2.7587 -0.3026 -1.0572
| 44> H -0.2697 0.5026 -1.9652
| 45> H -0.2381 -1.2295 -1.5202
| 46> H 1.9071 1.2712 -2.5826
| 47> H 4.3419 1.2919 -2.2624
| 48> H 5.6843 -0.1927 1.7148
| 49> H 8.1245 -0.1970 2.0414
| 50> H 9.6489 -0.1643 0.0873
| 51> H 8.7196 -0.1321 -2.2112
| 52> H 6.2839 -0.1449 -2.5696
| 53> H 3.8964 -1.6276 0.8850
| 54> H -3.5583 1.7635 1.0635
| 55> H -5.4273 2.7853 -0.1478
| 56> H -7.3977 4.5446 -2.4600
| 57> H -2.6398 4.4629 -2.9938
| 58> H -0.7837 3.4322 -1.7723
| 59> H -0.0611 -2.5101 3.7020
| 60> H -1.6552 -4.2613 4.3738
| 61> H -3.7672 -5.4743 3.9998
| 62> H -5.2230 -4.8868 2.0878
| 63> H -4.5934 -3.1076 0.5415
| 64> *
| 65>
| 66>                          ****END OF INPUT****

CARTESIAN COORDINATES (ANGSTROEM)
---------------------------------
  C     -3.172600   -1.162300   -0.494200
  C     -2.312600   -1.573500    0.681300
  C     -1.081700   -0.923700    0.937900
  N     -0.597700    0.116700    0.081400
  C      0.061700   -0.213600   -1.182400
  C      1.552800   -0.181800   -1.015400
  C      2.350400    0.638200   -1.824600
  C      3.734200    0.642100   -1.644700
  C      4.322400   -0.167800   -0.659900
  C      5.792400   -0.168400   -0.454400
  C      6.332400   -0.191100    0.846600
  C      7.717600   -0.186500    1.037600
  C      8.577100   -0.165600   -0.063400
  C      8.053100   -0.144600   -1.358900
  C      6.668900   -0.144300   -1.556800
  C      3.483600   -0.976600    0.125900
  N      2.139000   -0.968200   -0.072300
  S     -0.712600    1.769200    0.599600
  O      0.579000    2.485500    0.317000
  O     -0.968400    1.828200    2.080700
  C     -2.039400    2.543000   -0.256500
  C     -3.355100    2.362800    0.185500
  C     -4.419100    2.942300   -0.510800
  C     -4.180600    3.710100   -1.663400
  C     -5.308800    4.320700   -2.400300
  O     -5.096600    5.015600   -3.431700
  O     -6.617700    4.132600   -1.961200
  C     -2.856100    3.882400   -2.106000
  C     -1.794500    3.299200   -1.408300
  N     -0.331000   -1.281600    2.012400
  C     -0.703500   -2.267100    2.864400
  C     -1.898600   -2.960500    2.656800
  C     -2.280900   -3.990300    3.531300
  C     -3.475700   -4.680600    3.323100
  C     -4.296700   -4.348400    2.244900
  C     -3.927700   -3.326800    1.365200
  C     -2.721800   -2.614900    1.555100
  H     -3.269600   -2.013300   -1.201300
  H     -4.178800   -0.860200   -0.134700
  H     -2.758700   -0.302600   -1.057200
  H     -0.269700    0.502600   -1.965200
  H     -0.238100   -1.229500   -1.520200
  H      1.907100    1.271200   -2.582600
  H      4.341900    1.291900   -2.262400
  H      5.684300   -0.192700    1.714800
  H      8.124500   -0.197000    2.041400
  H      9.648900   -0.164300    0.087300
  H      8.719600   -0.132100   -2.211200
  H      6.283900   -0.144900   -2.569600
  H      3.896400   -1.627600    0.885000
  H     -3.558300    1.763500    1.063500
  H     -5.427300    2.785300   -0.147800
  H     -7.397700    4.544600   -2.460000
  H     -2.639800    4.462900   -2.993800
  H     -0.783700    3.432200   -1.772300
  H     -0.061100   -2.510100    3.702000
  H     -1.655200   -4.261300    4.373800
  H     -3.767200   -5.474300    3.999800
  H     -5.223000   -4.886800    2.087800
  H     -4.593400   -3.107600    0.541500

 Total Charge           Charge          ....    0
 Multiplicity           Mult            ....    1
 Number of Electrons    NEL             ....  266
 Basis Dimension        Dim             ....  568

ORBITAL ENERGIES
----------------

  NO   OCC          E(Eh)            E(eV)
   0   2.0000     -89.093236     -2424.3502
   1   2.0000     -19.197770      -522.3979
   2   2.0000     -19.139249      -520.8054
   3   2.0000     -19.120620      -520.2985
   4   2.0000     -19.119938      -520.2800
   5   2.0000     -14.365542      -390.9063
   6   2.0000     -14.319272      -389.6472
   7   2.0000     -14.313831      -389.4992
   8   2.0000     -10.336783      -281.2782
   9   2.0000     -10.253760      -279.0190
  10   2.0000     -10.241518      -278.6859
  11   2.0000     -10.234744      -278.5015
  12   2.0000     -10.232899      -278.4513
  13   2.0000     -10.220717      -278.1198
  14   2.0000     -10.220349      -278.1098
  15   2.0000     -10.218509      -278.0598
  16   2.0000     -10.218454      -278.0583
  17   2.0000     -10.215888      -277.9884
  18   2.0000     -10.215789      -277.9857
  19   2.0000     -10.207939      -277.7722
  20   2.0000     -10.206563      -277.7347
  21   2.0000     -10.202885      -277.6346
  22   2.0000     -10.195198      -277.4254
  23   2.0000     -10.195080      -277.4222
  24   2.0000     -10.193794      -277.3872
  25   2.0000     -10.193703      -277.3848
  26   2.0000     -10.192433      -277.3502
  27   2.0000     -10.190352      -277.2936
  28   2.0000     -10.190001      -277.2840
  29   2.0000     -10.189329      -277.2657
  30   2.0000     -10.188689      -277.2483
  31   2.0000     -10.182630      -277.0835
  32   2.0000     -10.179681      -277.0032
  33   2.0000     -10.179160      -276.9890
  34   2.0000     -10.178782      -276.9787
  35   2.0000     -10.178331      -276.9665
  36   2.0000     -10.177792      -276.9518
  37   2.0000      -8.128637      -221.1915
  38   2.0000      -6.093681      -165.8175
  39   2.0000      -6.091648      -165.7622
  40   2.0000      -6.091387      -165.7551
  41   2.0000      -1.081873       -29.4392
  42   2.0000      -1.077595       -29.3229
  43   2.0000      -0.996138       -27.1063
  44   2.0000      -0.957237       -26.0477
  45   2.0000      -0.955000       -25.9869
  46   2.0000      -0.920845       -25.0575
  47   2.0000      -0.903394       -24.5826
  48   2.0000      -0.890961       -24.2443
  49   2.0000      -0.859492       -23.3880
  50   2.0000      -0.849959       -23.1286
  51   2.0000      -0.808125       -21.9902
  52   2.0000      -0.805530       -21.9196
  53   2.0000      -0.794966       -21.6321
  54   2.0000      -0.779049       -21.1990
  55   2.0000      -0.777565       -21.1586
  56   2.0000      -0.768396       -20.9091
  57   2.0000      -0.743350       -20.2276
  58   2.0000      -0.738648       -20.0996
  59   2.0000      -0.736671       -20.0458
  60   2.0000      -0.713199       -19.4071
  61   2.0000      -0.702150       -19.1065
  62   2.0000      -0.682515       -18.5722
  63   2.0000      -0.652824       -17.7642
  64   2.0000      -0.640521       -17.4295
  65   2.0000      -0.638262       -17.3680
  66   2.0000      -0.627161       -17.0659
  67   2.0000      -0.620350       -16.8806
  68   2.0000      -0.614172       -16.7125
  69   2.0000      -0.594829       -16.1861
  70   2.0000      -0.592543       -16.1239
  71   2.0000      -0.589272       -16.0349
  72   2.0000      -0.573532       -15.6066
  73   2.0000      -0.558513       -15.1979
  74   2.0000      -0.542001       -14.7486
  75   2.0000      -0.527586       -14.3563
  76   2.0000      -0.521064       -14.1789
  77   2.0000      -0.511730       -13.9249
  78   2.0000      -0.501130       -13.6364
  79   2.0000      -0.492784       -13.4093
  80   2.0000      -0.491099       -13.3635
  81   2.0000      -0.481195       -13.0940
  82   2.0000      -0.474522       -12.9124
  83   2.0000      -0.472606       -12.8603
  84   2.0000      -0.468191       -12.7401
  85   2.0000      -0.465955       -12.6793
  86   2.0000      -0.461985       -12.5713
  87   2.0000      -0.449705       -12.2371
  88   2.0000      -0.448106       -12.1936
  89   2.0000      -0.443992       -12.0816
  90   2.0000      -0.443273       -12.0621
  91   2.0000      -0.437920       -11.9164
  92   2.0000      -0.437648       -11.9090
  93   2.0000      -0.435168       -11.8415
  94   2.0000      -0.425924       -11.5900
  95   2.0000      -0.421784       -11.4773
  96   2.0000      -0.418239       -11.3809
  97   2.0000      -0.415838       -11.3155
  98   2.0000      -0.413675       -11.2567
  99   2.0000      -0.410408       -11.1678
 100   2.0000      -0.402914       -10.9639
 101   2.0000      -0.396815       -10.7979
 102   2.0000      -0.392097       -10.6695
 103   2.0000      -0.386458       -10.5161
 104   2.0000      -0.385846       -10.4994
 105   2.0000      -0.383637       -10.4393
 106   2.0000      -0.376614       -10.2482
 107   2.0000      -0.374678       -10.1955
 108   2.0000      -0.369436       -10.0529
 109   2.0000      -0.365802        -9.9540
 110   2.0000      -0.354587        -9.6488
 111   2.0000      -0.349118        -9.5000
 112   2.0000      -0.345157        -9.3922
 113   2.0000      -0.340324        -9.2607
 114   2.0000      -0.336276        -9.1505
 115   2.0000      -0.322264        -8.7692
 116   2.0000      -0.321128        -8.7383
 117   2.0000      -0.304546        -8.2871
 118   2.0000      -0.292126        -7.9492
 119   2.0000      -0.287031        -7.8105
 120   2.0000      -0.284947        -7.7538
 121   2.0000      -0.278545        -7.5796
 122   2.0000      -0.275942        -7.5088
 123   2.0000      -0.274587        -7.4719
 124   2.0000      -0.269250        -7.3267
 125   2.0000      -0.263028        -7.1574
 126   2.0000      -0.257498        -7.0069
 127   2.0000      -0.253309        -6.8929
 128   2.0000      -0.244675        -6.6579
 129   2.0000      -0.239356        -6.5132
 130   2.0000      -0.227995        -6.2041
 131   2.0000      -0.220523        -6.0007
 132   2.0000      -0.217462        -5.9174
 133   0.0000      -0.083997        -2.2857
 134   0.0000      -0.056116        -1.5270
 135   0.0000      -0.032884        -0.8948
 136   0.0000      -0.027302        -0.7429
 137   0.0000      -0.024325        -0.6619

MULLIKEN ATOMIC CHARGES
-----------------------
   0 C :   -0.543420
   1 C :    0.095997
   2 C :    0.319283
   3 N :   -0.604186
   4 C :   -0.233206
   5 C :    0.314307
   6 C :   -0.154633
   7 C :   -0.131410
   8 C :    0.060721
   9 C :    0.072462
  10 C :   -0.168224
  11 C :   -0.130891
  12 C :   -0.122403
  13 C :   -0.131029
  14 C :   -0.166303
  15 C :   -0.019712
  16 N :   -0.395107
  17 S :    1.201774
  18 O :   -0.537166
  19 O :   -0.529989
  20 C :   -0.118720
  21 C :   -0.145267
  22 C :   -0.148599
  23 C :    0.082314
  24 C :    0.528367
  25 O :   -0.444819
  26 O :   -0.624216
  27 C :   -0.139412
  28 C :   -0.154123
  29 N :   -0.337706
  30 C :   -0.049880
  31 C :    0.136143
  32 C :   -0.201744
  33 C :   -0.127416
  34 C :   -0.121203
  35 C :   -0.201662
  36 C :    0.125437
  37 H :    0.162242
  38 H :    0.160448
  39 H :    0.167832
  40 H :    0.154081
  41 H :    0.182868
  42 H :    0.123073
  43 H :    0.140195
  44 H :    0.141452
  45 H :    0.130771
  46 H :    0.127098
  47 H :    0.128007
  48 H :    0.128499
  49 H :    0.149716
  50 H :    0.183836
  51 H :    0.172281
  52 H :    0.434263
  53 H :    0.180201
  54 H :    0.183786
  55 H :    0.152532
  56 H :    0.139924
  57 H :    0.134436
  58 H :    0.134691
  59 H :    0.133411
Sum of atomic charges:    0.0000000

LOEWDIN ATOMIC CHARGES
----------------------
   0 C :   -0.361862
   1 C :   -0.022805
   2 C :    0.034010
   3 N :   -0.276776
   4 C :   -0.146849
   5 C :    0.016694
   6 C :   -0.135228
   7 C :   -0.102306
   8 C :   -0.027427
   9 C :   -0.015205
  10 C :   -0.126450
  11 C :   -0.126227
  12 C :   -0.130452
  13 C :   -0.127878
  14 C :   -0.129349
  15 C :   -0.063385
  16 N :   -0.119087
  17 S :    1.267570
  18 O :   -0.566272
  19 O :   -0.558467
  20 C :   -0.175229
  21 C :   -0.103240
  22 C :   -0.100403
  23 C :   -0.040526
  24 C :    0.180350
  25 O :   -0.261178
  26 O :   -0.335357
  27 C :   -0.086149
  28 C :   -0.110621
  29 N :   -0.093573
  30 C :   -0.055357
  31 C :   -0.027659
  32 C :   -0.110668
  33 C :   -0.128041
  34 C :   -0.119621
  35 C :   -0.127562
  36 C :   -0.008332
  37 H :    0.136570
  38 H :    0.135549
  39 H :    0.137018
  40 H :    0.128970
  41 H :    0.150526
  42 H :    0.130329
  43 H :    0.137801
  44 H :    0.137409
  45 H :    0.132580
  46 H :    0.131015
  47 H :    0.131288
  48 H :    0.131865
  49 H :    0.136431
  50 H :    0.158760
  51 H :    0.154385
  52 H :    0.349887
  53 H :    0.160138
  54 H :    0.159261
  55 H :    0.137763
  56 H :    0.137561
  57 H :    0.134662
  58 H :    0.135058
  59 H :    0.136089

  Mayer bond orders larger than 0.100000
B(  0-C ,  1-C ) :   0.9958 B(  0-C , 37-H ) :   0.9277 B(  0-C , 38-H ) :   0.9290
B(  0-C , 39-H ) :   0.9311 B(  1-C ,  2-C ) :   1.4369 B(  1-C , 30-C ) :   0.1015
B(  1-C , 36-C ) :   1.2619 B(  2-C ,  3-N ) :   0.8765 B(  2-C , 29-N ) :   1.2994
B(  3-N ,  4-C ) :   0.9403 B(  3-N , 17-S ) :   0.8090 B(  4-C ,  5-C ) :   0.9512
B(  4-C , 40-H ) :   0.9283 B(  4-C , 41-H ) :   0.9151 B(  5-C ,  6-C ) :   1.4090
B(  5-C , 16-N ) :   1.3827 B(  6-C ,  7-C ) :   1.4370 B(  6-C , 42-H ) :   0.9195
B(  7-C ,  8-C ) :   1.4129 B(  7-C , 43-H ) :   0.9206 B(  8-C ,  9-C ) :   1.0026
B(  8-C , 15-C ) :   1.3523 B(  9-C , 10-C ) :   1.4089 B(  9-C , 14-C ) :   1.4079
B( 10-C , 11-C ) :   1.4391 B( 10-C , 44-H ) :   0.9208 B( 11-C , 12-C ) :   1.4516
B( 11-C , 45-H ) :   0.9294 B( 12-C , 13-C ) :   1.4500 B( 12-C , 46-H ) :   0.9304
B( 13-C , 14-C ) :   1.4414 B( 13-C , 47-H ) :   0.9298 B( 14-C , 48-H ) :   0.9227
B( 15-C , 16-N ) :   1.4313 B( 15-C , 49-H ) :   0.9241 B( 17-S , 18-O ) :   1.6402
B( 17-S , 19-O ) :   1.6506 B( 17-S , 20-C ) :   0.8107 B( 20-C , 21-C ) :   1.3892
B( 20-C , 28-C ) :   1.3845 B( 21-C , 22-C ) :   1.4206 B( 21-C , 50-H ) :   0.9094
B( 22-C , 23-C ) :   1.3805 B( 22-C , 51-H ) :   0.9149 B( 23-C , 24-C ) :   1.0088
B( 23-C , 27-C ) :   1.4050 B( 24-C , 25-O ) :   1.8623 B( 24-C , 26-O ) :   1.0241
B( 26-O , 52-H ) :   0.7417 B( 27-C , 28-C ) :   1.4143 B( 27-C , 53-H ) :   0.9097
B( 28-C , 54-H ) :   0.9088 B( 29-N , 30-C ) :   1.5023 B( 30-C , 31-C ) :   1.2262
B( 30-C , 55-H ) :   0.9265 B( 31-C , 32-C ) :   1.2851 B( 31-C , 36-C ) :   1.2932
B( 32-C , 33-C ) :   1.5115 B( 32-C , 35-C ) :   0.1061 B( 32-C , 56-H ) :   0.9230
B( 33-C , 34-C ) :   1.3543 B( 33-C , 57-H ) :   0.9295 B( 34-C , 35-C ) :   1.5084
B( 34-C , 58-H ) :   0.9295 B( 35-C , 36-C ) :   1.2940 B( 35-C , 59-H ) :   0.9176

FINAL SINGLE POINT ENERGY     -1981.160536538489

DIPOLE MOMENT
-------------

Method             : SCF
Type of density    : Electron Density
Multiplicity       :   1
Irrep              :   0
Energy             : -1981.1605365384889410 Eh
Relativity type    :
Basis              : AO
                                X                 Y                 Z
Electronic contribution:     -7.932662813      11.868401043       2.474977079
Nuclear contribution   :      6.313565149     -13.372974342      -3.571166357
                        -----------------------------------------
Total Dipole Moment    :     -1.619097664      -1.504573299      -1.096189279
                        -----------------------------------------
Magnitude (a.u.)       :      2.467154027
Magnitude (Debye)      :      6.271007170

Rotational constants in cm-1:             0.003796             0.001893             0.001357
Rotational constants in MHz :           113.787425            56.748165            40.679625

                             ****ORCA TERMINATED NORMALLY****
TOTAL RUN TIME: 0 days 0 hours 10 minutes 56 seconds 529 msec
