                         Program Version 6.0.0  -   RELEASE  -
|  1> ! B3LYP 6-31G* SP
|  2>
|  3> * xyz 0 1
|  4> C -1.4859 0.9184 -1.9065
|  5> C -0.7936 1.6598 -0.7837
|  6> C 0.1158 0.9918 0.0703
|  7> N 0.4166 -0.3975 -0.1038
|  8> C -0.1083 -1.3792 0.8452
|  9> C -1.5913 -1.5292 0.6549
| 10> C -2.4887 -0.6960 1.3718
| 11> C -3.8738 -0.7676 1.1401
| 12> C -4.3264 -1.6736 0.1853
| 13> C -5.6019 -1.9501 -0.2561
| 14> C -5.4443 -2.9328 -1.2287
| 15> N -4.1383 -3.2497 -1.3843
| 16> C -3.4671 -2.4757 -0.5159
| 17> C -2.0895 -2.4297 -0.3123
| 18> S 1.6229 -0.8668 -1.2589
| 19> O 1.1250 -2.0460 -2.0474
| 20> O 1.8916 0.2636 -2.2131
| 21> C 3.1080 -1.2703 -0.4068
| 22> C 3.5469 -2.5976 -0.3228
| 23> C 4.7195 -2.9082 0.3725
| 24> C 5.4671 -1.8942 0.9988
| 25> C 6.7081 -2.2173 1.7369
| 26> O 7.1179 -3.4078 1.8068
| 27> O 7.4354 -1.2083 2.3633
| 28> C 5.0166 -0.5650 0.9152
| 29> C 3.8444 -0.2574 0.2184
| 30> N 0.7074 1.6596 1.0948
| 31> C 0.4714 2.9705 1.3414
| 32> C -0.4142 3.6883 0.5341
| 33> C -0.6641 5.0454 0.7906
| 34> C -1.5547 5.7587 -0.0121
| 35> C -2.2015 5.1253 -1.0731
| 36> C -1.9616 3.7747 -1.3406
| 37> C -1.0622 3.0326 -0.5430
| 38> H -1.2509 1.4034 -2.8771
| 39> H -1.1747 -0.1413 -1.9851
| 40> H -2.5838 0.9300 -1.7397
| 41> H 0.1201 -1.0559 1.8842
| 42> H 0.3883 -2.3631 0.6994
| 43> H -2.1113 0.0161 2.0951
| 44> H -4.5632 -0.1309 1.6801
| 45> H -6.5270 -1.4989 0.0772
| 46> H -6.2468 -3.3885 -1.7938
| 47> H -3.7379 -3.9507 -2.0469
| 48> H -1.4253 -3.0578 -0.8927
| 49> H 2.9837 -3.3941 -0.7911
| 50> H 5.0385 -3.9419 0.4217
| 51> H 8.2864 -1.4189 2.8712
| 52> H 5.5680 0.2378 1.3888
| 53> H 3.5092 0.7711 0.1683
| 54> H 0.9755 3.4488 2.1721
| 55> H -0.1722 5.5528 1.6122
| 56> H -1.7451 6.8050 0.1894
| 57> H -2.8927 5.6830 -1.6920
| 58> H -2.4863 3.3252 -2.1725
| 59> *
| 60>
| 61>                          ****END OF INPUT****

CARTESIAN COORDINATES (ANGSTROEM)
---------------------------------
  C     -1.485900    0.918400   -1.906500
  C     -0.793600    1.659800   -0.783700
  C      0.115800    0.991800    0.070300
  N      0.416600   -0.397500   -0.103800
  C     -0.108300   -1.379200    0.845200
  C     -1.591300   -1.529200    0.654900
  C     -2.488700   -0.696000    1.371800
  C     -3.873800   -0.767600    1.140100
  C     -4.326400   -1.673600    0.185300
  C     -5.601900   -1.950100   -0.256100
  C     -5.444300   -2.932800   -1.228700
  N     -4.138300   -3.249700   -1.384300
  C     -3.467100   -2.475700   -0.515900
  C     -2.089500   -2.429700   -0.312300
  S      1.622900   -0.866800   -1.258900
  O      1.125000   -2.046000   -2.047400
  O      1.891600    0.263600   -2.213100
  C      3.108000   -1.270300   -0.406800
  C      3.546900   -2.597600   -0.322800
  C      4.719500   -2.908200    0.372500
  C      5.467100   -1.894200    0.998800
  C      6.708100   -2.217300    1.736900
  O      7.117900   -3.407800    1.806800
  O      7.435400   -1.208300    2.363300
  C      5.016600   -0.565000    0.915200
  C      3.844400   -0.257400    0.218400
  N      0.707400    1.659600    1.094800
  C      0.471400    2.970500    1.341400
  C     -0.414200    3.688300    0.534100
  C     -0.664100    5.045400    0.790600
  C     -1.554700    5.758700   -0.012100
  C     -2.201500    5.125300   -1.073100
  C     -1.961600    3.774700   -1.340600
  C     -1.062200    3.032600   -0.543000
  H     -1.250900    1.403400   -2.877100
  H     -1.174700   -0.141300   -1.985100
  H     -2.583800    0.930000   -1.739700
  H      0.120100   -1.055900    1.884200
  H      0.388300   -2.363100    0.699400
  H     -2.111300    0.016100    2.095100
  H     -4.563200   -0.130900    1.680100
  H     -6.527000   -1.498900    0.077200
  H     -6.246800   -3.388500   -1.793800
  H     -3.737900   -3.950700   -2.046900
  H     -1.425300   -3.057800   -0.892700
  H      2.983700   -3.394100   -0.791100
  H      5.038500   -3.941900    0.421700
  H      8.286400   -1.418900    2.871200
  H      5.568000    0.237800    1.388800
  H      3.509200    0.771100    0.168300
  H      0.975500    3.448800    2.172100
  H     -0.172200    5.552800    1.612200
  H     -1.745100    6.805000    0.189400
  H     -2.892700    5.683000   -1.692000
  H     -2.486300    3.325200   -2.172500

 Total Charge           Charge          ....    0
 Multiplicity           Mult            ....    1
 Number of Electrons    NEL             ....  246
 Basis Dimension        Dim             ....  522

ORBITAL ENERGIES
----------------

  NO   OCC          E(Eh)            E(eV)
   0   2.0000     -89.091270     -2424.2967
   1   2.0000     -19.191931      -522.2390
   2   2.0000     -19.132996      -520.6353
   3   2.0000     -19.122622      -520.3530
   4   2.0000     -19.120568      -520.2971
   5   2.0000     -14.376170      -391.1955
   6   2.0000     -14.361632      -390.7999
   7   2.0000     -14.327854      -389.8807
   8   2.0000     -10.330486      -281.1068
   9   2.0000     -10.250863      -278.9402
  10   2.0000     -10.234657      -278.4992
  11   2.0000     -10.225485      -278.2496
  12   2.0000     -10.221393      -278.1382
  13   2.0000     -10.220246      -278.1070
  14   2.0000     -10.213303      -277.9181
  15   2.0000     -10.212307      -277.8910
  16   2.0000     -10.211009      -277.8557
  17   2.0000     -10.210588      -277.8442
  18   2.0000     -10.207417      -277.7579
  19   2.0000     -10.202941      -277.6361
  20   2.0000     -10.200379      -277.5664
  21   2.0000     -10.199573      -277.5445
  22   2.0000     -10.195990      -277.4470
  23   2.0000     -10.193813      -277.3877
  24   2.0000     -10.193398      -277.3765
  25   2.0000     -10.192271      -277.3458
  26   2.0000     -10.191095      -277.3138
  27   2.0000     -10.178825      -276.9799
  28   2.0000     -10.173087      -276.8238
  29   2.0000     -10.169727      -276.7323
  30   2.0000     -10.168740      -276.7055
  31   2.0000     -10.165327      -276.6126
  32   2.0000     -10.160856      -276.4909
  33   2.0000     -10.156593      -276.3750
  34   2.0000      -8.127024      -221.1476
  35   2.0000      -6.091935      -165.7700
  36   2.0000      -6.090164      -165.7218
  37   2.0000      -6.089683      -165.7087
  38   2.0000      -1.078561       -29.3491
  39   2.0000      -1.076283       -29.2871
  40   2.0000      -0.994183       -27.0531
  41   2.0000      -0.990322       -26.9480
  42   2.0000      -0.958757       -26.0891
  43   2.0000      -0.955217       -25.9928
  44   2.0000      -0.907618       -24.6975
  45   2.0000      -0.883326       -24.0365
  46   2.0000      -0.859711       -23.3939
  47   2.0000      -0.836391       -22.7594
  48   2.0000      -0.802923       -21.8487
  49   2.0000      -0.798532       -21.7292
  50   2.0000      -0.786953       -21.4141
  51   2.0000      -0.770989       -20.9797
  52   2.0000      -0.769570       -20.9411
  53   2.0000      -0.744471       -20.2581
  54   2.0000      -0.735046       -20.0016
  55   2.0000      -0.725192       -19.7335
  56   2.0000      -0.704372       -19.1669
  57   2.0000      -0.687479       -18.7073
  58   2.0000      -0.669826       -18.2269
  59   2.0000      -0.648258       -17.6400
  60   2.0000      -0.639027       -17.3888
  61   2.0000      -0.630470       -17.1560
  62   2.0000      -0.623264       -16.9599
  63   2.0000      -0.611931       -16.6515
  64   2.0000      -0.591896       -16.1063
  65   2.0000      -0.589434       -16.0393
  66   2.0000      -0.585584       -15.9346
  67   2.0000      -0.569890       -15.5075
  68   2.0000      -0.555202       -15.1078
  69   2.0000      -0.539140       -14.6708
  70   2.0000      -0.533764       -14.5245
  71   2.0000      -0.526023       -14.3138
  72   2.0000      -0.504899       -13.7390
  73   2.0000      -0.496251       -13.5037
  74   2.0000      -0.487542       -13.2667
  75   2.0000      -0.482072       -13.1178
  76   2.0000      -0.475349       -12.9349
  77   2.0000      -0.469135       -12.7658
  78   2.0000      -0.466024       -12.6812
  79   2.0000      -0.455845       -12.4042
  80   2.0000      -0.453074       -12.3288
  81   2.0000      -0.450632       -12.2623
  82   2.0000      -0.443506       -12.0684
  83   2.0000      -0.441639       -12.0176
  84   2.0000      -0.439475       -11.9587
  85   2.0000      -0.437072       -11.8933
  86   2.0000      -0.427760       -11.6400
  87   2.0000      -0.425567       -11.5803
  88   2.0000      -0.424112       -11.5407
  89   2.0000      -0.420605       -11.4452
  90   2.0000      -0.417194       -11.3524
  91   2.0000      -0.413696       -11.2572
  92   2.0000      -0.409560       -11.1447
  93   2.0000      -0.396572       -10.7913
  94   2.0000      -0.389487       -10.5985
  95   2.0000      -0.387506       -10.5446
  96   2.0000      -0.385645       -10.4939
  97   2.0000      -0.379509       -10.3270
  98   2.0000      -0.376418       -10.2429
  99   2.0000      -0.371800       -10.1172
 100   2.0000      -0.363059        -9.8793
 101   2.0000      -0.359902        -9.7934
 102   2.0000      -0.351168        -9.5558
 103   2.0000      -0.347976        -9.4689
 104   2.0000      -0.345435        -9.3998
 105   2.0000      -0.336830        -9.1656
 106   2.0000      -0.325909        -8.8684
 107   2.0000      -0.318703        -8.6723
 108   2.0000      -0.316001        -8.5988
 109   2.0000      -0.301868        -8.2143
 110   2.0000      -0.294572        -8.0157
 111   2.0000      -0.283602        -7.7172
 112   2.0000      -0.277539        -7.5522
 113   2.0000      -0.272807        -7.4235
 114   2.0000      -0.271830        -7.3969
 115   2.0000      -0.271296        -7.3823
 116   2.0000      -0.269341        -7.3292
 117   2.0000      -0.261656        -7.1200
 118   2.0000      -0.250173        -6.8075
 119   2.0000      -0.244291        -6.6475
 120   2.0000      -0.221548        -6.0286
 121   2.0000      -0.215124        -5.8538
 122   2.0000      -0.192000        -5.2246
 123   0.0000      -0.076955        -2.0941
 124   0.0000      -0.055866        -1.5202
 125   0.0000      -0.028054        -0.7634
 126   0.0000      -0.023372        -0.6360
 127   0.0000      -0.008354        -0.2273

MULLIKEN ATOMIC CHARGES
-----------------------
   0 C :   -0.543238
   1 C :    0.138663
   2 C :    0.308511
   3 N :   -0.605422
   4 C :   -0.244360
   5 C :    0.146036
   6 C :   -0.194831
   7 C :   -0.203307
   8 C :    0.159884
   9 C :   -0.232899
  10 C :    0.017233
  11 N :   -0.622149
  12 C :    0.300373
  13 C :   -0.231452
  14 S :    1.222931
  15 O :   -0.561431
  16 O :   -0.548337
  17 C :   -0.124074
  18 C :   -0.153145
  19 C :   -0.139520
  20 C :    0.082440
  21 C :    0.527324
  22 O :   -0.446686
  23 O :   -0.623834
  24 C :   -0.149212
  25 C :   -0.133767
  26 N :   -0.402766
  27 C :   -0.061299
  28 C :    0.140312
  29 C :   -0.204531
  30 C :   -0.125945
  31 C :   -0.121548
  32 C :   -0.193244
  33 C :    0.115597
  34 H :    0.165545
  35 H :    0.200624
  36 H :    0.162183
  37 H :    0.169221
  38 H :    0.166040
  39 H :    0.123135
  40 H :    0.123036
  41 H :    0.125268
  42 H :    0.142115
  43 H :    0.340425
  44 H :    0.141326
  45 H :    0.183124
  46 H :    0.177717
  47 H :    0.432785
  48 H :    0.171223
  49 H :    0.186219
  50 H :    0.147369
  51 H :    0.135947
  52 H :    0.134235
  53 H :    0.136586
  54 H :    0.143570
Sum of atomic charges:   -0.0000000

LOEWDIN ATOMIC CHARGES
----------------------
   0 C :   -0.360640
   1 C :    0.012722
   2 C :    0.025889
   3 N :   -0.278067
   4 C :   -0.145954
   5 C :   -0.045481
   6 C :   -0.150263
   7 C :   -0.133063
   8 C :   -0.043098
   9 C :   -0.194072
  10 C :   -0.102476
  11 N :   -0.109784
  12 C :    0.000947
  13 C :   -0.146990
  14 S :    1.263058
  15 O :   -0.583250
  16 O :   -0.570466
  17 C :   -0.174534
  18 C :   -0.109176
  19 C :   -0.087674
  20 C :   -0.041061
  21 C :    0.179935
  22 O :   -0.262859
  23 O :   -0.335177
  24 C :   -0.099056
  25 C :   -0.095716
  26 N :   -0.139720
  27 C :   -0.067420
  28 C :   -0.027532
  29 C :   -0.114178
  30 C :   -0.126041
  31 C :   -0.118852
  32 C :   -0.117586
  33 C :   -0.006021
  34 H :    0.140292
  35 H :    0.153168
  36 H :    0.137977
  37 H :    0.132810
  38 H :    0.139839
  39 H :    0.129395
  40 H :    0.131220
  41 H :    0.133825
  42 H :    0.132086
  43 H :    0.270746
  44 H :    0.138005
  45 H :    0.159720
  46 H :    0.159010
  47 H :    0.348884
  48 H :    0.154095
  49 H :    0.160504
  50 H :    0.134428
  51 H :    0.135596
  52 H :    0.134598
  53 H :    0.136023
  54 H :    0.141438

  Mayer bond orders larger than 0.100000
B(  0-C ,  1-C ) :   1.0109 B(  0-C , 34-H ) :   0.9239 B(  0-C , 35-H ) :   0.9164
B(  0-C , 36-H ) :   0.9232 B(  1-C ,  2-C ) :   1.4336 B(  1-C , 27-C ) :   0.1005
B(  1-C , 33-C ) :   1.2619 B(  2-C ,  3-N ) :   0.8939 B(  2-C , 26-N ) :   1.2758
B(  3-N ,  4-C ) :   0.9124 B(  3-N , 14-S ) :   0.8158 B(  4-C ,  5-C ) :   0.9584
B(  4-C , 37-H ) :   0.9205 B(  4-C , 38-H ) :   0.9213 B(  5-C ,  6-C ) :   1.3615
B(  5-C , 13-C ) :   1.4541 B(  6-C ,  7-C ) :   1.4619 B(  6-C , 39-H ) :   0.9245
B(  7-C ,  8-C ) :   1.3353 B(  7-C , 13-C ) :   0.1010 B(  7-C , 40-H ) :   0.9267
B(  8-C ,  9-C ) :   1.2976 B(  8-C , 12-C ) :   1.3330 B(  9-C , 10-C ) :   1.5645
B(  9-C , 41-H ) :   0.9317 B( 10-C , 11-N ) :   1.1250 B( 10-C , 42-H ) :   0.9328
B( 11-N , 12-C ) :   1.0118 B( 11-N , 43-H ) :   0.8334 B( 12-C , 13-C ) :   1.3368
B( 13-C , 44-H ) :   0.9098 B( 14-S , 15-O ) :   1.6049 B( 14-S , 16-O ) :   1.6442
B( 14-S , 17-C ) :   0.8105 B( 17-C , 18-C ) :   1.3897 B( 17-C , 25-C ) :   1.3907
B( 18-C , 19-C ) :   1.4136 B( 18-C , 45-H ) :   0.9095 B( 19-C , 20-C ) :   1.4054
B( 19-C , 46-H ) :   0.9103 B( 20-C , 21-C ) :   1.0091 B( 20-C , 24-C ) :   1.3782
B( 21-C , 22-O ) :   1.8616 B( 21-C , 23-O ) :   1.0237 B( 23-O , 47-H ) :   0.7427
B( 24-C , 25-C ) :   1.4277 B( 24-C , 48-H ) :   0.9155 B( 25-C , 49-H ) :   0.9056
B( 26-N , 27-C ) :   1.4925 B( 27-C , 28-C ) :   1.2423 B( 27-C , 50-H ) :   0.9271
B( 28-C , 29-C ) :   1.2831 B( 28-C , 33-C ) :   1.2909 B( 29-C , 30-C ) :   1.5129
B( 29-C , 32-C ) :   0.1062 B( 29-C , 51-H ) :   0.9238 B( 30-C , 31-C ) :   1.3526
B( 30-C , 52-H ) :   0.9296 B( 31-C , 32-C ) :   1.5076 B( 31-C , 53-H ) :   0.9293
B( 32-C , 33-C ) :   1.2963 B( 32-C , 54-H ) :   0.9149

FINAL SINGLE POINT ENERGY     -1865.717295563602

DIPOLE MOMENT
-------------

Method             : SCF
Type of density    : Electron Density
Multiplicity       :   1
Irrep              :   0
Energy             : -1865.7172955636024199 Eh
Relativity type    :
Basis              : AO
                                X                 Y                 Z
Electronic contribution:     16.974643515      -6.465746673       0.719129226
Nuclear contribution   :    -17.905347425       7.242104052       0.114996662
                        -----------------------------------------
Total Dipole Moment    :     -0.930703911       0.776357379       0.834125888
                        -----------------------------------------
Magnitude (a.u.)       :      1.471294174
Magnitude (Debye)      :      3.739732589

Rotational constants in cm-1:             0.005028             0.002484             0.001871
Rotational constants in MHz :           150.729020            74.482906            56.080086

                             ****ORCA TERMINATED NORMALLY****
TOTAL RUN TIME: 0 days 0 hours 11 minutes 26 seconds 8 msec
