                         Program Version 6.0.0  -   RELEASE  -
|  1> ! B3LYP 6-31G* SP
|  2>
|  3> * xyz 0 1
|  4> N 0.5911 -2.6646 -2.9736
|  5> C 1.4999 -2.3670 -1.9110
|  6> O 2.7387 -2.3096 -2.1517
|  7> C 0.9647 -2.0728 -0.5256
|  8> C 2.0412 -2.1361 0.5476
|  9> C 2.0169 -3.1709 1.5070
| 10> C 2.9637 -3.2061 2.5352
| 11> C 3.9459 -2.2161 2.6176
| 12> C 3.9858 -1.1893 1.6692
| 13> C 3.0415 -1.1480 0.6392
| 14> N 0.2205 -0.7941 -0.4521
| 15> C 0.4344 0.2697 -1.4196
| 16> O 1.5944 0.5063 -1.8524
| 17> C -0.6688 1.1167 -1.9018
| 18> C -0.6255 2.5038 -1.7047
| 19> C -1.6746 3.3050 -2.1565
| 20> C -2.7434 2.7122 -2.8317
| 21> N -2.7501 1.3701 -3.0536
| 22> C -1.7449 0.5670 -2.6109
| 23> C -0.6695 -0.6145 0.7215
| 24> C -2.1384 -0.9712 0.4001
| 25> C -2.9881 0.2883 0.6647
| 26> C -2.0136 1.2874 1.1694
| 27> C -2.2868 2.6040 1.5526
| 28> F -3.5503 3.0937 1.4962
| 29> C -1.2275 3.4168 1.9865
| 30> C 0.0817 2.9039 2.0364
| 31> F 1.1025 3.6941 2.4525
| 32> C 0.3352 1.5791 1.6463
| 33> C -0.7322 0.7929 1.2007
| 34> H 0.9469 -2.8216 -3.9422
| 35> H -0.4402 -2.6860 -2.8037
| 36> H 0.2300 -2.8858 -0.3288
| 37> H 1.2542 -3.9412 1.4726
| 38> H 2.9275 -3.9969 3.2794
| 39> H 4.6709 -2.2390 3.4208
| 40> H 4.7380 -0.4105 1.7432
| 41> H 3.0872 -0.3337 -0.0710
| 42> H 0.2091 2.9586 -1.1817
| 43> H -1.6596 4.3743 -1.9845
| 44> H -3.5628 3.3205 -3.1898
| 45> H -1.7797 -0.4936 -2.8223
| 46> H -0.3250 -1.2440 1.5727
| 47> H -2.2603 -1.3220 -0.6441
| 48> H -2.4767 -1.7942 1.0675
| 49> H -3.7659 0.0909 1.4332
| 50> H -3.4607 0.6537 -0.2718
| 51> H -1.4179 4.4414 2.2798
| 52> H 1.3404 1.1786 1.6733
| 53> *
| 54>
| 55>                          ****END OF INPUT****

CARTESIAN COORDINATES (ANGSTROEM)
---------------------------------
  N      0.591100   -2.664600   -2.973600
  C      1.499900   -2.367000   -1.911000
  O      2.738700   -2.309600   -2.151700
  C      0.964700   -2.072800   -0.525600
  C      2.041200   -2.136100    0.547600
  C      2.016900   -3.170900    1.507000
  C      2.963700   -3.206100    2.535200
  C      3.945900   -2.216100    2.617600
  C      3.985800   -1.189300    1.669200
  C      3.041500   -1.148000    0.639200
  N      0.220500   -0.794100   -0.452100
  C      0.434400    0.269700   -1.419600
  O      1.594400    0.506300   -1.852400
  C     -0.668800    1.116700   -1.901800
  C     -0.625500    2.503800   -1.704700
  C     -1.674600    3.305000   -2.156500
  C     -2.743400    2.712200   -2.831700
  N     -2.750100    1.370100   -3.053600
  C     -1.744900    0.567000   -2.610900
  C     -0.669500   -0.614500    0.721500
  C     -2.138400   -0.971200    0.400100
  C     -2.988100    0.288300    0.664700
  C     -2.013600    1.287400    1.169400
  C     -2.286800    2.604000    1.552600
  F     -3.550300    3.093700    1.496200
  C     -1.227500    3.416800    1.986500
  C      0.081700    2.903900    2.036400
  F      1.102500    3.694100    2.452500
  C      0.335200    1.579100    1.646300
  C     -0.732200    0.792900    1.200700
  H      0.946900   -2.821600   -3.942200
  H     -0.440200   -2.686000   -2.803700
  H      0.230000   -2.885800   -0.328800
  H      1.254200   -3.941200    1.472600
  H      2.927500   -3.996900    3.279400
  H      4.670900   -2.239000    3.420800
  H      4.738000   -0.410500    1.743200
  H      3.087200   -0.333700   -0.071000
  H      0.209100    2.958600   -1.181700
  H     -1.659600    4.374300   -1.984500
  H     -3.562800    3.320500   -3.189800
  H     -1.779700   -0.493600   -2.822300
  H     -0.325000   -1.244000    1.572700
  H     -2.260300   -1.322000   -0.644100
  H     -2.476700   -1.794200    1.067500
  H     -3.765900    0.090900    1.433200
  H     -3.460700    0.653700   -0.271800
  H     -1.417900    4.441400    2.279800
  H      1.340400    1.178600    1.673300

 Total Charge           Charge          ....    0
 Multiplicity           Mult            ....    1
 Number of Electrons    NEL             ....  212
 Basis Dimension        Dim             ....  458

ORBITAL ENERGIES
----------------

  NO   OCC          E(Eh)            E(eV)
   0   2.0000     -24.712824      -672.4701
   1   2.0000     -24.707583      -672.3275
   2   2.0000     -19.129989      -520.5535
   3   2.0000     -19.108827      -519.9776
   4   2.0000     -14.362698      -390.8289
   5   2.0000     -14.359014      -390.7286
   6   2.0000     -14.338974      -390.1833
   7   2.0000     -10.302625      -280.3487
   8   2.0000     -10.295178      -280.1460
   9   2.0000     -10.283833      -279.8373
  10   2.0000     -10.282738      -279.8075
  11   2.0000     -10.245281      -278.7883
  12   2.0000     -10.238929      -278.6154
  13   2.0000     -10.236043      -278.5369
  14   2.0000     -10.231403      -278.4106
  15   2.0000     -10.214002      -277.9371
  16   2.0000     -10.212378      -277.8929
  17   2.0000     -10.203971      -277.6642
  18   2.0000     -10.203086      -277.6401
  19   2.0000     -10.202509      -277.6244
  20   2.0000     -10.197229      -277.4807
  21   2.0000     -10.195889      -277.4442
  22   2.0000     -10.191761      -277.3319
  23   2.0000     -10.191643      -277.3287
  24   2.0000     -10.191038      -277.3122
  25   2.0000     -10.183465      -277.1062
  26   2.0000     -10.179625      -277.0017
  27   2.0000     -10.178060      -276.9591
  28   2.0000     -10.176471      -276.9159
  29   2.0000     -10.173224      -276.8275
  30   2.0000      -1.224732       -33.3267
  31   2.0000      -1.220208       -33.2036
  32   2.0000      -1.027881       -27.9701
  33   2.0000      -1.004827       -27.3427
  34   2.0000      -0.939803       -25.5734
  35   2.0000      -0.936278       -25.4774
  36   2.0000      -0.887475       -24.1494
  37   2.0000      -0.879127       -23.9223
  38   2.0000      -0.846267       -23.0281
  39   2.0000      -0.824104       -22.4250
  40   2.0000      -0.814426       -22.1617
  41   2.0000      -0.784730       -21.3536
  42   2.0000      -0.776258       -21.1231
  43   2.0000      -0.760373       -20.6908
  44   2.0000      -0.737786       -20.0762
  45   2.0000      -0.734432       -19.9849
  46   2.0000      -0.714214       -19.4348
  47   2.0000      -0.698085       -18.9959
  48   2.0000      -0.659128       -17.9358
  49   2.0000      -0.642461       -17.4822
  50   2.0000      -0.635749       -17.2996
  51   2.0000      -0.617347       -16.7989
  52   2.0000      -0.602803       -16.4031
  53   2.0000      -0.598418       -16.2838
  54   2.0000      -0.595599       -16.2071
  55   2.0000      -0.582725       -15.8567
  56   2.0000      -0.556014       -15.1299
  57   2.0000      -0.549543       -14.9538
  58   2.0000      -0.528577       -14.3833
  59   2.0000      -0.525275       -14.2935
  60   2.0000      -0.523992       -14.2585
  61   2.0000      -0.514544       -14.0015
  62   2.0000      -0.510318       -13.8865
  63   2.0000      -0.503118       -13.6905
  64   2.0000      -0.495574       -13.4853
  65   2.0000      -0.493083       -13.4175
  66   2.0000      -0.487097       -13.2546
  67   2.0000      -0.474106       -12.9011
  68   2.0000      -0.468789       -12.7564
  69   2.0000      -0.459635       -12.5073
  70   2.0000      -0.458011       -12.4631
  71   2.0000      -0.454861       -12.3774
  72   2.0000      -0.449105       -12.2208
  73   2.0000      -0.437468       -11.9041
  74   2.0000      -0.431180       -11.7330
  75   2.0000      -0.427319       -11.6279
  76   2.0000      -0.423010       -11.5107
  77   2.0000      -0.422352       -11.4928
  78   2.0000      -0.412420       -11.2225
  79   2.0000      -0.408673       -11.1205
  80   2.0000      -0.400315       -10.8931
  81   2.0000      -0.396232       -10.7820
  82   2.0000      -0.390989       -10.6394
  83   2.0000      -0.388411       -10.5692
  84   2.0000      -0.382460       -10.4073
  85   2.0000      -0.378288       -10.2937
  86   2.0000      -0.372023       -10.1233
  87   2.0000      -0.364824        -9.9274
  88   2.0000      -0.361109        -9.8263
  89   2.0000      -0.358170        -9.7463
  90   2.0000      -0.355833        -9.6827
  91   2.0000      -0.350198        -9.5294
  92   2.0000      -0.342150        -9.3104
  93   2.0000      -0.337890        -9.1944
  94   2.0000      -0.334667        -9.1068
  95   2.0000      -0.294234        -8.0065
  96   2.0000      -0.281444        -7.6585
  97   2.0000      -0.269917        -7.3448
  98   2.0000      -0.261187        -7.1073
  99   2.0000      -0.258904        -7.0451
 100   2.0000      -0.250475        -6.8158
 101   2.0000      -0.247436        -6.7331
 102   2.0000      -0.244279        -6.6472
 103   2.0000      -0.242023        -6.5858
 104   2.0000      -0.238113        -6.4794
 105   2.0000      -0.228249        -6.2110
 106   0.0000      -0.051498        -1.4013
 107   0.0000      -0.033770        -0.9189
 108   0.0000      -0.024603        -0.6695
 109   0.0000      -0.010408        -0.2832
 110   0.0000      -0.003629        -0.0987

MULLIKEN ATOMIC CHARGES
-----------------------
   0 N :   -0.768145
   1 C :    0.558232
   2 O :   -0.446956
   3 C :   -0.134268
   4 C :    0.172218
   5 C :   -0.188322
   6 C :   -0.125798
   7 C :   -0.122004
   8 C :   -0.135804
   9 C :   -0.153158
  10 N :   -0.446836
  11 C :    0.423897
  12 O :   -0.429224
  13 C :    0.087727
  14 C :   -0.102267
  15 C :   -0.139037
  16 C :    0.024293
  17 N :   -0.372400
  18 C :   -0.009628
  19 C :   -0.037304
  20 C :   -0.295466
  21 C :   -0.345874
  22 C :    0.026530
  23 C :    0.378597
  24 F :   -0.309976
  25 C :   -0.299599
  26 C :    0.423437
  27 F :   -0.314979
  28 C :   -0.269875
  29 C :    0.101961
  30 H :    0.357388
  31 H :    0.330279
  32 H :    0.148081
  33 H :    0.118693
  34 H :    0.126270
  35 H :    0.127403
  36 H :    0.132849
  37 H :    0.176403
  38 H :    0.167781
  39 H :    0.145262
  40 H :    0.157489
  41 H :    0.139446
  42 H :    0.177281
  43 H :    0.141868
  44 H :    0.144146
  45 H :    0.159560
  46 H :    0.175871
  47 H :    0.158641
  48 H :    0.165317
Sum of atomic charges:   -0.0000000

LOEWDIN ATOMIC CHARGES
----------------------
   0 N :   -0.404506
   1 C :    0.142726
   2 O :   -0.259694
   3 C :   -0.060198
   4 C :   -0.018637
   5 C :   -0.140681
   6 C :   -0.133023
   7 C :   -0.126904
   8 C :   -0.129941
   9 C :   -0.111371
  10 N :   -0.113687
  11 C :    0.145674
  12 O :   -0.235270
  13 C :   -0.054344
  14 C :   -0.072842
  15 C :   -0.140153
  16 C :   -0.062015
  17 N :   -0.136206
  18 C :   -0.065910
  19 C :   -0.046949
  20 C :   -0.231274
  21 C :   -0.224360
  22 C :   -0.052961
  23 C :    0.121244
  24 F :   -0.097856
  25 C :   -0.187405
  26 C :    0.120754
  27 F :   -0.099542
  28 C :   -0.164915
  29 C :   -0.024517
  30 H :    0.269165
  31 H :    0.245491
  32 H :    0.131895
  33 H :    0.125586
  34 H :    0.130314
  35 H :    0.130876
  36 H :    0.133337
  37 H :    0.153364
  38 H :    0.151763
  39 H :    0.141133
  40 H :    0.138828
  41 H :    0.129637
  42 H :    0.147771
  43 H :    0.124220
  44 H :    0.125519
  45 H :    0.135879
  46 H :    0.142197
  47 H :    0.153416
  48 H :    0.154374

  Mayer bond orders larger than 0.100000
B(  0-N ,  1-C ) :   1.0553 B(  0-N , 30-H ) :   0.8200 B(  0-N , 31-H ) :   0.8272
B(  1-C ,  2-O ) :   1.8819 B(  1-C ,  3-C ) :   0.9200 B(  3-C ,  4-C ) :   0.9436
B(  3-C , 10-N ) :   0.9328 B(  3-C , 32-H ) :   0.9075 B(  4-C ,  5-C ) :   1.4198
B(  4-C ,  9-C ) :   1.4296 B(  5-C ,  6-C ) :   1.4321 B(  5-C , 33-H ) :   0.9241
B(  6-C ,  7-C ) :   1.4664 B(  6-C , 34-H ) :   0.9299 B(  7-C ,  8-C ) :   1.4378
B(  7-C , 35-H ) :   0.9306 B(  8-C ,  9-C ) :   1.4336 B(  8-C , 36-H ) :   0.9300
B(  9-C , 37-H ) :   0.8960 B( 10-N , 11-C ) :   1.0232 B( 10-N , 19-C ) :   0.9126
B( 11-C , 12-O ) :   1.8170 B( 11-C , 13-C ) :   0.9376 B( 13-C , 14-C ) :   1.4110
B( 13-C , 18-C ) :   1.3697 B( 14-C , 15-C ) :   1.4434 B( 14-C , 38-H ) :   0.9144
B( 15-C , 16-C ) :   1.4098 B( 15-C , 39-H ) :   0.9230 B( 16-C , 17-N ) :   1.4275
B( 16-C , 40-H ) :   0.9291 B( 17-N , 18-C ) :   1.4127 B( 18-C , 41-H ) :   0.9230
B( 19-C , 20-C ) :   0.9545 B( 19-C , 29-C ) :   0.9911 B( 19-C , 42-H ) :   0.9077
B( 20-C , 21-C ) :   0.9859 B( 20-C , 43-H ) :   0.9409 B( 20-C , 44-H ) :   0.9447
B( 21-C , 22-C ) :   0.9793 B( 21-C , 45-H ) :   0.9315 B( 21-C , 46-H ) :   0.9210
B( 22-C , 23-C ) :   1.3166 B( 22-C , 29-C ) :   1.4663 B( 23-C , 24-F ) :   0.9413
B( 23-C , 25-C ) :   1.3650 B( 25-C , 26-C ) :   1.3500 B( 25-C , 47-H ) :   0.9121
B( 26-C , 27-F ) :   0.9061 B( 26-C , 28-C ) :   1.3762 B( 28-C , 29-C ) :   1.3744
B( 28-C , 48-H ) :   0.9034

FINAL SINGLE POINT ENERGY     -1401.419309182879

DIPOLE MOMENT
-------------

Method             : SCF
Type of density    : Electron Density
Multiplicity       :   1
Irrep              :   0
Energy             : -1401.4193091828788056 Eh
Relativity type    :
Basis              : AO
                                X                 Y                 Z
Electronic contribution:     -1.723981686      17.228830572       3.403118015
Nuclear contribution   :      0.075156686     -17.547126357      -2.738877625
                        -----------------------------------------
Total Dipole Moment    :     -1.648825001      -0.318295785       0.664240390
                        -----------------------------------------
Magnitude (a.u.)       :      1.805865827
Magnitude (Debye)      :      4.590146147

Rotational constants in cm-1:             0.007754             0.004525             0.003581
Rotational constants in MHz :           232.459003           135.669099           107.348985

                             ****ORCA TERMINATED NORMALLY****
TOTAL RUN TIME: 0 days 0 hours 6 minutes 10 seconds 921 msec
