                         Program Version 6.0.0  -   RELEASE  -
|  1> ! B3LYP 6-31G* SP
|  2>
|  3> * xyz 0 1
|  4> O -6.6046 -2.9558 -0.4767
|  5> C -6.2649 -1.8067 -0.8690
|  6> O -7.2511 -0.8730 -1.1778
|  7> C -4.8346 -1.4510 -0.9973
|  8> C -4.4581 -0.1754 -1.4513
|  9> C -3.1074 0.1638 -1.5724
| 10> C -2.1122 -0.7635 -1.2343
| 11> S -0.4055 -0.3446 -1.3692
| 12> O 0.2996 -1.4205 -2.1458
| 13> O -0.2455 0.9454 -2.1255
| 14> N 0.3031 -0.1768 0.2186
| 15> C 0.8489 -1.3624 0.8929
| 16> C 2.0892 -1.8673 0.2006
| 17> C 2.1129 -3.1523 -0.3644
| 18> C 3.2634 -3.6216 -1.0036
| 19> C 4.4104 -2.8239 -1.0835
| 20> O 5.5385 -3.3487 -1.7346
| 21> C 6.7882 -2.6788 -1.8869
| 22> F 7.3282 -2.3901 -0.6461
| 23> F 7.6592 -3.5050 -2.5703
| 24> F 6.6193 -1.5122 -2.6112
| 25> C 4.3907 -1.5375 -0.5110
| 26> C 3.2389 -1.0663 0.1260
| 27> C 0.3240 1.1033 0.8845
| 28> C -0.7333 2.0156 0.7378
| 29> C -0.6947 3.2526 1.4037
| 30> C -1.7360 4.2010 1.2792
| 31> Cl -3.1589 3.9120 0.2796
| 32> C -1.6521 5.4192 1.9641
| 33> C -0.5491 5.7051 2.7706
| 34> C 0.4840 4.7764 2.9031
| 35> C 0.4186 3.5510 2.2251
| 36> C 1.4444 2.6080 2.3552
| 37> N 1.3701 1.4245 1.6943
| 38> C -2.4818 -2.0387 -0.7904
| 39> C -3.8316 -2.3811 -0.6702
| 40> H -8.2334 -1.1063 -1.0927
| 41> H -5.2061 0.5618 -1.7138
| 42> H -2.8426 1.1517 -1.9266
| 43> H 0.0662 -2.1486 0.9281
| 44> H 1.1003 -1.1370 1.9519
| 45> H 1.2392 -3.7907 -0.3162
| 46> H 3.2651 -4.6136 -1.4375
| 47> H 5.2570 -0.8927 -0.5503
| 48> H 3.2478 -0.0766 0.5616
| 49> H -1.5825 1.7508 0.1300
| 50> H -2.4463 6.1491 1.8723
| 51> H -0.4956 6.6498 3.2959
| 52> H 1.3315 5.0142 3.5350
| 53> H 2.3042 2.8087 2.9822
| 54> H -1.7259 -2.7719 -0.5420
| 55> H -4.0891 -3.3733 -0.3219
| 56> *
| 57>
| 58>                          ****END OF INPUT****

CARTESIAN COORDINATES (ANGSTROEM)
---------------------------------
  O     -6.604600   -2.955800   -0.476700
  C     -6.264900   -1.806700   -0.869000
  O     -7.251100   -0.873000   -1.177800
  C     -4.834600   -1.451000   -0.997300
  C     -4.458100   -0.175400   -1.451300
  C     -3.107400    0.163800   -1.572400
  C     -2.112200   -0.763500   -1.234300
  S     -0.405500   -0.344600   -1.369200
  O      0.299600   -1.420500   -2.145800
  O     -0.245500    0.945400   -2.125500
  N      0.303100   -0.176800    0.218600
  C      0.848900   -1.362400    0.892900
  C      2.089200   -1.867300    0.200600
  C      2.112900   -3.152300   -0.364400
  C      3.263400   -3.621600   -1.003600
  C      4.410400   -2.823900   -1.083500
  O      5.538500   -3.348700   -1.734600
  C      6.788200   -2.678800   -1.886900
  F      7.328200   -2.390100   -0.646100
  F      7.659200   -3.505000   -2.570300
  F      6.619300   -1.512200   -2.611200
  C      4.390700   -1.537500   -0.511000
  C      3.238900   -1.066300    0.126000
  C      0.324000    1.103300    0.884500
  C     -0.733300    2.015600    0.737800
  C     -0.694700    3.252600    1.403700
  C     -1.736000    4.201000    1.279200
  Cl    -3.158900    3.912000    0.279600
  C     -1.652100    5.419200    1.964100
  C     -0.549100    5.705100    2.770600
  C      0.484000    4.776400    2.903100
  C      0.418600    3.551000    2.225100
  C      1.444400    2.608000    2.355200
  N      1.370100    1.424500    1.694300
  C     -2.481800   -2.038700   -0.790400
  C     -3.831600   -2.381100   -0.670200
  H     -8.233400   -1.106300   -1.092700
  H     -5.206100    0.561800   -1.713800
  H     -2.842600    1.151700   -1.926600
  H      0.066200   -2.148600    0.928100
  H      1.100300   -1.137000    1.951900
  H      1.239200   -3.790700   -0.316200
  H      3.265100   -4.613600   -1.437500
  H      5.257000   -0.892700   -0.550300
  H      3.247800   -0.076600    0.561600
  H     -1.582500    1.750800    0.130000
  H     -2.446300    6.149100    1.872300
  H     -0.495600    6.649800    3.295900
  H      1.331500    5.014200    3.535000
  H      2.304200    2.808700    2.982200
  H     -1.725900   -2.771900   -0.542000
  H     -4.089100   -3.373300   -0.321900

 Total Charge           Charge          ....    0
 Multiplicity           Mult            ....    1
 Number of Electrons    NEL             ....  274
 Basis Dimension        Dim             ....  544

ORBITAL ENERGIES
----------------

  NO   OCC          E(Eh)            E(eV)
   0   2.0000    -101.543515     -2763.1395
   1   2.0000     -89.108875     -2424.7758
   2   2.0000     -24.732303      -673.0002
   3   2.0000     -24.729782      -672.9316
   4   2.0000     -24.728712      -672.9025
   5   2.0000     -19.201316      -522.4944
   6   2.0000     -19.200663      -522.4766
   7   2.0000     -19.143161      -520.9119
   8   2.0000     -19.135845      -520.7128
   9   2.0000     -19.133562      -520.6507
  10   2.0000     -14.389505      -391.5583
  11   2.0000     -14.347670      -390.4200
  12   2.0000     -10.494018      -285.5568
  13   2.0000     -10.340558      -281.3809
  14   2.0000     -10.280661      -279.7510
  15   2.0000     -10.262493      -279.2566
  16   2.0000     -10.255309      -279.0611
  17   2.0000     -10.251220      -278.9499
  18   2.0000     -10.242849      -278.7221
  19   2.0000     -10.238504      -278.6039
  20   2.0000     -10.237749      -278.5833
  21   2.0000     -10.229650      -278.3629
  22   2.0000     -10.226520      -278.2778
  23   2.0000     -10.225081      -278.2386
  24   2.0000     -10.224958      -278.2353
  25   2.0000     -10.223840      -278.2048
  26   2.0000     -10.213652      -277.9276
  27   2.0000     -10.213371      -277.9200
  28   2.0000     -10.208549      -277.7887
  29   2.0000     -10.207258      -277.7536
  30   2.0000     -10.203174      -277.6425
  31   2.0000     -10.186840      -277.1980
  32   2.0000     -10.185109      -277.1509
  33   2.0000     -10.183478      -277.1065
  34   2.0000     -10.182528      -277.0807
  35   2.0000     -10.179473      -276.9975
  36   2.0000      -9.474871      -257.8243
  37   2.0000      -8.144414      -221.6208
  38   2.0000      -7.237943      -196.9544
  39   2.0000      -7.228503      -196.6976
  40   2.0000      -7.228221      -196.6899
  41   2.0000      -6.109724      -166.2541
  42   2.0000      -6.107337      -166.1891
  43   2.0000      -6.106925      -166.1779
  44   2.0000      -1.294570       -35.2270
  45   2.0000      -1.215532       -33.0763
  46   2.0000      -1.214809       -33.0566
  47   2.0000      -1.092714       -29.7343
  48   2.0000      -1.085453       -29.5367
  49   2.0000      -1.071198       -29.1488
  50   2.0000      -0.999931       -27.2095
  51   2.0000      -0.974607       -26.5204
  52   2.0000      -0.970267       -26.4023
  53   2.0000      -0.927127       -25.2284
  54   2.0000      -0.900885       -24.5143
  55   2.0000      -0.897512       -24.4225
  56   2.0000      -0.853590       -23.2274
  57   2.0000      -0.850662       -23.1477
  58   2.0000      -0.814813       -22.1722
  59   2.0000      -0.803554       -21.8658
  60   2.0000      -0.787642       -21.4328
  61   2.0000      -0.783964       -21.3327
  62   2.0000      -0.772697       -21.0261
  63   2.0000      -0.745431       -20.2842
  64   2.0000      -0.738400       -20.0929
  65   2.0000      -0.729059       -19.8387
  66   2.0000      -0.705449       -19.1962
  67   2.0000      -0.678256       -18.4563
  68   2.0000      -0.670426       -18.2432
  69   2.0000      -0.659552       -17.9473
  70   2.0000      -0.647626       -17.6228
  71   2.0000      -0.630064       -17.1449
  72   2.0000      -0.622066       -16.9273
  73   2.0000      -0.616040       -16.7633
  74   2.0000      -0.612698       -16.6724
  75   2.0000      -0.600408       -16.3379
  76   2.0000      -0.586540       -15.9606
  77   2.0000      -0.581782       -15.8311
  78   2.0000      -0.571023       -15.5383
  79   2.0000      -0.562133       -15.2964
  80   2.0000      -0.551479       -15.0065
  81   2.0000      -0.541702       -14.7405
  82   2.0000      -0.521707       -14.1964
  83   2.0000      -0.516102       -14.0438
  84   2.0000      -0.499924       -13.6036
  85   2.0000      -0.494998       -13.4696
  86   2.0000      -0.492248       -13.3947
  87   2.0000      -0.487565       -13.2673
  88   2.0000      -0.479602       -13.0506
  89   2.0000      -0.473855       -12.8943
  90   2.0000      -0.467887       -12.7319
  91   2.0000      -0.465927       -12.6785
  92   2.0000      -0.460405       -12.5283
  93   2.0000      -0.459541       -12.5047
  94   2.0000      -0.456135       -12.4121
  95   2.0000      -0.452641       -12.3170
  96   2.0000      -0.450821       -12.2675
  97   2.0000      -0.447383       -12.1739
  98   2.0000      -0.447009       -12.1637
  99   2.0000      -0.441337       -12.0094
 100   2.0000      -0.435474       -11.8498
 101   2.0000      -0.433943       -11.8082
 102   2.0000      -0.432364       -11.7652
 103   2.0000      -0.430074       -11.7029
 104   2.0000      -0.424195       -11.5429
 105   2.0000      -0.422849       -11.5063
 106   2.0000      -0.420144       -11.4327
 107   2.0000      -0.407309       -11.0834
 108   2.0000      -0.406942       -11.0735
 109   2.0000      -0.400364       -10.8945
 110   2.0000      -0.395305       -10.7568
 111   2.0000      -0.392666       -10.6850
 112   2.0000      -0.390674       -10.6308
 113   2.0000      -0.388979       -10.5847
 114   2.0000      -0.377650       -10.2764
 115   2.0000      -0.374417       -10.1884
 116   2.0000      -0.371261       -10.1025
 117   2.0000      -0.368640       -10.0312
 118   2.0000      -0.347009        -9.4426
 119   2.0000      -0.343761        -9.3542
 120   2.0000      -0.336307        -9.1514
 121   2.0000      -0.329014        -8.9529
 122   2.0000      -0.326429        -8.8826
 123   2.0000      -0.325103        -8.8465
 124   2.0000      -0.312433        -8.5017
 125   2.0000      -0.310092        -8.4380
 126   2.0000      -0.299396        -8.1470
 127   2.0000      -0.296759        -8.0752
 128   2.0000      -0.288335        -7.8460
 129   2.0000      -0.286624        -7.7994
 130   2.0000      -0.279742        -7.6122
 131   2.0000      -0.276271        -7.5177
 132   2.0000      -0.270365        -7.3570
 133   2.0000      -0.262457        -7.1418
 134   2.0000      -0.246525        -6.7083
 135   2.0000      -0.226538        -6.1644
 136   2.0000      -0.220335        -5.9956
 137   0.0000      -0.089240        -2.4283
 138   0.0000      -0.073189        -1.9916
 139   0.0000      -0.039326        -1.0701
 140   0.0000      -0.034643        -0.9427
 141   0.0000      -0.005541        -0.1508

MULLIKEN ATOMIC CHARGES
-----------------------
   0 O :   -0.442668
   1 C :    0.530356
   2 O :   -0.622865
   3 C :    0.083182
   4 C :   -0.145325
   5 C :   -0.148248
   6 C :   -0.127794
   7 S :    1.230419
   8 O :   -0.518187
   9 O :   -0.540854
  10 N :   -0.626022
  11 C :   -0.258866
  12 C :    0.174363
  13 C :   -0.143808
  14 C :   -0.170198
  15 C :    0.353407
  16 O :   -0.546984
  17 C :    1.084897
  18 F :   -0.293357
  19 F :   -0.280993
  20 F :   -0.290384
  21 C :   -0.186512
  22 C :   -0.164822
  23 C :    0.463775
  24 C :   -0.237386
  25 C :    0.175097
  26 C :   -0.149333
  27 Cl:   -0.000426
  28 C :   -0.130805
  29 C :   -0.120880
  30 C :   -0.202086
  31 C :    0.135870
  32 C :   -0.036675
  33 N :   -0.426421
  34 C :   -0.149045
  35 C :   -0.138500
  36 H :    0.435863
  37 H :    0.177934
  38 H :    0.198422
  39 H :    0.152378
  40 H :    0.198191
  41 H :    0.124376
  42 H :    0.143163
  43 H :    0.148664
  44 H :    0.161559
  45 H :    0.160817
  46 H :    0.158575
  47 H :    0.145373
  48 H :    0.143854
  49 H :    0.162898
  50 H :    0.173440
  51 H :    0.182575
Sum of atomic charges:   -0.0000000

LOEWDIN ATOMIC CHARGES
----------------------
   0 O :   -0.258754
   1 C :    0.180546
   2 O :   -0.333486
   3 C :   -0.037116
   4 C :   -0.094814
   5 C :   -0.105972
   6 C :   -0.174953
   7 S :    1.270036
   8 O :   -0.544968
   9 O :   -0.562549
  10 N :   -0.269915
  11 C :   -0.146853
  12 C :   -0.036655
  13 C :   -0.110897
  14 C :   -0.141403
  15 C :    0.086975
  16 O :   -0.160854
  17 C :    0.358972
  18 F :   -0.106824
  19 F :   -0.089192
  20 F :   -0.104325
  21 C :   -0.158112
  22 C :   -0.114713
  23 C :    0.067936
  24 C :   -0.143036
  25 C :   -0.006306
  26 C :   -0.081423
  27 Cl:    0.040159
  28 C :   -0.119173
  29 C :   -0.128861
  30 C :   -0.109470
  31 C :   -0.033635
  32 C :   -0.045973
  33 N :   -0.144626
  34 C :   -0.107657
  35 C :   -0.083929
  36 H :    0.351046
  37 H :    0.157495
  38 H :    0.165028
  39 H :    0.124278
  40 H :    0.158660
  41 H :    0.130948
  42 H :    0.143050
  43 H :    0.140304
  44 H :    0.147155
  45 H :    0.148323
  46 H :    0.148409
  47 H :    0.141158
  48 H :    0.139561
  49 H :    0.143093
  50 H :    0.151899
  51 H :    0.161414

  Mayer bond orders larger than 0.100000
B(  0-O ,  1-C ) :   1.8635 B(  1-C ,  2-O ) :   1.0271 B(  1-C ,  3-C ) :   1.0068
B(  2-O , 36-H ) :   0.7407 B(  3-C ,  4-C ) :   1.3874 B(  3-C , 35-C ) :   1.4014
B(  4-C ,  5-C ) :   1.4096 B(  4-C , 37-H ) :   0.9133 B(  5-C ,  6-C ) :   1.3996
B(  5-C , 38-H ) :   0.9023 B(  6-C ,  7-S ) :   0.8108 B(  6-C , 34-C ) :   1.3740
B(  7-S ,  8-O ) :   1.6592 B(  7-S ,  9-O ) :   1.6236 B(  7-S , 10-N ) :   0.7801
B( 10-N , 11-C ) :   0.9095 B( 10-N , 23-C ) :   0.8886 B( 11-C , 12-C ) :   0.9559
B( 11-C , 39-H ) :   0.9245 B( 11-C , 40-H ) :   0.9080 B( 12-C , 13-C ) :   1.4323
B( 12-C , 22-C ) :   1.4400 B( 13-C , 14-C ) :   1.4407 B( 13-C , 41-H ) :   0.9223
B( 14-C , 15-C ) :   1.4235 B( 14-C , 42-H ) :   0.9187 B( 15-C , 16-O ) :   0.8194
B( 15-C , 21-C ) :   1.3889 B( 16-O , 17-C ) :   0.9948 B( 17-C , 18-F ) :   0.9667
B( 17-C , 19-F ) :   1.0059 B( 17-C , 20-F ) :   0.9698 B( 21-C , 22-C ) :   1.4314
B( 21-C , 43-H ) :   0.9110 B( 22-C , 44-H ) :   0.9021 B( 23-C , 24-C ) :   1.4236
B( 23-C , 33-N ) :   1.2873 B( 24-C , 25-C ) :   1.3313 B( 24-C , 32-C ) :   0.1077
B( 24-C , 45-H ) :   0.8819 B( 25-C , 26-C ) :   1.2239 B( 25-C , 31-C ) :   1.2873
B( 26-C , 27-Cl) :   1.0373 B( 26-C , 28-C ) :   1.4793 B( 28-C , 29-C ) :   1.3464
B( 28-C , 46-H ) :   0.9222 B( 29-C , 30-C ) :   1.5115 B( 29-C , 47-H ) :   0.9273
B( 30-C , 31-C ) :   1.2831 B( 30-C , 48-H ) :   0.9224 B( 31-C , 32-C ) :   1.2452
B( 32-C , 33-N ) :   1.4783 B( 32-C , 49-H ) :   0.9238 B( 34-C , 35-C ) :   1.4311
B( 34-C , 50-H ) :   0.9108 B( 35-C , 51-H ) :   0.9084

FINAL SINGLE POINT ENERGY     -2566.556203465848

DIPOLE MOMENT
-------------

Method             : SCF
Type of density    : Electron Density
Multiplicity       :   1
Irrep              :   0
Energy             : -2566.5562034658482844 Eh
Relativity type    :
Basis              : AO
                                X                 Y                 Z
Electronic contribution:     25.098234985      -4.949658604     -13.191366193
Nuclear contribution   :    -26.920860729       6.267648216      15.313238732
                        -----------------------------------------
Total Dipole Moment    :     -1.822625744       1.317989612       2.121872539
                        -----------------------------------------
Magnitude (a.u.)       :      3.092152049
Magnitude (Debye)      :      7.859625893

Rotational constants in cm-1:             0.003930             0.001728             0.001284
Rotational constants in MHz :           117.827189            51.795961            38.499792

                             ****ORCA TERMINATED NORMALLY****
TOTAL RUN TIME: 0 days 0 hours 6 minutes 38 seconds 322 msec
