                         Program Version 6.0.0  -   RELEASE  -
|  1> ! B3LYP 6-31G* SP
|  2>
|  3> * xyz 0 1
|  4> O 1.7824 -1.2619 1.4053
|  5> C 1.5016 -0.4931 0.4446
|  6> N 0.1358 -0.0869 0.2422
|  7> C -0.9474 -0.5508 1.1206
|  8> C -2.1897 0.3287 1.0056
|  9> C -3.4920 -0.2042 0.9002
| 10> C -4.6036 0.6405 0.8399
| 11> C -4.4510 2.0284 0.9074
| 12> O -5.6045 2.8267 0.8409
| 13> C -5.6256 4.2509 0.9043
| 14> F -4.9000 4.7856 -0.1451
| 15> F -5.1009 4.6822 2.1093
| 16> F -6.9337 4.6845 0.8077
| 17> C -3.1591 2.5673 1.0447
| 18> C -2.0457 1.7248 1.1039
| 19> C -1.2079 -2.0388 0.9309
| 20> N -1.2700 -2.7886 2.0682
| 21> C -1.4958 -4.1252 2.0600
| 22> C -1.6685 -4.7914 0.8542
| 23> C -1.6214 -4.0708 -0.3358
| 24> C -1.4203 -2.6759 -0.3311
| 25> C -1.3446 -1.9573 -1.6673
| 26> F -1.9916 -2.6782 -2.6568
| 27> F -1.9450 -0.7161 -1.6138
| 28> F -0.0207 -1.8139 -2.0340
| 29> C 2.5958 -0.0095 -0.4370
| 30> C 2.3405 0.4477 -1.7454
| 31> C 3.3843 0.8916 -2.5628
| 32> C 4.7013 0.8832 -2.0886
| 33> C 5.7658 1.3226 -2.8865
| 34> C 7.0673 1.2989 -2.3808
| 35> C 7.2919 0.8354 -1.0821
| 36> N 6.2501 0.4101 -0.3183
| 37> C 4.9711 0.4209 -0.7831
| 38> C 3.9242 -0.0245 0.0307
| 39> H -0.0798 0.6283 -0.4866
| 40> H -0.5996 -0.4066 2.1687
| 41> H -3.6632 -1.2711 0.8611
| 42> H -5.5936 0.2120 0.7463
| 43> H -3.0007 3.6341 1.1133
| 44> H -1.0643 2.1657 1.2298
| 45> H -1.5322 -4.6710 2.9932
| 46> H -1.8342 -5.8610 0.8402
| 47> H -1.7421 -4.6139 -1.2644
| 48> H 1.3418 0.4451 -2.1574
| 49> H 3.1622 1.2359 -3.5660
| 50> H 5.5922 1.6814 -3.8938
| 51> H 7.8956 1.6367 -2.9901
| 52> H 8.2963 0.8135 -0.6810
| 53> H 4.1484 -0.3722 1.0323
| 54> *
| 55>
| 56>                          ****END OF INPUT****

CARTESIAN COORDINATES (ANGSTROEM)
---------------------------------
  O      1.782400   -1.261900    1.405300
  C      1.501600   -0.493100    0.444600
  N      0.135800   -0.086900    0.242200
  C     -0.947400   -0.550800    1.120600
  C     -2.189700    0.328700    1.005600
  C     -3.492000   -0.204200    0.900200
  C     -4.603600    0.640500    0.839900
  C     -4.451000    2.028400    0.907400
  O     -5.604500    2.826700    0.840900
  C     -5.625600    4.250900    0.904300
  F     -4.900000    4.785600   -0.145100
  F     -5.100900    4.682200    2.109300
  F     -6.933700    4.684500    0.807700
  C     -3.159100    2.567300    1.044700
  C     -2.045700    1.724800    1.103900
  C     -1.207900   -2.038800    0.930900
  N     -1.270000   -2.788600    2.068200
  C     -1.495800   -4.125200    2.060000
  C     -1.668500   -4.791400    0.854200
  C     -1.621400   -4.070800   -0.335800
  C     -1.420300   -2.675900   -0.331100
  C     -1.344600   -1.957300   -1.667300
  F     -1.991600   -2.678200   -2.656800
  F     -1.945000   -0.716100   -1.613800
  F     -0.020700   -1.813900   -2.034000
  C      2.595800   -0.009500   -0.437000
  C      2.340500    0.447700   -1.745400
  C      3.384300    0.891600   -2.562800
  C      4.701300    0.883200   -2.088600
  C      5.765800    1.322600   -2.886500
  C      7.067300    1.298900   -2.380800
  C      7.291900    0.835400   -1.082100
  N      6.250100    0.410100   -0.318300
  C      4.971100    0.420900   -0.783100
  C      3.924200   -0.024500    0.030700
  H     -0.079800    0.628300   -0.486600
  H     -0.599600   -0.406600    2.168700
  H     -3.663200   -1.271100    0.861100
  H     -5.593600    0.212000    0.746300
  H     -3.000700    3.634100    1.113300
  H     -1.064300    2.165700    1.229800
  H     -1.532200   -4.671000    2.993200
  H     -1.834200   -5.861000    0.840200
  H     -1.742100   -4.613900   -1.264400
  H      1.341800    0.445100   -2.157400
  H      3.162200    1.235900   -3.566000
  H      5.592200    1.681400   -3.893800
  H      7.895600    1.636700   -2.990100
  H      8.296300    0.813500   -0.681000
  H      4.148400   -0.372200    1.032300

 Total Charge           Charge          ....    0
 Multiplicity           Mult            ....    1
 Number of Electrons    NEL             ....  250
 Basis Dimension        Dim             ....  520

ORBITAL ENERGIES
----------------

  NO   OCC          E(Eh)            E(eV)
   0   2.0000     -24.741665      -673.2549
   1   2.0000     -24.739823      -673.2048
   2   2.0000     -24.739453      -673.1947
   3   2.0000     -24.731987      -672.9916
   4   2.0000     -24.728270      -672.8904
   5   2.0000     -24.726590      -672.8447
   6   2.0000     -19.213489      -522.8256
   7   2.0000     -19.109482      -519.9954
   8   2.0000     -14.359735      -390.7483
   9   2.0000     -14.338269      -390.1641
  10   2.0000     -14.325846      -389.8261
  11   2.0000     -10.504612      -285.8450
  12   2.0000     -10.446197      -284.2555
  13   2.0000     -10.291234      -280.0387
  14   2.0000     -10.269479      -279.4467
  15   2.0000     -10.250100      -278.9194
  16   2.0000     -10.241001      -278.6718
  17   2.0000     -10.232373      -278.4370
  18   2.0000     -10.227336      -278.3000
  19   2.0000     -10.223958      -278.2080
  20   2.0000     -10.221213      -278.1334
  21   2.0000     -10.219125      -278.0765
  22   2.0000     -10.208568      -277.7893
  23   2.0000     -10.207439      -277.7585
  24   2.0000     -10.204865      -277.6885
  25   2.0000     -10.203538      -277.6524
  26   2.0000     -10.199591      -277.5450
  27   2.0000     -10.199275      -277.5364
  28   2.0000     -10.199187      -277.5340
  29   2.0000     -10.198780      -277.5229
  30   2.0000     -10.198642      -277.5191
  31   2.0000     -10.198362      -277.5115
  32   2.0000     -10.196428      -277.4589
  33   2.0000     -10.195421      -277.4315
  34   2.0000     -10.191562      -277.3265
  35   2.0000      -1.304783       -35.5050
  36   2.0000      -1.291786       -35.1513
  37   2.0000      -1.225575       -33.3496
  38   2.0000      -1.224918       -33.3317
  39   2.0000      -1.217019       -33.1168
  40   2.0000      -1.213313       -33.0159
  41   2.0000      -1.083512       -29.4839
  42   2.0000      -1.010628       -27.5006
  43   2.0000      -0.946322       -25.7507
  44   2.0000      -0.936228       -25.4760
  45   2.0000      -0.910406       -24.7734
  46   2.0000      -0.865016       -23.5383
  47   2.0000      -0.854394       -23.2492
  48   2.0000      -0.824571       -22.4377
  49   2.0000      -0.810539       -22.0559
  50   2.0000      -0.800871       -21.7928
  51   2.0000      -0.778702       -21.1896
  52   2.0000      -0.766191       -20.8491
  53   2.0000      -0.760608       -20.6972
  54   2.0000      -0.742694       -20.2097
  55   2.0000      -0.728457       -19.8223
  56   2.0000      -0.708458       -19.2781
  57   2.0000      -0.687565       -18.7096
  58   2.0000      -0.662546       -18.0288
  59   2.0000      -0.643842       -17.5198
  60   2.0000      -0.641099       -17.4452
  61   2.0000      -0.637465       -17.3463
  62   2.0000      -0.625123       -17.0105
  63   2.0000      -0.616860       -16.7856
  64   2.0000      -0.607666       -16.5354
  65   2.0000      -0.596919       -16.2430
  66   2.0000      -0.592996       -16.1362
  67   2.0000      -0.584387       -15.9020
  68   2.0000      -0.581802       -15.8316
  69   2.0000      -0.576544       -15.6885
  70   2.0000      -0.574045       -15.6205
  71   2.0000      -0.561864       -15.2891
  72   2.0000      -0.547193       -14.8899
  73   2.0000      -0.525722       -14.3056
  74   2.0000      -0.517947       -14.0941
  75   2.0000      -0.516202       -14.0466
  76   2.0000      -0.504852       -13.7377
  77   2.0000      -0.497539       -13.5387
  78   2.0000      -0.488310       -13.2876
  79   2.0000      -0.473718       -12.8905
  80   2.0000      -0.471905       -12.8412
  81   2.0000      -0.470611       -12.8060
  82   2.0000      -0.463859       -12.6222
  83   2.0000      -0.461233       -12.5508
  84   2.0000      -0.460679       -12.5357
  85   2.0000      -0.457082       -12.4378
  86   2.0000      -0.452898       -12.3240
  87   2.0000      -0.447436       -12.1754
  88   2.0000      -0.446154       -12.1405
  89   2.0000      -0.441795       -12.0219
  90   2.0000      -0.436493       -11.8776
  91   2.0000      -0.434308       -11.8181
  92   2.0000      -0.431705       -11.7473
  93   2.0000      -0.428426       -11.6581
  94   2.0000      -0.427786       -11.6406
  95   2.0000      -0.427597       -11.6355
  96   2.0000      -0.417048       -11.3484
  97   2.0000      -0.416471       -11.3328
  98   2.0000      -0.414563       -11.2808
  99   2.0000      -0.410430       -11.1684
 100   2.0000      -0.409010       -11.1297
 101   2.0000      -0.407338       -11.0842
 102   2.0000      -0.405368       -11.0306
 103   2.0000      -0.402027       -10.9397
 104   2.0000      -0.396191       -10.7809
 105   2.0000      -0.388444       -10.5701
 106   2.0000      -0.384040       -10.4503
 107   2.0000      -0.376853       -10.2547
 108   2.0000      -0.365543        -9.9469
 109   2.0000      -0.362543        -9.8653
 110   2.0000      -0.358980        -9.7684
 111   2.0000      -0.351322        -9.5599
 112   2.0000      -0.345549        -9.4029
 113   2.0000      -0.333918        -9.0864
 114   2.0000      -0.305372        -8.3096
 115   2.0000      -0.295601        -8.0437
 116   2.0000      -0.276926        -7.5355
 117   2.0000      -0.264881        -7.2078
 118   2.0000      -0.260829        -7.0975
 119   2.0000      -0.258723        -7.0402
 120   2.0000      -0.253000        -6.8845
 121   2.0000      -0.247301        -6.7294
 122   2.0000      -0.245935        -6.6922
 123   2.0000      -0.235511        -6.4086
 124   2.0000      -0.227989        -6.2039
 125   0.0000      -0.068864        -1.8739
 126   0.0000      -0.043977        -1.1967
 127   0.0000      -0.035619        -0.9692
 128   0.0000      -0.032329        -0.8797
 129   0.0000      -0.015957        -0.4342

MULLIKEN ATOMIC CHARGES
-----------------------
   0 O :   -0.474436
   1 C :    0.512285
   2 N :   -0.654406
   3 C :   -0.045437
   4 C :    0.099855
   5 C :   -0.153707
   6 C :   -0.176632
   7 C :    0.357630
   8 O :   -0.546368
   9 C :    1.086206
  10 F :   -0.291864
  11 F :   -0.290835
  12 F :   -0.278861
  13 C :   -0.189466
  14 C :   -0.175116
  15 C :    0.239588
  16 N :   -0.398836
  17 C :    0.031452
  18 C :   -0.134432
  19 C :   -0.128655
  20 C :   -0.071902
  21 C :    0.921898
  22 F :   -0.305251
  23 F :   -0.301993
  24 F :   -0.291699
  25 C :    0.073416
  26 C :   -0.180747
  27 C :   -0.208558
  28 C :    0.173411
  29 C :   -0.153696
  30 C :   -0.144908
  31 C :    0.015708
  32 N :   -0.428414
  33 C :    0.210590
  34 C :   -0.174442
  35 H :    0.328972
  36 H :    0.204811
  37 H :    0.145324
  38 H :    0.150947
  39 H :    0.154537
  40 H :    0.145756
  41 H :    0.160593
  42 H :    0.144747
  43 H :    0.164719
  44 H :    0.134855
  45 H :    0.136047
  46 H :    0.142715
  47 H :    0.136369
  48 H :    0.152699
  49 H :    0.175533
Sum of atomic charges:    0.0000000

LOEWDIN ATOMIC CHARGES
----------------------
   0 O :   -0.280925
   1 C :    0.144625
   2 N :   -0.241674
   3 C :   -0.049403
   4 C :   -0.026086
   5 C :   -0.119609
   6 C :   -0.138338
   7 C :    0.086286
   8 O :   -0.159838
   9 C :    0.359204
  10 F :   -0.105247
  11 F :   -0.104406
  12 F :   -0.087346
  13 C :   -0.157201
  14 C :   -0.127554
  15 C :    0.055436
  16 N :   -0.118343
  17 C :   -0.051692
  18 C :   -0.143199
  19 C :   -0.089637
  20 C :   -0.084100
  21 C :    0.308120
  22 F :   -0.111474
  23 F :   -0.102567
  24 F :   -0.107546
  25 C :   -0.047809
  26 C :   -0.127962
  27 C :   -0.121065
  28 C :   -0.022719
  29 C :   -0.093796
  30 C :   -0.145679
  31 C :   -0.061983
  32 N :   -0.124608
  33 C :    0.012473
  34 C :   -0.075616
  35 H :    0.249147
  36 H :    0.165253
  37 H :    0.142723
  38 H :    0.146420
  39 H :    0.143007
  40 H :    0.139761
  41 H :    0.140891
  42 H :    0.141089
  43 H :    0.148712
  44 H :    0.133972
  45 H :    0.134873
  46 H :    0.138376
  47 H :    0.136835
  48 H :    0.137126
  49 H :    0.163092

  Mayer bond orders larger than 0.100000
B(  0-O ,  1-C ) :   1.8059 B(  1-C ,  2-N ) :   1.0216 B(  1-C , 25-C ) :   0.9846
B(  2-N ,  3-C ) :   0.9015 B(  2-N , 35-H ) :   0.8082 B(  3-C ,  4-C ) :   0.9608
B(  3-C , 15-C ) :   0.9518 B(  3-C , 36-H ) :   0.8899 B(  4-C ,  5-C ) :   1.4350
B(  4-C , 14-C ) :   1.4135 B(  5-C ,  6-C ) :   1.4346 B(  5-C , 37-H ) :   0.9117
B(  6-C ,  7-C ) :   1.4196 B(  6-C , 38-H ) :   0.9176 B(  7-C ,  8-O ) :   0.8225
B(  7-C , 13-C ) :   1.3930 B(  8-O ,  9-C ) :   0.9908 B(  9-C , 10-F ) :   0.9679
B(  9-C , 11-F ) :   0.9690 B(  9-C , 12-F ) :   1.0083 B( 13-C , 14-C ) :   1.4314
B( 13-C , 39-H ) :   0.9089 B( 14-C , 40-H ) :   0.9196 B( 15-C , 16-N ) :   1.3834
B( 15-C , 20-C ) :   1.3448 B( 16-N , 17-C ) :   1.4173 B( 17-C , 18-C ) :   1.4219
B( 17-C , 41-H ) :   0.9269 B( 18-C , 19-C ) :   1.4379 B( 18-C , 42-H ) :   0.9235
B( 19-C , 20-C ) :   1.4033 B( 19-C , 43-H ) :   0.9174 B( 20-C , 21-C ) :   0.9681
B( 21-C , 22-F ) :   0.9425 B( 21-C , 23-F ) :   0.9240 B( 21-C , 24-F ) :   0.9648
B( 25-C , 26-C ) :   1.2988 B( 25-C , 34-C ) :   1.4509 B( 26-C , 27-C ) :   1.5045
B( 26-C , 44-H ) :   0.9145 B( 27-C , 28-C ) :   1.2865 B( 27-C , 34-C ) :   0.1015
B( 27-C , 45-H ) :   0.9236 B( 28-C , 29-C ) :   1.3027 B( 28-C , 33-C ) :   1.2507
B( 29-C , 30-C ) :   1.5140 B( 29-C , 46-H ) :   0.9241 B( 30-C , 31-C ) :   1.3208
B( 30-C , 47-H ) :   0.9247 B( 31-C , 32-N ) :   1.5171 B( 31-C , 48-H ) :   0.9297
B( 32-N , 33-C ) :   1.2433 B( 33-C , 34-C ) :   1.2677 B( 34-C , 49-H ) :   0.9038

FINAL SINGLE POINT ENERGY     -1836.368423765679

DIPOLE MOMENT
-------------

Method             : SCF
Type of density    : Electron Density
Multiplicity       :   1
Irrep              :   0
Energy             : -1836.3684237656789264 Eh
Relativity type    :
Basis              : AO
                                X                 Y                 Z
Electronic contribution:    -34.837545000      14.592196611      -1.933101855
Nuclear contribution   :     34.756483495     -14.747876012       0.510824129
                        -----------------------------------------
Total Dipole Moment    :     -0.081061506      -0.155679400      -1.422277726
                        -----------------------------------------
Magnitude (a.u.)       :      1.433066981
Magnitude (Debye)      :      3.642566787

Rotational constants in cm-1:             0.004764             0.001919             0.001556
Rotational constants in MHz :           142.829848            57.529659            46.641362

                             ****ORCA TERMINATED NORMALLY****
TOTAL RUN TIME: 0 days 0 hours 9 minutes 33 seconds 737 msec
