                         Program Version 6.0.0  -   RELEASE  -
|  1> ! B3LYP 6-31G* SP
|  2>
|  3> * xyz 0 1
|  4> C -7.3732 -0.5861 2.4008
|  5> N -6.4751 -0.5934 1.2326
|  6> C -5.1270 -0.3774 1.4081
|  7> O -4.6523 -0.1970 2.5632
|  8> C -4.2869 -0.3501 0.2903
|  9> C -2.8796 -0.1372 0.2269
| 10> C -2.0145 0.0936 1.4407
| 11> C -0.5709 0.2963 1.0822
| 12> O 0.2244 -0.6799 1.1481
| 13> N -0.1206 1.5817 0.6268
| 14> C 1.2286 1.8612 0.2324
| 15> N 2.2286 0.9545 0.2524
| 16> C 3.4106 1.4822 -0.1742
| 17> C 4.6488 0.6606 -0.2275
| 18> C 5.8013 1.1051 -0.9029
| 19> C 6.9536 0.3146 -0.9422
| 20> C 6.9785 -0.9413 -0.3085
| 21> O 8.1105 -1.7731 -0.3176
| 22> C 9.3523 -1.4691 -0.9492
| 23> F 9.8978 -0.3218 -0.4014
| 24> F 9.1668 -1.3005 -2.3097
| 25> F 10.2271 -2.5187 -0.7460
| 26> C 5.8325 -1.3880 0.3588
| 27> F 5.8359 -2.5967 0.9749
| 28> C 4.6794 -0.5988 0.3983
| 29> C 3.3405 2.8336 -0.5330
| 30> S 1.7577 3.3581 -0.3083
| 31> N -2.3531 -0.1519 -1.0332
| 32> S -3.6273 -0.4267 -2.0690
| 33> C -4.8553 -0.5362 -0.9484
| 34> N -6.1854 -0.7426 -1.1406
| 35> C -6.7327 -0.8768 -2.4981
| 36> C -7.0034 -0.7373 -0.0360
| 37> O -8.2525 -0.8591 -0.1848
| 38> H -6.8578 -0.9621 3.3103
| 39> H -7.7333 0.4476 2.5869
| 40> H -8.2465 -1.2541 2.2413
| 41> H -2.1022 -0.7805 2.1214
| 42> H -2.3769 0.9928 1.9828
| 43> H -0.8159 2.3594 0.5686
| 44> H 5.8187 2.0555 -1.4170
| 45> H 7.8167 0.6914 -1.4723
| 46> H 3.8120 -0.9741 0.9269
| 47> H 4.1510 3.4596 -0.8775
| 48> H -7.6709 -1.4713 -2.4979
| 49> H -6.9395 0.1303 -2.9172
| 50> H -6.0201 -1.4102 -3.1623
| 51> *
| 52>
| 53>                          ****END OF INPUT****

CARTESIAN COORDINATES (ANGSTROEM)
---------------------------------
  C     -7.373200   -0.586100    2.400800
  N     -6.475100   -0.593400    1.232600
  C     -5.127000   -0.377400    1.408100
  O     -4.652300   -0.197000    2.563200
  C     -4.286900   -0.350100    0.290300
  C     -2.879600   -0.137200    0.226900
  C     -2.014500    0.093600    1.440700
  C     -0.570900    0.296300    1.082200
  O      0.224400   -0.679900    1.148100
  N     -0.120600    1.581700    0.626800
  C      1.228600    1.861200    0.232400
  N      2.228600    0.954500    0.252400
  C      3.410600    1.482200   -0.174200
  C      4.648800    0.660600   -0.227500
  C      5.801300    1.105100   -0.902900
  C      6.953600    0.314600   -0.942200
  C      6.978500   -0.941300   -0.308500
  O      8.110500   -1.773100   -0.317600
  C      9.352300   -1.469100   -0.949200
  F      9.897800   -0.321800   -0.401400
  F      9.166800   -1.300500   -2.309700
  F     10.227100   -2.518700   -0.746000
  C      5.832500   -1.388000    0.358800
  F      5.835900   -2.596700    0.974900
  C      4.679400   -0.598800    0.398300
  C      3.340500    2.833600   -0.533000
  S      1.757700    3.358100   -0.308300
  N     -2.353100   -0.151900   -1.033200
  S     -3.627300   -0.426700   -2.069000
  C     -4.855300   -0.536200   -0.948400
  N     -6.185400   -0.742600   -1.140600
  C     -6.732700   -0.876800   -2.498100
  C     -7.003400   -0.737300   -0.036000
  O     -8.252500   -0.859100   -0.184800
  H     -6.857800   -0.962100    3.310300
  H     -7.733300    0.447600    2.586900
  H     -8.246500   -1.254100    2.241300
  H     -2.102200   -0.780500    2.121400
  H     -2.376900    0.992800    1.982800
  H     -0.815900    2.359400    0.568600
  H      5.818700    2.055500   -1.417000
  H      7.816700    0.691400   -1.472300
  H      3.812000   -0.974100    0.926900
  H      4.151000    3.459600   -0.877500
  H     -7.670900   -1.471300   -2.497900
  H     -6.939500    0.130300   -2.917200
  H     -6.020100   -1.410200   -3.162300

 Total Charge           Charge          ....    0
 Multiplicity           Mult            ....    1
 Number of Electrons    NEL             ....  262
 Basis Dimension        Dim             ....  510

ORBITAL ENERGIES
----------------

  NO   OCC          E(Eh)            E(eV)
   0   2.0000     -88.939839     -2420.1760
   1   2.0000     -88.906122     -2419.2586
   2   2.0000     -24.736978      -673.1274
   3   2.0000     -24.735563      -673.0889
   4   2.0000     -24.735468      -673.0863
   5   2.0000     -24.695524      -671.9994
   6   2.0000     -19.208875      -522.7001
   7   2.0000     -19.132481      -520.6213
   8   2.0000     -19.126403      -520.4559
   9   2.0000     -19.115591      -520.1617
  10   2.0000     -14.433018      -392.7424
  11   2.0000     -14.412399      -392.1813
  12   2.0000     -14.394425      -391.6922
  13   2.0000     -14.374610      -391.1530
  14   2.0000     -14.326027      -389.8310
  15   2.0000     -10.500585      -285.7354
  16   2.0000     -10.348032      -281.5843
  17   2.0000     -10.308975      -280.5215
  18   2.0000     -10.302346      -280.3411
  19   2.0000     -10.290612      -280.0218
  20   2.0000     -10.289770      -279.9989
  21   2.0000     -10.272415      -279.5266
  22   2.0000     -10.268309      -279.4149
  23   2.0000     -10.265856      -279.3481
  24   2.0000     -10.255752      -279.0732
  25   2.0000     -10.230790      -278.3940
  26   2.0000     -10.228577      -278.3337
  27   2.0000     -10.217971      -278.0451
  28   2.0000     -10.213581      -277.9257
  29   2.0000     -10.209584      -277.8169
  30   2.0000     -10.206020      -277.7199
  31   2.0000     -10.197020      -277.4750
  32   2.0000     -10.194456      -277.4053
  33   2.0000     -10.189329      -277.2657
  34   2.0000      -8.013917      -218.0698
  35   2.0000      -7.984055      -217.2572
  36   2.0000      -5.978255      -162.6766
  37   2.0000      -5.972904      -162.5310
  38   2.0000      -5.969942      -162.4504
  39   2.0000      -5.947125      -161.8295
  40   2.0000      -5.943021      -161.7178
  41   2.0000      -5.940830      -161.6582
  42   2.0000      -1.300372       -35.3849
  43   2.0000      -1.221377       -33.2353
  44   2.0000      -1.220349       -33.2074
  45   2.0000      -1.208495       -32.8848
  46   2.0000      -1.088664       -29.6241
  47   2.0000      -1.078283       -29.3416
  48   2.0000      -1.037173       -28.2229
  49   2.0000      -1.020097       -27.7583
  50   2.0000      -1.008775       -27.4502
  51   2.0000      -0.976267       -26.5656
  52   2.0000      -0.974002       -26.5039
  53   2.0000      -0.955226       -25.9930
  54   2.0000      -0.915278       -24.9060
  55   2.0000      -0.864556       -23.5258
  56   2.0000      -0.832081       -22.6421
  57   2.0000      -0.819741       -22.3063
  58   2.0000      -0.812928       -22.1209
  59   2.0000      -0.785092       -21.3634
  60   2.0000      -0.769639       -20.9429
  61   2.0000      -0.753327       -20.4991
  62   2.0000      -0.751032       -20.4366
  63   2.0000      -0.735264       -20.0076
  64   2.0000      -0.721024       -19.6201
  65   2.0000      -0.695734       -18.9319
  66   2.0000      -0.674402       -18.3514
  67   2.0000      -0.657257       -17.8849
  68   2.0000      -0.644551       -17.5391
  69   2.0000      -0.630122       -17.1465
  70   2.0000      -0.621783       -16.9196
  71   2.0000      -0.607415       -16.5286
  72   2.0000      -0.601077       -16.3561
  73   2.0000      -0.592662       -16.1271
  74   2.0000      -0.587839       -15.9959
  75   2.0000      -0.584419       -15.9028
  76   2.0000      -0.576563       -15.6891
  77   2.0000      -0.555010       -15.1026
  78   2.0000      -0.537486       -14.6257
  79   2.0000      -0.528667       -14.3858
  80   2.0000      -0.526481       -14.3263
  81   2.0000      -0.515568       -14.0293
  82   2.0000      -0.508696       -13.8423
  83   2.0000      -0.489116       -13.3095
  84   2.0000      -0.487281       -13.2596
  85   2.0000      -0.484007       -13.1705
  86   2.0000      -0.478842       -13.0300
  87   2.0000      -0.474719       -12.9178
  88   2.0000      -0.468126       -12.7384
  89   2.0000      -0.467582       -12.7235
  90   2.0000      -0.463306       -12.6072
  91   2.0000      -0.459006       -12.4902
  92   2.0000      -0.455950       -12.4070
  93   2.0000      -0.450476       -12.2581
  94   2.0000      -0.446739       -12.1564
  95   2.0000      -0.441496       -12.0137
  96   2.0000      -0.437672       -11.9097
  97   2.0000      -0.435713       -11.8564
  98   2.0000      -0.433536       -11.7971
  99   2.0000      -0.429369       -11.6837
 100   2.0000      -0.427626       -11.6363
 101   2.0000      -0.423277       -11.5179
 102   2.0000      -0.418363       -11.3842
 103   2.0000      -0.412614       -11.2278
 104   2.0000      -0.411890       -11.2081
 105   2.0000      -0.407620       -11.0919
 106   2.0000      -0.399758       -10.8780
 107   2.0000      -0.394962       -10.7475
 108   2.0000      -0.393459       -10.7066
 109   2.0000      -0.393178       -10.6989
 110   2.0000      -0.389929       -10.6105
 111   2.0000      -0.382649       -10.4124
 112   2.0000      -0.377342       -10.2680
 113   2.0000      -0.368259       -10.0208
 114   2.0000      -0.357014        -9.7148
 115   2.0000      -0.351194        -9.5565
 116   2.0000      -0.347347        -9.4518
 117   2.0000      -0.345209        -9.3936
 118   2.0000      -0.327652        -8.9159
 119   2.0000      -0.303736        -8.2651
 120   2.0000      -0.291578        -7.9342
 121   2.0000      -0.289994        -7.8911
 122   2.0000      -0.283430        -7.7125
 123   2.0000      -0.281233        -7.6527
 124   2.0000      -0.278352        -7.5743
 125   2.0000      -0.265404        -7.2220
 126   2.0000      -0.256094        -6.9687
 127   2.0000      -0.250550        -6.8178
 128   2.0000      -0.244308        -6.6479
 129   2.0000      -0.234008        -6.3677
 130   2.0000      -0.208669        -5.6782
 131   0.0000      -0.051920        -1.4128
 132   0.0000      -0.041401        -1.1266
 133   0.0000      -0.037187        -1.0119
 134   0.0000      -0.021325        -0.5803
 135   0.0000      -0.007118        -0.1937

MULLIKEN ATOMIC CHARGES
-----------------------
   0 C :   -0.317775
   1 N :   -0.480182
   2 C :    0.515061
   3 O :   -0.495440
   4 C :    0.049931
   5 C :    0.176823
   6 C :   -0.399044
   7 C :    0.571846
   8 O :   -0.420958
   9 N :   -0.653445
  10 C :    0.261808
  11 N :   -0.375705
  12 C :    0.221144
  13 C :    0.130586
  14 C :   -0.183426
  15 C :   -0.190284
  16 C :    0.283112
  17 O :   -0.537638
  18 C :    1.088479
  19 F :   -0.291975
  20 F :   -0.291611
  21 F :   -0.277890
  22 C :    0.379609
  23 F :   -0.306189
  24 C :   -0.267425
  25 C :   -0.397545
  26 S :    0.249067
  27 N :   -0.486273
  28 S :    0.403480
  29 C :    0.044158
  30 N :   -0.448547
  31 C :   -0.341530
  32 C :    0.686086
  33 O :   -0.494481
  34 H :    0.201090
  35 H :    0.180605
  36 H :    0.197502
  37 H :    0.227247
  38 H :    0.180175
  39 H :    0.341955
  40 H :    0.131836
  41 H :    0.158306
  42 H :    0.198306
  43 H :    0.181334
  44 H :    0.220761
  45 H :    0.191532
  46 H :    0.185523
Sum of atomic charges:    0.0000000

LOEWDIN ATOMIC CHARGES
----------------------
   0 C :   -0.259859
   1 N :   -0.027582
   2 C :    0.115611
   3 O :   -0.292298
   4 C :   -0.131833
   5 C :    0.043741
   6 C :   -0.240414
   7 C :    0.157217
   8 O :   -0.236633
   9 N :   -0.204288
  10 C :   -0.077435
  11 N :   -0.151748
  12 C :   -0.000981
  13 C :   -0.017385
  14 C :   -0.127352
  15 C :   -0.154211
  16 C :    0.059233
  17 O :   -0.154256
  18 C :    0.360317
  19 F :   -0.105439
  20 F :   -0.105170
  21 F :   -0.086191
  22 C :    0.108122
  23 F :   -0.093915
  24 C :   -0.132005
  25 C :   -0.349046
  26 S :    0.387164
  27 N :   -0.323998
  28 S :    0.477447
  29 C :   -0.118955
  30 N :   -0.021587
  31 C :   -0.262693
  32 C :    0.146205
  33 O :   -0.303186
  34 H :    0.155853
  35 H :    0.141918
  36 H :    0.153863
  37 H :    0.182284
  38 H :    0.154316
  39 H :    0.265445
  40 H :    0.134720
  41 H :    0.145579
  42 H :    0.171565
  43 H :    0.159793
  44 H :    0.167126
  45 H :    0.145001
  46 H :    0.145939

  Mayer bond orders larger than 0.100000
B(  0-C ,  1-N ) :   0.9139 B(  0-C , 34-H ) :   0.9224 B(  0-C , 35-H ) :   0.9398
B(  0-C , 36-H ) :   0.9258 B(  1-N ,  2-C ) :   0.9833 B(  1-N , 32-C ) :   1.0439
B(  2-C ,  3-O ) :   1.7660 B(  2-C ,  4-C ) :   1.0896 B(  4-C ,  5-C ) :   1.2424
B(  4-C , 29-C ) :   1.3513 B(  5-C ,  6-C ) :   1.0011 B(  5-C , 27-N ) :   1.5246
B(  6-C ,  7-C ) :   0.9338 B(  6-C , 37-H ) :   0.8998 B(  6-C , 38-H ) :   0.9030
B(  7-C ,  8-O ) :   1.9081 B(  7-C ,  9-N ) :   0.9737 B(  9-N , 10-C ) :   0.9532
B(  9-N , 39-H ) :   0.8225 B( 10-C , 11-N ) :   1.5105 B( 10-C , 25-C ) :   0.1081
B( 10-C , 26-S ) :   1.1393 B( 11-N , 12-C ) :   1.2662 B( 12-C , 13-C ) :   1.0562
B( 12-C , 25-C ) :   1.5126 B( 13-C , 14-C ) :   1.4012 B( 13-C , 24-C ) :   1.3716
B( 14-C , 15-C ) :   1.4404 B( 14-C , 40-H ) :   0.9194 B( 15-C , 16-C ) :   1.3802
B( 15-C , 41-H ) :   0.9089 B( 16-C , 17-O ) :   0.8305 B( 16-C , 22-C ) :   1.3209
B( 17-O , 18-C ) :   0.9889 B( 18-C , 19-F ) :   0.9681 B( 18-C , 20-F ) :   0.9685
B( 18-C , 21-F ) :   1.0089 B( 22-C , 23-F ) :   0.9384 B( 22-C , 24-C ) :   1.3683
B( 24-C , 42-H ) :   0.8948 B( 25-C , 26-S ) :   1.1139 B( 25-C , 43-H ) :   0.9018
B( 27-N , 28-S ) :   1.0904 B( 27-N , 29-C ) :   0.1316 B( 28-S , 29-C ) :   1.1598
B( 29-C , 30-N ) :   0.9964 B( 30-N , 31-C ) :   0.9221 B( 30-N , 32-C ) :   1.0266
B( 31-C , 44-H ) :   0.9186 B( 31-C , 45-H ) :   0.9317 B( 31-C , 46-H ) :   0.9236
B( 32-C , 33-O ) :   1.8005

FINAL SINGLE POINT ENERGY     -2501.211601332824

DIPOLE MOMENT
-------------

Method             : SCF
Type of density    : Electron Density
Multiplicity       :   1
Irrep              :   0
Energy             : -2501.2116013328241024 Eh
Relativity type    :
Basis              : AO
                                X                 Y                 Z
Electronic contribution:     63.427621456      -8.403265913      -6.063839561
Nuclear contribution   :    -65.766521710      10.256919324       4.842007830
                        -----------------------------------------
Total Dipole Moment    :     -2.338900254       1.853653411      -1.221831731
                        -----------------------------------------
Magnitude (a.u.)       :      3.224803582
Magnitude (Debye)      :      8.196799296

Rotational constants in cm-1:             0.009331             0.000947             0.000929
Rotational constants in MHz :           279.721832            28.382986            27.859444

                             ****ORCA TERMINATED NORMALLY****
TOTAL RUN TIME: 0 days 0 hours 6 minutes 59 seconds 140 msec
