                         Program Version 6.0.0  -   RELEASE  -
|  1> ! B3LYP 6-31G* SP
|  2>
|  3> * xyz 0 1
|  4> O 3.0233 -1.2692 3.0987
|  5> C 3.4780 -2.0920 2.2597
|  6> O 3.9106 -3.3419 2.6958
|  7> C 3.6163 -1.7219 0.8326
|  8> C 4.7191 -2.2368 0.1265
|  9> C 4.9496 -1.8747 -1.2011
| 10> C 4.0851 -0.9924 -1.8438
| 11> C 2.9748 -0.4861 -1.1686
| 12> C 2.7076 -0.8592 0.1595
| 13> S 1.2151 -0.2659 0.9122
| 14> O 1.5580 0.9017 1.7950
| 15> O 0.5806 -1.3466 1.7420
| 16> N 0.0666 0.2389 -0.2933
| 17> C -0.4363 -0.7354 -1.2680
| 18> C -1.7613 -1.2946 -0.8221
| 19> C -1.8172 -2.4842 -0.0764
| 20> C -3.0465 -2.9775 0.3720
| 21> C -4.2263 -2.2861 0.0831
| 22> C -4.1788 -1.1001 -0.6554
| 23> C -2.9517 -0.6037 -1.1059
| 24> C -0.6137 1.4887 -0.1143
| 25> N -1.3483 1.6872 1.0133
| 26> C -2.0332 2.8386 1.2373
| 27> C -2.0117 3.8713 0.2887
| 28> C -2.7372 5.1648 0.5589
| 29> F -2.9673 5.8618 -0.6152
| 30> F -3.9584 4.9111 1.1594
| 31> F -1.9728 5.9480 1.4039
| 32> C -1.2304 3.7018 -0.8649
| 33> C -0.5320 2.5098 -1.0765
| 34> Cl 0.4702 2.3522 -2.5119
| 35> H 3.8403 -3.6053 3.6713
| 36> H 5.4221 -2.9030 0.6119
| 37> H 5.8084 -2.2702 -1.7281
| 38> H 4.2715 -0.7044 -2.8705
| 39> H 2.3158 0.1906 -1.6936
| 40> H -0.5431 -0.2591 -2.2649
| 41> H 0.2959 -1.5619 -1.3944
| 42> H -0.9111 -3.0293 0.1573
| 43> H -3.0841 -3.8951 0.9452
| 44> H -5.1767 -2.6684 0.4325
| 45> H -5.0926 -0.5636 -0.8759
| 46> H -2.9281 0.3206 -1.6701
| 47> H -2.5964 2.9461 2.1553
| 48> H -1.1539 4.4955 -1.5973
| 49> *
| 50>
| 51>                          ****END OF INPUT****

CARTESIAN COORDINATES (ANGSTROEM)
---------------------------------
  O      3.023300   -1.269200    3.098700
  C      3.478000   -2.092000    2.259700
  O      3.910600   -3.341900    2.695800
  C      3.616300   -1.721900    0.832600
  C      4.719100   -2.236800    0.126500
  C      4.949600   -1.874700   -1.201100
  C      4.085100   -0.992400   -1.843800
  C      2.974800   -0.486100   -1.168600
  C      2.707600   -0.859200    0.159500
  S      1.215100   -0.265900    0.912200
  O      1.558000    0.901700    1.795000
  O      0.580600   -1.346600    1.742000
  N      0.066600    0.238900   -0.293300
  C     -0.436300   -0.735400   -1.268000
  C     -1.761300   -1.294600   -0.822100
  C     -1.817200   -2.484200   -0.076400
  C     -3.046500   -2.977500    0.372000
  C     -4.226300   -2.286100    0.083100
  C     -4.178800   -1.100100   -0.655400
  C     -2.951700   -0.603700   -1.105900
  C     -0.613700    1.488700   -0.114300
  N     -1.348300    1.687200    1.013300
  C     -2.033200    2.838600    1.237300
  C     -2.011700    3.871300    0.288700
  C     -2.737200    5.164800    0.558900
  F     -2.967300    5.861800   -0.615200
  F     -3.958400    4.911100    1.159400
  F     -1.972800    5.948000    1.403900
  C     -1.230400    3.701800   -0.864900
  C     -0.532000    2.509800   -1.076500
  Cl     0.470200    2.352200   -2.511900
  H      3.840300   -3.605300    3.671300
  H      5.422100   -2.903000    0.611900
  H      5.808400   -2.270200   -1.728100
  H      4.271500   -0.704400   -2.870500
  H      2.315800    0.190600   -1.693600
  H     -0.543100   -0.259100   -2.264900
  H      0.295900   -1.561900   -1.394400
  H     -0.911100   -3.029300    0.157300
  H     -3.084100   -3.895100    0.945200
  H     -5.176700   -2.668400    0.432500
  H     -5.092600   -0.563600   -0.875900
  H     -2.928100    0.320600   -1.670100
  H     -2.596400    2.946100    2.155300
  H     -1.153900    4.495500   -1.597300

 Total Charge           Charge          ....    0
 Multiplicity           Mult            ....    1
 Number of Electrons    NEL             ....  240
 Basis Dimension        Dim             ....  470

ORBITAL ENERGIES
----------------

  NO   OCC          E(Eh)            E(eV)
   0   2.0000    -101.557057     -2763.5080
   1   2.0000     -89.095731     -2424.4181
   2   2.0000     -24.732781      -673.0132
   3   2.0000     -24.730593      -672.9536
   4   2.0000     -24.726745      -672.8489
   5   2.0000     -19.186842      -522.1005
   6   2.0000     -19.126972      -520.4714
   7   2.0000     -19.116134      -520.1764
   8   2.0000     -19.114935      -520.1438
   9   2.0000     -14.379759      -391.2931
  10   2.0000     -14.356178      -390.6515
  11   2.0000     -10.449371      -284.3419
  12   2.0000     -10.326380      -280.9951
  13   2.0000     -10.294870      -280.1377
  14   2.0000     -10.279359      -279.7156
  15   2.0000     -10.253624      -279.0153
  16   2.0000     -10.250069      -278.9185
  17   2.0000     -10.244202      -278.7589
  18   2.0000     -10.238332      -278.5992
  19   2.0000     -10.237528      -278.5773
  20   2.0000     -10.237035      -278.5639
  21   2.0000     -10.224166      -278.2137
  22   2.0000     -10.220815      -278.1225
  23   2.0000     -10.218775      -278.0670
  24   2.0000     -10.217315      -278.0273
  25   2.0000     -10.187482      -277.2155
  26   2.0000     -10.180928      -277.0371
  27   2.0000     -10.178646      -276.9750
  28   2.0000     -10.177471      -276.9431
  29   2.0000     -10.176413      -276.9143
  30   2.0000     -10.175981      -276.9025
  31   2.0000      -9.488188      -258.1867
  32   2.0000      -8.131044      -221.2570
  33   2.0000      -7.251392      -197.3204
  34   2.0000      -7.241837      -197.0604
  35   2.0000      -7.241408      -197.0487
  36   2.0000      -6.096501      -165.8942
  37   2.0000      -6.094001      -165.8262
  38   2.0000      -6.093411      -165.8101
  39   2.0000      -1.290832       -35.1253
  40   2.0000      -1.216882       -33.1130
  41   2.0000      -1.214192       -33.0399
  42   2.0000      -1.077517       -29.3207
  43   2.0000      -1.070241       -29.1227
  44   2.0000      -0.984883       -26.8000
  45   2.0000      -0.981493       -26.7078
  46   2.0000      -0.952850       -25.9284
  47   2.0000      -0.927328       -25.2339
  48   2.0000      -0.894853       -24.3502
  49   2.0000      -0.893481       -24.3129
  50   2.0000      -0.847126       -23.0515
  51   2.0000      -0.834330       -22.7033
  52   2.0000      -0.799679       -21.7604
  53   2.0000      -0.793870       -21.6023
  54   2.0000      -0.782288       -21.2871
  55   2.0000      -0.763256       -20.7693
  56   2.0000      -0.737857       -20.0781
  57   2.0000      -0.722823       -19.6690
  58   2.0000      -0.703849       -19.1527
  59   2.0000      -0.682295       -18.5662
  60   2.0000      -0.669330       -18.2134
  61   2.0000      -0.656781       -17.8719
  62   2.0000      -0.643115       -17.5000
  63   2.0000      -0.625409       -17.0183
  64   2.0000      -0.602410       -16.3924
  65   2.0000      -0.595582       -16.2066
  66   2.0000      -0.585493       -15.9321
  67   2.0000      -0.582084       -15.8393
  68   2.0000      -0.581089       -15.8122
  69   2.0000      -0.569882       -15.5073
  70   2.0000      -0.561540       -15.2803
  71   2.0000      -0.536066       -14.5871
  72   2.0000      -0.528620       -14.3845
  73   2.0000      -0.517850       -14.0914
  74   2.0000      -0.504560       -13.7298
  75   2.0000      -0.496831       -13.5195
  76   2.0000      -0.486886       -13.2489
  77   2.0000      -0.478516       -13.0211
  78   2.0000      -0.470441       -12.8013
  79   2.0000      -0.466518       -12.6946
  80   2.0000      -0.464218       -12.6320
  81   2.0000      -0.459985       -12.5168
  82   2.0000      -0.457417       -12.4469
  83   2.0000      -0.454942       -12.3796
  84   2.0000      -0.453030       -12.3276
  85   2.0000      -0.447454       -12.1759
  86   2.0000      -0.436476       -11.8771
  87   2.0000      -0.433311       -11.7910
  88   2.0000      -0.429600       -11.6900
  89   2.0000      -0.425712       -11.5842
  90   2.0000      -0.422565       -11.4986
  91   2.0000      -0.421063       -11.4577
  92   2.0000      -0.417387       -11.3577
  93   2.0000      -0.414731       -11.2854
  94   2.0000      -0.408479       -11.1153
  95   2.0000      -0.405689       -11.0394
  96   2.0000      -0.397189       -10.8081
  97   2.0000      -0.393088       -10.6965
  98   2.0000      -0.389769       -10.6062
  99   2.0000      -0.386728       -10.5234
 100   2.0000      -0.369491       -10.0544
 101   2.0000      -0.366927        -9.9846
 102   2.0000      -0.356732        -9.7072
 103   2.0000      -0.348870        -9.4932
 104   2.0000      -0.340510        -9.2658
 105   2.0000      -0.336047        -9.1443
 106   2.0000      -0.325775        -8.8648
 107   2.0000      -0.312380        -8.5003
 108   2.0000      -0.310278        -8.4431
 109   2.0000      -0.303172        -8.2497
 110   2.0000      -0.295813        -8.0495
 111   2.0000      -0.286360        -7.7923
 112   2.0000      -0.280422        -7.6307
 113   2.0000      -0.274101        -7.4587
 114   2.0000      -0.271656        -7.3921
 115   2.0000      -0.263174        -7.1613
 116   2.0000      -0.254104        -6.9145
 117   2.0000      -0.248875        -6.7722
 118   2.0000      -0.241346        -6.5674
 119   2.0000      -0.237452        -6.4614
 120   0.0000      -0.074916        -2.0386
 121   0.0000      -0.063825        -1.7368
 122   0.0000      -0.049871        -1.3571
 123   0.0000      -0.042687        -1.1616
 124   0.0000      -0.006196        -0.1686

MULLIKEN ATOMIC CHARGES
-----------------------
   0 O :   -0.397229
   1 C :    0.506030
   2 O :   -0.622230
   3 C :    0.094645
   4 C :   -0.136707
   5 C :   -0.125038
   6 C :   -0.103048
   7 C :   -0.172504
   8 C :   -0.165025
   9 S :    1.256414
  10 O :   -0.519115
  11 O :   -0.533025
  12 N :   -0.614403
  13 C :   -0.280441
  14 C :    0.182886
  15 C :   -0.141776
  16 C :   -0.128426
  17 C :   -0.121657
  18 C :   -0.128238
  19 C :   -0.168540
  20 C :    0.420776
  21 N :   -0.335010
  22 C :    0.004808
  23 C :   -0.028181
  24 C :    0.904526
  25 F :   -0.303032
  26 F :   -0.300177
  27 F :   -0.289556
  28 C :   -0.133834
  29 C :   -0.097127
  30 Cl:    0.012790
  31 H :    0.435094
  32 H :    0.172842
  33 H :    0.152498
  34 H :    0.152272
  35 H :    0.185966
  36 H :    0.172895
  37 H :    0.172179
  38 H :    0.140566
  39 H :    0.131230
  40 H :    0.127621
  41 H :    0.126586
  42 H :    0.118318
  43 H :    0.187040
  44 H :    0.186337
Sum of atomic charges:    0.0000000

LOEWDIN ATOMIC CHARGES
----------------------
   0 O :   -0.215838
   1 C :    0.176529
   2 O :   -0.336781
   3 C :   -0.016949
   4 C :   -0.097468
   5 C :   -0.109615
   6 C :   -0.111096
   7 C :   -0.118272
   8 C :   -0.150514
   9 S :    1.260678
  10 O :   -0.549636
  11 O :   -0.558878
  12 N :   -0.280260
  13 C :   -0.152205
  14 C :   -0.034803
  15 C :   -0.112714
  16 C :   -0.124018
  17 C :   -0.126146
  18 C :   -0.128960
  19 C :   -0.134488
  20 C :    0.070202
  21 N :   -0.081241
  22 C :   -0.038794
  23 C :   -0.076593
  24 C :    0.313167
  25 F :   -0.110878
  26 F :   -0.108861
  27 F :   -0.107092
  28 C :   -0.094625
  29 C :   -0.098294
  30 Cl:    0.053360
  31 H :    0.349625
  32 H :    0.155515
  33 H :    0.143091
  34 H :    0.143753
  35 H :    0.156586
  36 H :    0.135507
  37 H :    0.141445
  38 H :    0.138113
  39 H :    0.133134
  40 H :    0.131246
  41 H :    0.130630
  42 H :    0.126006
  43 H :    0.154696
  44 H :    0.161738

  Mayer bond orders larger than 0.100000
B(  0-O ,  1-C ) :   1.8647 B(  1-C ,  2-O ) :   1.0220 B(  1-C ,  3-C ) :   0.9816
B(  2-O , 31-H ) :   0.7412 B(  3-C ,  4-C ) :   1.4108 B(  3-C ,  8-C ) :   1.3586
B(  4-C ,  5-C ) :   1.4184 B(  4-C , 32-H ) :   0.9138 B(  5-C ,  6-C ) :   1.4555
B(  5-C , 33-H ) :   0.9258 B(  6-C ,  7-C ) :   1.4329 B(  6-C , 34-H ) :   0.9264
B(  7-C ,  8-C ) :   1.3914 B(  7-C , 35-H ) :   0.8992 B(  8-C ,  9-S ) :   0.8051
B(  9-S , 10-O ) :   1.6633 B(  9-S , 11-O ) :   1.6383 B(  9-S , 12-N ) :   0.7572
B( 12-N , 13-C ) :   0.9137 B( 12-N , 20-C ) :   0.9510 B( 13-C , 14-C ) :   0.9438
B( 13-C , 36-H ) :   0.9173 B( 13-C , 37-H ) :   0.9229 B( 14-C , 15-C ) :   1.4408
B( 14-C , 19-C ) :   1.4283 B( 15-C , 16-C ) :   1.4454 B( 15-C , 38-H ) :   0.9162
B( 16-C , 17-C ) :   1.4511 B( 16-C , 39-H ) :   0.9292 B( 17-C , 18-C ) :   1.4555
B( 17-C , 40-H ) :   0.9303 B( 18-C , 19-C ) :   1.4451 B( 18-C , 41-H ) :   0.9296
B( 19-C , 42-H ) :   0.9249 B( 20-C , 21-N ) :   1.3839 B( 20-C , 29-C ) :   1.3389
B( 21-N , 22-C ) :   1.4173 B( 22-C , 23-C ) :   1.3484 B( 22-C , 43-H ) :   0.9172
B( 23-C , 24-C ) :   0.9731 B( 23-C , 28-C ) :   1.4155 B( 24-C , 25-F ) :   0.9473
B( 24-C , 26-F ) :   0.9536 B( 24-C , 27-F ) :   0.9909 B( 28-C , 29-C ) :   1.3897
B( 28-C , 44-H ) :   0.9079 B( 29-C , 30-Cl) :   1.0306

FINAL SINGLE POINT ENERGY     -2337.809286794101

DIPOLE MOMENT
-------------

Method             : SCF
Type of density    : Electron Density
Multiplicity       :   1
Irrep              :   0
Energy             : -2337.8092867941008990 Eh
Relativity type    :
Basis              : AO
                                X                 Y                 Z
Electronic contribution:     -7.241186077      36.086322285       3.345464166
Nuclear contribution   :      8.112335695     -37.126846992      -5.580223903
                        -----------------------------------------
Total Dipole Moment    :      0.871149619      -1.040524706      -2.234759737
                        -----------------------------------------
Magnitude (a.u.)       :      2.614525656
Magnitude (Debye)      :      6.645596082

Rotational constants in cm-1:             0.006246             0.002718             0.002410
Rotational constants in MHz :           187.248137            81.494744            72.247274

                             ****ORCA TERMINATED NORMALLY****
TOTAL RUN TIME: 0 days 0 hours 8 minutes 52 seconds 279 msec
