                         Program Version 6.0.0  -   RELEASE  -
|  1> ! B3LYP 6-31G* SP
|  2>
|  3> * xyz 0 1
|  4> C 5.5718 -0.2975 0.2786
|  5> O 4.2053 -0.0208 0.5609
|  6> C 3.1670 -0.3906 -0.2968
|  7> O 3.4252 -1.0041 -1.3686
|  8> C 1.7617 -0.0884 0.0361
|  9> S 0.4534 -0.6241 -0.8794
| 10> C -0.7060 0.0799 0.1181
| 11> C -2.1726 0.0184 -0.0780
| 12> C -2.7293 -0.6713 -1.1721
| 13> C -4.1160 -0.7218 -1.3457
| 14> C -4.9608 -0.0867 -0.4330
| 15> C -4.4206 0.6005 0.6560
| 16> C -3.0348 0.6543 0.8348
| 17> N -0.1167 0.7270 1.1488
| 18> C 1.2410 0.6447 1.1148
| 19> O 2.0023 1.2710 2.1006
| 20> H 5.8724 0.1986 -0.6685
| 21> H 6.2007 0.0935 1.1045
| 22> H 5.7284 -1.3938 0.1949
| 23> H -2.0983 -1.1722 -1.8944
| 24> H -4.5358 -1.2541 -2.1894
| 25> H -6.0337 -0.1272 -0.5695
| 26> H -5.0762 1.0924 1.3630
| 27> H -2.6394 1.1931 1.6867
| 28> H 3.0111 1.2793 2.1056
| 29> *
| 30>
| 31>                          ****END OF INPUT****

CARTESIAN COORDINATES (ANGSTROEM)
---------------------------------
  C      5.571800   -0.297500    0.278600
  O      4.205300   -0.020800    0.560900
  C      3.167000   -0.390600   -0.296800
  O      3.425200   -1.004100   -1.368600
  C      1.761700   -0.088400    0.036100
  S      0.453400   -0.624100   -0.879400
  C     -0.706000    0.079900    0.118100
  C     -2.172600    0.018400   -0.078000
  C     -2.729300   -0.671300   -1.172100
  C     -4.116000   -0.721800   -1.345700
  C     -4.960800   -0.086700   -0.433000
  C     -4.420600    0.600500    0.656000
  C     -3.034800    0.654300    0.834800
  N     -0.116700    0.727000    1.148800
  C      1.241000    0.644700    1.114800
  O      2.002300    1.271000    2.100600
  H      5.872400    0.198600   -0.668500
  H      6.200700    0.093500    1.104500
  H      5.728400   -1.393800    0.194900
  H     -2.098300   -1.172200   -1.894400
  H     -4.535800   -1.254100   -2.189400
  H     -6.033700   -0.127200   -0.569500
  H     -5.076200    1.092400    1.363000
  H     -2.639400    1.193100    1.686700
  H      3.011100    1.279300    2.105600

 Total Charge           Charge          ....    0
 Multiplicity           Mult            ....    1
 Number of Electrons    NEL             ....  122
 Basis Dimension        Dim             ....  246

ORBITAL ENERGIES
----------------

  NO   OCC          E(Eh)            E(eV)
   0   2.0000     -88.904310     -2419.2093
   1   2.0000     -19.194141      -522.2991
   2   2.0000     -19.178394      -521.8706
   3   2.0000     -19.127054      -520.4736
   4   2.0000     -14.338168      -390.1614
   5   2.0000     -10.328567      -281.0546
   6   2.0000     -10.296812      -280.1905
   7   2.0000     -10.265473      -279.3377
   8   2.0000     -10.245983      -278.8074
   9   2.0000     -10.223572      -278.1975
  10   2.0000     -10.214163      -277.9415
  11   2.0000     -10.197418      -277.4859
  12   2.0000     -10.193477      -277.3786
  13   2.0000     -10.193413      -277.3769
  14   2.0000     -10.192872      -277.3621
  15   2.0000     -10.191660      -277.3292
  16   2.0000      -7.981078      -217.1762
  17   2.0000      -5.944069      -161.7463
  18   2.0000      -5.940023      -161.6362
  19   2.0000      -5.938077      -161.5833
  20   2.0000      -1.086114       -29.5547
  21   2.0000      -1.046383       -28.4735
  22   2.0000      -0.994399       -27.0590
  23   2.0000      -0.966070       -26.2881
  24   2.0000      -0.863528       -23.4978
  25   2.0000      -0.819528       -22.3005
  26   2.0000      -0.786958       -21.4142
  27   2.0000      -0.752886       -20.4871
  28   2.0000      -0.746283       -20.3074
  29   2.0000      -0.717052       -19.5120
  30   2.0000      -0.646422       -17.5900
  31   2.0000      -0.626645       -17.0519
  32   2.0000      -0.608748       -16.5649
  33   2.0000      -0.580251       -15.7894
  34   2.0000      -0.566719       -15.4212
  35   2.0000      -0.548087       -14.9142
  36   2.0000      -0.516987       -14.0679
  37   2.0000      -0.492940       -13.4136
  38   2.0000      -0.478750       -13.0274
  39   2.0000      -0.474633       -12.9154
  40   2.0000      -0.465097       -12.6559
  41   2.0000      -0.444090       -12.0843
  42   2.0000      -0.443267       -12.0619
  43   2.0000      -0.436505       -11.8779
  44   2.0000      -0.427475       -11.6322
  45   2.0000      -0.420591       -11.4449
  46   2.0000      -0.405481       -11.0337
  47   2.0000      -0.391311       -10.6481
  48   2.0000      -0.380014       -10.3407
  49   2.0000      -0.361221        -9.8293
  50   2.0000      -0.359884        -9.7929
  51   2.0000      -0.353790        -9.6271
  52   2.0000      -0.352119        -9.5817
  53   2.0000      -0.334369        -9.0986
  54   2.0000      -0.301660        -8.2086
  55   2.0000      -0.287575        -7.8253
  56   2.0000      -0.285886        -7.7794
  57   2.0000      -0.266500        -7.2518
  58   2.0000      -0.259246        -7.0544
  59   2.0000      -0.257304        -7.0016
  60   2.0000      -0.221546        -6.0286
  61   0.0000      -0.071642        -1.9495
  62   0.0000      -0.011539        -0.3140
  63   0.0000      -0.007185        -0.1955
  64   0.0000       0.030744         0.8366
  65   0.0000       0.042551         1.1579

MULLIKEN ATOMIC CHARGES
-----------------------
   0 C :   -0.200558
   1 O :   -0.498290
   2 C :    0.591279
   3 O :   -0.469218
   4 C :   -0.280646
   5 S :    0.311026
   6 C :   -0.010665
   7 C :    0.136865
   8 C :   -0.186985
   9 C :   -0.133090
  10 C :   -0.115902
  11 C :   -0.128394
  12 C :   -0.151781
  13 N :   -0.404291
  14 C :    0.505218
  15 O :   -0.645817
  16 H :    0.170551
  17 H :    0.163410
  18 H :    0.171912
  19 H :    0.152783
  20 H :    0.138405
  21 H :    0.136192
  22 H :    0.139239
  23 H :    0.168877
  24 H :    0.439879
Sum of atomic charges:   -0.0000000

LOEWDIN ATOMIC CHARGES
----------------------
   0 C :   -0.199339
   1 O :   -0.193934
   2 C :    0.177020
   3 O :   -0.272506
   4 C :   -0.290692
   5 S :    0.436422
   6 C :   -0.102147
   7 C :   -0.031469
   8 C :   -0.118808
   9 C :   -0.125642
  10 C :   -0.117160
  11 C :   -0.124971
  12 C :   -0.100115
  13 N :   -0.166046
  14 C :    0.112985
  15 O :   -0.330488
  16 H :    0.131791
  17 H :    0.132607
  18 H :    0.132675
  19 H :    0.142036
  20 H :    0.136481
  21 H :    0.135200
  22 H :    0.136907
  23 H :    0.152723
  24 H :    0.346469

  Mayer bond orders larger than 0.100000
B(  0-C ,  1-O ) :   0.8736 B(  0-C , 16-H ) :   0.9351 B(  0-C , 17-H ) :   0.9436
B(  0-C , 18-H ) :   0.9348 B(  1-O ,  2-C ) :   0.9790 B(  2-C ,  3-O ) :   1.7762
B(  2-C ,  4-C ) :   1.0662 B(  4-C ,  5-S ) :   1.0726 B(  4-C ,  6-C ) :   0.1109
B(  4-C , 14-C ) :   1.3452 B(  5-S ,  6-C ) :   1.1696 B(  6-C ,  7-C ) :   1.0233
B(  6-C , 13-N ) :   1.4210 B(  7-C ,  8-C ) :   1.3892 B(  7-C , 12-C ) :   1.4055
B(  8-C ,  9-C ) :   1.4517 B(  8-C , 19-H ) :   0.9157 B(  9-C , 10-C ) :   1.4448
B(  9-C , 20-H ) :   0.9284 B( 10-C , 11-C ) :   1.4420 B( 10-C , 21-H ) :   0.9292
B( 11-C , 12-C ) :   1.4372 B( 11-C , 22-H ) :   0.9288 B( 12-C , 23-H ) :   0.9103
B( 13-N , 14-C ) :   1.3254 B( 14-C , 15-O ) :   1.0246 B( 15-O , 24-H ) :   0.7244

FINAL SINGLE POINT ENERGY     -1102.709469705773

DIPOLE MOMENT
-------------

Method             : SCF
Type of density    : Electron Density
Multiplicity       :   1
Irrep              :   0
Energy             : -1102.7094697057727899 Eh
Relativity type    :
Basis              : AO
                                X                 Y                 Z
Electronic contribution:      1.012945038      -0.192207731      -0.707693834
Nuclear contribution   :     -0.999641124       0.267746194       0.887984784
                        -----------------------------------------
Total Dipole Moment    :      0.013303914       0.075538463       0.180290951
                        -----------------------------------------
Magnitude (a.u.)       :      0.195928253
Magnitude (Debye)      :      0.498010043

Rotational constants in cm-1:             0.050805             0.007328             0.006416
Rotational constants in MHz :          1523.099104           219.701009           192.332191

                             ****ORCA TERMINATED NORMALLY****
TOTAL RUN TIME: 0 days 0 hours 2 minutes 7 seconds 36 msec
