                         Program Version 6.0.0  -   RELEASE  -
|  1> ! B3LYP 6-31G* SP
|  2>
|  3> * xyz 0 1
|  4> C 5.7817 -1.0257 0.3011
|  5> C 4.9208 0.2216 0.1818
|  6> O 3.5462 -0.1480 0.1611
|  7> C 2.5145 0.7897 0.0582
|  8> O 2.7736 2.0215 -0.0215
|  9> C 1.1197 0.3357 0.0429
| 10> C 0.6882 -0.9831 0.1228
| 11> N -0.6617 -1.1434 0.0880
| 12> C -1.3197 0.0352 -0.0194
| 13> C -2.7958 0.1429 -0.0779
| 14> C -3.4272 1.3965 -0.1896
| 15> C -4.8218 1.4843 -0.2439
| 16> C -5.6003 0.3264 -0.1874
| 17> C -4.9858 -0.9226 -0.0766
| 18> C -3.5918 -1.0166 -0.0219
| 19> S -0.2340 1.3268 -0.0749
| 20> H 5.5373 -1.5668 1.2397
| 21> H 6.8547 -0.7407 0.3175
| 22> H 5.5994 -1.6966 -0.5650
| 23> H 5.1175 0.8880 1.0496
| 24> H 5.1796 0.7581 -0.7569
| 25> H 1.3612 -1.8262 0.2066
| 26> H -2.8488 2.3098 -0.2354
| 27> H -5.2994 2.4519 -0.3298
| 28> H -6.6796 0.3970 -0.2296
| 29> H -5.5901 -1.8195 -0.0329
| 30> H -3.1382 -1.9960 0.0641
| 31> *
| 32>
| 33>                          ****END OF INPUT****

CARTESIAN COORDINATES (ANGSTROEM)
---------------------------------
  C      5.781700   -1.025700    0.301100
  C      4.920800    0.221600    0.181800
  O      3.546200   -0.148000    0.161100
  C      2.514500    0.789700    0.058200
  O      2.773600    2.021500   -0.021500
  C      1.119700    0.335700    0.042900
  C      0.688200   -0.983100    0.122800
  N     -0.661700   -1.143400    0.088000
  C     -1.319700    0.035200   -0.019400
  C     -2.795800    0.142900   -0.077900
  C     -3.427200    1.396500   -0.189600
  C     -4.821800    1.484300   -0.243900
  C     -5.600300    0.326400   -0.187400
  C     -4.985800   -0.922600   -0.076600
  C     -3.591800   -1.016600   -0.021900
  S     -0.234000    1.326800   -0.074900
  H      5.537300   -1.566800    1.239700
  H      6.854700   -0.740700    0.317500
  H      5.599400   -1.696600   -0.565000
  H      5.117500    0.888000    1.049600
  H      5.179600    0.758100   -0.756900
  H      1.361200   -1.826200    0.206600
  H     -2.848800    2.309800   -0.235400
  H     -5.299400    2.451900   -0.329800
  H     -6.679600    0.397000   -0.229600
  H     -5.590100   -1.819500   -0.032900
  H     -3.138200   -1.996000    0.064100

 Total Charge           Charge          ....    0
 Multiplicity           Mult            ....    1
 Number of Electrons    NEL             ....  122
 Basis Dimension        Dim             ....  250

ORBITAL ENERGIES
----------------

  NO   OCC          E(Eh)            E(eV)
   0   2.0000     -88.907990     -2419.3094
   1   2.0000     -19.182886      -521.9929
   2   2.0000     -19.126158      -520.4492
   3   2.0000     -14.336295      -390.1104
   4   2.0000     -10.325117      -280.9607
   5   2.0000     -10.261473      -279.2289
   6   2.0000     -10.239980      -278.6440
   7   2.0000     -10.227343      -278.3001
   8   2.0000     -10.226635      -278.2809
   9   2.0000     -10.213954      -277.9358
  10   2.0000     -10.198067      -277.5035
  11   2.0000     -10.193471      -277.3785
  12   2.0000     -10.193055      -277.3671
  13   2.0000     -10.192993      -277.3654
  14   2.0000     -10.191524      -277.3255
  15   2.0000     -10.181604      -277.0555
  16   2.0000      -7.984776      -217.2768
  17   2.0000      -5.947615      -161.8428
  18   2.0000      -5.943634      -161.7345
  19   2.0000      -5.942038      -161.6911
  20   2.0000      -1.077749       -29.3270
  21   2.0000      -0.991752       -26.9870
  22   2.0000      -0.970168       -26.3996
  23   2.0000      -0.863801       -23.5052
  24   2.0000      -0.818489       -22.2722
  25   2.0000      -0.791768       -21.5451
  26   2.0000      -0.769992       -20.9525
  27   2.0000      -0.752686       -20.4816
  28   2.0000      -0.735135       -20.0040
  29   2.0000      -0.665023       -18.0962
  30   2.0000      -0.625103       -17.0099
  31   2.0000      -0.621342       -16.9076
  32   2.0000      -0.599033       -16.3005
  33   2.0000      -0.565705       -15.3936
  34   2.0000      -0.552921       -15.0458
  35   2.0000      -0.532775       -14.4975
  36   2.0000      -0.508746       -13.8437
  37   2.0000      -0.485382       -13.2079
  38   2.0000      -0.472557       -12.8589
  39   2.0000      -0.468282       -12.7426
  40   2.0000      -0.449466       -12.2306
  41   2.0000      -0.437579       -11.9071
  42   2.0000      -0.435323       -11.8457
  43   2.0000      -0.429339       -11.6829
  44   2.0000      -0.423801       -11.5322
  45   2.0000      -0.405454       -11.0330
  46   2.0000      -0.398530       -10.8446
  47   2.0000      -0.396253       -10.7826
  48   2.0000      -0.372987       -10.1495
  49   2.0000      -0.372502       -10.1363
  50   2.0000      -0.357238        -9.7209
  51   2.0000      -0.356750        -9.7077
  52   2.0000      -0.352578        -9.5941
  53   2.0000      -0.335813        -9.1379
  54   2.0000      -0.294901        -8.0247
  55   2.0000      -0.287758        -7.8303
  56   2.0000      -0.284699        -7.7471
  57   2.0000      -0.282007        -7.6738
  58   2.0000      -0.258111        -7.0236
  59   2.0000      -0.256357        -6.9758
  60   2.0000      -0.229842        -6.2543
  61   0.0000      -0.073209        -1.9921
  62   0.0000      -0.016365        -0.4453
  63   0.0000      -0.008075        -0.2197
  64   0.0000       0.035781         0.9737
  65   0.0000       0.043081         1.1723

MULLIKEN ATOMIC CHARGES
-----------------------
   0 C :   -0.455985
   1 C :   -0.006771
   2 O :   -0.487165
   3 C :    0.583863
   4 O :   -0.468341
   5 C :   -0.220495
   6 C :    0.044156
   7 N :   -0.380373
   8 C :   -0.020725
   9 C :    0.140188
  10 C :   -0.188570
  11 C :   -0.132649
  12 C :   -0.116381
  13 C :   -0.127982
  14 C :   -0.152189
  15 S :    0.312473
  16 H :    0.158017
  17 H :    0.153493
  18 H :    0.158045
  19 H :    0.152185
  20 H :    0.152162
  21 H :    0.175389
  22 H :    0.151239
  23 H :    0.137953
  24 H :    0.135594
  25 H :    0.138197
  26 H :    0.164672
Sum of atomic charges:    0.0000000

LOEWDIN ATOMIC CHARGES
----------------------
   0 C :   -0.365542
   1 C :   -0.086172
   2 O :   -0.180830
   3 C :    0.178959
   4 O :   -0.267523
   5 C :   -0.243257
   6 C :   -0.077543
   7 N :   -0.161726
   8 C :   -0.109332
   9 C :   -0.031217
  10 C :   -0.120742
  11 C :   -0.125411
  12 C :   -0.118125
  13 C :   -0.125151
  14 C :   -0.101251
  15 S :    0.437698
  16 H :    0.131523
  17 H :    0.135094
  18 H :    0.131541
  19 H :    0.123490
  20 H :    0.123468
  21 H :    0.152455
  22 H :    0.141164
  23 H :    0.136235
  24 H :    0.134919
  25 H :    0.136405
  26 H :    0.150871

  Mayer bond orders larger than 0.100000
B(  0-C ,  1-C ) :   1.0200 B(  0-C , 16-H ) :   0.9472 B(  0-C , 17-H ) :   0.9419
B(  0-C , 18-H ) :   0.9472 B(  1-C ,  2-O ) :   0.8532 B(  1-C , 19-H ) :   0.9303
B(  1-C , 20-H ) :   0.9303 B(  2-O ,  3-C ) :   1.0178 B(  3-C ,  4-O ) :   1.7775
B(  3-C ,  5-C ) :   1.0532 B(  5-C ,  6-C ) :   1.4419 B(  5-C ,  8-C ) :   0.1136
B(  5-C , 15-S ) :   1.1172 B(  6-C ,  7-N ) :   1.3315 B(  6-C , 21-H ) :   0.9223
B(  7-N ,  8-C ) :   1.4533 B(  8-C ,  9-C ) :   1.0215 B(  8-C , 15-S ) :   1.1565
B(  9-C , 10-C ) :   1.3896 B(  9-C , 14-C ) :   1.4061 B( 10-C , 11-C ) :   1.4511
B( 10-C , 22-H ) :   0.9161 B( 11-C , 12-C ) :   1.4458 B( 11-C , 23-H ) :   0.9285
B( 12-C , 13-C ) :   1.4416 B( 12-C , 24-H ) :   0.9293 B( 13-C , 14-C ) :   1.4375
B( 13-C , 25-H ) :   0.9290 B( 14-C , 26-H ) :   0.9112

FINAL SINGLE POINT ENERGY     -1066.819657519913

DIPOLE MOMENT
-------------

Method             : SCF
Type of density    : Electron Density
Multiplicity       :   1
Irrep              :   0
Energy             : -1066.8196575199133349 Eh
Relativity type    :
Basis              : AO
                                X                 Y                 Z
Electronic contribution:     -8.303347881       5.023269447      -0.646838659
Nuclear contribution   :      7.931681497      -5.473287852       0.666436011
                        -----------------------------------------
Total Dipole Moment    :     -0.371666384      -0.450018406       0.019597351
                        -----------------------------------------
Magnitude (a.u.)       :      0.583983324
Magnitude (Debye)      :      1.484367644

Rotational constants in cm-1:             0.063654             0.006081             0.005563
Rotational constants in MHz :          1908.288419           182.304677           166.770487

                             ****ORCA TERMINATED NORMALLY****
TOTAL RUN TIME: 0 days 0 hours 2 minutes 8 seconds 288 msec
