                         Program Version 6.0.0  -   RELEASE  -
|  1> ! B3LYP 6-31G* SP
|  2>
|  3> * xyz 0 1
|  4> N -2.3971 -0.9281 -2.9629
|  5> C -1.2349 -0.7693 -2.1488
|  6> O -0.0968 -0.9450 -2.6603
|  7> C -1.3854 -0.3864 -0.6922
|  8> C -2.1180 -1.4409 0.1178
|  9> C -2.9097 -1.0389 1.2087
| 10> C -3.5482 -1.9893 2.0106
| 11> C -3.3938 -3.3508 1.7413
| 12> C -2.5963 -3.7649 0.6723
| 13> C -1.9555 -2.8188 -0.1329
| 14> N -0.0930 -0.0503 -0.0534
| 15> C 0.0622 1.2572 0.5466
| 16> O 0.4680 1.3528 1.7367
| 17> C -0.2426 2.4933 -0.2096
| 18> C -0.0994 2.5342 -1.6076
| 19> C -0.3825 3.7073 -2.3135
| 20> C -0.8035 4.8513 -1.6314
| 21> C -0.9360 4.8258 -0.2410
| 22> C -0.6517 3.6552 0.4692
| 23> C 0.9136 -1.1079 0.1953
| 24> C 0.8371 -1.6586 1.6412
| 25> C 2.1910 -1.3703 2.3184
| 26> C 3.0028 -0.7327 1.2547
| 27> C 4.3255 -0.2935 1.3629
| 28> F 5.0101 -0.4346 2.5250
| 29> C 4.9350 0.3001 0.2468
| 30> C 4.2187 0.4460 -0.9547
| 31> F 4.8107 1.0212 -2.0301
| 32> C 2.8915 -0.0008 -1.0420
| 33> C 2.3020 -0.5854 0.0831
| 34> H -2.3044 -1.1899 -3.9692
| 35> H -3.3506 -0.7861 -2.5622
| 36> H -2.0329 0.5192 -0.7050
| 37> H -3.0265 0.0121 1.4428
| 38> H -4.1577 -1.6696 2.8461
| 39> H -3.8865 -4.0851 2.3655
| 40> H -2.4686 -4.8205 0.4714
| 41> H -1.3293 -3.1653 -0.9447
| 42> H 0.2496 1.6689 -2.1525
| 43> H -0.2693 3.7308 -3.3897
| 44> H -1.0213 5.7588 -2.1794
| 45> H -1.2565 5.7145 0.2874
| 46> H -0.7635 3.6540 1.5463
| 47> H 0.7957 -1.9467 -0.5227
| 48> H 0.6581 -2.7560 1.6153
| 49> H 0.0083 -1.1952 2.2186
| 50> H 2.0646 -0.6701 3.1721
| 51> H 2.6740 -2.3104 2.6611
| 52> H 5.9582 0.6470 0.3113
| 53> H 2.3350 0.1116 -1.9627
| 54> *
| 55>
| 56>                          ****END OF INPUT****

CARTESIAN COORDINATES (ANGSTROEM)
---------------------------------
  N     -2.397100   -0.928100   -2.962900
  C     -1.234900   -0.769300   -2.148800
  O     -0.096800   -0.945000   -2.660300
  C     -1.385400   -0.386400   -0.692200
  C     -2.118000   -1.440900    0.117800
  C     -2.909700   -1.038900    1.208700
  C     -3.548200   -1.989300    2.010600
  C     -3.393800   -3.350800    1.741300
  C     -2.596300   -3.764900    0.672300
  C     -1.955500   -2.818800   -0.132900
  N     -0.093000   -0.050300   -0.053400
  C      0.062200    1.257200    0.546600
  O      0.468000    1.352800    1.736700
  C     -0.242600    2.493300   -0.209600
  C     -0.099400    2.534200   -1.607600
  C     -0.382500    3.707300   -2.313500
  C     -0.803500    4.851300   -1.631400
  C     -0.936000    4.825800   -0.241000
  C     -0.651700    3.655200    0.469200
  C      0.913600   -1.107900    0.195300
  C      0.837100   -1.658600    1.641200
  C      2.191000   -1.370300    2.318400
  C      3.002800   -0.732700    1.254700
  C      4.325500   -0.293500    1.362900
  F      5.010100   -0.434600    2.525000
  C      4.935000    0.300100    0.246800
  C      4.218700    0.446000   -0.954700
  F      4.810700    1.021200   -2.030100
  C      2.891500   -0.000800   -1.042000
  C      2.302000   -0.585400    0.083100
  H     -2.304400   -1.189900   -3.969200
  H     -3.350600   -0.786100   -2.562200
  H     -2.032900    0.519200   -0.705000
  H     -3.026500    0.012100    1.442800
  H     -4.157700   -1.669600    2.846100
  H     -3.886500   -4.085100    2.365500
  H     -2.468600   -4.820500    0.471400
  H     -1.329300   -3.165300   -0.944700
  H      0.249600    1.668900   -2.152500
  H     -0.269300    3.730800   -3.389700
  H     -1.021300    5.758800   -2.179400
  H     -1.256500    5.714500    0.287400
  H     -0.763500    3.654000    1.546300
  H      0.795700   -1.946700   -0.522700
  H      0.658100   -2.756000    1.615300
  H      0.008300   -1.195200    2.218600
  H      2.064600   -0.670100    3.172100
  H      2.674000   -2.310400    2.661100
  H      5.958200    0.647000    0.311300
  H      2.335000    0.111600   -1.962700

 Total Charge           Charge          ....    0
 Multiplicity           Mult            ....    1
 Number of Electrons    NEL             ....  212
 Basis Dimension        Dim             ....  460

ORBITAL ENERGIES
----------------

  NO   OCC          E(Eh)            E(eV)
   0   2.0000     -24.689870      -671.8455
   1   2.0000     -24.686095      -671.7428
   2   2.0000     -19.124142      -520.3944
   3   2.0000     -19.114930      -520.1437
   4   2.0000     -14.365791      -390.9130
   5   2.0000     -14.345846      -390.3703
   6   2.0000     -10.303123      -280.3622
   7   2.0000     -10.287607      -279.9400
   8   2.0000     -10.258634      -279.1516
   9   2.0000     -10.257585      -279.1231
  10   2.0000     -10.247463      -278.8477
  11   2.0000     -10.213900      -277.9344
  12   2.0000     -10.206254      -277.7263
  13   2.0000     -10.197444      -277.4866
  14   2.0000     -10.194262      -277.4000
  15   2.0000     -10.194199      -277.3983
  16   2.0000     -10.192710      -277.3577
  17   2.0000     -10.192593      -277.3546
  18   2.0000     -10.191776      -277.3323
  19   2.0000     -10.191225      -277.3173
  20   2.0000     -10.189952      -277.2827
  21   2.0000     -10.188788      -277.2510
  22   2.0000     -10.188020      -277.2301
  23   2.0000     -10.187485      -277.2156
  24   2.0000     -10.179504      -276.9984
  25   2.0000     -10.176846      -276.9261
  26   2.0000     -10.171184      -276.7720
  27   2.0000     -10.170248      -276.7465
  28   2.0000     -10.163402      -276.5602
  29   2.0000     -10.159013      -276.4408
  30   2.0000      -1.201982       -32.7076
  31   2.0000      -1.199199       -32.6319
  32   2.0000      -1.024482       -27.8776
  33   2.0000      -1.011371       -27.5208
  34   2.0000      -0.920520       -25.0486
  35   2.0000      -0.890991       -24.2451
  36   2.0000      -0.866202       -23.5706
  37   2.0000      -0.858391       -23.3580
  38   2.0000      -0.854013       -23.2389
  39   2.0000      -0.802314       -21.8321
  40   2.0000      -0.778518       -21.1845
  41   2.0000      -0.760447       -20.6928
  42   2.0000      -0.753490       -20.5035
  43   2.0000      -0.747570       -20.3424
  44   2.0000      -0.743359       -20.2278
  45   2.0000      -0.716282       -19.4910
  46   2.0000      -0.703470       -19.1424
  47   2.0000      -0.682321       -18.5669
  48   2.0000      -0.633537       -17.2394
  49   2.0000      -0.619248       -16.8506
  50   2.0000      -0.611196       -16.6315
  51   2.0000      -0.607863       -16.5408
  52   2.0000      -0.605576       -16.4786
  53   2.0000      -0.586319       -15.9545
  54   2.0000      -0.581193       -15.8151
  55   2.0000      -0.573064       -15.5939
  56   2.0000      -0.552224       -15.0268
  57   2.0000      -0.534849       -14.5540
  58   2.0000      -0.532828       -14.4990
  59   2.0000      -0.527488       -14.3537
  60   2.0000      -0.501525       -13.6472
  61   2.0000      -0.498124       -13.5547
  62   2.0000      -0.492320       -13.3967
  63   2.0000      -0.485055       -13.1990
  64   2.0000      -0.480242       -13.0680
  65   2.0000      -0.478665       -13.0251
  66   2.0000      -0.464234       -12.6324
  67   2.0000      -0.461779       -12.5657
  68   2.0000      -0.453455       -12.3391
  69   2.0000      -0.448437       -12.2026
  70   2.0000      -0.446242       -12.1429
  71   2.0000      -0.438595       -11.9348
  72   2.0000      -0.436894       -11.8885
  73   2.0000      -0.434857       -11.8331
  74   2.0000      -0.428727       -11.6662
  75   2.0000      -0.424670       -11.5559
  76   2.0000      -0.421194       -11.4613
  77   2.0000      -0.414092       -11.2680
  78   2.0000      -0.411576       -11.1996
  79   2.0000      -0.404224       -10.9995
  80   2.0000      -0.401297       -10.9198
  81   2.0000      -0.383647       -10.4396
  82   2.0000      -0.380057       -10.3419
  83   2.0000      -0.370683       -10.0868
  84   2.0000      -0.366883        -9.9834
  85   2.0000      -0.359066        -9.7707
  86   2.0000      -0.357254        -9.7214
  87   2.0000      -0.353241        -9.6122
  88   2.0000      -0.351287        -9.5590
  89   2.0000      -0.349471        -9.5096
  90   2.0000      -0.346474        -9.4280
  91   2.0000      -0.339024        -9.2253
  92   2.0000      -0.337693        -9.1891
  93   2.0000      -0.334035        -9.0896
  94   2.0000      -0.328404        -8.9363
  95   2.0000      -0.311501        -8.4764
  96   2.0000      -0.275236        -7.4896
  97   2.0000      -0.264813        -7.2059
  98   2.0000      -0.260595        -7.0911
  99   2.0000      -0.258484        -7.0337
 100   2.0000      -0.254411        -6.9229
 101   2.0000      -0.253402        -6.8954
 102   2.0000      -0.242551        -6.6002
 103   2.0000      -0.236838        -6.4447
 104   2.0000      -0.219338        -5.9685
 105   2.0000      -0.216515        -5.8917
 106   0.0000      -0.047788        -1.3004
 107   0.0000      -0.018333        -0.4989
 108   0.0000      -0.011814        -0.3215
 109   0.0000      -0.007098        -0.1931
 110   0.0000       0.001744         0.0474

MULLIKEN ATOMIC CHARGES
-----------------------
   0 N :   -0.762128
   1 C :    0.577016
   2 O :   -0.479541
   3 C :   -0.174997
   4 C :    0.159022
   5 C :   -0.174707
   6 C :   -0.126520
   7 C :   -0.121987
   8 C :   -0.130267
   9 C :   -0.173961
  10 N :   -0.415207
  11 C :    0.446260
  12 O :   -0.456993
  13 C :    0.079289
  14 C :   -0.178883
  15 C :   -0.134689
  16 C :   -0.115389
  17 C :   -0.133363
  18 C :   -0.149690
  19 C :   -0.031355
  20 C :   -0.286644
  21 C :   -0.334049
  22 C :    0.037590
  23 C :    0.373696
  24 F :   -0.314117
  25 C :   -0.297452
  26 C :    0.427138
  27 F :   -0.321805
  28 C :   -0.279296
  29 C :    0.108264
  30 H :    0.353708
  31 H :    0.338221
  32 H :    0.168548
  33 H :    0.136662
  34 H :    0.136129
  35 H :    0.134048
  36 H :    0.135896
  37 H :    0.148081
  38 H :    0.173267
  39 H :    0.136240
  40 H :    0.134289
  41 H :    0.135468
  42 H :    0.154998
  43 H :    0.173065
  44 H :    0.127991
  45 H :    0.168999
  46 H :    0.170413
  47 H :    0.143831
  48 H :    0.148881
  49 H :    0.166030
Sum of atomic charges:    0.0000000

LOEWDIN ATOMIC CHARGES
----------------------
   0 N :   -0.398217
   1 C :    0.138124
   2 O :   -0.290472
   3 C :   -0.073362
   4 C :   -0.028279
   5 C :   -0.126759
   6 C :   -0.124964
   7 C :   -0.124490
   8 C :   -0.126087
   9 C :   -0.131201
  10 N :   -0.096290
  11 C :    0.147134
  12 O :   -0.258722
  13 C :   -0.057310
  14 C :   -0.117806
  15 C :   -0.130339
  16 C :   -0.114625
  17 C :   -0.130579
  18 C :   -0.096735
  19 C :   -0.041486
  20 C :   -0.230470
  21 C :   -0.221265
  22 C :   -0.046977
  23 C :    0.118924
  24 F :   -0.101661
  25 C :   -0.189255
  26 C :    0.117657
  27 F :   -0.105204
  28 C :   -0.165354
  29 C :   -0.016485
  30 H :    0.266962
  31 H :    0.254798
  32 H :    0.151473
  33 H :    0.135049
  34 H :    0.135242
  35 H :    0.134234
  36 H :    0.134990
  37 H :    0.138730
  38 H :    0.149765
  39 H :    0.135033
  40 H :    0.133958
  41 H :    0.134816
  42 H :    0.146893
  43 H :    0.144692
  44 H :    0.117263
  45 H :    0.139388
  46 H :    0.141047
  47 H :    0.127465
  48 H :    0.148904
  49 H :    0.151854

  Mayer bond orders larger than 0.100000
B(  0-N ,  1-C ) :   1.0858 B(  0-N , 30-H ) :   0.8213 B(  0-N , 31-H ) :   0.8279
B(  1-C ,  2-O ) :   1.7983 B(  1-C ,  3-C ) :   0.8986 B(  3-C ,  4-C ) :   0.9487
B(  3-C , 10-N ) :   0.9896 B(  3-C , 32-H ) :   0.8978 B(  4-C ,  5-C ) :   1.4156
B(  4-C ,  9-C ) :   1.4231 B(  5-C ,  6-C ) :   1.4443 B(  5-C , 33-H ) :   0.9237
B(  6-C ,  7-C ) :   1.4501 B(  6-C , 34-H ) :   0.9283 B(  7-C ,  8-C ) :   1.4540
B(  7-C , 35-H ) :   0.9293 B(  8-C ,  9-C ) :   1.4363 B(  8-C , 36-H ) :   0.9287
B(  9-C , 37-H ) :   0.9143 B( 10-N , 11-C ) :   1.0116 B( 10-N , 19-C ) :   0.9096
B( 11-C , 12-O ) :   1.8179 B( 11-C , 13-C ) :   0.9860 B( 13-C , 14-C ) :   1.3924
B( 13-C , 18-C ) :   1.3937 B( 14-C , 15-C ) :   1.4333 B( 14-C , 38-H ) :   0.8981
B( 15-C , 16-C ) :   1.4515 B( 15-C , 39-H ) :   0.9294 B( 16-C , 17-C ) :   1.4378
B( 16-C , 40-H ) :   0.9299 B( 17-C , 18-C ) :   1.4394 B( 17-C , 41-H ) :   0.9298
B( 18-C , 42-H ) :   0.9169 B( 19-C , 20-C ) :   0.9567 B( 19-C , 29-C ) :   0.9970
B( 19-C , 43-H ) :   0.9091 B( 20-C , 21-C ) :   0.9852 B( 20-C , 44-H ) :   0.9438
B( 20-C , 45-H ) :   0.9371 B( 21-C , 22-C ) :   0.9810 B( 21-C , 46-H ) :   0.9272
B( 21-C , 47-H ) :   0.9341 B( 22-C , 23-C ) :   1.3153 B( 22-C , 29-C ) :   1.4724
B( 23-C , 24-F ) :   0.9371 B( 23-C , 25-C ) :   1.3673 B( 25-C , 26-C ) :   1.3538
B( 25-C , 48-H ) :   0.9140 B( 26-C , 27-F ) :   0.8989 B( 26-C , 28-C ) :   1.3711
B( 28-C , 29-C ) :   1.3861 B( 28-C , 49-H ) :   0.9025

FINAL SINGLE POINT ENERGY     -1385.405628322395

DIPOLE MOMENT
-------------

Method             : SCF
Type of density    : Electron Density
Multiplicity       :   1
Irrep              :   0
Energy             : -1385.4056283223949322 Eh
Relativity type    :
Basis              : AO
                                X                 Y                 Z
Electronic contribution:     24.598650801       4.257014051      -1.321674610
Nuclear contribution   :    -27.364460126      -4.581213422       0.539804204
                        -----------------------------------------
Total Dipole Moment    :     -2.765809325      -0.324199372      -0.781870407
                        -----------------------------------------
Magnitude (a.u.)       :      2.892425935
Magnitude (Debye)      :      7.351962456

Rotational constants in cm-1:             0.006013             0.004573             0.003445
Rotational constants in MHz :           180.262892           137.086623           103.292475

                             ****ORCA TERMINATED NORMALLY****
TOTAL RUN TIME: 0 days 0 hours 9 minutes 32 seconds 82 msec
