                         Program Version 6.0.0  -   RELEASE  -
|  1> ! B3LYP 6-31G* SP
|  2>
|  3> * xyz 0 1
|  4> C 4.0206 4.5221 3.0270
|  5> C 3.4493 3.3963 2.2356
|  6> N 2.7727 2.3635 2.7950
|  7> C 2.3958 1.4644 1.8508
|  8> C 1.6589 0.3100 2.1121
|  9> C 1.2943 -0.5175 1.0370
| 10> C 1.6622 -0.1840 -0.2883
| 11> C 1.1773 -1.0249 -1.4377
| 12> N -0.2763 -0.8990 -1.5917
| 13> C -1.1490 -1.8997 -1.0491
| 14> N -1.9046 -1.5836 0.0348
| 15> C -2.7285 -2.4752 0.6351
| 16> C -2.8151 -3.7838 0.1551
| 17> C -3.6475 -4.7173 0.7918
| 18> C -3.7256 -6.0265 0.3164
| 19> C -2.9740 -6.4138 -0.7927
| 20> C -2.1432 -5.4940 -1.4382
| 21> C -2.0541 -4.1604 -0.9801
| 22> C -1.2301 -3.1945 -1.6158
| 23> C -0.4657 -3.5308 -2.8774
| 24> S -0.9629 0.5493 -2.2670
| 25> O -2.4505 0.3901 -2.4143
| 26> O -0.3723 0.7742 -3.6309
| 27> C -0.6392 1.9301 -1.2204
| 28> C 0.0634 3.0425 -1.7024
| 29> C 0.3816 4.1003 -0.8456
| 30> C 0.0041 4.0593 0.5086
| 31> C 0.3867 5.1492 1.4324
| 32> O 1.0252 6.1507 1.0090
| 33> O 0.0563 5.0729 2.7829
| 34> C -0.7227 2.9527 0.9793
| 35> C -1.0457 1.8998 0.1189
| 36> C 2.4343 0.9711 -0.5282
| 37> C 2.7791 1.7717 0.5562
| 38> S 3.6288 3.2185 0.5609
| 39> H 5.0723 4.2900 3.2939
| 40> H 3.9905 5.4571 2.4295
| 41> H 3.4302 4.6715 3.9553
| 42> H 1.3573 0.0628 3.1218
| 43> H 0.7075 -1.4058 1.2322
| 44> H 1.4581 -2.0837 -1.2478
| 45> H 1.6740 -0.7273 -2.3863
| 46> H -3.3038 -2.1621 1.4976
| 47> H -4.2345 -4.4348 1.6577
| 48> H -4.3672 -6.7439 0.8114
| 49> H -3.0333 -7.4327 -1.1534
| 50> H -1.5698 -5.8429 -2.2859
| 51> H -1.1432 -4.0037 -3.6187
| 52> H 0.3659 -4.2254 -2.6361
| 53> H -0.0453 -2.6335 -3.3740
| 54> H 0.3872 3.0847 -2.7339
| 55> H 0.9430 4.9388 -1.2382
| 56> H 0.3243 5.8080 3.4262
| 57> H -1.0285 2.8911 2.0160
| 58> H -1.5912 1.0502 0.5054
| 59> H 2.7230 1.2577 -1.5317
| 60> *
| 61>
| 62>                          ****END OF INPUT****

CARTESIAN COORDINATES (ANGSTROEM)
---------------------------------
  C      4.020600    4.522100    3.027000
  C      3.449300    3.396300    2.235600
  N      2.772700    2.363500    2.795000
  C      2.395800    1.464400    1.850800
  C      1.658900    0.310000    2.112100
  C      1.294300   -0.517500    1.037000
  C      1.662200   -0.184000   -0.288300
  C      1.177300   -1.024900   -1.437700
  N     -0.276300   -0.899000   -1.591700
  C     -1.149000   -1.899700   -1.049100
  N     -1.904600   -1.583600    0.034800
  C     -2.728500   -2.475200    0.635100
  C     -2.815100   -3.783800    0.155100
  C     -3.647500   -4.717300    0.791800
  C     -3.725600   -6.026500    0.316400
  C     -2.974000   -6.413800   -0.792700
  C     -2.143200   -5.494000   -1.438200
  C     -2.054100   -4.160400   -0.980100
  C     -1.230100   -3.194500   -1.615800
  C     -0.465700   -3.530800   -2.877400
  S     -0.962900    0.549300   -2.267000
  O     -2.450500    0.390100   -2.414300
  O     -0.372300    0.774200   -3.630900
  C     -0.639200    1.930100   -1.220400
  C      0.063400    3.042500   -1.702400
  C      0.381600    4.100300   -0.845600
  C      0.004100    4.059300    0.508600
  C      0.386700    5.149200    1.432400
  O      1.025200    6.150700    1.009000
  O      0.056300    5.072900    2.782900
  C     -0.722700    2.952700    0.979300
  C     -1.045700    1.899800    0.118900
  C      2.434300    0.971100   -0.528200
  C      2.779100    1.771700    0.556200
  S      3.628800    3.218500    0.560900
  H      5.072300    4.290000    3.293900
  H      3.990500    5.457100    2.429500
  H      3.430200    4.671500    3.955300
  H      1.357300    0.062800    3.121800
  H      0.707500   -1.405800    1.232200
  H      1.458100   -2.083700   -1.247800
  H      1.674000   -0.727300   -2.386300
  H     -3.303800   -2.162100    1.497600
  H     -4.234500   -4.434800    1.657700
  H     -4.367200   -6.743900    0.811400
  H     -3.033300   -7.432700   -1.153400
  H     -1.569800   -5.842900   -2.285900
  H     -1.143200   -4.003700   -3.618700
  H      0.365900   -4.225400   -2.636100
  H     -0.045300   -2.633500   -3.374000
  H      0.387200    3.084700   -2.733900
  H      0.943000    4.938800   -1.238200
  H      0.324300    5.808000    3.426200
  H     -1.028500    2.891100    2.016000
  H     -1.591200    1.050200    0.505400
  H      2.723000    1.257700   -1.531700

 Total Charge           Charge          ....    0
 Multiplicity           Mult            ....    1
 Number of Electrons    NEL             ....  262
 Basis Dimension        Dim             ....  540

ORBITAL ENERGIES
----------------

  NO   OCC          E(Eh)            E(eV)
   0   2.0000     -89.093360     -2424.3536
   1   2.0000     -88.893072     -2418.9035
   2   2.0000     -19.190165      -522.1909
   3   2.0000     -19.131704      -520.6001
   4   2.0000     -19.122400      -520.3469
   5   2.0000     -19.118889      -520.2514
   6   2.0000     -14.371273      -391.0622
   7   2.0000     -14.334273      -390.0554
   8   2.0000     -14.325179      -389.8079
   9   2.0000     -10.329374      -281.0766
  10   2.0000     -10.262920      -279.2683
  11   2.0000     -10.253342      -279.0076
  12   2.0000     -10.235777      -278.5296
  13   2.0000     -10.232592      -278.4430
  14   2.0000     -10.227248      -278.2976
  15   2.0000     -10.221462      -278.1401
  16   2.0000     -10.210488      -277.8415
  17   2.0000     -10.210351      -277.8378
  18   2.0000     -10.209753      -277.8215
  19   2.0000     -10.209364      -277.8109
  20   2.0000     -10.207981      -277.7733
  21   2.0000     -10.206973      -277.7459
  22   2.0000     -10.206132      -277.7230
  23   2.0000     -10.205385      -277.7026
  24   2.0000     -10.201111      -277.5864
  25   2.0000     -10.199116      -277.5321
  26   2.0000     -10.198936      -277.5272
  27   2.0000     -10.197804      -277.4964
  28   2.0000     -10.196877      -277.4711
  29   2.0000     -10.196872      -277.4710
  30   2.0000     -10.196740      -277.4674
  31   2.0000     -10.196370      -277.4573
  32   2.0000     -10.187696      -277.2213
  33   2.0000     -10.186935      -277.2006
  34   2.0000     -10.184819      -277.1430
  35   2.0000      -8.128896      -221.1985
  36   2.0000      -7.971193      -216.9072
  37   2.0000      -6.094146      -165.8301
  38   2.0000      -6.091807      -165.7665
  39   2.0000      -6.091492      -165.7579
  40   2.0000      -5.934175      -161.4771
  41   2.0000      -5.930327      -161.3724
  42   2.0000      -5.927851      -161.3050
  43   2.0000      -1.078487       -29.3471
  44   2.0000      -1.074973       -29.2515
  45   2.0000      -0.989192       -26.9173
  46   2.0000      -0.966201       -26.2917
  47   2.0000      -0.963672       -26.2228
  48   2.0000      -0.956281       -26.0217
  49   2.0000      -0.915573       -24.9140
  50   2.0000      -0.879712       -23.9382
  51   2.0000      -0.866145       -23.5690
  52   2.0000      -0.851685       -23.1755
  53   2.0000      -0.815233       -22.1836
  54   2.0000      -0.809524       -22.0283
  55   2.0000      -0.797183       -21.6925
  56   2.0000      -0.783420       -21.3179
  57   2.0000      -0.773794       -21.0560
  58   2.0000      -0.765526       -20.8310
  59   2.0000      -0.749831       -20.4039
  60   2.0000      -0.741454       -20.1760
  61   2.0000      -0.722101       -19.6494
  62   2.0000      -0.708495       -19.2791
  63   2.0000      -0.697821       -18.9887
  64   2.0000      -0.674521       -18.3547
  65   2.0000      -0.651546       -17.7295
  66   2.0000      -0.646082       -17.5808
  67   2.0000      -0.627322       -17.0703
  68   2.0000      -0.614738       -16.7279
  69   2.0000      -0.610912       -16.6238
  70   2.0000      -0.598902       -16.2970
  71   2.0000      -0.594130       -16.1671
  72   2.0000      -0.580594       -15.7988
  73   2.0000      -0.567348       -15.4383
  74   2.0000      -0.555039       -15.1034
  75   2.0000      -0.536437       -14.5972
  76   2.0000      -0.531982       -14.4760
  77   2.0000      -0.516691       -14.0599
  78   2.0000      -0.503890       -13.7115
  79   2.0000      -0.493920       -13.4403
  80   2.0000      -0.491479       -13.3738
  81   2.0000      -0.483159       -13.1474
  82   2.0000      -0.480144       -13.0654
  83   2.0000      -0.472229       -12.8500
  84   2.0000      -0.464064       -12.6278
  85   2.0000      -0.460375       -12.5274
  86   2.0000      -0.453291       -12.3347
  87   2.0000      -0.452688       -12.3183
  88   2.0000      -0.450895       -12.2695
  89   2.0000      -0.446859       -12.1597
  90   2.0000      -0.442706       -12.0466
  91   2.0000      -0.437025       -11.8921
  92   2.0000      -0.436267       -11.8714
  93   2.0000      -0.431983       -11.7549
  94   2.0000      -0.431709       -11.7474
  95   2.0000      -0.420885       -11.4529
  96   2.0000      -0.418700       -11.3934
  97   2.0000      -0.411203       -11.1894
  98   2.0000      -0.408401       -11.1132
  99   2.0000      -0.406164       -11.0523
 100   2.0000      -0.404437       -11.0053
 101   2.0000      -0.399397       -10.8681
 102   2.0000      -0.394632       -10.7385
 103   2.0000      -0.388272       -10.5654
 104   2.0000      -0.383232       -10.4283
 105   2.0000      -0.378294       -10.2939
 106   2.0000      -0.376753       -10.2520
 107   2.0000      -0.371919       -10.1204
 108   2.0000      -0.368826       -10.0363
 109   2.0000      -0.358699        -9.7607
 110   2.0000      -0.354523        -9.6471
 111   2.0000      -0.352589        -9.5944
 112   2.0000      -0.341548        -9.2940
 113   2.0000      -0.332839        -9.0570
 114   2.0000      -0.320921        -8.7327
 115   2.0000      -0.312671        -8.5082
 116   2.0000      -0.305568        -8.3149
 117   2.0000      -0.300213        -8.1692
 118   2.0000      -0.295163        -8.0318
 119   2.0000      -0.293094        -7.9755
 120   2.0000      -0.279253        -7.5989
 121   2.0000      -0.273217        -7.4346
 122   2.0000      -0.269205        -7.3254
 123   2.0000      -0.268139        -7.2964
 124   2.0000      -0.266570        -7.2538
 125   2.0000      -0.264805        -7.2057
 126   2.0000      -0.256305        -6.9744
 127   2.0000      -0.250305        -6.8112
 128   2.0000      -0.237369        -6.4591
 129   2.0000      -0.226117        -6.1530
 130   2.0000      -0.218474        -5.9450
 131   0.0000      -0.074799        -2.0354
 132   0.0000      -0.062549        -1.7020
 133   0.0000      -0.038439        -1.0460
 134   0.0000      -0.029509        -0.8030
 135   0.0000      -0.019514        -0.5310

MULLIKEN ATOMIC CHARGES
-----------------------
   0 C :   -0.502537
   1 C :    0.065999
   2 N :   -0.407005
   3 C :    0.253907
   4 C :   -0.153691
   5 C :   -0.176586
   6 C :    0.158754
   7 C :   -0.259350
   8 N :   -0.613565
   9 C :    0.345474
  10 N :   -0.395347
  11 C :   -0.045525
  12 C :    0.131464
  13 C :   -0.201755
  14 C :   -0.127326
  15 C :   -0.119667
  16 C :   -0.199168
  17 C :    0.125604
  18 C :    0.093968
  19 C :   -0.547889
  20 S :    1.201569
  21 O :   -0.529088
  22 O :   -0.543901
  23 C :   -0.127080
  24 C :   -0.151911
  25 C :   -0.139430
  26 C :    0.081983
  27 C :    0.533124
  28 O :   -0.456300
  29 O :   -0.621333
  30 C :   -0.142109
  31 C :   -0.134980
  32 C :   -0.224237
  33 C :   -0.119627
  34 S :    0.228704
  35 H :    0.182577
  36 H :    0.179829
  37 H :    0.182812
  38 H :    0.141621
  39 H :    0.138299
  40 H :    0.177897
  41 H :    0.181830
  42 H :    0.152722
  43 H :    0.139312
  44 H :    0.136342
  45 H :    0.138375
  46 H :    0.139524
  47 H :    0.170343
  48 H :    0.156151
  49 H :    0.195583
  50 H :    0.184484
  51 H :    0.175928
  52 H :    0.430046
  53 H :    0.171583
  54 H :    0.197622
  55 H :    0.145979
Sum of atomic charges:   -0.0000000

LOEWDIN ATOMIC CHARGES
----------------------
   0 C :   -0.359303
   1 C :   -0.111323
   2 N :   -0.162722
   3 C :   -0.018027
   4 C :   -0.120218
   5 C :   -0.127894
   6 C :   -0.043887
   7 C :   -0.148745
   8 N :   -0.279372
   9 C :    0.036472
  10 N :   -0.132973
  11 C :   -0.058177
  12 C :   -0.030377
  13 C :   -0.110836
  14 C :   -0.127339
  15 C :   -0.115923
  16 C :   -0.124447
  17 C :   -0.004614
  18 C :   -0.015964
  19 C :   -0.361971
  20 S :    1.269013
  21 O :   -0.561997
  22 O :   -0.576616
  23 C :   -0.169900
  24 C :   -0.107025
  25 C :   -0.089491
  26 C :   -0.042328
  27 C :    0.180075
  28 O :   -0.269289
  29 O :   -0.331721
  30 C :   -0.094971
  31 C :   -0.097216
  32 C :   -0.136412
  33 C :   -0.184937
  34 S :    0.376002
  35 H :    0.150674
  36 H :    0.148420
  37 H :    0.152167
  38 H :    0.143199
  39 H :    0.137817
  40 H :    0.146083
  41 H :    0.140631
  42 H :    0.137418
  43 H :    0.137226
  44 H :    0.135680
  45 H :    0.136888
  46 H :    0.139097
  47 H :    0.141559
  48 H :    0.134067
  49 H :    0.150312
  50 H :    0.160077
  51 H :    0.158177
  52 H :    0.346990
  53 H :    0.154501
  54 H :    0.163651
  55 H :    0.139816

  Mayer bond orders larger than 0.100000
B(  0-C ,  1-C ) :   1.0046 B(  0-C , 35-H ) :   0.9282 B(  0-C , 36-H ) :   0.9317
B(  0-C , 37-H ) :   0.9359 B(  1-C ,  2-N ) :   1.5784 B(  1-C , 34-S ) :   1.1218
B(  2-N ,  3-C ) :   1.2089 B(  3-C ,  4-C ) :   1.3361 B(  3-C , 33-C ) :   1.3099
B(  4-C ,  5-C ) :   1.4755 B(  4-C , 38-H ) :   0.9196 B(  5-C ,  6-C ) :   1.3599
B(  5-C , 39-H ) :   0.9186 B(  6-C ,  7-C ) :   0.9549 B(  6-C , 32-C ) :   1.4650
B(  7-C ,  8-N ) :   0.9183 B(  7-C , 40-H ) :   0.9185 B(  7-C , 41-H ) :   0.9195
B(  8-N ,  9-C ) :   0.8821 B(  8-N , 20-S ) :   0.7882 B(  9-C , 10-N ) :   1.2645
B(  9-C , 18-C ) :   1.4378 B( 10-N , 11-C ) :   1.4882 B( 11-C , 12-C ) :   1.2376
B( 11-C , 18-C ) :   0.1008 B( 11-C , 42-H ) :   0.9256 B( 12-C , 13-C ) :   1.2841
B( 12-C , 17-C ) :   1.2891 B( 13-C , 14-C ) :   1.5139 B( 13-C , 16-C ) :   0.1062
B( 13-C , 43-H ) :   0.9233 B( 14-C , 15-C ) :   1.3523 B( 14-C , 44-H ) :   0.9292
B( 15-C , 16-C ) :   1.5094 B( 15-C , 45-H ) :   0.9289 B( 16-C , 17-C ) :   1.2936
B( 16-C , 46-H ) :   0.9165 B( 17-C , 18-C ) :   1.2655 B( 18-C , 19-C ) :   0.9989
B( 19-C , 47-H ) :   0.9283 B( 19-C , 48-H ) :   0.9272 B( 19-C , 49-H ) :   0.9263
B( 20-S , 21-O ) :   1.6694 B( 20-S , 22-O ) :   1.6369 B( 20-S , 23-C ) :   0.8135
B( 23-C , 24-C ) :   1.3860 B( 23-C , 31-C ) :   1.3940 B( 24-C , 25-C ) :   1.4156
B( 24-C , 50-H ) :   0.9092 B( 25-C , 26-C ) :   1.3958 B( 25-C , 51-H ) :   0.9102
B( 26-C , 27-C ) :   1.0106 B( 26-C , 30-C ) :   1.3800 B( 27-C , 28-O ) :   1.8446
B( 27-C , 29-O ) :   1.0228 B( 29-O , 52-H ) :   0.7440 B( 30-C , 31-C ) :   1.4185
B( 30-C , 53-H ) :   0.9153 B( 31-C , 54-H ) :   0.8867 B( 32-C , 33-C ) :   1.3208
B( 32-C , 55-H ) :   0.9160 B( 33-C , 34-S ) :   1.0578

FINAL SINGLE POINT ENERGY     -2263.851259270013

DIPOLE MOMENT
-------------

Method             : SCF
Type of density    : Electron Density
Multiplicity       :   1
Irrep              :   0
Energy             : -2263.8512592700130881 Eh
Relativity type    :
Basis              : AO
                                X                 Y                 Z
Electronic contribution:     -0.207383088      14.532703067      -2.309287701
Nuclear contribution   :      0.930574738     -16.013623268       4.000838873
                        -----------------------------------------
Total Dipole Moment    :      0.723191649      -1.480920202       1.691551172
                        -----------------------------------------
Magnitude (a.u.)       :      2.361668091
Magnitude (Debye)      :      6.002883231

Rotational constants in cm-1:             0.007748             0.002069             0.001986
Rotational constants in MHz :           232.266444            62.039900            59.548404

                             ****ORCA TERMINATED NORMALLY****
TOTAL RUN TIME: 0 days 0 hours 11 minutes 34 seconds 534 msec
