                         Program Version 6.0.0  -   RELEASE  -
|  1> ! B3LYP 6-31G* SP
|  2>
|  3> * xyz 0 1
|  4> O 1.3942 1.9980 1.5475
|  5> C 1.8486 1.0735 0.8188
|  6> N 1.1195 -0.1606 0.6978
|  7> C -0.2322 -0.3274 1.2494
|  8> C -1.3019 0.4537 0.5000
|  9> C -1.0400 1.1496 -0.6969
| 10> C -2.0539 1.8625 -1.3420
| 11> C -3.3524 1.9035 -0.8053
| 12> C -4.4604 2.6685 -1.4887
| 13> F -4.9231 3.6617 -0.6447
| 14> F -5.5012 1.8072 -1.7857
| 15> F -4.0287 3.2567 -2.6652
| 16> C -3.6135 1.2211 0.3956
| 17> F -4.8539 1.2454 0.9466
| 18> C -2.5982 0.5089 1.0398
| 19> C -0.5763 -1.8024 1.4109
| 20> N -0.5407 -2.2864 2.6857
| 21> C -0.8246 -3.5744 2.9977
| 22> C -1.1789 -4.4672 1.9962
| 23> C -1.2239 -4.0281 0.6764
| 24> C -0.8985 -2.6974 0.3415
| 25> C -1.0025 -2.2797 -1.1163
| 26> F -2.1971 -1.6166 -1.3233
| 27> F 0.0491 -1.4670 -1.4837
| 28> F -0.9731 -3.3803 -1.9563
| 29> C 3.1294 1.2764 0.1013
| 30> C 4.0564 2.2273 0.5677
| 31> C 5.2634 2.4310 -0.1081
| 32> C 5.5549 1.6957 -1.2590
| 33> C 4.6377 0.7585 -1.7391
| 34> C 3.4294 0.5497 -1.0668
| 35> H 1.6264 -1.0011 0.3399
| 36> H -0.2145 0.1072 2.2751
| 37> H -0.0582 1.1384 -1.1494
| 38> H -1.8158 2.3791 -2.2627
| 39> H -2.8236 -0.0070 1.9654
| 40> H -0.7826 -3.9010 4.0282
| 41> H -1.4212 -5.4936 2.2403
| 42> H -1.5186 -4.7402 -0.0835
| 43> H 3.8524 2.8058 1.4602
| 44> H 5.9733 3.1599 0.2611
| 45> H 6.4890 1.8559 -1.7816
| 46> H 4.8600 0.1972 -2.6375
| 47> H 2.7256 -0.1619 -1.4778
| 48> *
| 49>
| 50>                          ****END OF INPUT****

CARTESIAN COORDINATES (ANGSTROEM)
---------------------------------
  O      1.394200    1.998000    1.547500
  C      1.848600    1.073500    0.818800
  N      1.119500   -0.160600    0.697800
  C     -0.232200   -0.327400    1.249400
  C     -1.301900    0.453700    0.500000
  C     -1.040000    1.149600   -0.696900
  C     -2.053900    1.862500   -1.342000
  C     -3.352400    1.903500   -0.805300
  C     -4.460400    2.668500   -1.488700
  F     -4.923100    3.661700   -0.644700
  F     -5.501200    1.807200   -1.785700
  F     -4.028700    3.256700   -2.665200
  C     -3.613500    1.221100    0.395600
  F     -4.853900    1.245400    0.946600
  C     -2.598200    0.508900    1.039800
  C     -0.576300   -1.802400    1.410900
  N     -0.540700   -2.286400    2.685700
  C     -0.824600   -3.574400    2.997700
  C     -1.178900   -4.467200    1.996200
  C     -1.223900   -4.028100    0.676400
  C     -0.898500   -2.697400    0.341500
  C     -1.002500   -2.279700   -1.116300
  F     -2.197100   -1.616600   -1.323300
  F      0.049100   -1.467000   -1.483700
  F     -0.973100   -3.380300   -1.956300
  C      3.129400    1.276400    0.101300
  C      4.056400    2.227300    0.567700
  C      5.263400    2.431000   -0.108100
  C      5.554900    1.695700   -1.259000
  C      4.637700    0.758500   -1.739100
  C      3.429400    0.549700   -1.066800
  H      1.626400   -1.001100    0.339900
  H     -0.214500    0.107200    2.275100
  H     -0.058200    1.138400   -1.149400
  H     -1.815800    2.379100   -2.262700
  H     -2.823600   -0.007000    1.965400
  H     -0.782600   -3.901000    4.028200
  H     -1.421200   -5.493600    2.240300
  H     -1.518600   -4.740200   -0.083500
  H      3.852400    2.805800    1.460200
  H      5.973300    3.159900    0.261100
  H      6.489000    1.855900   -1.781600
  H      4.860000    0.197200   -2.637500
  H      2.725600   -0.161900   -1.477800

 Total Charge           Charge          ....    0
 Multiplicity           Mult            ....    1
 Number of Electrons    NEL             ....  224
 Basis Dimension        Dim             ....  460

ORBITAL ENERGIES
----------------

  NO   OCC          E(Eh)            E(eV)
   0   2.0000     -24.741229      -673.2431
   1   2.0000     -24.736052      -673.1022
   2   2.0000     -24.729964      -672.9365
   3   2.0000     -24.714456      -672.5145
   4   2.0000     -24.706364      -672.2943
   5   2.0000     -24.705819      -672.2795
   6   2.0000     -24.704804      -672.2519
   7   2.0000     -19.113260      -520.0982
   8   2.0000     -14.363177      -390.8419
   9   2.0000     -14.354509      -390.6061
  10   2.0000     -10.455228      -284.5012
  11   2.0000     -10.428565      -283.7757
  12   2.0000     -10.293580      -280.1026
  13   2.0000     -10.281371      -279.7703
  14   2.0000     -10.267605      -279.3957
  15   2.0000     -10.247179      -278.8399
  16   2.0000     -10.246884      -278.8319
  17   2.0000     -10.242811      -278.7210
  18   2.0000     -10.232803      -278.4487
  19   2.0000     -10.218131      -278.0495
  20   2.0000     -10.210692      -277.8471
  21   2.0000     -10.210497      -277.8418
  22   2.0000     -10.206004      -277.7195
  23   2.0000     -10.200568      -277.5716
  24   2.0000     -10.199622      -277.5458
  25   2.0000     -10.196091      -277.4497
  26   2.0000     -10.195979      -277.4467
  27   2.0000     -10.194658      -277.4107
  28   2.0000     -10.194477      -277.4058
  29   2.0000     -10.192852      -277.3616
  30   2.0000     -10.188802      -277.2514
  31   2.0000      -1.299078       -35.3497
  32   2.0000      -1.270399       -34.5693
  33   2.0000      -1.225147       -33.3379
  34   2.0000      -1.218500       -33.1571
  35   2.0000      -1.217483       -33.1294
  36   2.0000      -1.196670       -32.5631
  37   2.0000      -1.192583       -32.4518
  38   2.0000      -1.013918       -27.5901
  39   2.0000      -0.961893       -26.1744
  40   2.0000      -0.914170       -24.8758
  41   2.0000      -0.868919       -23.6445
  42   2.0000      -0.861934       -23.4544
  43   2.0000      -0.838374       -22.8133
  44   2.0000      -0.814527       -22.1644
  45   2.0000      -0.789217       -21.4757
  46   2.0000      -0.767273       -20.8786
  47   2.0000      -0.753856       -20.5135
  48   2.0000      -0.753611       -20.5068
  49   2.0000      -0.733752       -19.9664
  50   2.0000      -0.713711       -19.4211
  51   2.0000      -0.679102       -18.4793
  52   2.0000      -0.653380       -17.7794
  53   2.0000      -0.647112       -17.6088
  54   2.0000      -0.633494       -17.2383
  55   2.0000      -0.625293       -17.0151
  56   2.0000      -0.614360       -16.7176
  57   2.0000      -0.603820       -16.4308
  58   2.0000      -0.588696       -16.0192
  59   2.0000      -0.585527       -15.9330
  60   2.0000      -0.576971       -15.7002
  61   2.0000      -0.573626       -15.6092
  62   2.0000      -0.561064       -15.2673
  63   2.0000      -0.559924       -15.2363
  64   2.0000      -0.559690       -15.2299
  65   2.0000      -0.546902       -14.8820
  66   2.0000      -0.527065       -14.3422
  67   2.0000      -0.521133       -14.1807
  68   2.0000      -0.512141       -13.9361
  69   2.0000      -0.495749       -13.4900
  70   2.0000      -0.490570       -13.3491
  71   2.0000      -0.477300       -12.9880
  72   2.0000      -0.470340       -12.7986
  73   2.0000      -0.467553       -12.7228
  74   2.0000      -0.465875       -12.6771
  75   2.0000      -0.460911       -12.5420
  76   2.0000      -0.457406       -12.4466
  77   2.0000      -0.451138       -12.2761
  78   2.0000      -0.449106       -12.2208
  79   2.0000      -0.443044       -12.0558
  80   2.0000      -0.439721       -11.9654
  81   2.0000      -0.438082       -11.9208
  82   2.0000      -0.437641       -11.9088
  83   2.0000      -0.435569       -11.8524
  84   2.0000      -0.429596       -11.6899
  85   2.0000      -0.424046       -11.5389
  86   2.0000      -0.418564       -11.3897
  87   2.0000      -0.414709       -11.2848
  88   2.0000      -0.413224       -11.2444
  89   2.0000      -0.407437       -11.0869
  90   2.0000      -0.406965       -11.0741
  91   2.0000      -0.402415       -10.9503
  92   2.0000      -0.400834       -10.9072
  93   2.0000      -0.395150       -10.7526
  94   2.0000      -0.388908       -10.5827
  95   2.0000      -0.387689       -10.5496
  96   2.0000      -0.383640       -10.4394
  97   2.0000      -0.368726       -10.0335
  98   2.0000      -0.363426        -9.8893
  99   2.0000      -0.357899        -9.7389
 100   2.0000      -0.352161        -9.5828
 101   2.0000      -0.350267        -9.5313
 102   2.0000      -0.345402        -9.3989
 103   2.0000      -0.310637        -8.4529
 104   2.0000      -0.293106        -7.9758
 105   2.0000      -0.274118        -7.4591
 106   2.0000      -0.263281        -7.1642
 107   2.0000      -0.261273        -7.1096
 108   2.0000      -0.259727        -7.0675
 109   2.0000      -0.251082        -6.8323
 110   2.0000      -0.247420        -6.7326
 111   2.0000      -0.245091        -6.6693
 112   0.0000      -0.058545        -1.5931
 113   0.0000      -0.053361        -1.4520
 114   0.0000      -0.044842        -1.2202
 115   0.0000      -0.025636        -0.6976
 116   0.0000      -0.011941        -0.3249

MULLIKEN ATOMIC CHARGES
-----------------------
   0 O :   -0.476878
   1 C :    0.495991
   2 N :   -0.653391
   3 C :   -0.032088
   4 C :    0.157475
   5 C :   -0.158994
   6 C :   -0.152128
   7 C :   -0.113984
   8 C :    0.917685
   9 F :   -0.298890
  10 F :   -0.300713
  11 F :   -0.307070
  12 C :    0.387018
  13 F :   -0.303139
  14 C :   -0.253737
  15 C :    0.191916
  16 N :   -0.402780
  17 C :    0.028545
  18 C :   -0.131641
  19 C :   -0.127453
  20 C :   -0.069448
  21 C :    0.924674
  22 F :   -0.286087
  23 F :   -0.299768
  24 F :   -0.303937
  25 C :    0.079947
  26 C :   -0.146412
  27 C :   -0.131811
  28 C :   -0.114886
  29 C :   -0.130424
  30 C :   -0.181994
  31 H :    0.328310
  32 H :    0.209285
  33 H :    0.142648
  34 H :    0.159420
  35 H :    0.153825
  36 H :    0.166323
  37 H :    0.151755
  38 H :    0.171944
  39 H :    0.163435
  40 H :    0.139816
  41 H :    0.136857
  42 H :    0.135633
  43 H :    0.135148
Sum of atomic charges:   -0.0000000

LOEWDIN ATOMIC CHARGES
----------------------
   0 O :   -0.282096
   1 C :    0.141435
   2 N :   -0.238455
   3 C :   -0.050256
   4 C :   -0.004751
   5 C :   -0.129315
   6 C :   -0.106205
   7 C :   -0.099284
   8 C :    0.313784
   9 F :   -0.112329
  10 F :   -0.113450
  11 F :   -0.112143
  12 C :    0.135452
  13 F :   -0.094719
  14 C :   -0.154548
  15 C :    0.043634
  16 N :   -0.123573
  17 C :   -0.052398
  18 C :   -0.137796
  19 C :   -0.087065
  20 C :   -0.082362
  21 C :    0.310865
  22 F :   -0.099234
  23 F :   -0.102779
  24 F :   -0.110448
  25 C :   -0.051780
  26 C :   -0.092493
  27 C :   -0.125996
  28 C :   -0.114500
  29 C :   -0.128780
  30 C :   -0.127227
  31 H :    0.250891
  32 H :    0.168342
  33 H :    0.141031
  34 H :    0.148006
  35 H :    0.148560
  36 H :    0.143515
  37 H :    0.144360
  38 H :    0.152345
  39 H :    0.151426
  40 H :    0.137000
  41 H :    0.135344
  42 H :    0.134742
  43 H :    0.133249

  Mayer bond orders larger than 0.100000
B(  0-O ,  1-C ) :   1.8029 B(  1-C ,  2-N ) :   1.0267 B(  1-C , 25-C ) :   0.9911
B(  2-N ,  3-C ) :   0.8910 B(  2-N , 31-H ) :   0.8165 B(  3-C ,  4-C ) :   0.9493
B(  3-C , 15-C ) :   0.9576 B(  3-C , 32-H ) :   0.8882 B(  4-C ,  5-C ) :   1.4311
B(  4-C , 14-C ) :   1.3806 B(  5-C ,  6-C ) :   1.4237 B(  5-C , 33-H ) :   0.9119
B(  6-C ,  7-C ) :   1.4093 B(  6-C , 34-H ) :   0.9184 B(  7-C ,  8-C ) :   0.9675
B(  7-C , 12-C ) :   1.3253 B(  8-C ,  9-F ) :   0.9728 B(  8-C , 10-F ) :   0.9690
B(  8-C , 11-F ) :   0.9452 B( 12-C , 13-F ) :   0.9480 B( 12-C , 14-C ) :   1.3832
B( 14-C , 35-H ) :   0.9109 B( 15-C , 16-N ) :   1.3926 B( 15-C , 20-C ) :   1.3428
B( 16-N , 17-C ) :   1.4144 B( 17-C , 18-C ) :   1.4221 B( 17-C , 36-H ) :   0.9258
B( 18-C , 19-C ) :   1.4358 B( 18-C , 37-H ) :   0.9223 B( 19-C , 20-C ) :   1.4065
B( 19-C , 38-H ) :   0.9154 B( 20-C , 21-C ) :   0.9668 B( 21-C , 22-F ) :   0.9746
B( 21-C , 23-F ) :   0.9198 B( 21-C , 24-F ) :   0.9415 B( 25-C , 26-C ) :   1.4048
B( 25-C , 30-C ) :   1.3938 B( 26-C , 27-C ) :   1.4356 B( 26-C , 39-H ) :   0.9138
B( 27-C , 28-C ) :   1.4392 B( 27-C , 40-H ) :   0.9290 B( 28-C , 29-C ) :   1.4553
B( 28-C , 41-H ) :   0.9293 B( 29-C , 30-C ) :   1.4390 B( 29-C , 42-H ) :   0.9289
B( 30-C , 43-H ) :   0.9164

FINAL SINGLE POINT ENERGY     -1690.811825300384

DIPOLE MOMENT
-------------

Method             : SCF
Type of density    : Electron Density
Multiplicity       :   1
Irrep              :   0
Energy             : -1690.8118253003840437 Eh
Relativity type    :
Basis              : AO
                                X                 Y                 Z
Electronic contribution:    -39.265581249       5.113825470     -12.215509662
Nuclear contribution   :     41.007485791      -7.548539401      12.113620943
                        -----------------------------------------
Total Dipole Moment    :      1.741904542      -2.434713931      -0.101888719
                        -----------------------------------------
Magnitude (a.u.)       :      2.995403925
Magnitude (Debye)      :      7.613711706

Rotational constants in cm-1:             0.005335             0.003451             0.002585
Rotational constants in MHz :           159.929555           103.451170            77.509386

                             ****ORCA TERMINATED NORMALLY****
TOTAL RUN TIME: 0 days 0 hours 5 minutes 22 seconds 124 msec
