                         Program Version 6.0.0  -   RELEASE  -
|  1> ! B3LYP 6-31G* SP
|  2>
|  3> * xyz 0 1
|  4> C -5.3585 -0.0097 -1.1990
|  5> C -4.4831 -0.1251 0.0536
|  6> N -3.0915 -0.3677 -0.3388
|  7> C -1.9760 0.2172 0.3481
|  8> O -2.1677 1.0297 1.2940
|  9> N -0.6404 -0.1256 -0.0470
| 10> C 0.5435 0.4954 0.5592
| 11> C 1.7364 -0.4563 0.5666
| 12> C 1.5414 -1.8479 0.6656
| 13> C 2.6313 -2.7200 0.7331
| 14> C 3.9441 -2.2237 0.7170
| 15> C 5.1175 -3.1627 0.8401
| 16> F 4.8309 -4.3823 0.2515
| 17> F 5.4015 -3.3636 2.1779
| 18> F 6.2341 -2.6333 0.2163
| 19> C 4.1440 -0.8347 0.6957
| 20> C 3.0549 0.0383 0.6287
| 21> C 0.8307 1.7943 -0.1602
| 22> N 0.7466 2.9660 0.5302
| 23> C 0.9856 4.1686 -0.0573
| 24> C 1.3276 4.2308 -1.4091
| 25> C 1.4197 3.0488 -2.1448
| 26> C 1.1704 1.8218 -1.5263
| 27> F 1.2687 0.6764 -2.2472
| 28> C -4.9702 -1.2497 0.9799
| 29> F -4.1738 -1.3015 2.1099
| 30> F -4.9080 -2.4718 0.3326
| 31> F -6.2758 -1.0118 1.3722
| 32> H -5.3431 -0.9564 -1.7804
| 33> H -6.4072 0.2255 -0.9189
| 34> H -4.9801 0.8100 -1.8463
| 35> H -4.5616 0.8402 0.6009
| 36> H -2.8973 -1.0953 -1.0640
| 37> H -0.5193 -0.7190 -0.8993
| 38> H 0.3278 0.7189 1.6276
| 39> H 0.5443 -2.2673 0.7026
| 40> H 2.4464 -3.7842 0.8095
| 41> H 5.1440 -0.4218 0.7420
| 42> H 3.2484 1.1033 0.6332
| 43> H 0.9094 5.0766 0.5256
| 44> H 1.5192 5.1855 -1.8814
| 45> H 1.6850 3.0844 -3.1936
| 46> *
| 47>
| 48>                          ****END OF INPUT****

CARTESIAN COORDINATES (ANGSTROEM)
---------------------------------
  C     -5.358500   -0.009700   -1.199000
  C     -4.483100   -0.125100    0.053600
  N     -3.091500   -0.367700   -0.338800
  C     -1.976000    0.217200    0.348100
  O     -2.167700    1.029700    1.294000
  N     -0.640400   -0.125600   -0.047000
  C      0.543500    0.495400    0.559200
  C      1.736400   -0.456300    0.566600
  C      1.541400   -1.847900    0.665600
  C      2.631300   -2.720000    0.733100
  C      3.944100   -2.223700    0.717000
  C      5.117500   -3.162700    0.840100
  F      4.830900   -4.382300    0.251500
  F      5.401500   -3.363600    2.177900
  F      6.234100   -2.633300    0.216300
  C      4.144000   -0.834700    0.695700
  C      3.054900    0.038300    0.628700
  C      0.830700    1.794300   -0.160200
  N      0.746600    2.966000    0.530200
  C      0.985600    4.168600   -0.057300
  C      1.327600    4.230800   -1.409100
  C      1.419700    3.048800   -2.144800
  C      1.170400    1.821800   -1.526300
  F      1.268700    0.676400   -2.247200
  C     -4.970200   -1.249700    0.979900
  F     -4.173800   -1.301500    2.109900
  F     -4.908000   -2.471800    0.332600
  F     -6.275800   -1.011800    1.372200
  H     -5.343100   -0.956400   -1.780400
  H     -6.407200    0.225500   -0.918900
  H     -4.980100    0.810000   -1.846300
  H     -4.561600    0.840200    0.600900
  H     -2.897300   -1.095300   -1.064000
  H     -0.519300   -0.719000   -0.899300
  H      0.327800    0.718900    1.627600
  H      0.544300   -2.267300    0.702600
  H      2.446400   -3.784200    0.809500
  H      5.144000   -0.421800    0.742000
  H      3.248400    1.103300    0.633200
  H      0.909400    5.076600    0.525600
  H      1.519200    5.185500   -1.881400
  H      1.685000    3.084400   -3.193600

 Total Charge           Charge          ....    0
 Multiplicity           Mult            ....    1
 Number of Electrons    NEL             ....  208
 Basis Dimension        Dim             ....  420

ORBITAL ENERGIES
----------------

  NO   OCC          E(Eh)            E(eV)
   0   2.0000     -24.722398      -672.7306
   1   2.0000     -24.721824      -672.7150
   2   2.0000     -24.719244      -672.6448
   3   2.0000     -24.717229      -672.5900
   4   2.0000     -24.717119      -672.5870
   5   2.0000     -24.712965      -672.4740
   6   2.0000     -24.711354      -672.4301
   7   2.0000     -19.103228      -519.8253
   8   2.0000     -14.367779      -390.9671
   9   2.0000     -14.365293      -390.8995
  10   2.0000     -14.339546      -390.1989
  11   2.0000     -10.431950      -283.8678
  12   2.0000     -10.428188      -283.7654
  13   2.0000     -10.322031      -280.8767
  14   2.0000     -10.286912      -279.9211
  15   2.0000     -10.251257      -278.9509
  16   2.0000     -10.244352      -278.7630
  17   2.0000     -10.240438      -278.6565
  18   2.0000     -10.227136      -278.2945
  19   2.0000     -10.214322      -277.9458
  20   2.0000     -10.214185      -277.9421
  21   2.0000     -10.211799      -277.8772
  22   2.0000     -10.206156      -277.7236
  23   2.0000     -10.202644      -277.6281
  24   2.0000     -10.202590      -277.6266
  25   2.0000     -10.198125      -277.5051
  26   2.0000     -10.197607      -277.4910
  27   2.0000     -10.194537      -277.4075
  28   2.0000      -1.277540       -34.7636
  29   2.0000      -1.276754       -34.7422
  30   2.0000      -1.234449       -33.5911
  31   2.0000      -1.206130       -32.8205
  32   2.0000      -1.202524       -32.7223
  33   2.0000      -1.200832       -32.6763
  34   2.0000      -1.199083       -32.6287
  35   2.0000      -1.020467       -27.7683
  36   2.0000      -0.945871       -25.7385
  37   2.0000      -0.919833       -25.0299
  38   2.0000      -0.913728       -24.8638
  39   2.0000      -0.870014       -23.6743
  40   2.0000      -0.811764       -22.0892
  41   2.0000      -0.804548       -21.8929
  42   2.0000      -0.782025       -21.2800
  43   2.0000      -0.775076       -21.0909
  44   2.0000      -0.759134       -20.6571
  45   2.0000      -0.720846       -19.6152
  46   2.0000      -0.700518       -19.0621
  47   2.0000      -0.678886       -18.4734
  48   2.0000      -0.646821       -17.6009
  49   2.0000      -0.640903       -17.4399
  50   2.0000      -0.628885       -17.1128
  51   2.0000      -0.622721       -16.9451
  52   2.0000      -0.605376       -16.4731
  53   2.0000      -0.591803       -16.1038
  54   2.0000      -0.572335       -15.5740
  55   2.0000      -0.567577       -15.4445
  56   2.0000      -0.566464       -15.4143
  57   2.0000      -0.564099       -15.3499
  58   2.0000      -0.560413       -15.2496
  59   2.0000      -0.556582       -15.1454
  60   2.0000      -0.549009       -14.9393
  61   2.0000      -0.543170       -14.7804
  62   2.0000      -0.518163       -14.0999
  63   2.0000      -0.516224       -14.0472
  64   2.0000      -0.500636       -13.6230
  65   2.0000      -0.480748       -13.0818
  66   2.0000      -0.475027       -12.9261
  67   2.0000      -0.473805       -12.8929
  68   2.0000      -0.463445       -12.6110
  69   2.0000      -0.451618       -12.2891
  70   2.0000      -0.448754       -12.2112
  71   2.0000      -0.445984       -12.1358
  72   2.0000      -0.444699       -12.1009
  73   2.0000      -0.443547       -12.0695
  74   2.0000      -0.441785       -12.0216
  75   2.0000      -0.436113       -11.8672
  76   2.0000      -0.431679       -11.7466
  77   2.0000      -0.427532       -11.6337
  78   2.0000      -0.419047       -11.4029
  79   2.0000      -0.417938       -11.3727
  80   2.0000      -0.415143       -11.2966
  81   2.0000      -0.412898       -11.2355
  82   2.0000      -0.408069       -11.1041
  83   2.0000      -0.405567       -11.0360
  84   2.0000      -0.403893       -10.9905
  85   2.0000      -0.397788       -10.8244
  86   2.0000      -0.395513       -10.7625
  87   2.0000      -0.393214       -10.6999
  88   2.0000      -0.390553       -10.6275
  89   2.0000      -0.386722       -10.5232
  90   2.0000      -0.381351       -10.3771
  91   2.0000      -0.375962       -10.2304
  92   2.0000      -0.366889        -9.9835
  93   2.0000      -0.362728        -9.8703
  94   2.0000      -0.356917        -9.7122
  95   2.0000      -0.353226        -9.6118
  96   2.0000      -0.291743        -7.9387
  97   2.0000      -0.275243        -7.4897
  98   2.0000      -0.265877        -7.2349
  99   2.0000      -0.262760        -7.1501
 100   2.0000      -0.260836        -7.0977
 101   2.0000      -0.256827        -6.9886
 102   2.0000      -0.251466        -6.8427
 103   2.0000      -0.242297        -6.5932
 104   0.0000      -0.036652        -0.9973
 105   0.0000      -0.029384        -0.7996
 106   0.0000      -0.022019        -0.5992
 107   0.0000      -0.015005        -0.4083
 108   0.0000       0.040055         1.0899

MULLIKEN ATOMIC CHARGES
-----------------------
   0 C :   -0.469871
   1 C :   -0.064980
   2 N :   -0.639181
   3 C :    0.736196
   4 O :   -0.492693
   5 N :   -0.650472
   6 C :   -0.036384
   7 C :    0.107430
   8 C :   -0.174687
   9 C :   -0.158895
  10 C :   -0.011954
  11 C :    0.894275
  12 F :   -0.306384
  13 F :   -0.296191
  14 F :   -0.306343
  15 C :   -0.161976
  16 C :   -0.170395
  17 C :    0.181736
  18 N :   -0.394006
  19 C :    0.008564
  20 C :   -0.125093
  21 C :   -0.175734
  22 C :    0.375452
  23 F :   -0.315477
  24 C :    0.940396
  25 F :   -0.294507
  26 F :   -0.311655
  27 F :   -0.305113
  28 H :    0.152731
  29 H :    0.171339
  30 H :    0.168694
  31 H :    0.207085
  32 H :    0.319232
  33 H :    0.319644
  34 H :    0.221881
  35 H :    0.142423
  36 H :    0.153075
  37 H :    0.153913
  38 H :    0.149824
  39 H :    0.156845
  40 H :    0.144357
  41 H :    0.156896
Sum of atomic charges:   -0.0000000

LOEWDIN ATOMIC CHARGES
----------------------
   0 C :   -0.361158
   1 C :   -0.092095
   2 N :   -0.251811
   3 C :    0.164930
   4 O :   -0.316345
   5 N :   -0.247347
   6 C :   -0.044578
   7 C :   -0.009140
   8 C :   -0.133194
   9 C :   -0.110051
  10 C :   -0.071687
  11 C :    0.309688
  12 F :   -0.114409
  13 F :   -0.113742
  14 F :   -0.114411
  15 C :   -0.108986
  16 C :   -0.128186
  17 C :    0.001691
  18 N :   -0.116378
  19 C :   -0.073702
  20 C :   -0.137619
  21 C :   -0.133142
  22 C :    0.101857
  23 F :   -0.101964
  24 C :    0.300204
  25 F :   -0.107703
  26 F :   -0.122370
  27 F :   -0.115886
  28 H :    0.128019
  29 H :    0.140428
  30 H :    0.139256
  31 H :    0.167765
  32 H :    0.247691
  33 H :    0.246933
  34 H :    0.177705
  35 H :    0.139644
  36 H :    0.143794
  37 H :    0.144419
  38 H :    0.142934
  39 H :    0.139481
  40 H :    0.140676
  41 H :    0.148789

  Mayer bond orders larger than 0.100000
B(  0-C ,  1-C ) :   0.9886 B(  0-C , 28-H ) :   0.9421 B(  0-C , 29-H ) :   0.9381
B(  0-C , 30-H ) :   0.9416 B(  1-C ,  2-N ) :   0.9370 B(  1-C , 24-C ) :   0.9332
B(  1-C , 31-H ) :   0.8951 B(  2-N ,  3-C ) :   1.0107 B(  2-N , 32-H ) :   0.8259
B(  3-C ,  4-O ) :   1.8019 B(  3-C ,  5-N ) :   1.0201 B(  5-N ,  6-C ) :   0.9189
B(  5-N , 33-H ) :   0.8179 B(  6-C ,  7-C ) :   0.9624 B(  6-C , 17-C ) :   0.9430
B(  6-C , 34-H ) :   0.8837 B(  7-C ,  8-C ) :   1.4207 B(  7-C , 16-C ) :   1.4224
B(  8-C ,  9-C ) :   1.4220 B(  8-C , 35-H ) :   0.9157 B(  9-C , 10-C ) :   1.4133
B(  9-C , 36-H ) :   0.9199 B( 10-C , 11-C ) :   0.9794 B( 10-C , 15-C ) :   1.4108
B( 11-C , 12-F ) :   0.9472 B( 11-C , 13-F ) :   0.9872 B( 11-C , 14-F ) :   0.9473
B( 15-C , 16-C ) :   1.4268 B( 15-C , 37-H ) :   0.9196 B( 16-C , 38-H ) :   0.9148
B( 17-C , 18-N ) :   1.3899 B( 17-C , 22-C ) :   1.3051 B( 18-N , 19-C ) :   1.4201
B( 19-C , 20-C ) :   1.4246 B( 19-C , 39-H ) :   0.9283 B( 20-C , 21-C ) :   1.4315
B( 20-C , 40-H ) :   0.9238 B( 21-C , 22-C ) :   1.4023 B( 21-C , 41-H ) :   0.9182
B( 22-C , 23-F ) :   0.9155 B( 24-C , 25-F ) :   0.9850 B( 24-C , 26-F ) :   0.9548
B( 24-C , 27-F ) :   0.9576

FINAL SINGLE POINT ENERGY     -1593.815042686079

DIPOLE MOMENT
-------------

Method             : SCF
Type of density    : Electron Density
Multiplicity       :   1
Irrep              :   0
Energy             : -1593.8150426860788684 Eh
Relativity type    :
Basis              : AO
                                X                 Y                 Z
Electronic contribution:     12.002645850     -22.865546556       9.044861015
Nuclear contribution   :    -12.214376424      23.675715536     -11.095331619
                        -----------------------------------------
Total Dipole Moment    :     -0.211730574       0.810168980      -2.050470604
                        -----------------------------------------
Magnitude (a.u.)       :      2.214866431
Magnitude (Debye)      :      5.629743066

Rotational constants in cm-1:             0.007033             0.002746             0.002151
Rotational constants in MHz :           210.857107            82.327150            64.483800

                             ****ORCA TERMINATED NORMALLY****
TOTAL RUN TIME: 0 days 0 hours 4 minutes 40 seconds 14 msec
