                         Program Version 6.0.0  -   RELEASE  -
|  1> ! B3LYP 6-31G* SP
|  2>
|  3> * xyz 0 1
|  4> C -0.4924 1.5765 1.7035
|  5> C -0.7289 1.1104 0.2432
|  6> C -1.5918 -0.1575 0.1319
|  7> C -2.2912 -0.7122 1.2255
|  8> C -3.0802 -1.8542 1.0630
|  9> C -3.2121 -2.4603 -0.1949
| 10> C -4.0311 -3.7181 -0.3410
| 11> F -3.2957 -4.7958 0.1163
| 12> F -5.1950 -3.6176 0.4017
| 13> F -4.3783 -3.9395 -1.6634
| 14> C -2.5108 -1.9222 -1.2846
| 15> C -1.7236 -0.7796 -1.1253
| 16> C -1.4874 2.2221 -0.5035
| 17> C -2.7599 2.6347 -0.0480
| 18> C -3.4775 3.6242 -0.7220
| 19> C -2.9532 4.2051 -1.8744
| 20> C -1.7132 3.7924 -2.3607
| 21> C -0.9726 2.8106 -1.6821
| 22> C 0.3151 2.3314 -2.2757
| 23> C 1.2620 1.8679 -1.1843
| 24> N 0.6172 0.8488 -0.3450
| 25> C 1.4435 -0.2264 0.1704
| 26> O 0.9100 -1.2943 0.5773
| 27> N 2.8676 -0.0628 0.2851
| 28> C 3.7937 -1.1582 0.3932
| 29> C 5.0049 -0.9716 1.0787
| 30> C 5.9314 -2.0145 1.1767
| 31> C 5.6624 -3.2490 0.5796
| 32> F 6.5628 -4.2586 0.6732
| 33> C 4.4693 -3.4391 -0.1228
| 34> C 3.5401 -2.3984 -0.2230
| 35> H -1.4304 1.8653 2.2195
| 36> H -0.0039 0.7761 2.2990
| 37> H 0.1774 2.4632 1.7115
| 38> H -2.2343 -0.2808 2.2136
| 39> H -3.5902 -2.2670 1.9247
| 40> H -2.5689 -2.3825 -2.2626
| 41> H -1.2072 -0.3808 -1.9885
| 42> H -3.2102 2.1785 0.8237
| 43> H -4.4483 3.9324 -0.3556
| 44> H -3.5157 4.9659 -2.4004
| 45> H -1.3326 4.2341 -3.2735
| 46> H 0.8074 3.1465 -2.8502
| 47> H 0.1052 1.4916 -2.9725
| 48> H 2.1677 1.4578 -1.6829
| 49> H 1.5681 2.7306 -0.5525
| 50> H 3.2404 0.9066 0.4012
| 51> H 5.2262 -0.0196 1.5445
| 52> H 6.8584 -1.8639 1.7147
| 53> H 4.2670 -4.3904 -0.5981
| 54> H 2.6389 -2.5573 -0.8000
| 55> *
| 56>
| 57>                          ****END OF INPUT****

CARTESIAN COORDINATES (ANGSTROEM)
---------------------------------
  C     -0.492400    1.576500    1.703500
  C     -0.728900    1.110400    0.243200
  C     -1.591800   -0.157500    0.131900
  C     -2.291200   -0.712200    1.225500
  C     -3.080200   -1.854200    1.063000
  C     -3.212100   -2.460300   -0.194900
  C     -4.031100   -3.718100   -0.341000
  F     -3.295700   -4.795800    0.116300
  F     -5.195000   -3.617600    0.401700
  F     -4.378300   -3.939500   -1.663400
  C     -2.510800   -1.922200   -1.284600
  C     -1.723600   -0.779600   -1.125300
  C     -1.487400    2.222100   -0.503500
  C     -2.759900    2.634700   -0.048000
  C     -3.477500    3.624200   -0.722000
  C     -2.953200    4.205100   -1.874400
  C     -1.713200    3.792400   -2.360700
  C     -0.972600    2.810600   -1.682100
  C      0.315100    2.331400   -2.275700
  C      1.262000    1.867900   -1.184300
  N      0.617200    0.848800   -0.345000
  C      1.443500   -0.226400    0.170400
  O      0.910000   -1.294300    0.577300
  N      2.867600   -0.062800    0.285100
  C      3.793700   -1.158200    0.393200
  C      5.004900   -0.971600    1.078700
  C      5.931400   -2.014500    1.176700
  C      5.662400   -3.249000    0.579600
  F      6.562800   -4.258600    0.673200
  C      4.469300   -3.439100   -0.122800
  C      3.540100   -2.398400   -0.223000
  H     -1.430400    1.865300    2.219500
  H     -0.003900    0.776100    2.299000
  H      0.177400    2.463200    1.711500
  H     -2.234300   -0.280800    2.213600
  H     -3.590200   -2.267000    1.924700
  H     -2.568900   -2.382500   -2.262600
  H     -1.207200   -0.380800   -1.988500
  H     -3.210200    2.178500    0.823700
  H     -4.448300    3.932400   -0.355600
  H     -3.515700    4.965900   -2.400400
  H     -1.332600    4.234100   -3.273500
  H      0.807400    3.146500   -2.850200
  H      0.105200    1.491600   -2.972500
  H      2.167700    1.457800   -1.682900
  H      1.568100    2.730600   -0.552500
  H      3.240400    0.906600    0.401200
  H      5.226200   -0.019600    1.544500
  H      6.858400   -1.863900    1.714700
  H      4.267000   -4.390400   -0.598100
  H      2.638900   -2.557300   -0.800000

 Total Charge           Charge          ....    0
 Multiplicity           Mult            ....    1
 Number of Electrons    NEL             ....  222
 Basis Dimension        Dim             ....  474

ORBITAL ENERGIES
----------------

  NO   OCC          E(Eh)            E(eV)
   0   2.0000     -24.707928      -672.3369
   1   2.0000     -24.705881      -672.2812
   2   2.0000     -24.701996      -672.1755
   3   2.0000     -24.691434      -671.8881
   4   2.0000     -19.106833      -519.9234
   5   2.0000     -14.373162      -391.1136
   6   2.0000     -14.361612      -390.7993
   7   2.0000     -10.420809      -283.5646
   8   2.0000     -10.320802      -280.8433
   9   2.0000     -10.261622      -279.2329
  10   2.0000     -10.252921      -278.9962
  11   2.0000     -10.234683      -278.4999
  12   2.0000     -10.230205      -278.3780
  13   2.0000     -10.204414      -277.6762
  14   2.0000     -10.199298      -277.5370
  15   2.0000     -10.198810      -277.5237
  16   2.0000     -10.197292      -277.4824
  17   2.0000     -10.196599      -277.4636
  18   2.0000     -10.193306      -277.3740
  19   2.0000     -10.190255      -277.2909
  20   2.0000     -10.189715      -277.2762
  21   2.0000     -10.188295      -277.2376
  22   2.0000     -10.187501      -277.2160
  23   2.0000     -10.187384      -277.2128
  24   2.0000     -10.187300      -277.2105
  25   2.0000     -10.186924      -277.2003
  26   2.0000     -10.186854      -277.1984
  27   2.0000     -10.186284      -277.1829
  28   2.0000     -10.183858      -277.1169
  29   2.0000     -10.182495      -277.0798
  30   2.0000     -10.181826      -277.0616
  31   2.0000      -1.266183       -34.4546
  32   2.0000      -1.204993       -32.7895
  33   2.0000      -1.192433       -32.4478
  34   2.0000      -1.190044       -32.3828
  35   2.0000      -1.023382       -27.8476
  36   2.0000      -0.936408       -25.4810
  37   2.0000      -0.919966       -25.0336
  38   2.0000      -0.862141       -23.4600
  39   2.0000      -0.856541       -23.3077
  40   2.0000      -0.845192       -22.9988
  41   2.0000      -0.811648       -22.0861
  42   2.0000      -0.787558       -21.4305
  43   2.0000      -0.758891       -20.6505
  44   2.0000      -0.752717       -20.4825
  45   2.0000      -0.746191       -20.3049
  46   2.0000      -0.740053       -20.1379
  47   2.0000      -0.736845       -20.0506
  48   2.0000      -0.710409       -19.3312
  49   2.0000      -0.683921       -18.6104
  50   2.0000      -0.653984       -17.7958
  51   2.0000      -0.646482       -17.5917
  52   2.0000      -0.627852       -17.0847
  53   2.0000      -0.616909       -16.7870
  54   2.0000      -0.611337       -16.6353
  55   2.0000      -0.607226       -16.5235
  56   2.0000      -0.586704       -15.9650
  57   2.0000      -0.582775       -15.8581
  58   2.0000      -0.556762       -15.1503
  59   2.0000      -0.553649       -15.0656
  60   2.0000      -0.552275       -15.0282
  61   2.0000      -0.547720       -14.9042
  62   2.0000      -0.540258       -14.7012
  63   2.0000      -0.531137       -14.4530
  64   2.0000      -0.520964       -14.1762
  65   2.0000      -0.506606       -13.7855
  66   2.0000      -0.497075       -13.5261
  67   2.0000      -0.476951       -12.9785
  68   2.0000      -0.476425       -12.9642
  69   2.0000      -0.468745       -12.7552
  70   2.0000      -0.456760       -12.4291
  71   2.0000      -0.451423       -12.2839
  72   2.0000      -0.448711       -12.2100
  73   2.0000      -0.447899       -12.1879
  74   2.0000      -0.441518       -12.0143
  75   2.0000      -0.439456       -11.9582
  76   2.0000      -0.435432       -11.8487
  77   2.0000      -0.432904       -11.7799
  78   2.0000      -0.428426       -11.6581
  79   2.0000      -0.425174       -11.5696
  80   2.0000      -0.421366       -11.4660
  81   2.0000      -0.414613       -11.2822
  82   2.0000      -0.412009       -11.2113
  83   2.0000      -0.407303       -11.0833
  84   2.0000      -0.405717       -11.0401
  85   2.0000      -0.401464       -10.9244
  86   2.0000      -0.398495       -10.8436
  87   2.0000      -0.394228       -10.7275
  88   2.0000      -0.392311       -10.6753
  89   2.0000      -0.386509       -10.5174
  90   2.0000      -0.385977       -10.5030
  91   2.0000      -0.385240       -10.4829
  92   2.0000      -0.380265       -10.3475
  93   2.0000      -0.371151       -10.0995
  94   2.0000      -0.359767        -9.7898
  95   2.0000      -0.356672        -9.7055
  96   2.0000      -0.351111        -9.5542
  97   2.0000      -0.348447        -9.4817
  98   2.0000      -0.342622        -9.3232
  99   2.0000      -0.341437        -9.2910
 100   2.0000      -0.335483        -9.1290
 101   2.0000      -0.329129        -8.9560
 102   2.0000      -0.292911        -7.9705
 103   2.0000      -0.274188        -7.4610
 104   2.0000      -0.256618        -6.9829
 105   2.0000      -0.249785        -6.7970
 106   2.0000      -0.249675        -6.7940
 107   2.0000      -0.246049        -6.6953
 108   2.0000      -0.235540        -6.4094
 109   2.0000      -0.227085        -6.1793
 110   2.0000      -0.211942        -5.7672
 111   0.0000      -0.021176        -0.5762
 112   0.0000      -0.013423        -0.3653
 113   0.0000      -0.008544        -0.2325
 114   0.0000      -0.006076        -0.1653
 115   0.0000      -0.000138        -0.0038

MULLIKEN ATOMIC CHARGES
-----------------------
   0 C :   -0.467542
   1 C :    0.084795
   2 C :    0.209764
   3 C :   -0.181204
   4 C :   -0.157661
   5 C :   -0.014026
   6 C :    0.891143
   7 F :   -0.297822
   8 F :   -0.308280
   9 F :   -0.309262
  10 C :   -0.160570
  11 C :   -0.152671
  12 C :    0.103017
  13 C :   -0.179695
  14 C :   -0.128382
  15 C :   -0.122041
  16 C :   -0.182977
  17 C :    0.102882
  18 C :   -0.341992
  19 C :   -0.152524
  20 N :   -0.473309
  21 C :    0.682091
  22 O :   -0.477103
  23 N :   -0.720602
  24 C :    0.343832
  25 C :   -0.175733
  26 C :   -0.211287
  27 C :    0.407304
  28 F :   -0.321493
  29 C :   -0.219516
  30 C :   -0.127401
  31 H :    0.150809
  32 H :    0.173706
  33 H :    0.145760
  34 H :    0.130138
  35 H :    0.145931
  36 H :    0.145123
  37 H :    0.128864
  38 H :    0.135740
  39 H :    0.132545
  40 H :    0.129442
  41 H :    0.124915
  42 H :    0.147000
  43 H :    0.166675
  44 H :    0.160035
  45 H :    0.131458
  46 H :    0.328835
  47 H :    0.128240
  48 H :    0.143873
  49 H :    0.148848
  50 H :    0.160331
Sum of atomic charges:    0.0000000

LOEWDIN ATOMIC CHARGES
----------------------
   0 C :   -0.354230
   1 C :    0.049105
   2 C :    0.020167
   3 C :   -0.132771
   4 C :   -0.108884
   5 C :   -0.074603
   6 C :    0.309291
   7 F :   -0.114938
   8 F :   -0.117429
   9 F :   -0.116147
  10 C :   -0.113523
  11 C :   -0.113590
  12 C :   -0.011996
  13 C :   -0.121154
  14 C :   -0.129547
  15 C :   -0.126601
  16 C :   -0.131948
  17 C :   -0.029349
  18 C :   -0.226804
  19 C :   -0.158018
  20 N :   -0.117888
  21 C :    0.163613
  22 O :   -0.288444
  23 N :   -0.224154
  24 C :    0.034367
  25 C :   -0.146321
  26 C :   -0.155137
  27 C :    0.105495
  28 F :   -0.107789
  29 C :   -0.151263
  30 C :   -0.121227
  31 H :    0.127617
  32 H :    0.137703
  33 H :    0.127323
  34 H :    0.135161
  35 H :    0.140637
  36 H :    0.140556
  37 H :    0.132615
  38 H :    0.135237
  39 H :    0.134152
  40 H :    0.132345
  41 H :    0.130829
  42 H :    0.132400
  43 H :    0.136473
  44 H :    0.134243
  45 H :    0.106772
  46 H :    0.255647
  47 H :    0.132308
  48 H :    0.143586
  49 H :    0.145808
  50 H :    0.150305

  Mayer bond orders larger than 0.100000
B(  0-C ,  1-C ) :   0.9879 B(  0-C , 31-H ) :   0.9279 B(  0-C , 32-H ) :   0.9265
B(  0-C , 33-H ) :   0.9422 B(  1-C ,  2-C ) :   0.9649 B(  1-C , 12-C ) :   0.9554
B(  1-C , 20-N ) :   0.8793 B(  2-C ,  3-C ) :   1.4167 B(  2-C , 11-C ) :   1.4021
B(  3-C ,  4-C ) :   1.4212 B(  3-C , 34-H ) :   0.9182 B(  4-C ,  5-C ) :   1.4152
B(  4-C , 35-H ) :   0.9210 B(  5-C ,  6-C ) :   0.9821 B(  5-C , 10-C ) :   1.4041
B(  6-C ,  7-F ) :   0.9844 B(  6-C ,  8-F ) :   0.9486 B(  6-C ,  9-F ) :   0.9424
B( 10-C , 11-C ) :   1.4373 B( 10-C , 36-H ) :   0.9209 B( 11-C , 37-H ) :   0.9178
B( 12-C , 13-C ) :   1.3867 B( 12-C , 17-C ) :   1.4363 B( 13-C , 14-C ) :   1.4527
B( 13-C , 38-H ) :   0.9170 B( 14-C , 15-C ) :   1.4372 B( 14-C , 39-H ) :   0.9293
B( 15-C , 16-C ) :   1.4525 B( 15-C , 40-H ) :   0.9290 B( 16-C , 17-C ) :   1.4061
B( 16-C , 41-H ) :   0.9253 B( 17-C , 18-C ) :   0.9901 B( 18-C , 19-C ) :   0.9931
B( 18-C , 42-H ) :   0.9287 B( 18-C , 43-H ) :   0.9143 B( 19-C , 20-N ) :   0.9457
B( 19-C , 44-H ) :   0.9252 B( 19-C , 45-H ) :   0.9202 B( 20-N , 21-C ) :   1.0296
B( 21-C , 22-O ) :   1.7861 B( 21-C , 23-N ) :   1.0035 B( 23-N , 24-C ) :   0.8683
B( 23-N , 46-H ) :   0.8230 B( 24-C , 25-C ) :   1.4072 B( 24-C , 30-C ) :   1.4176
B( 25-C , 26-C ) :   1.4273 B( 25-C , 47-H ) :   0.9245 B( 26-C , 27-C ) :   1.3984
B( 26-C , 48-H ) :   0.9206 B( 27-C , 28-F ) :   0.9133 B( 27-C , 29-C ) :   1.3833
B( 29-C , 30-C ) :   1.4302 B( 29-C , 49-H ) :   0.9205 B( 30-C , 50-H ) :   0.9110

FINAL SINGLE POINT ENERGY     -1509.840224654384

DIPOLE MOMENT
-------------

Method             : SCF
Type of density    : Electron Density
Multiplicity       :   1
Irrep              :   0
Energy             : -1509.8402246543842011 Eh
Relativity type    :
Basis              : AO
                                X                 Y                 Z
Electronic contribution:    -11.030895366     -38.093988149       0.931831701
Nuclear contribution   :     11.713381433      40.805815320      -1.331361268
                        -----------------------------------------
Total Dipole Moment    :      0.682486067       2.711827171      -0.399529567
                        -----------------------------------------
Magnitude (a.u.)       :      2.824786312
Magnitude (Debye)      :      7.180036199

Rotational constants in cm-1:             0.005144             0.003019             0.002082
Rotational constants in MHz :           154.212392            90.498952            62.402735

                             ****ORCA TERMINATED NORMALLY****
TOTAL RUN TIME: 0 days 0 hours 8 minutes 55 seconds 734 msec
