                         Program Version 6.0.0  -   RELEASE  -
|  1> ! B3LYP 6-31G* SP
|  2>
|  3> * xyz 0 1
|  4> C 6.2325 -0.4869 -1.8677
|  5> C 6.4520 0.1118 -0.4788
|  6> C 5.6620 1.4130 -0.2515
|  7> C 4.1330 1.2667 -0.3491
|  8> C 3.5520 0.3303 0.7195
|  9> C 2.0472 0.3521 0.6783
| 10> C 1.3323 1.2853 1.4399
| 11> C -0.0676 1.3326 1.3814
| 12> O -0.7476 2.3272 2.0845
| 13> C -0.7756 0.3973 0.5910
| 14> C -0.0403 -0.4438 -0.2743
| 15> C 1.3539 -0.4905 -0.1990
| 16> O -0.6861 -1.2256 -1.2390
| 17> C -2.0608 -1.0524 -1.5891
| 18> C -2.1741 0.1178 -2.5881
| 19> C -2.5180 -2.3481 -2.2831
| 20> C -2.8589 -0.8071 -0.2745
| 21> C -4.3762 -0.5912 -0.4475
| 22> C -5.0817 -0.5601 0.9227
| 23> C -4.2574 0.0401 2.0527
| 24> C -4.8740 0.1269 3.4218
| 25> C -2.9604 0.3853 1.8950
| 26> C -2.3001 0.3948 0.5286
| 27> H 5.2035 -0.8921 -1.9609
| 28> H 6.4042 0.2790 -2.6536
| 29> H 6.9461 -1.3227 -2.0261
| 30> H 7.5337 0.3421 -0.3675
| 31> H 6.2004 -0.6403 0.2979
| 32> H 5.9224 1.8152 0.7518
| 33> H 5.9928 2.1678 -0.9980
| 34> H 3.8436 0.9146 -1.3622
| 35> H 3.6891 2.2782 -0.2178
| 36> H 3.9058 0.6414 1.7270
| 37> H 3.9041 -0.7093 0.5483
| 38> H 1.8653 1.9908 2.0658
| 39> H -0.2575 3.0117 2.6484
| 40> H 1.8990 -1.1633 -0.8501
| 41> H -1.5581 -0.0925 -3.4887
| 42> H -1.7999 1.0637 -2.1460
| 43> H -3.2241 0.2641 -2.9169
| 44> H -1.8220 -2.6014 -3.1116
| 45> H -3.5339 -2.2424 -2.7173
| 46> H -2.5176 -3.1969 -1.5663
| 47> H -2.7198 -1.7240 0.3469
| 48> H -4.5689 0.3689 -0.9737
| 49> H -4.8283 -1.4039 -1.0519
| 50> H -6.0362 0.0006 0.8267
| 51> H -5.3347 -1.6042 1.2089
| 52> H -4.2994 -0.5000 4.1362
| 53> H -4.8654 1.1811 3.7708
| 54> H -5.9255 -0.2305 3.4073
| 55> H -2.4010 0.6965 2.7709
| 56> H -2.6036 1.3405 0.0282
| 57> *
| 58>
| 59>                          ****END OF INPUT****

CARTESIAN COORDINATES (ANGSTROEM)
---------------------------------
  C      6.232500   -0.486900   -1.867700
  C      6.452000    0.111800   -0.478800
  C      5.662000    1.413000   -0.251500
  C      4.133000    1.266700   -0.349100
  C      3.552000    0.330300    0.719500
  C      2.047200    0.352100    0.678300
  C      1.332300    1.285300    1.439900
  C     -0.067600    1.332600    1.381400
  O     -0.747600    2.327200    2.084500
  C     -0.775600    0.397300    0.591000
  C     -0.040300   -0.443800   -0.274300
  C      1.353900   -0.490500   -0.199000
  O     -0.686100   -1.225600   -1.239000
  C     -2.060800   -1.052400   -1.589100
  C     -2.174100    0.117800   -2.588100
  C     -2.518000   -2.348100   -2.283100
  C     -2.858900   -0.807100   -0.274500
  C     -4.376200   -0.591200   -0.447500
  C     -5.081700   -0.560100    0.922700
  C     -4.257400    0.040100    2.052700
  C     -4.874000    0.126900    3.421800
  C     -2.960400    0.385300    1.895000
  C     -2.300100    0.394800    0.528600
  H      5.203500   -0.892100   -1.960900
  H      6.404200    0.279000   -2.653600
  H      6.946100   -1.322700   -2.026100
  H      7.533700    0.342100   -0.367500
  H      6.200400   -0.640300    0.297900
  H      5.922400    1.815200    0.751800
  H      5.992800    2.167800   -0.998000
  H      3.843600    0.914600   -1.362200
  H      3.689100    2.278200   -0.217800
  H      3.905800    0.641400    1.727000
  H      3.904100   -0.709300    0.548300
  H      1.865300    1.990800    2.065800
  H     -0.257500    3.011700    2.648400
  H      1.899000   -1.163300   -0.850100
  H     -1.558100   -0.092500   -3.488700
  H     -1.799900    1.063700   -2.146000
  H     -3.224100    0.264100   -2.916900
  H     -1.822000   -2.601400   -3.111600
  H     -3.533900   -2.242400   -2.717300
  H     -2.517600   -3.196900   -1.566300
  H     -2.719800   -1.724000    0.346900
  H     -4.568900    0.368900   -0.973700
  H     -4.828300   -1.403900   -1.051900
  H     -6.036200    0.000600    0.826700
  H     -5.334700   -1.604200    1.208900
  H     -4.299400   -0.500000    4.136200
  H     -4.865400    1.181100    3.770800
  H     -5.925500   -0.230500    3.407300
  H     -2.401000    0.696500    2.770900
  H     -2.603600    1.340500    0.028200

 Total Charge           Charge          ....    0
 Multiplicity           Mult            ....    1
 Number of Electrons    NEL             ....  172
 Basis Dimension        Dim             ....  382

ORBITAL ENERGIES
----------------

  NO   OCC          E(Eh)            E(eV)
   0   2.0000     -19.161530      -521.4117
   1   2.0000     -19.148676      -521.0620
   2   2.0000     -10.238261      -278.5973
   3   2.0000     -10.236764      -278.5565
   4   2.0000     -10.231892      -278.4239
   5   2.0000     -10.178627      -276.9745
   6   2.0000     -10.178463      -276.9701
   7   2.0000     -10.175682      -276.8944
   8   2.0000     -10.173533      -276.8359
   9   2.0000     -10.173420      -276.8328
  10   2.0000     -10.172234      -276.8006
  11   2.0000     -10.172019      -276.7947
  12   2.0000     -10.168156      -276.6896
  13   2.0000     -10.167732      -276.6781
  14   2.0000     -10.167611      -276.6748
  15   2.0000     -10.167040      -276.6592
  16   2.0000     -10.166415      -276.6422
  17   2.0000     -10.163629      -276.5664
  18   2.0000     -10.163232      -276.5556
  19   2.0000     -10.162431      -276.5338
  20   2.0000     -10.161571      -276.5104
  21   2.0000     -10.158212      -276.4190
  22   2.0000     -10.151004      -276.2229
  23   2.0000      -1.035633       -28.1810
  24   2.0000      -1.025546       -27.9065
  25   2.0000      -0.841374       -22.8950
  26   2.0000      -0.831963       -22.6389
  27   2.0000      -0.798716       -21.7342
  28   2.0000      -0.783796       -21.3282
  29   2.0000      -0.769468       -20.9383
  30   2.0000      -0.740136       -20.1401
  31   2.0000      -0.735670       -20.0186
  32   2.0000      -0.714451       -19.4412
  33   2.0000      -0.701435       -19.0870
  34   2.0000      -0.678353       -18.4589
  35   2.0000      -0.663967       -18.0675
  36   2.0000      -0.662505       -18.0277
  37   2.0000      -0.620197       -16.8764
  38   2.0000      -0.611095       -16.6288
  39   2.0000      -0.605956       -16.4889
  40   2.0000      -0.590713       -16.0741
  41   2.0000      -0.576879       -15.6977
  42   2.0000      -0.545821       -14.8525
  43   2.0000      -0.526886       -14.3373
  44   2.0000      -0.509972       -13.8770
  45   2.0000      -0.501344       -13.6423
  46   2.0000      -0.485447       -13.2097
  47   2.0000      -0.478195       -13.0124
  48   2.0000      -0.465621       -12.6702
  49   2.0000      -0.452139       -12.3033
  50   2.0000      -0.451286       -12.2801
  51   2.0000      -0.442519       -12.0416
  52   2.0000      -0.435784       -11.8583
  53   2.0000      -0.428423       -11.6580
  54   2.0000      -0.415832       -11.3154
  55   2.0000      -0.410163       -11.1611
  56   2.0000      -0.407093       -11.0776
  57   2.0000      -0.403272       -10.9736
  58   2.0000      -0.402165       -10.9435
  59   2.0000      -0.395764       -10.7693
  60   2.0000      -0.390454       -10.6248
  61   2.0000      -0.385215       -10.4822
  62   2.0000      -0.383768       -10.4428
  63   2.0000      -0.376218       -10.2374
  64   2.0000      -0.372781       -10.1439
  65   2.0000      -0.363248        -9.8845
  66   2.0000      -0.361790        -9.8448
  67   2.0000      -0.356987        -9.7141
  68   2.0000      -0.353467        -9.6183
  69   2.0000      -0.351540        -9.5659
  70   2.0000      -0.348444        -9.4817
  71   2.0000      -0.343981        -9.3602
  72   2.0000      -0.340903        -9.2765
  73   2.0000      -0.334677        -9.1070
  74   2.0000      -0.330146        -8.9837
  75   2.0000      -0.323296        -8.7973
  76   2.0000      -0.317573        -8.6416
  77   2.0000      -0.309976        -8.4349
  78   2.0000      -0.305906        -8.3241
  79   2.0000      -0.304792        -8.2938
  80   2.0000      -0.291211        -7.9243
  81   2.0000      -0.278904        -7.5894
  82   2.0000      -0.270168        -7.3516
  83   2.0000      -0.212526        -5.7831
  84   2.0000      -0.204899        -5.5756
  85   2.0000      -0.198581        -5.4037
  86   0.0000       0.014958         0.4070
  87   0.0000       0.027442         0.7467
  88   0.0000       0.034254         0.9321
  89   0.0000       0.056007         1.5240
  90   0.0000       0.082204         2.2369

MULLIKEN ATOMIC CHARGES
-----------------------
   0 C :   -0.435391
   1 C :   -0.244341
   2 C :   -0.245029
   3 C :   -0.245405
   4 C :   -0.350770
   5 C :    0.187426
   6 C :   -0.265276
   7 C :    0.337709
   8 O :   -0.677760
   9 C :    0.020435
  10 C :    0.325453
  11 C :   -0.255362
  12 O :   -0.547477
  13 C :    0.338494
  14 C :   -0.465503
  15 C :   -0.463356
  16 C :   -0.120644
  17 C :   -0.276483
  18 C :   -0.328750
  19 C :    0.157432
  20 C :   -0.511769
  21 C :   -0.153497
  22 C :   -0.177506
  23 H :    0.143462
  24 H :    0.138775
  25 H :    0.138549
  26 H :    0.126285
  27 H :    0.132648
  28 H :    0.120706
  29 H :    0.123159
  30 H :    0.139879
  31 H :    0.129950
  32 H :    0.132366
  33 H :    0.143429
  34 H :    0.099273
  35 H :    0.413760
  36 H :    0.120065
  37 H :    0.148033
  38 H :    0.154352
  39 H :    0.141253
  40 H :    0.151911
  41 H :    0.145464
  42 H :    0.146467
  43 H :    0.130180
  44 H :    0.134933
  45 H :    0.130360
  46 H :    0.135783
  47 H :    0.140948
  48 H :    0.157486
  49 H :    0.157911
  50 H :    0.140274
  51 H :    0.129413
  52 H :    0.150300
Sum of atomic charges:    0.0000000

LOEWDIN ATOMIC CHARGES
----------------------
   0 C :   -0.360325
   1 C :   -0.234797
   2 C :   -0.229823
   3 C :   -0.224775
   4 C :   -0.220224
   5 C :   -0.003749
   6 C :   -0.201864
   7 C :    0.086477
   8 O :   -0.348235
   9 C :   -0.082750
  10 C :    0.093465
  11 C :   -0.180592
  12 O :   -0.170435
  13 C :    0.074604
  14 C :   -0.362927
  15 C :   -0.352202
  16 C :   -0.114058
  17 C :   -0.225768
  18 C :   -0.224781
  19 C :   -0.045978
  20 C :   -0.355380
  21 C :   -0.147030
  22 C :   -0.108431
  23 H :    0.120473
  24 H :    0.120641
  25 H :    0.122543
  26 H :    0.116523
  27 H :    0.115926
  28 H :    0.113453
  29 H :    0.115465
  30 H :    0.121365
  31 H :    0.119459
  32 H :    0.121383
  33 H :    0.125239
  34 H :    0.120991
  35 H :    0.333920
  36 H :    0.133524
  37 H :    0.129056
  38 H :    0.129859
  39 H :    0.125686
  40 H :    0.131244
  41 H :    0.127789
  42 H :    0.127064
  43 H :    0.124663
  44 H :    0.118381
  45 H :    0.119616
  46 H :    0.123606
  47 H :    0.124810
  48 H :    0.134645
  49 H :    0.134763
  50 H :    0.123053
  51 H :    0.131664
  52 H :    0.132774

  Mayer bond orders larger than 0.100000
B(  0-C ,  1-C ) :   1.0184 B(  0-C , 23-H ) :   0.9485 B(  0-C , 24-H ) :   0.9512
B(  0-C , 25-H ) :   0.9526 B(  1-C ,  2-C ) :   1.0130 B(  1-C , 26-H ) :   0.9448
B(  1-C , 27-H ) :   0.9381 B(  2-C ,  3-C ) :   1.0017 B(  2-C , 28-H ) :   0.9410
B(  2-C , 29-H ) :   0.9397 B(  3-C ,  4-C ) :   0.9949 B(  3-C , 30-H ) :   0.9331
B(  3-C , 31-H ) :   0.9397 B(  4-C ,  5-C ) :   0.9749 B(  4-C , 32-H ) :   0.9338
B(  4-C , 33-H ) :   0.9293 B(  5-C ,  6-C ) :   1.4179 B(  5-C , 11-C ) :   1.4209
B(  6-C ,  7-C ) :   1.3523 B(  6-C , 34-H ) :   0.9200 B(  7-C ,  8-O ) :   0.8879
B(  7-C ,  9-C ) :   1.3580 B(  8-O , 35-H ) :   0.7673 B(  9-C , 10-C ) :   1.3636
B(  9-C , 22-C ) :   0.9495 B( 10-C , 11-C ) :   1.3745 B( 10-C , 12-O ) :   0.9088
B( 11-C , 36-H ) :   0.9158 B( 12-O , 13-C ) :   0.8410 B( 13-C , 14-C ) :   0.9886
B( 13-C , 15-C ) :   0.9987 B( 13-C , 16-C ) :   0.9645 B( 14-C , 37-H ) :   0.9426
B( 14-C , 38-H ) :   0.9380 B( 14-C , 39-H ) :   0.9370 B( 15-C , 40-H ) :   0.9402
B( 15-C , 41-H ) :   0.9379 B( 15-C , 42-H ) :   0.9433 B( 16-C , 17-C ) :   0.9838
B( 16-C , 22-C ) :   0.9740 B( 16-C , 43-H ) :   0.9148 B( 17-C , 18-C ) :   0.9919
B( 17-C , 44-H ) :   0.9355 B( 17-C , 45-H ) :   0.9340 B( 18-C , 19-C ) :   1.0127
B( 18-C , 46-H ) :   0.9314 B( 18-C , 47-H ) :   0.9295 B( 19-C , 20-C ) :   0.9799
B( 19-C , 21-C ) :   1.8982 B( 20-C , 48-H ) :   0.9436 B( 20-C , 49-H ) :   0.9428
B( 20-C , 50-H ) :   0.9510 B( 21-C , 22-C ) :   0.9692 B( 21-C , 51-H ) :   0.9194
B( 22-C , 52-H ) :   0.9028

FINAL SINGLE POINT ENERGY      -968.083462535333

DIPOLE MOMENT
-------------

Method             : SCF
Type of density    : Electron Density
Multiplicity       :   1
Irrep              :   0
Energy             :  -968.0834625353331830 Eh
Relativity type    :
Basis              : AO
                                X                 Y                 Z
Electronic contribution:    -10.218932294       2.841946526       7.981008134
Nuclear contribution   :     10.137932677      -2.367865231      -7.742391254
                        -----------------------------------------
Total Dipole Moment    :     -0.080999618       0.474081294       0.238616880
                        -----------------------------------------
Magnitude (a.u.)       :      0.536891076
Magnitude (Debye)      :      1.364668662

Rotational constants in cm-1:             0.016215             0.004069             0.003446
Rotational constants in MHz :           486.102589           121.978898           103.295918

                             ****ORCA TERMINATED NORMALLY****
TOTAL RUN TIME: 0 days 0 hours 6 minutes 19 seconds 848 msec
