                         Program Version 6.0.0  -   RELEASE  -
|  1> ! B3LYP 6-31G* SP
|  2>
|  3> * xyz 0 1
|  4> C 3.1665 2.2502 -0.4070
|  5> O 3.3716 0.8451 -0.5115
|  6> C 2.3682 -0.1160 -0.3206
|  7> C 2.7141 -1.4809 -0.4586
|  8> C 1.7520 -2.4915 -0.2837
|  9> C 0.4520 -2.1061 0.0331
| 10> N -0.6119 -2.9063 0.2215
| 11> C -1.6547 -2.0860 0.4849
| 12> C -1.2407 -0.7576 0.4749
| 13> C -2.1104 0.4509 0.6532
| 14> C -2.5535 1.0007 -0.7034
| 15> N -3.4158 2.1630 -0.5167
| 16> C 0.1070 -0.7877 0.1736
| 17> C 1.0347 0.2392 0.0013
| 18> H 2.4174 2.5835 -1.1561
| 19> H 2.8250 2.5110 0.6170
| 20> H 4.1247 2.7724 -0.6060
| 21> H 3.7319 -1.7545 -0.7055
| 22> H 2.0145 -3.5356 -0.3953
| 23> H -0.6361 -3.9486 0.1627
| 24> H -2.6646 -2.4313 0.6641
| 25> H -3.0050 0.1768 1.2535
| 26> H -1.5484 1.2301 1.2116
| 27> H -1.6634 1.2857 -1.3090
| 28> H -3.1167 0.2139 -1.2527
| 29> H -3.7585 2.4590 -1.4593
| 30> H -2.8294 2.9499 -0.1543
| 31> H 0.7295 1.2707 0.1118
| 32> *
| 33>
| 34>                          ****END OF INPUT****

CARTESIAN COORDINATES (ANGSTROEM)
---------------------------------
  C      3.166500    2.250200   -0.407000
  O      3.371600    0.845100   -0.511500
  C      2.368200   -0.116000   -0.320600
  C      2.714100   -1.480900   -0.458600
  C      1.752000   -2.491500   -0.283700
  C      0.452000   -2.106100    0.033100
  N     -0.611900   -2.906300    0.221500
  C     -1.654700   -2.086000    0.484900
  C     -1.240700   -0.757600    0.474900
  C     -2.110400    0.450900    0.653200
  C     -2.553500    1.000700   -0.703400
  N     -3.415800    2.163000   -0.516700
  C      0.107000   -0.787700    0.173600
  C      1.034700    0.239200    0.001300
  H      2.417400    2.583500   -1.156100
  H      2.825000    2.511000    0.617000
  H      4.124700    2.772400   -0.606000
  H      3.731900   -1.754500   -0.705500
  H      2.014500   -3.535600   -0.395300
  H     -0.636100   -3.948600    0.162700
  H     -2.664600   -2.431300    0.664100
  H     -3.005000    0.176800    1.253500
  H     -1.548400    1.230100    1.211600
  H     -1.663400    1.285700   -1.309000
  H     -3.116700    0.213900   -1.252700
  H     -3.758500    2.459000   -1.459300
  H     -2.829400    2.949900   -0.154300
  H      0.729500    1.270700    0.111800

 Total Charge           Charge          ....    0
 Multiplicity           Mult            ....    1
 Number of Electrons    NEL             ....  102
 Basis Dimension        Dim             ....  224

ORBITAL ENERGIES
----------------

  NO   OCC          E(Eh)            E(eV)
   0   2.0000     -19.148487      -521.0568
   1   2.0000     -14.367476      -390.9589
   2   2.0000     -14.298558      -389.0835
   3   2.0000     -10.227999      -278.3180
   4   2.0000     -10.226530      -278.2780
   5   2.0000     -10.196262      -277.4544
   6   2.0000     -10.190726      -277.3038
   7   2.0000     -10.190184      -277.2890
   8   2.0000     -10.173236      -276.8278
   9   2.0000     -10.168833      -276.7080
  10   2.0000     -10.166054      -276.6324
  11   2.0000     -10.162935      -276.5475
  12   2.0000     -10.155066      -276.3334
  13   2.0000     -10.154019      -276.3049
  14   2.0000      -1.026262       -27.9260
  15   2.0000      -0.985583       -26.8191
  16   2.0000      -0.867388       -23.6028
  17   2.0000      -0.828514       -22.5450
  18   2.0000      -0.790034       -21.4979
  19   2.0000      -0.733976       -19.9725
  20   2.0000      -0.724518       -19.7151
  21   2.0000      -0.693385       -18.8680
  22   2.0000      -0.678822       -18.4717
  23   2.0000      -0.609235       -16.5781
  24   2.0000      -0.598173       -16.2771
  25   2.0000      -0.579110       -15.7584
  26   2.0000      -0.547850       -14.9078
  27   2.0000      -0.532632       -14.4937
  28   2.0000      -0.497419       -13.5355
  29   2.0000      -0.475528       -12.9398
  30   2.0000      -0.469346       -12.7715
  31   2.0000      -0.455257       -12.3882
  32   2.0000      -0.447418       -12.1749
  33   2.0000      -0.444511       -12.0957
  34   2.0000      -0.427315       -11.6278
  35   2.0000      -0.419934       -11.4270
  36   2.0000      -0.411104       -11.1867
  37   2.0000      -0.405993       -11.0476
  38   2.0000      -0.382328       -10.4037
  39   2.0000      -0.381476       -10.3805
  40   2.0000      -0.366914        -9.9842
  41   2.0000      -0.352046        -9.5797
  42   2.0000      -0.343950        -9.3594
  43   2.0000      -0.335781        -9.1371
  44   2.0000      -0.327697        -8.9171
  45   2.0000      -0.298269        -8.1163
  46   2.0000      -0.281766        -7.6672
  47   2.0000      -0.261477        -7.1151
  48   2.0000      -0.223574        -6.0838
  49   2.0000      -0.192064        -5.2263
  50   2.0000      -0.182447        -4.9646
  51   0.0000       0.000730         0.0199
  52   0.0000       0.051266         1.3950
  53   0.0000       0.070116         1.9080
  54   0.0000       0.077435         2.1071
  55   0.0000       0.082815         2.2535

MULLIKEN ATOMIC CHARGES
-----------------------
   0 C :   -0.185757
   1 O :   -0.519001
   2 C :    0.352992
   3 C :   -0.191786
   4 C :   -0.177277
   5 C :    0.285196
   6 N :   -0.632654
   7 C :   -0.027919
   8 C :    0.047022
   9 C :   -0.329923
  10 C :   -0.124446
  11 N :   -0.702560
  12 C :    0.134446
  13 C :   -0.296128
  14 H :    0.139194
  15 H :    0.141287
  16 H :    0.162575
  17 H :    0.127046
  18 H :    0.116595
  19 H :    0.331151
  20 H :    0.136649
  21 H :    0.145389
  22 H :    0.128171
  23 H :    0.116550
  24 H :    0.135421
  25 H :    0.287316
  26 H :    0.283784
  27 H :    0.116666
Sum of atomic charges:    0.0000000

LOEWDIN ATOMIC CHARGES
----------------------
   0 C :   -0.197857
   1 O :   -0.200878
   2 C :    0.077067
   3 C :   -0.161753
   4 C :   -0.145211
   5 C :   -0.008963
   6 N :   -0.115379
   7 C :   -0.118400
   8 C :   -0.076241
   9 C :   -0.221978
  10 C :   -0.171105
  11 N :   -0.479265
  12 C :   -0.040277
  13 C :   -0.189166
  14 H :    0.111978
  15 H :    0.112997
  16 H :    0.131605
  17 H :    0.136675
  18 H :    0.128064
  19 H :    0.265338
  20 H :    0.130531
  21 H :    0.131177
  22 H :    0.119243
  23 H :    0.096383
  24 H :    0.118030
  25 H :    0.220098
  26 H :    0.217331
  27 H :    0.129957

  Mayer bond orders larger than 0.100000
B(  0-C ,  1-O ) :   0.9307 B(  0-C , 14-H ) :   0.9301 B(  0-C , 15-H ) :   0.9298
B(  0-C , 16-H ) :   0.9467 B(  1-O ,  2-C ) :   0.8984 B(  2-C ,  3-C ) :   1.3369
B(  2-C , 13-C ) :   1.3865 B(  3-C ,  4-C ) :   1.4800 B(  3-C , 17-H ) :   0.9221
B(  4-C ,  5-C ) :   1.3476 B(  4-C , 18-H ) :   0.9242 B(  5-C ,  6-N ) :   1.0047
B(  5-C , 12-C ) :   1.3141 B(  6-N ,  7-C ) :   1.0948 B(  6-N , 19-H ) :   0.8386
B(  7-C ,  8-C ) :   1.5299 B(  7-C , 20-H ) :   0.9289 B(  8-C ,  9-C ) :   0.9889
B(  8-C , 12-C ) :   1.3217 B(  9-C , 10-C ) :   0.9920 B(  9-C , 21-H ) :   0.9334
B(  9-C , 22-H ) :   0.9297 B( 10-C , 11-N ) :   0.9860 B( 10-C , 23-H ) :   0.9369
B( 10-C , 24-H ) :   0.9406 B( 11-N , 25-H ) :   0.8676 B( 11-N , 26-H ) :   0.8678
B( 12-C , 13-C ) :   1.3025 B( 13-C , 27-H ) :   0.9115

FINAL SINGLE POINT ENERGY      -611.901564683128

DIPOLE MOMENT
-------------

Method             : SCF
Type of density    : Electron Density
Multiplicity       :   1
Irrep              :   0
Energy             :  -611.9015646831275035 Eh
Relativity type    :
Basis              : AO
                                X                 Y                 Z
Electronic contribution:      5.864369722     -10.007059960       1.212983868
Nuclear contribution   :     -6.088456725       9.705002926      -1.484897121
                        -----------------------------------------
Total Dipole Moment    :     -0.224087003      -0.302057034      -0.271913253
                        -----------------------------------------
Magnitude (a.u.)       :      0.464101555
Magnitude (Debye)      :      1.179652405

Rotational constants in cm-1:             0.028793             0.016971             0.011100
Rotational constants in MHz :           863.185820           508.792223           332.782215

                             ****ORCA TERMINATED NORMALLY****
TOTAL RUN TIME: 0 days 0 hours 1 minutes 26 seconds 311 msec
