                         Program Version 6.0.0  -   RELEASE  -
|  1> ! B3LYP 6-31G* SP
|  2>
|  3> * xyz 0 1
|  4> C 0.4569 2.1999 1.0233
|  5> C -0.3696 1.8129 -0.1834
|  6> C -0.8052 0.4785 -0.3625
|  7> N -0.4763 -0.5445 0.5843
|  8> C 0.5348 -1.5470 0.2478
|  9> C 1.8959 -0.9106 0.2281
| 10> C 2.6526 -0.8171 1.4162
| 11> C 3.8798 -0.1379 1.4229
| 12> C 4.3300 0.4500 0.2395
| 13> C 3.5960 0.3706 -0.9152
| 14> C 2.3739 -0.3027 -0.9497
| 15> C 4.2390 1.0908 -2.0367
| 16> C 5.5464 1.6363 -1.4298
| 17> C 5.5761 1.2274 0.0559
| 18> S -1.4800 -0.7593 1.9823
| 19> O -0.6157 -1.0221 3.1840
| 20> O -2.2799 0.4878 2.2388
| 21> C -2.5752 -2.1062 1.6997
| 22> C -3.6721 -1.9417 0.8458
| 23> C -4.5358 -3.0113 0.5939
| 24> C -4.3103 -4.2650 1.1909
| 25> C -5.2199 -5.4015 0.9268
| 26> O -6.2162 -5.2590 0.1670
| 27> O -4.9834 -6.6413 1.5157
| 28> C -3.2021 -4.4250 2.0416
| 29> C -2.3396 -3.3534 2.2914
| 30> N -1.5221 0.1357 -1.4642
| 31> C -1.8569 1.0329 -2.4222
| 32> C -1.4560 2.3661 -2.3065
| 33> C -1.7946 3.2957 -3.3020
| 34> C -1.3856 4.6247 -3.1891
| 35> C -0.6369 5.0349 -2.0863
| 36> C -0.2933 4.1203 -1.0872
| 37> C -0.6992 2.7702 -1.1780
| 38> H 0.6173 1.3607 1.7277
| 39> H -0.0561 3.0072 1.5864
| 40> H 1.4565 2.5530 0.6925
| 41> H 0.5193 -2.3775 0.9865
| 42> H 0.3026 -1.9952 -0.7428
| 43> H 2.2838 -1.2543 2.3355
| 44> H 4.4593 -0.0598 2.3336
| 45> H 1.7961 -0.3328 -1.8652
| 46> H 3.5848 1.9206 -2.3818
| 47> H 4.4486 0.3909 -2.8742
| 48> H 6.4229 1.2057 -1.9619
| 49> H 5.5821 2.7437 -1.5252
| 50> H 6.4613 0.5928 0.2773
| 51> H 5.5687 2.1225 0.7145
| 52> H -3.8558 -0.9858 0.3712
| 53> H -5.3772 -2.8572 -0.0702
| 54> H -5.5997 -7.4259 1.3409
| 55> H -2.9984 -5.3786 2.5123
| 56> H -1.4866 -3.5005 2.9417
| 57> H -2.4326 0.7000 -3.2770
| 58> H -2.3733 2.9938 -4.1670
| 59> H -1.6482 5.3384 -3.9594
| 60> H -0.3206 6.0669 -2.0046
| 61> H 0.2900 4.4826 -0.2519
| 62> *
| 63>
| 64>                          ****END OF INPUT****

CARTESIAN COORDINATES (ANGSTROEM)
---------------------------------
  C      0.456900    2.199900    1.023300
  C     -0.369600    1.812900   -0.183400
  C     -0.805200    0.478500   -0.362500
  N     -0.476300   -0.544500    0.584300
  C      0.534800   -1.547000    0.247800
  C      1.895900   -0.910600    0.228100
  C      2.652600   -0.817100    1.416200
  C      3.879800   -0.137900    1.422900
  C      4.330000    0.450000    0.239500
  C      3.596000    0.370600   -0.915200
  C      2.373900   -0.302700   -0.949700
  C      4.239000    1.090800   -2.036700
  C      5.546400    1.636300   -1.429800
  C      5.576100    1.227400    0.055900
  S     -1.480000   -0.759300    1.982300
  O     -0.615700   -1.022100    3.184000
  O     -2.279900    0.487800    2.238800
  C     -2.575200   -2.106200    1.699700
  C     -3.672100   -1.941700    0.845800
  C     -4.535800   -3.011300    0.593900
  C     -4.310300   -4.265000    1.190900
  C     -5.219900   -5.401500    0.926800
  O     -6.216200   -5.259000    0.167000
  O     -4.983400   -6.641300    1.515700
  C     -3.202100   -4.425000    2.041600
  C     -2.339600   -3.353400    2.291400
  N     -1.522100    0.135700   -1.464200
  C     -1.856900    1.032900   -2.422200
  C     -1.456000    2.366100   -2.306500
  C     -1.794600    3.295700   -3.302000
  C     -1.385600    4.624700   -3.189100
  C     -0.636900    5.034900   -2.086300
  C     -0.293300    4.120300   -1.087200
  C     -0.699200    2.770200   -1.178000
  H      0.617300    1.360700    1.727700
  H     -0.056100    3.007200    1.586400
  H      1.456500    2.553000    0.692500
  H      0.519300   -2.377500    0.986500
  H      0.302600   -1.995200   -0.742800
  H      2.283800   -1.254300    2.335500
  H      4.459300   -0.059800    2.333600
  H      1.796100   -0.332800   -1.865200
  H      3.584800    1.920600   -2.381800
  H      4.448600    0.390900   -2.874200
  H      6.422900    1.205700   -1.961900
  H      5.582100    2.743700   -1.525200
  H      6.461300    0.592800    0.277300
  H      5.568700    2.122500    0.714500
  H     -3.855800   -0.985800    0.371200
  H     -5.377200   -2.857200   -0.070200
  H     -5.599700   -7.425900    1.340900
  H     -2.998400   -5.378600    2.512300
  H     -1.486600   -3.500500    2.941700
  H     -2.432600    0.700000   -3.277000
  H     -2.373300    2.993800   -4.167000
  H     -1.648200    5.338400   -3.959400
  H     -0.320600    6.066900   -2.004600
  H      0.290000    4.482600   -0.251900

 Total Charge           Charge          ....    0
 Multiplicity           Mult            ....    1
 Number of Electrons    NEL             ....  248
 Basis Dimension        Dim             ....  528

ORBITAL ENERGIES
----------------

  NO   OCC          E(Eh)            E(eV)
   0   2.0000     -89.092421     -2424.3280
   1   2.0000     -19.192378      -522.2511
   2   2.0000     -19.133548      -520.6503
   3   2.0000     -19.123537      -520.3779
   4   2.0000     -19.122033      -520.3370
   5   2.0000     -14.364675      -390.8827
   6   2.0000     -14.330171      -389.9438
   7   2.0000     -10.330914      -281.1185
   8   2.0000     -10.253573      -279.0139
   9   2.0000     -10.235374      -278.5187
  10   2.0000     -10.226048      -278.2649
  11   2.0000     -10.224839      -278.2320
  12   2.0000     -10.222711      -278.1741
  13   2.0000     -10.213995      -277.9369
  14   2.0000     -10.213118      -277.9131
  15   2.0000     -10.211663      -277.8735
  16   2.0000     -10.211040      -277.8565
  17   2.0000     -10.205856      -277.7155
  18   2.0000     -10.203272      -277.6452
  19   2.0000     -10.198687      -277.5204
  20   2.0000     -10.196339      -277.4565
  21   2.0000     -10.196075      -277.4493
  22   2.0000     -10.194755      -277.4134
  23   2.0000     -10.193916      -277.3905
  24   2.0000     -10.184954      -277.1467
  25   2.0000     -10.175605      -276.8923
  26   2.0000     -10.175492      -276.8892
  27   2.0000     -10.175320      -276.8845
  28   2.0000     -10.175010      -276.8761
  29   2.0000     -10.174998      -276.8758
  30   2.0000     -10.174258      -276.8556
  31   2.0000     -10.172624      -276.8112
  32   2.0000     -10.172014      -276.7946
  33   2.0000     -10.168301      -276.6935
  34   2.0000      -8.128206      -221.1797
  35   2.0000      -6.093147      -165.8030
  36   2.0000      -6.091335      -165.7536
  37   2.0000      -6.090838      -165.7401
  38   2.0000      -1.079742       -29.3813
  39   2.0000      -1.076729       -29.2993
  40   2.0000      -0.990801       -26.9611
  41   2.0000      -0.960308       -26.1313
  42   2.0000      -0.957535       -26.0559
  43   2.0000      -0.910522       -24.7766
  44   2.0000      -0.884028       -24.0556
  45   2.0000      -0.868720       -23.6391
  46   2.0000      -0.862058       -23.4578
  47   2.0000      -0.811176       -22.0732
  48   2.0000      -0.804785       -21.8993
  49   2.0000      -0.797973       -21.7140
  50   2.0000      -0.774060       -21.0632
  51   2.0000      -0.770114       -20.9559
  52   2.0000      -0.756522       -20.5860
  53   2.0000      -0.742368       -20.2009
  54   2.0000      -0.731781       -19.9128
  55   2.0000      -0.706463       -19.2238
  56   2.0000      -0.694665       -18.9028
  57   2.0000      -0.688107       -18.7243
  58   2.0000      -0.666664       -18.1408
  59   2.0000      -0.649268       -17.6675
  60   2.0000      -0.641570       -17.4580
  61   2.0000      -0.632588       -17.2136
  62   2.0000      -0.613212       -16.6863
  63   2.0000      -0.603365       -16.4184
  64   2.0000      -0.591942       -16.1076
  65   2.0000      -0.588565       -16.0157
  66   2.0000      -0.573123       -15.5955
  67   2.0000      -0.557969       -15.1831
  68   2.0000      -0.554253       -15.0820
  69   2.0000      -0.535763       -14.5789
  70   2.0000      -0.529326       -14.4037
  71   2.0000      -0.509389       -13.8612
  72   2.0000      -0.499052       -13.5799
  73   2.0000      -0.492558       -13.4032
  74   2.0000      -0.483446       -13.1552
  75   2.0000      -0.477510       -12.9937
  76   2.0000      -0.474606       -12.9147
  77   2.0000      -0.471530       -12.8310
  78   2.0000      -0.466717       -12.7000
  79   2.0000      -0.463703       -12.6180
  80   2.0000      -0.455959       -12.4073
  81   2.0000      -0.446663       -12.1543
  82   2.0000      -0.445224       -12.1152
  83   2.0000      -0.443060       -12.0563
  84   2.0000      -0.441390       -12.0108
  85   2.0000      -0.437605       -11.9078
  86   2.0000      -0.428103       -11.6493
  87   2.0000      -0.423622       -11.5273
  88   2.0000      -0.417621       -11.3641
  89   2.0000      -0.412470       -11.2239
  90   2.0000      -0.408316       -11.1108
  91   2.0000      -0.406354       -11.0575
  92   2.0000      -0.405458       -11.0331
  93   2.0000      -0.398542       -10.8449
  94   2.0000      -0.391812       -10.6617
  95   2.0000      -0.388710       -10.5773
  96   2.0000      -0.382921       -10.4198
  97   2.0000      -0.380394       -10.3510
  98   2.0000      -0.374847       -10.2001
  99   2.0000      -0.364129        -9.9084
 100   2.0000      -0.363002        -9.8778
 101   2.0000      -0.361909        -9.8480
 102   2.0000      -0.351973        -9.5777
 103   2.0000      -0.348212        -9.4753
 104   2.0000      -0.343833        -9.3562
 105   2.0000      -0.340801        -9.2737
 106   2.0000      -0.335895        -9.1402
 107   2.0000      -0.326319        -8.8796
 108   2.0000      -0.323600        -8.8056
 109   2.0000      -0.317257        -8.6330
 110   2.0000      -0.316072        -8.6008
 111   2.0000      -0.302833        -8.2405
 112   2.0000      -0.294855        -8.0234
 113   2.0000      -0.285956        -7.7813
 114   2.0000      -0.278734        -7.5847
 115   2.0000      -0.273229        -7.4349
 116   2.0000      -0.272229        -7.4077
 117   2.0000      -0.269957        -7.3459
 118   2.0000      -0.263868        -7.1802
 119   2.0000      -0.252875        -6.8811
 120   2.0000      -0.248116        -6.7516
 121   2.0000      -0.238291        -6.4842
 122   2.0000      -0.225849        -6.1457
 123   2.0000      -0.219764        -5.9801
 124   0.0000      -0.077312        -2.1038
 125   0.0000      -0.058679        -1.5967
 126   0.0000      -0.030569        -0.8318
 127   0.0000      -0.024201        -0.6585
 128   0.0000      -0.004719        -0.1284

MULLIKEN ATOMIC CHARGES
-----------------------
   0 C :   -0.540887
   1 C :    0.136486
   2 C :    0.303831
   3 N :   -0.604580
   4 C :   -0.240508
   5 C :    0.159084
   6 C :   -0.178043
   7 C :   -0.184236
   8 C :    0.131552
   9 C :    0.128973
  10 C :   -0.232811
  11 C :   -0.348001
  12 C :   -0.282230
  13 C :   -0.347526
  14 S :    1.223242
  15 O :   -0.557346
  16 O :   -0.550095
  17 C :   -0.121280
  18 C :   -0.132952
  19 C :   -0.142103
  20 C :    0.082675
  21 C :    0.527245
  22 O :   -0.446003
  23 O :   -0.624251
  24 C :   -0.146492
  25 C :   -0.153277
  26 N :   -0.400122
  27 C :   -0.061751
  28 C :    0.139831
  29 C :   -0.204295
  30 C :   -0.125960
  31 C :   -0.121453
  32 C :   -0.194970
  33 C :    0.114560
  34 H :    0.203607
  35 H :    0.167087
  36 H :    0.156563
  37 H :    0.168629
  38 H :    0.169262
  39 H :    0.148221
  40 H :    0.124847
  41 H :    0.127297
  42 H :    0.149822
  43 H :    0.148283
  44 H :    0.140800
  45 H :    0.138959
  46 H :    0.149038
  47 H :    0.148702
  48 H :    0.186544
  49 H :    0.178965
  50 H :    0.432904
  51 H :    0.170262
  52 H :    0.180780
  53 H :    0.149573
  54 H :    0.137578
  55 H :    0.135488
  56 H :    0.137343
  57 H :    0.143139
Sum of atomic charges:    0.0000000

LOEWDIN ATOMIC CHARGES
----------------------
   0 C :   -0.359600
   1 C :    0.011211
   2 C :    0.024356
   3 N :   -0.277452
   4 C :   -0.146084
   5 C :   -0.034413
   6 C :   -0.127189
   7 C :   -0.130861
   8 C :   -0.027253
   9 C :   -0.029101
  10 C :   -0.135468
  11 C :   -0.226808
  12 C :   -0.225433
  13 C :   -0.226691
  14 S :    1.263709
  15 O :   -0.579140
  16 O :   -0.570226
  17 C :   -0.173879
  18 C :   -0.094888
  19 C :   -0.085650
  20 C :   -0.040774
  21 C :    0.179961
  22 O :   -0.262251
  23 O :   -0.335548
  24 C :   -0.100637
  25 C :   -0.110036
  26 N :   -0.138702
  27 C :   -0.066833
  28 C :   -0.027840
  29 C :   -0.113555
  30 C :   -0.125614
  31 C :   -0.118620
  32 C :   -0.118951
  33 C :   -0.007157
  34 H :    0.154584
  35 H :    0.141073
  36 H :    0.135362
  37 H :    0.141379
  38 H :    0.132404
  39 H :    0.140456
  40 H :    0.131033
  41 H :    0.131663
  42 H :    0.129712
  43 H :    0.129313
  44 H :    0.122983
  45 H :    0.122217
  46 H :    0.129741
  47 H :    0.129437
  48 H :    0.161460
  49 H :    0.159794
  50 H :    0.348912
  51 H :    0.153498
  52 H :    0.157827
  53 H :    0.135482
  54 H :    0.136361
  55 H :    0.135190
  56 H :    0.136358
  57 H :    0.141178

  Mayer bond orders larger than 0.100000
B(  0-C ,  1-C ) :   1.0100 B(  0-C , 34-H ) :   0.9166 B(  0-C , 35-H ) :   0.9238
B(  0-C , 36-H ) :   0.9240 B(  1-C ,  2-C ) :   1.4325 B(  1-C , 27-C ) :   0.1007
B(  1-C , 33-C ) :   1.2614 B(  2-C ,  3-N ) :   0.8939 B(  2-C , 26-N ) :   1.2780
B(  3-N ,  4-C ) :   0.9147 B(  3-N , 14-S ) :   0.8144 B(  4-C ,  5-C ) :   0.9577
B(  4-C , 37-H ) :   0.9199 B(  4-C , 38-H ) :   0.9203 B(  5-C ,  6-C ) :   1.4080
B(  5-C , 10-C ) :   1.4208 B(  6-C ,  7-C ) :   1.4314 B(  6-C , 39-H ) :   0.9178
B(  7-C ,  8-C ) :   1.3987 B(  7-C , 40-H ) :   0.9275 B(  8-C ,  9-C ) :   1.5062
B(  8-C , 13-C ) :   0.9786 B(  9-C , 10-C ) :   1.3842 B(  9-C , 11-C ) :   0.9775
B( 10-C , 41-H ) :   0.9202 B( 11-C , 12-C ) :   0.9929 B( 11-C , 42-H ) :   0.9345
B( 11-C , 43-H ) :   0.9348 B( 12-C , 13-C ) :   0.9934 B( 12-C , 44-H ) :   0.9536
B( 12-C , 45-H ) :   0.9537 B( 13-C , 46-H ) :   0.9346 B( 13-C , 47-H ) :   0.9345
B( 14-S , 15-O ) :   1.6118 B( 14-S , 16-O ) :   1.6374 B( 14-S , 17-C ) :   0.8111
B( 17-C , 18-C ) :   1.3805 B( 17-C , 25-C ) :   1.3995 B( 18-C , 19-C ) :   1.4301
B( 18-C , 48-H ) :   0.9072 B( 19-C , 20-C ) :   1.3960 B( 19-C , 49-H ) :   0.9102
B( 20-C , 21-C ) :   1.0092 B( 20-C , 24-C ) :   1.3879 B( 21-C , 22-O ) :   1.8619
B( 21-C , 23-O ) :   1.0234 B( 23-O , 50-H ) :   0.7426 B( 24-C , 25-C ) :   1.4106
B( 24-C , 51-H ) :   0.9155 B( 25-C , 52-H ) :   0.9101 B( 26-N , 27-C ) :   1.4928
B( 27-C , 28-C ) :   1.2419 B( 27-C , 53-H ) :   0.9268 B( 28-C , 29-C ) :   1.2830
B( 28-C , 33-C ) :   1.2910 B( 29-C , 30-C ) :   1.5128 B( 29-C , 32-C ) :   0.1063
B( 29-C , 54-H ) :   0.9235 B( 30-C , 31-C ) :   1.3525 B( 30-C , 55-H ) :   0.9294
B( 31-C , 32-C ) :   1.5076 B( 31-C , 56-H ) :   0.9292 B( 32-C , 33-C ) :   1.2959
B( 32-C , 57-H ) :   0.9151

FINAL SINGLE POINT ENERGY     -1850.887914789506

DIPOLE MOMENT
-------------

Method             : SCF
Type of density    : Electron Density
Multiplicity       :   1
Irrep              :   0
Energy             : -1850.8879147895061124 Eh
Relativity type    :
Basis              : AO
                                X                 Y                 Z
Electronic contribution:    -28.940332249     -16.618684810       8.679014403
Nuclear contribution   :     29.934689719      16.594428833     -10.149547045
                        -----------------------------------------
Total Dipole Moment    :      0.994357470      -0.024255977      -1.470532642
                        -----------------------------------------
Magnitude (a.u.)       :      1.775331344
Magnitude (Debye)      :      4.512533661

Rotational constants in cm-1:             0.005687             0.002307             0.001880
Rotational constants in MHz :           170.490757            69.155672            56.347616

                             ****ORCA TERMINATED NORMALLY****
TOTAL RUN TIME: 0 days 0 hours 9 minutes 56 seconds 848 msec
