                         Program Version 6.0.0  -   RELEASE  -
|  1> ! B3LYP 6-31G* SP
|  2>
|  3> * xyz 0 1
|  4> C -3.7767 -3.4098 -0.2909
|  5> N -4.6227 -2.2072 -0.1546
|  6> C -4.3787 -1.1149 -0.9409
|  7> O -3.4351 -1.1662 -1.7745
|  8> C -5.1683 0.0546 -0.8193
|  9> C -4.9818 1.2288 -1.6294
| 10> C -3.9051 1.3841 -2.6910
| 11> C -2.5550 1.6197 -2.0744
| 12> O -1.5801 0.9065 -2.4356
| 13> N -2.3687 2.6840 -1.1270
| 14> C -1.1613 2.8820 -0.3813
| 15> N -0.0795 2.0790 -0.4625
| 16> C 0.9250 2.4810 0.3667
| 17> C 2.2112 1.7354 0.4382
| 18> C 2.3508 0.5165 -0.2506
| 19> C 3.5485 -0.2009 -0.1987
| 20> C 4.6394 0.2816 0.5445
| 21> C 5.9472 -0.4867 0.6071
| 22> C 5.7463 -1.9015 1.1837
| 23> C 7.0938 -2.6242 1.3921
| 24> C 8.1889 -2.1839 0.3988
| 25> C 7.5945 -1.7382 -0.9414
| 26> C 6.6450 -0.5330 -0.7773
| 27> C 4.5068 1.5022 1.2255
| 28> C 3.3092 2.2210 1.1741
| 29> C 0.6232 3.6213 1.1219
| 30> S -0.9340 4.1208 0.7257
| 31> C -5.8166 2.3399 -1.4287
| 32> C -6.8173 2.3200 -0.4727
| 33> C -7.0104 1.1953 0.3144
| 34> C -6.1980 0.0455 0.1666
| 35> N -6.3863 -1.0625 0.9673
| 36> C -7.4422 -1.0696 2.0044
| 37> C -5.5895 -2.1686 0.8115
| 38> O -5.7431 -3.1674 1.5714
| 39> H -3.4375 -3.5515 -1.3396
| 40> H -4.3362 -4.3333 -0.0271
| 41> H -2.8891 -3.3184 0.3707
| 42> H -4.1231 2.2492 -3.3542
| 43> H -3.8978 0.5103 -3.3748
| 44> H -3.1586 3.3454 -0.9544
| 45> H 1.5316 0.1108 -0.8308
| 46> H 3.6229 -1.1330 -0.7438
| 47> H 6.6368 0.0416 1.3052
| 48> H 5.2091 -1.8436 2.1559
| 49> H 5.1215 -2.5039 0.4884
| 50> H 7.4568 -2.4363 2.4259
| 51> H 6.9286 -3.7193 1.2960
| 52> H 8.8968 -3.0242 0.2308
| 53> H 8.7687 -1.3402 0.8342
| 54> H 8.4150 -1.4714 -1.6420
| 55> H 7.0368 -2.5912 -1.3876
| 56> H 5.8988 -0.5726 -1.6005
| 57> H 7.2234 0.4075 -0.9120
| 58> H 5.3331 1.9040 1.7987
| 59> H 3.2594 3.1592 1.7067
| 60> H 1.2536 4.1095 1.8505
| 61> H -5.6900 3.2412 -2.0165
| 62> H -7.4486 3.1892 -0.3360
| 63> H -7.8059 1.2489 1.0430
| 64> H -7.4938 -2.0181 2.5771
| 65> H -7.2541 -0.2597 2.7414
| 66> H -8.4377 -0.9303 1.5317
| 67> *
| 68>
| 69>                          ****END OF INPUT****

CARTESIAN COORDINATES (ANGSTROEM)
---------------------------------
  C     -3.776700   -3.409800   -0.290900
  N     -4.622700   -2.207200   -0.154600
  C     -4.378700   -1.114900   -0.940900
  O     -3.435100   -1.166200   -1.774500
  C     -5.168300    0.054600   -0.819300
  C     -4.981800    1.228800   -1.629400
  C     -3.905100    1.384100   -2.691000
  C     -2.555000    1.619700   -2.074400
  O     -1.580100    0.906500   -2.435600
  N     -2.368700    2.684000   -1.127000
  C     -1.161300    2.882000   -0.381300
  N     -0.079500    2.079000   -0.462500
  C      0.925000    2.481000    0.366700
  C      2.211200    1.735400    0.438200
  C      2.350800    0.516500   -0.250600
  C      3.548500   -0.200900   -0.198700
  C      4.639400    0.281600    0.544500
  C      5.947200   -0.486700    0.607100
  C      5.746300   -1.901500    1.183700
  C      7.093800   -2.624200    1.392100
  C      8.188900   -2.183900    0.398800
  C      7.594500   -1.738200   -0.941400
  C      6.645000   -0.533000   -0.777300
  C      4.506800    1.502200    1.225500
  C      3.309200    2.221000    1.174100
  C      0.623200    3.621300    1.121900
  S     -0.934000    4.120800    0.725700
  C     -5.816600    2.339900   -1.428700
  C     -6.817300    2.320000   -0.472700
  C     -7.010400    1.195300    0.314400
  C     -6.198000    0.045500    0.166600
  N     -6.386300   -1.062500    0.967300
  C     -7.442200   -1.069600    2.004400
  C     -5.589500   -2.168600    0.811500
  O     -5.743100   -3.167400    1.571400
  H     -3.437500   -3.551500   -1.339600
  H     -4.336200   -4.333300   -0.027100
  H     -2.889100   -3.318400    0.370700
  H     -4.123100    2.249200   -3.354200
  H     -3.897800    0.510300   -3.374800
  H     -3.158600    3.345400   -0.954400
  H      1.531600    0.110800   -0.830800
  H      3.622900   -1.133000   -0.743800
  H      6.636800    0.041600    1.305200
  H      5.209100   -1.843600    2.155900
  H      5.121500   -2.503900    0.488400
  H      7.456800   -2.436300    2.425900
  H      6.928600   -3.719300    1.296000
  H      8.896800   -3.024200    0.230800
  H      8.768700   -1.340200    0.834200
  H      8.415000   -1.471400   -1.642000
  H      7.036800   -2.591200   -1.387600
  H      5.898800   -0.572600   -1.600500
  H      7.223400    0.407500   -0.912000
  H      5.333100    1.904000    1.798700
  H      3.259400    3.159200    1.706700
  H      1.253600    4.109500    1.850500
  H     -5.690000    3.241200   -2.016500
  H     -7.448600    3.189200   -0.336000
  H     -7.805900    1.248900    1.043000
  H     -7.493800   -2.018100    2.577100
  H     -7.254100   -0.259700    2.741400
  H     -8.437700   -0.930300    1.531700

 Total Charge           Charge          ....    0
 Multiplicity           Mult            ....    1
 Number of Electrons    NEL             ....  258
 Basis Dimension        Dim             ....  550

ORBITAL ENERGIES
----------------

  NO   OCC          E(Eh)            E(eV)
   0   2.0000     -88.896140     -2418.9870
   1   2.0000     -19.109151      -519.9864
   2   2.0000     -19.108109      -519.9581
   3   2.0000     -19.102865      -519.8154
   4   2.0000     -14.404278      -391.9603
   5   2.0000     -14.393611      -391.6701
   6   2.0000     -14.382783      -391.3754
   7   2.0000     -14.312150      -389.4534
   8   2.0000     -10.325073      -280.9595
   9   2.0000     -10.290553      -280.0202
  10   2.0000     -10.290455      -280.0175
  11   2.0000     -10.278719      -279.6982
  12   2.0000     -10.263074      -279.2724
  13   2.0000     -10.235444      -278.5206
  14   2.0000     -10.228511      -278.3319
  15   2.0000     -10.216646      -278.0091
  16   2.0000     -10.214420      -277.9485
  17   2.0000     -10.212502      -277.8963
  18   2.0000     -10.210533      -277.8427
  19   2.0000     -10.205433      -277.7040
  20   2.0000     -10.200103      -277.5589
  21   2.0000     -10.199526      -277.5432
  22   2.0000     -10.195492      -277.4334
  23   2.0000     -10.180490      -277.0252
  24   2.0000     -10.173822      -276.8438
  25   2.0000     -10.173600      -276.8377
  26   2.0000     -10.171365      -276.7769
  27   2.0000     -10.167264      -276.6653
  28   2.0000     -10.164128      -276.5800
  29   2.0000     -10.163754      -276.5698
  30   2.0000     -10.163689      -276.5680
  31   2.0000     -10.163431      -276.5610
  32   2.0000     -10.163236      -276.5557
  33   2.0000     -10.163192      -276.5545
  34   2.0000     -10.162997      -276.5492
  35   2.0000      -7.973888      -216.9805
  36   2.0000      -5.936977      -161.5534
  37   2.0000      -5.932888      -161.4421
  38   2.0000      -5.930692      -161.3823
  39   2.0000      -1.067589       -29.0506
  40   2.0000      -1.020061       -27.7573
  41   2.0000      -1.006322       -27.3834
  42   2.0000      -0.971696       -26.4412
  43   2.0000      -0.961617       -26.1669
  44   2.0000      -0.937139       -25.5008
  45   2.0000      -0.903800       -24.5936
  46   2.0000      -0.874144       -23.7867
  47   2.0000      -0.843306       -22.9475
  48   2.0000      -0.815012       -22.1776
  49   2.0000      -0.800898       -21.7935
  50   2.0000      -0.799696       -21.7608
  51   2.0000      -0.790246       -21.5037
  52   2.0000      -0.765133       -20.8203
  53   2.0000      -0.746778       -20.3209
  54   2.0000      -0.733628       -19.9630
  55   2.0000      -0.727647       -19.8003
  56   2.0000      -0.723564       -19.6892
  57   2.0000      -0.722770       -19.6676
  58   2.0000      -0.708148       -19.2697
  59   2.0000      -0.688048       -18.7227
  60   2.0000      -0.655940       -17.8490
  61   2.0000      -0.655054       -17.8249
  62   2.0000      -0.623766       -16.9735
  63   2.0000      -0.615497       -16.7485
  64   2.0000      -0.606468       -16.5028
  65   2.0000      -0.596229       -16.2242
  66   2.0000      -0.592522       -16.1233
  67   2.0000      -0.582114       -15.8401
  68   2.0000      -0.574060       -15.6210
  69   2.0000      -0.566278       -15.4092
  70   2.0000      -0.551025       -14.9942
  71   2.0000      -0.533221       -14.5097
  72   2.0000      -0.519703       -14.1418
  73   2.0000      -0.510866       -13.9014
  74   2.0000      -0.508913       -13.8482
  75   2.0000      -0.502792       -13.6817
  76   2.0000      -0.491200       -13.3662
  77   2.0000      -0.486130       -13.2283
  78   2.0000      -0.477306       -12.9882
  79   2.0000      -0.471453       -12.8289
  80   2.0000      -0.467038       -12.7087
  81   2.0000      -0.460770       -12.5382
  82   2.0000      -0.460071       -12.5192
  83   2.0000      -0.455547       -12.3961
  84   2.0000      -0.449671       -12.2362
  85   2.0000      -0.439891       -11.9700
  86   2.0000      -0.433349       -11.7920
  87   2.0000      -0.431361       -11.7379
  88   2.0000      -0.427123       -11.6226
  89   2.0000      -0.420681       -11.4473
  90   2.0000      -0.417886       -11.3712
  91   2.0000      -0.417113       -11.3502
  92   2.0000      -0.411810       -11.2059
  93   2.0000      -0.402595       -10.9552
  94   2.0000      -0.401589       -10.9278
  95   2.0000      -0.400457       -10.8970
  96   2.0000      -0.393341       -10.7034
  97   2.0000      -0.392657       -10.6847
  98   2.0000      -0.385317       -10.4850
  99   2.0000      -0.382785       -10.4161
 100   2.0000      -0.380199       -10.3457
 101   2.0000      -0.375465       -10.2169
 102   2.0000      -0.372556       -10.1378
 103   2.0000      -0.371817       -10.1177
 104   2.0000      -0.361662        -9.8413
 105   2.0000      -0.359490        -9.7822
 106   2.0000      -0.356929        -9.7125
 107   2.0000      -0.354321        -9.6416
 108   2.0000      -0.345955        -9.4139
 109   2.0000      -0.338070        -9.1994
 110   2.0000      -0.337139        -9.1740
 111   2.0000      -0.329187        -8.9576
 112   2.0000      -0.323687        -8.8080
 113   2.0000      -0.319242        -8.6870
 114   2.0000      -0.296350        -8.0641
 115   2.0000      -0.288643        -7.8544
 116   2.0000      -0.287834        -7.8324
 117   2.0000      -0.282104        -7.6764
 118   2.0000      -0.277334        -7.5466
 119   2.0000      -0.273357        -7.4384
 120   2.0000      -0.269963        -7.3461
 121   2.0000      -0.264146        -7.1878
 122   2.0000      -0.261055        -7.1037
 123   2.0000      -0.244435        -6.6514
 124   2.0000      -0.235059        -6.3963
 125   2.0000      -0.234164        -6.3719
 126   2.0000      -0.230684        -6.2772
 127   2.0000      -0.218528        -5.9465
 128   2.0000      -0.193825        -5.2742
 129   0.0000      -0.060438        -1.6446
 130   0.0000      -0.029929        -0.8144
 131   0.0000      -0.020550        -0.5592
 132   0.0000      -0.002492        -0.0678
 133   0.0000       0.015396         0.4190

MULLIKEN ATOMIC CHARGES
-----------------------
   0 C :   -0.313676
   1 N :   -0.463634
   2 C :    0.498979
   3 O :   -0.470579
   4 C :    0.010368
   5 C :    0.097270
   6 C :   -0.421388
   7 C :    0.584260
   8 O :   -0.411359
   9 N :   -0.664724
  10 C :    0.255954
  11 N :   -0.375389
  12 C :    0.225122
  13 C :    0.117891
  14 C :   -0.182962
  15 C :   -0.180554
  16 C :    0.183059
  17 C :   -0.165295
  18 C :   -0.260695
  19 C :   -0.259143
  20 C :   -0.252376
  21 C :   -0.258761
  22 C :   -0.262408
  23 C :   -0.198639
  24 C :   -0.180307
  25 C :   -0.402552
  26 S :    0.230587
  27 C :   -0.214693
  28 C :   -0.104121
  29 C :   -0.198486
  30 C :    0.320329
  31 N :   -0.511600
  32 C :   -0.336086
  33 C :    0.672131
  34 O :   -0.509519
  35 H :    0.196887
  36 H :    0.192212
  37 H :    0.182637
  38 H :    0.159911
  39 H :    0.218521
  40 H :    0.337070
  41 H :    0.176233
  42 H :    0.125928
  43 H :    0.119394
  44 H :    0.135840
  45 H :    0.130871
  46 H :    0.127065
  47 H :    0.127735
  48 H :    0.127096
  49 H :    0.125537
  50 H :    0.128333
  51 H :    0.126835
  52 H :    0.138432
  53 H :    0.130203
  54 H :    0.118367
  55 H :    0.114776
  56 H :    0.177498
  57 H :    0.131602
  58 H :    0.143555
  59 H :    0.142397
  60 H :    0.225250
  61 H :    0.171841
  62 H :    0.170968
Sum of atomic charges:   -0.0000000

LOEWDIN ATOMIC CHARGES
----------------------
   0 C :   -0.257980
   1 N :   -0.020509
   2 C :    0.110567
   3 O :   -0.265507
   4 C :   -0.071500
   5 C :    0.030020
   6 C :   -0.237599
   7 C :    0.154090
   8 O :   -0.223678
   9 N :   -0.212730
  10 C :   -0.082180
  11 N :   -0.151524
  12 C :    0.001915
  13 C :   -0.026044
  14 C :   -0.110026
  15 C :   -0.133596
  16 C :   -0.005615
  17 C :   -0.116119
  18 C :   -0.224165
  19 C :   -0.233762
  20 C :   -0.232306
  21 C :   -0.232346
  22 C :   -0.224897
  23 C :   -0.140435
  24 C :   -0.126186
  25 C :   -0.355454
  26 S :    0.373534
  27 C :   -0.164052
  28 C :   -0.101780
  29 C :   -0.165572
  30 C :    0.055273
  31 N :   -0.027742
  32 C :   -0.265256
  33 C :    0.137029
  34 O :   -0.318220
  35 H :    0.153424
  36 H :    0.150990
  37 H :    0.143454
  38 H :    0.138572
  39 H :    0.174051
  40 H :    0.260913
  41 H :    0.154739
  42 H :    0.129825
  43 H :    0.116036
  44 H :    0.123711
  45 H :    0.115924
  46 H :    0.116305
  47 H :    0.117433
  48 H :    0.118999
  49 H :    0.112835
  50 H :    0.119562
  51 H :    0.113798
  52 H :    0.122939
  53 H :    0.118861
  54 H :    0.127186
  55 H :    0.125935
  56 H :    0.157756
  57 H :    0.132008
  58 H :    0.139848
  59 H :    0.140927
  60 H :    0.168621
  61 H :    0.135139
  62 H :    0.134558

  Mayer bond orders larger than 0.100000
B(  0-C ,  1-N ) :   0.9161 B(  0-C , 35-H ) :   0.9237 B(  0-C , 36-H ) :   0.9263
B(  0-C , 37-H ) :   0.9396 B(  1-N ,  2-C ) :   0.9910 B(  1-N , 33-C ) :   1.0460
B(  2-C ,  3-O ) :   1.7708 B(  2-C ,  4-C ) :   1.0519 B(  4-C ,  5-C ) :   1.3665
B(  4-C , 30-C ) :   1.2882 B(  5-C ,  6-C ) :   0.9780 B(  5-C , 27-C ) :   1.4193
B(  6-C ,  7-C ) :   0.9530 B(  6-C , 38-H ) :   0.9138 B(  6-C , 39-H ) :   0.8957
B(  7-C ,  8-O ) :   1.8963 B(  7-C ,  9-N ) :   0.9706 B(  9-N , 10-C ) :   0.9527
B(  9-N , 40-H ) :   0.8145 B( 10-C , 11-N ) :   1.5136 B( 10-C , 25-C ) :   0.1098
B( 10-C , 26-S ) :   1.1352 B( 11-N , 12-C ) :   1.2622 B( 12-C , 13-C ) :   1.0563
B( 12-C , 25-C ) :   1.5117 B( 13-C , 14-C ) :   1.3941 B( 13-C , 24-C ) :   1.4061
B( 14-C , 15-C ) :   1.4154 B( 14-C , 41-H ) :   0.9070 B( 15-C , 16-C ) :   1.4061
B( 15-C , 42-H ) :   0.9225 B( 16-C , 17-C ) :   0.9784 B( 16-C , 23-C ) :   1.4280
B( 17-C , 18-C ) :   0.9976 B( 17-C , 22-C ) :   0.9794 B( 17-C , 43-H ) :   0.9266
B( 18-C , 19-C ) :   0.9927 B( 18-C , 44-H ) :   0.9419 B( 18-C , 45-H ) :   0.9370
B( 19-C , 20-C ) :   1.0023 B( 19-C , 46-H ) :   0.9484 B( 19-C , 47-H ) :   0.9474
B( 20-C , 21-C ) :   1.0165 B( 20-C , 48-H ) :   0.9454 B( 20-C , 49-H ) :   0.9446
B( 21-C , 22-C ) :   0.9925 B( 21-C , 50-H ) :   0.9447 B( 21-C , 51-H ) :   0.9442
B( 22-C , 52-H ) :   0.9386 B( 22-C , 53-H ) :   0.9450 B( 23-C , 24-C ) :   1.4244
B( 23-C , 54-H ) :   0.9242 B( 24-C , 55-H ) :   0.9213 B( 25-C , 26-S ) :   1.1056
B( 25-C , 56-H ) :   0.9016 B( 27-C , 28-C ) :   1.4030 B( 27-C , 57-H ) :   0.9243
B( 28-C , 29-C ) :   1.4736 B( 28-C , 58-H ) :   0.9258 B( 29-C , 30-C ) :   1.3406
B( 29-C , 59-H ) :   0.9141 B( 30-C , 31-N ) :   0.9747 B( 31-N , 32-C ) :   0.9347
B( 31-N , 33-C ) :   1.0389 B( 32-C , 60-H ) :   0.9134 B( 32-C , 61-H ) :   0.9321
B( 32-C , 62-H ) :   0.9320 B( 33-C , 34-O ) :   1.7857

FINAL SINGLE POINT ENERGY     -1887.642282585585

DIPOLE MOMENT
-------------

Method             : SCF
Type of density    : Electron Density
Multiplicity       :   1
Irrep              :   0
Energy             : -1887.6422825855847805 Eh
Relativity type    :
Basis              : AO
                                X                 Y                 Z
Electronic contribution:    -47.357921156      22.299988601      -4.859136841
Nuclear contribution   :     45.302839991     -20.812182035       5.675046607
                        -----------------------------------------
Total Dipole Moment    :     -2.055081165       1.487806567       0.815909766
                        -----------------------------------------
Magnitude (a.u.)       :      2.665077057
Magnitude (Debye)      :      6.774087534

Rotational constants in cm-1:             0.005834             0.001414             0.001252
Rotational constants in MHz :           174.912701            42.392666            37.527347

                             ****ORCA TERMINATED NORMALLY****
TOTAL RUN TIME: 0 days 0 hours 10 minutes 0 seconds 837 msec
