                         Program Version 6.0.0  -   RELEASE  -
|  1> ! B3LYP 6-31G* SP
|  2>
|  3> * xyz 0 1
|  4> O 2.2556 -1.3773 -1.1101
|  5> C 1.8718 -0.2678 -0.6482
|  6> N 2.8160 0.6114 -0.0123
|  7> C 4.1522 0.2254 0.3364
|  8> N 4.6380 -1.0333 0.1949
|  9> C 5.9260 -1.1024 0.6180
| 10> C 6.7020 -2.2626 0.5981
| 11> C 8.0255 -2.1982 1.0681
| 12> C 8.5548 -0.9835 1.5495
| 13> F 9.8325 -0.9352 2.0005
| 14> C 7.7642 0.1774 1.5647
| 15> C 6.4568 0.0871 1.0933
| 16> S 5.2915 1.2920 0.9948
| 17> N 0.4920 0.1198 -0.7964
| 18> C -0.1133 1.1176 0.0973
| 19> C -1.5792 0.7625 0.3739
| 20> C -2.4354 0.5794 -0.9225
| 21> C -3.3656 1.7986 -1.1667
| 22> C -4.4916 1.9083 -0.1245
| 23> C -5.1472 0.5820 0.1528
| 24> C -6.4017 0.5406 0.7805
| 25> C -7.0061 -0.6866 1.0655
| 26> C -6.3596 -1.8797 0.7341
| 27> C -5.1029 -1.8506 0.1200
| 28> Cl -4.3007 -3.3608 -0.2819
| 29> C -4.4885 -0.6218 -0.1630
| 30> O -3.2323 -0.6027 -0.7804
| 31> C -1.5415 0.3847 -2.1744
| 32> C -0.3100 -0.4752 -1.8745
| 33> H 2.5397 1.6008 0.1745
| 34> H 6.2943 -3.1950 0.2293
| 35> H 8.6413 -3.0883 1.0600
| 36> H 8.1593 1.1154 1.9334
| 37> H 0.4202 1.1417 1.0725
| 38> H -0.0457 2.1245 -0.3679
| 39> H -2.0016 1.5355 1.0475
| 40> H -1.5860 -0.1878 0.9534
| 41> H -3.8390 1.7011 -2.1697
| 42> H -2.7728 2.7400 -1.1668
| 43> H -5.2514 2.6267 -0.5033
| 44> H -4.0993 2.3213 0.8278
| 45> H -6.9111 1.4585 1.0472
| 46> H -7.9759 -0.7128 1.5455
| 47> H -6.8345 -2.8266 0.9577
| 48> H -2.1297 -0.0882 -2.9915
| 49> H -1.1880 1.3703 -2.5526
| 50> H -0.6219 -1.5011 -1.5820
| 51> H 0.2990 -0.5432 -2.8025
| 52> *
| 53>
| 54>                          ****END OF INPUT****

CARTESIAN COORDINATES (ANGSTROEM)
---------------------------------
  O      2.255600   -1.377300   -1.110100
  C      1.871800   -0.267800   -0.648200
  N      2.816000    0.611400   -0.012300
  C      4.152200    0.225400    0.336400
  N      4.638000   -1.033300    0.194900
  C      5.926000   -1.102400    0.618000
  C      6.702000   -2.262600    0.598100
  C      8.025500   -2.198200    1.068100
  C      8.554800   -0.983500    1.549500
  F      9.832500   -0.935200    2.000500
  C      7.764200    0.177400    1.564700
  C      6.456800    0.087100    1.093300
  S      5.291500    1.292000    0.994800
  N      0.492000    0.119800   -0.796400
  C     -0.113300    1.117600    0.097300
  C     -1.579200    0.762500    0.373900
  C     -2.435400    0.579400   -0.922500
  C     -3.365600    1.798600   -1.166700
  C     -4.491600    1.908300   -0.124500
  C     -5.147200    0.582000    0.152800
  C     -6.401700    0.540600    0.780500
  C     -7.006100   -0.686600    1.065500
  C     -6.359600   -1.879700    0.734100
  C     -5.102900   -1.850600    0.120000
  Cl    -4.300700   -3.360800   -0.281900
  C     -4.488500   -0.621800   -0.163000
  O     -3.232300   -0.602700   -0.780400
  C     -1.541500    0.384700   -2.174400
  C     -0.310000   -0.475200   -1.874500
  H      2.539700    1.600800    0.174500
  H      6.294300   -3.195000    0.229300
  H      8.641300   -3.088300    1.060000
  H      8.159300    1.115400    1.933400
  H      0.420200    1.141700    1.072500
  H     -0.045700    2.124500   -0.367900
  H     -2.001600    1.535500    1.047500
  H     -1.586000   -0.187800    0.953400
  H     -3.839000    1.701100   -2.169700
  H     -2.772800    2.740000   -1.166800
  H     -5.251400    2.626700   -0.503300
  H     -4.099300    2.321300    0.827800
  H     -6.911100    1.458500    1.047200
  H     -7.975900   -0.712800    1.545500
  H     -6.834500   -2.826600    0.957700
  H     -2.129700   -0.088200   -2.991500
  H     -1.188000    1.370300   -2.552600
  H     -0.621900   -1.501100   -1.582000
  H      0.299000   -0.543200   -2.802500

 Total Charge           Charge          ....    0
 Multiplicity           Mult            ....    1
 Number of Electrons    NEL             ....  224
 Basis Dimension        Dim             ....  452

ORBITAL ENERGIES
----------------

  NO   OCC          E(Eh)            E(eV)
   0   2.0000    -101.521724     -2762.5465
   1   2.0000     -88.900590     -2419.1080
   2   2.0000     -24.695443      -671.9972
   3   2.0000     -19.172546      -521.7115
   4   2.0000     -19.100731      -519.7573
   5   2.0000     -14.392995      -391.6533
   6   2.0000     -14.357168      -390.6784
   7   2.0000     -14.317588      -389.6014
   8   2.0000     -10.318815      -280.7892
   9   2.0000     -10.291411      -280.0435
  10   2.0000     -10.268265      -279.4137
  11   2.0000     -10.263870      -279.2941
  12   2.0000     -10.258378      -279.1447
  13   2.0000     -10.243302      -278.7344
  14   2.0000     -10.235746      -278.5288
  15   2.0000     -10.217019      -278.0192
  16   2.0000     -10.214607      -277.9536
  17   2.0000     -10.208945      -277.7995
  18   2.0000     -10.199927      -277.5541
  19   2.0000     -10.199668      -277.5471
  20   2.0000     -10.197815      -277.4967
  21   2.0000     -10.197645      -277.4920
  22   2.0000     -10.196930      -277.4726
  23   2.0000     -10.196293      -277.4552
  24   2.0000     -10.194308      -277.4012
  25   2.0000     -10.190032      -277.2849
  26   2.0000     -10.187952      -277.2283
  27   2.0000     -10.187142      -277.2062
  28   2.0000     -10.186619      -277.1920
  29   2.0000      -9.453114      -257.2323
  30   2.0000      -7.979011      -217.1199
  31   2.0000      -7.216324      -196.3662
  32   2.0000      -7.206743      -196.1055
  33   2.0000      -7.206302      -196.0934
  34   2.0000      -5.942300      -161.6982
  35   2.0000      -5.938471      -161.5940
  36   2.0000      -5.934959      -161.4984
  37   2.0000      -1.208381       -32.8817
  38   2.0000      -1.059540       -28.8316
  39   2.0000      -1.020986       -27.7824
  40   2.0000      -0.972792       -26.4710
  41   2.0000      -0.926426       -25.2093
  42   2.0000      -0.913440       -24.8560
  43   2.0000      -0.882688       -24.0192
  44   2.0000      -0.844719       -22.9860
  45   2.0000      -0.839465       -22.8430
  46   2.0000      -0.820596       -22.3296
  47   2.0000      -0.816208       -22.2101
  48   2.0000      -0.787102       -21.4181
  49   2.0000      -0.773297       -21.0425
  50   2.0000      -0.741890       -20.1879
  51   2.0000      -0.737294       -20.0628
  52   2.0000      -0.730356       -19.8740
  53   2.0000      -0.728083       -19.8121
  54   2.0000      -0.673797       -18.3349
  55   2.0000      -0.656749       -17.8710
  56   2.0000      -0.648586       -17.6489
  57   2.0000      -0.635919       -17.3042
  58   2.0000      -0.610414       -16.6102
  59   2.0000      -0.606166       -16.4946
  60   2.0000      -0.600940       -16.3524
  61   2.0000      -0.583977       -15.8908
  62   2.0000      -0.567037       -15.4299
  63   2.0000      -0.556682       -15.1481
  64   2.0000      -0.546121       -14.8607
  65   2.0000      -0.526245       -14.3199
  66   2.0000      -0.516683       -14.0597
  67   2.0000      -0.510776       -13.8989
  68   2.0000      -0.500841       -13.6286
  69   2.0000      -0.492274       -13.3955
  70   2.0000      -0.486525       -13.2390
  71   2.0000      -0.477909       -13.0046
  72   2.0000      -0.467076       -12.7098
  73   2.0000      -0.461593       -12.5606
  74   2.0000      -0.453045       -12.3280
  75   2.0000      -0.452758       -12.3202
  76   2.0000      -0.446697       -12.1552
  77   2.0000      -0.442465       -12.0401
  78   2.0000      -0.439236       -11.9522
  79   2.0000      -0.436104       -11.8670
  80   2.0000      -0.434125       -11.8131
  81   2.0000      -0.422872       -11.5069
  82   2.0000      -0.417601       -11.3635
  83   2.0000      -0.410414       -11.1679
  84   2.0000      -0.406230       -11.0541
  85   2.0000      -0.404904       -11.0180
  86   2.0000      -0.398577       -10.8458
  87   2.0000      -0.393040       -10.6952
  88   2.0000      -0.390221       -10.6184
  89   2.0000      -0.383393       -10.4327
  90   2.0000      -0.380217       -10.3462
  91   2.0000      -0.377738       -10.2788
  92   2.0000      -0.376733       -10.2514
  93   2.0000      -0.367080        -9.9888
  94   2.0000      -0.362263        -9.8577
  95   2.0000      -0.353009        -9.6059
  96   2.0000      -0.340856        -9.2752
  97   2.0000      -0.339277        -9.2322
  98   2.0000      -0.333928        -9.0866
  99   2.0000      -0.321031        -8.7357
 100   2.0000      -0.315167        -8.5761
 101   2.0000      -0.306177        -8.3315
 102   2.0000      -0.304848        -8.2953
 103   2.0000      -0.299094        -8.1388
 104   2.0000      -0.283796        -7.7225
 105   2.0000      -0.275321        -7.4919
 106   2.0000      -0.241631        -6.5751
 107   2.0000      -0.235972        -6.4211
 108   2.0000      -0.234312        -6.3760
 109   2.0000      -0.227527        -6.1913
 110   2.0000      -0.223582        -6.0840
 111   2.0000      -0.208920        -5.6850
 112   0.0000      -0.028357        -0.7716
 113   0.0000      -0.014102        -0.3837
 114   0.0000      -0.005458        -0.1485
 115   0.0000       0.002592         0.0705
 116   0.0000       0.009903         0.2695

MULLIKEN ATOMIC CHARGES
-----------------------
   0 O :   -0.449380
   1 C :    0.690889
   2 N :   -0.684876
   3 C :    0.252719
   4 N :   -0.384468
   5 C :    0.250788
   6 C :   -0.131894
   7 C :   -0.227161
   8 C :    0.416937
   9 F :   -0.318852
  10 C :   -0.262212
  11 C :   -0.105536
  12 S :    0.208808
  13 N :   -0.441174
  14 C :   -0.153892
  15 C :   -0.317630
  16 C :    0.360946
  17 C :   -0.307527
  18 C :   -0.353119
  19 C :    0.117988
  20 C :   -0.183807
  21 C :   -0.124004
  22 C :   -0.133264
  23 C :   -0.141841
  24 Cl:   -0.004996
  25 C :    0.326504
  26 O :   -0.541345
  27 C :   -0.320657
  28 C :   -0.111562
  29 H :    0.341784
  30 H :    0.158190
  31 H :    0.146685
  32 H :    0.149939
  33 H :    0.155857
  34 H :    0.129448
  35 H :    0.144551
  36 H :    0.179208
  37 H :    0.151054
  38 H :    0.136230
  39 H :    0.156262
  40 H :    0.156782
  41 H :    0.127906
  42 H :    0.132771
  43 H :    0.151974
  44 H :    0.168881
  45 H :    0.144432
  46 H :    0.178695
  47 H :    0.162963
Sum of atomic charges:    0.0000000

LOEWDIN ATOMIC CHARGES
----------------------
   0 O :   -0.272056
   1 C :    0.167594
   2 N :   -0.217987
   3 C :   -0.061017
   4 N :   -0.149100
   5 C :   -0.018425
   6 C :   -0.112682
   7 C :   -0.158634
   8 C :    0.111815
   9 F :   -0.104885
  10 C :   -0.167842
  11 C :   -0.181537
  12 S :    0.355293
  13 N :   -0.130146
  14 C :   -0.160696
  15 C :   -0.239000
  16 C :    0.082453
  17 C :   -0.231052
  18 C :   -0.225125
  19 C :   -0.051166
  20 C :   -0.128033
  21 C :   -0.140031
  22 C :   -0.130838
  23 C :   -0.109540
  24 Cl:    0.042194
  25 C :    0.074456
  26 O :   -0.165630
  27 C :   -0.230268
  28 C :   -0.141410
  29 H :    0.262360
  30 H :    0.151375
  31 H :    0.144524
  32 H :    0.146649
  33 H :    0.132019
  34 H :    0.103598
  35 H :    0.128196
  36 H :    0.144783
  37 H :    0.129069
  38 H :    0.125582
  39 H :    0.136501
  40 H :    0.129800
  41 H :    0.132511
  42 H :    0.134990
  43 H :    0.145942
  44 H :    0.145478
  45 H :    0.127648
  46 H :    0.135442
  47 H :    0.136832

  Mayer bond orders larger than 0.100000
B(  0-O ,  1-C ) :   1.8411 B(  1-C ,  2-N ) :   0.9450 B(  1-C , 13-N ) :   1.0628
B(  2-N ,  3-C ) :   0.9580 B(  2-N , 29-H ) :   0.8155 B(  3-C ,  4-N ) :   1.5679
B(  3-C , 12-S ) :   1.0814 B(  4-N ,  5-C ) :   1.1748 B(  5-C ,  6-C ) :   1.3515
B(  5-C , 11-C ) :   1.2977 B(  6-C ,  7-C ) :   1.4493 B(  6-C , 30-H ) :   0.9172
B(  7-C ,  8-C ) :   1.3463 B(  7-C , 31-H ) :   0.9217 B(  8-C ,  9-F ) :   0.9105
B(  8-C , 10-C ) :   1.4197 B( 10-C , 11-C ) :   1.3201 B( 10-C , 32-H ) :   0.9186
B( 11-C , 12-S ) :   1.0458 B( 13-N , 14-C ) :   0.9553 B( 13-N , 28-C ) :   0.9266
B( 14-C , 15-C ) :   0.9983 B( 14-C , 33-H ) :   0.9271 B( 14-C , 34-H ) :   0.9213
B( 15-C , 16-C ) :   0.9604 B( 15-C , 35-H ) :   0.9252 B( 15-C , 36-H ) :   0.9241
B( 16-C , 17-C ) :   0.9796 B( 16-C , 26-O ) :   0.8401 B( 16-C , 27-C ) :   0.9884
B( 17-C , 18-C ) :   0.9932 B( 17-C , 37-H ) :   0.9318 B( 17-C , 38-H ) :   0.9302
B( 18-C , 19-C ) :   0.9803 B( 18-C , 39-H ) :   0.9316 B( 18-C , 40-H ) :   0.9194
B( 19-C , 20-C ) :   1.4168 B( 19-C , 25-C ) :   1.3692 B( 20-C , 21-C ) :   1.4388
B( 20-C , 41-H ) :   0.9270 B( 21-C , 22-C ) :   1.4436 B( 21-C , 42-H ) :   0.9285
B( 22-C , 23-C ) :   1.4270 B( 22-C , 43-H ) :   0.9229 B( 23-C , 24-Cl) :   1.0293
B( 23-C , 25-C ) :   1.3216 B( 25-C , 26-O ) :   0.9397 B( 27-C , 28-C ) :   0.9928
B( 27-C , 44-H ) :   0.9240 B( 27-C , 45-H ) :   0.9265 B( 28-C , 46-H ) :   0.9208
B( 28-C , 47-H ) :   0.9272

FINAL SINGLE POINT ENERGY     -2083.726787105855

DIPOLE MOMENT
-------------

Method             : SCF
Type of density    : Electron Density
Multiplicity       :   1
Irrep              :   0
Energy             : -2083.7267871058547826 Eh
Relativity type    :
Basis              : AO
                                X                 Y                 Z
Electronic contribution:     30.166697118     -16.037092184       6.956818611
Nuclear contribution   :    -31.794458835      18.698346511      -6.592695449
                        -----------------------------------------
Total Dipole Moment    :     -1.627761717       2.661254327       0.364123162
                        -----------------------------------------
Magnitude (a.u.)       :      3.140775140
Magnitude (Debye)      :      7.983215968

Rotational constants in cm-1:             0.013694             0.001433             0.001369
Rotational constants in MHz :           410.539465            42.958462            41.031226

                             ****ORCA TERMINATED NORMALLY****
TOTAL RUN TIME: 0 days 0 hours 4 minutes 45 seconds 765 msec
