                         Program Version 6.0.0  -   RELEASE  -
|  1> ! B3LYP 6-31G* SP
|  2>
|  3> * xyz 0 1
|  4> C -2.8010 1.9132 -1.4032
|  5> C -2.1131 2.2853 -0.1082
|  6> C -1.3345 1.3324 0.5898
|  7> N -1.0923 0.0277 0.0494
|  8> C -0.1416 -0.1386 -1.0530
|  9> C 1.2679 -0.1637 -0.5274
| 10> C 1.9333 1.0297 -0.2473
| 11> C 3.2233 1.0133 0.2810
| 12> C 3.8947 -0.2017 0.5674
| 13> C 5.3366 -0.1444 1.1355
| 14> C 5.5208 -1.0990 2.3356
| 15> O 5.5933 1.1454 1.6583
| 16> C 6.3793 -0.4682 0.0240
| 17> F 6.1813 0.3546 -1.0726
| 18> F 7.6597 -0.2563 0.5061
| 19> F 6.2880 -1.7797 -0.4009
| 20> C 3.2046 -1.4155 0.2611
| 21> Cl 3.8636 -3.0303 0.5024
| 22> C 1.9083 -1.3779 -0.2694
| 23> S -1.6384 -1.3604 0.9377
| 24> O -0.5053 -1.9178 1.7525
| 25> O -2.7491 -0.9639 1.8692
| 26> C -2.2528 -2.5698 -0.1823
| 27> C -1.5154 -3.7274 -0.4606
| 28> C -2.0010 -4.6684 -1.3726
| 29> C -3.2322 -4.4644 -2.0191
| 30> C -3.7457 -5.4640 -2.9805
| 31> O -4.8656 -5.2987 -3.5348
| 32> O -2.9969 -6.5998 -3.2806
| 33> C -3.9646 -3.2968 -1.7383
| 34> C -3.4749 -2.3560 -0.8291
| 35> N -0.7841 1.6495 1.7908
| 36> C -0.9235 2.8729 2.3550
| 37> C -1.6387 3.8733 1.6934
| 38> C -1.7615 5.1496 2.2635
| 39> C -2.4679 6.1504 1.5966
| 40> C -3.0524 5.8875 0.3581
| 41> C -2.9409 4.6201 -0.2199
| 42> C -2.2383 3.5882 0.4409
| 43> H -3.8680 2.2132 -1.3682
| 44> H -2.2985 2.4215 -2.2518
| 45> H -2.7945 0.8210 -1.5904
| 46> H -0.2515 0.6922 -1.7832
| 47> H -0.3661 -1.0728 -1.6110
| 48> H 1.4508 1.9812 -0.4369
| 49> H 3.6819 1.9740 0.4643
| 50> H 5.7741 -2.1325 2.0329
| 51> H 6.3689 -0.7578 2.9683
| 52> H 4.6099 -1.1107 2.9716
| 53> H 5.8757 1.7538 0.9263
| 54> H 1.3937 -2.3070 -0.4829
| 55> H -0.5638 -3.9028 0.0233
| 56> H -1.4123 -5.5551 -1.5705
| 57> H -3.3405 -7.2900 -3.9369
| 58> H -4.9141 -3.1084 -2.2233
| 59> H -4.0475 -1.4585 -0.6313
| 60> H -0.4605 3.0655 3.3145
| 61> H -1.3092 5.3729 3.2226
| 62> H -2.5588 7.1339 2.0391
| 63> H -3.5933 6.6697 -0.1584
| 64> H -3.3996 4.4659 -1.1865
| 65> *
| 66>
| 67>                          ****END OF INPUT****

CARTESIAN COORDINATES (ANGSTROEM)
---------------------------------
  C     -2.801000    1.913200   -1.403200
  C     -2.113100    2.285300   -0.108200
  C     -1.334500    1.332400    0.589800
  N     -1.092300    0.027700    0.049400
  C     -0.141600   -0.138600   -1.053000
  C      1.267900   -0.163700   -0.527400
  C      1.933300    1.029700   -0.247300
  C      3.223300    1.013300    0.281000
  C      3.894700   -0.201700    0.567400
  C      5.336600   -0.144400    1.135500
  C      5.520800   -1.099000    2.335600
  O      5.593300    1.145400    1.658300
  C      6.379300   -0.468200    0.024000
  F      6.181300    0.354600   -1.072600
  F      7.659700   -0.256300    0.506100
  F      6.288000   -1.779700   -0.400900
  C      3.204600   -1.415500    0.261100
  Cl     3.863600   -3.030300    0.502400
  C      1.908300   -1.377900   -0.269400
  S     -1.638400   -1.360400    0.937700
  O     -0.505300   -1.917800    1.752500
  O     -2.749100   -0.963900    1.869200
  C     -2.252800   -2.569800   -0.182300
  C     -1.515400   -3.727400   -0.460600
  C     -2.001000   -4.668400   -1.372600
  C     -3.232200   -4.464400   -2.019100
  C     -3.745700   -5.464000   -2.980500
  O     -4.865600   -5.298700   -3.534800
  O     -2.996900   -6.599800   -3.280600
  C     -3.964600   -3.296800   -1.738300
  C     -3.474900   -2.356000   -0.829100
  N     -0.784100    1.649500    1.790800
  C     -0.923500    2.872900    2.355000
  C     -1.638700    3.873300    1.693400
  C     -1.761500    5.149600    2.263500
  C     -2.467900    6.150400    1.596600
  C     -3.052400    5.887500    0.358100
  C     -2.940900    4.620100   -0.219900
  C     -2.238300    3.588200    0.440900
  H     -3.868000    2.213200   -1.368200
  H     -2.298500    2.421500   -2.251800
  H     -2.794500    0.821000   -1.590400
  H     -0.251500    0.692200   -1.783200
  H     -0.366100   -1.072800   -1.611000
  H      1.450800    1.981200   -0.436900
  H      3.681900    1.974000    0.464300
  H      5.774100   -2.132500    2.032900
  H      6.368900   -0.757800    2.968300
  H      4.609900   -1.110700    2.971600
  H      5.875700    1.753800    0.926300
  H      1.393700   -2.307000   -0.482900
  H     -0.563800   -3.902800    0.023300
  H     -1.412300   -5.555100   -1.570500
  H     -3.340500   -7.290000   -3.936900
  H     -4.914100   -3.108400   -2.223300
  H     -4.047500   -1.458500   -0.631300
  H     -0.460500    3.065500    3.314500
  H     -1.309200    5.372900    3.222600
  H     -2.558800    7.133900    2.039100
  H     -3.593300    6.669700   -0.158400
  H     -3.399600    4.465900   -1.186500

 Total Charge           Charge          ....    0
 Multiplicity           Mult            ....    1
 Number of Electrons    NEL             ....  298
 Basis Dimension        Dim             ....  598

ORBITAL ENERGIES
----------------

  NO   OCC          E(Eh)            E(eV)
   0   2.0000    -101.521780     -2762.5481
   1   2.0000     -89.095878     -2424.4221
   2   2.0000     -24.724639      -672.7916
   3   2.0000     -24.719308      -672.6466
   4   2.0000     -24.718413      -672.6222
   5   2.0000     -19.199902      -522.4559
   6   2.0000     -19.159340      -521.3522
   7   2.0000     -19.142564      -520.8957
   8   2.0000     -19.121786      -520.3303
   9   2.0000     -19.118108      -520.2302
  10   2.0000     -14.372917      -391.1070
  11   2.0000     -14.328298      -389.8928
  12   2.0000     -10.431479      -283.8550
  13   2.0000     -10.339759      -281.3591
  14   2.0000     -10.273174      -279.5473
  15   2.0000     -10.262266      -279.2505
  16   2.0000     -10.249511      -278.9034
  17   2.0000     -10.247428      -278.8467
  18   2.0000     -10.242522      -278.7132
  19   2.0000     -10.237468      -278.5757
  20   2.0000     -10.226320      -278.2723
  21   2.0000     -10.225024      -278.2370
  22   2.0000     -10.223535      -278.1965
  23   2.0000     -10.222839      -278.1776
  24   2.0000     -10.222273      -278.1622
  25   2.0000     -10.213057      -277.9114
  26   2.0000     -10.211868      -277.8791
  27   2.0000     -10.209173      -277.8057
  28   2.0000     -10.201052      -277.5847
  29   2.0000     -10.200166      -277.5606
  30   2.0000     -10.198999      -277.5289
  31   2.0000     -10.198664      -277.5198
  32   2.0000     -10.198183      -277.5067
  33   2.0000     -10.197236      -277.4809
  34   2.0000     -10.193853      -277.3888
  35   2.0000     -10.193793      -277.3872
  36   2.0000     -10.193506      -277.3794
  37   2.0000     -10.188335      -277.2387
  38   2.0000     -10.171992      -276.7940
  39   2.0000      -9.453709      -257.2485
  40   2.0000      -8.131689      -221.2745
  41   2.0000      -7.216873      -196.3811
  42   2.0000      -7.207285      -196.1202
  43   2.0000      -7.206841      -196.1081
  44   2.0000      -6.096836      -165.9033
  45   2.0000      -6.094664      -165.8442
  46   2.0000      -6.094258      -165.8332
  47   2.0000      -1.281781       -34.8790
  48   2.0000      -1.207845       -32.8671
  49   2.0000      -1.204054       -32.7640
  50   2.0000      -1.084803       -29.5190
  51   2.0000      -1.080044       -29.3895
  52   2.0000      -1.040700       -28.3189
  53   2.0000      -0.999491       -27.1975
  54   2.0000      -0.963538       -26.2192
  55   2.0000      -0.957188       -26.0464
  56   2.0000      -0.916323       -24.9344
  57   2.0000      -0.895799       -24.3759
  58   2.0000      -0.885561       -24.0973
  59   2.0000      -0.866128       -23.5685
  60   2.0000      -0.835638       -22.7389
  61   2.0000      -0.814088       -22.1524
  62   2.0000      -0.809413       -22.0253
  63   2.0000      -0.797777       -21.7086
  64   2.0000      -0.782126       -21.2827
  65   2.0000      -0.777980       -21.1699
  66   2.0000      -0.761122       -20.7112
  67   2.0000      -0.745980       -20.2991
  68   2.0000      -0.734625       -19.9902
  69   2.0000      -0.718234       -19.5441
  70   2.0000      -0.708811       -19.2877
  71   2.0000      -0.696666       -18.9572
  72   2.0000      -0.687073       -18.6962
  73   2.0000      -0.657629       -17.8950
  74   2.0000      -0.647002       -17.6058
  75   2.0000      -0.643501       -17.5106
  76   2.0000      -0.627750       -17.0819
  77   2.0000      -0.619707       -16.8631
  78   2.0000      -0.610500       -16.6125
  79   2.0000      -0.600468       -16.3396
  80   2.0000      -0.597533       -16.2597
  81   2.0000      -0.586229       -15.9521
  82   2.0000      -0.571049       -15.5390
  83   2.0000      -0.570240       -15.5170
  84   2.0000      -0.566351       -15.4112
  85   2.0000      -0.561608       -15.2821
  86   2.0000      -0.545204       -14.8358
  87   2.0000      -0.532409       -14.4876
  88   2.0000      -0.525608       -14.3025
  89   2.0000      -0.515318       -14.0225
  90   2.0000      -0.503591       -13.7034
  91   2.0000      -0.495259       -13.4767
  92   2.0000      -0.489642       -13.3238
  93   2.0000      -0.480978       -13.0881
  94   2.0000      -0.478001       -13.0071
  95   2.0000      -0.474979       -12.9248
  96   2.0000      -0.470118       -12.7926
  97   2.0000      -0.463245       -12.6055
  98   2.0000      -0.455176       -12.3860
  99   2.0000      -0.452748       -12.3199
 100   2.0000      -0.452332       -12.3086
 101   2.0000      -0.450664       -12.2632
 102   2.0000      -0.448029       -12.1915
 103   2.0000      -0.446729       -12.1561
 104   2.0000      -0.445130       -12.1126
 105   2.0000      -0.441513       -12.0142
 106   2.0000      -0.432212       -11.7611
 107   2.0000      -0.430816       -11.7231
 108   2.0000      -0.429360       -11.6835
 109   2.0000      -0.426754       -11.6126
 110   2.0000      -0.422815       -11.5054
 111   2.0000      -0.417618       -11.3640
 112   2.0000      -0.416152       -11.3241
 113   2.0000      -0.411920       -11.2089
 114   2.0000      -0.410462       -11.1692
 115   2.0000      -0.402333       -10.9480
 116   2.0000      -0.401283       -10.9195
 117   2.0000      -0.400792       -10.9061
 118   2.0000      -0.396887       -10.7999
 119   2.0000      -0.394156       -10.7255
 120   2.0000      -0.391363       -10.6495
 121   2.0000      -0.387833       -10.5535
 122   2.0000      -0.383543       -10.4367
 123   2.0000      -0.373611       -10.1665
 124   2.0000      -0.372828       -10.1452
 125   2.0000      -0.371089       -10.0979
 126   2.0000      -0.360239        -9.8026
 127   2.0000      -0.358128        -9.7451
 128   2.0000      -0.354339        -9.6420
 129   2.0000      -0.352327        -9.5873
 130   2.0000      -0.342596        -9.3225
 131   2.0000      -0.328121        -8.9286
 132   2.0000      -0.324106        -8.8194
 133   2.0000      -0.318199        -8.6586
 134   2.0000      -0.308080        -8.3833
 135   2.0000      -0.303255        -8.2520
 136   2.0000      -0.298885        -8.1331
 137   2.0000      -0.292239        -7.9522
 138   2.0000      -0.290523        -7.9055
 139   2.0000      -0.284845        -7.7510
 140   2.0000      -0.283176        -7.7056
 141   2.0000      -0.279360        -7.6018
 142   2.0000      -0.274331        -7.4649
 143   2.0000      -0.268879        -7.3166
 144   2.0000      -0.250670        -6.8211
 145   2.0000      -0.249668        -6.7938
 146   2.0000      -0.247146        -6.7252
 147   2.0000      -0.237482        -6.4622
 148   2.0000      -0.223058        -6.0697
 149   0.0000      -0.089603        -2.4382
 150   0.0000      -0.062524        -1.7014
 151   0.0000      -0.037135        -1.0105
 152   0.0000      -0.031887        -0.8677
 153   0.0000      -0.019557        -0.5322

MULLIKEN ATOMIC CHARGES
-----------------------
   0 C :   -0.544290
   1 C :    0.093694
   2 C :    0.327998
   3 N :   -0.603571
   4 C :   -0.286372
   5 C :    0.219268
   6 C :   -0.154643
   7 C :   -0.157119
   8 C :    0.097523
   9 C :    0.170455
  10 C :   -0.485928
  11 O :   -0.636581
  12 C :    0.896970
  13 F :   -0.309758
  14 F :   -0.299801
  15 F :   -0.285949
  16 C :   -0.114348
  17 Cl:   -0.010935
  18 C :   -0.144133
  19 S :    1.211289
  20 O :   -0.527322
  21 O :   -0.536911
  22 C :   -0.142080
  23 C :   -0.152331
  24 C :   -0.145086
  25 C :    0.083495
  26 C :    0.529555
  27 O :   -0.442419
  28 O :   -0.622921
  29 C :   -0.140594
  30 C :   -0.141527
  31 N :   -0.360250
  32 C :   -0.048832
  33 C :    0.134451
  34 C :   -0.201434
  35 C :   -0.127163
  36 C :   -0.120296
  37 C :   -0.201006
  38 C :    0.124226
  39 H :    0.168325
  40 H :    0.160937
  41 H :    0.168739
  42 H :    0.172678
  43 H :    0.166073
  44 H :    0.130802
  45 H :    0.129395
  46 H :    0.179262
  47 H :    0.170251
  48 H :    0.178803
  49 H :    0.401517
  50 H :    0.141305
  51 H :    0.197169
  52 H :    0.177438
  53 H :    0.435683
  54 H :    0.181683
  55 H :    0.183216
  56 H :    0.158185
  57 H :    0.142329
  58 H :    0.136966
  59 H :    0.137754
  60 H :    0.136166
Sum of atomic charges:   -0.0000000

LOEWDIN ATOMIC CHARGES
----------------------
   0 C :   -0.361781
   1 C :   -0.017956
   2 C :    0.034828
   3 N :   -0.279477
   4 C :   -0.148742
   5 C :   -0.023494
   6 C :   -0.123719
   7 C :   -0.115692
   8 C :   -0.035405
   9 C :    0.036662
  10 C :   -0.360577
  11 O :   -0.361288
  12 C :    0.293632
  13 F :   -0.118184
  14 F :   -0.112392
  15 F :   -0.099915
  16 C :   -0.079042
  17 Cl:    0.036802
  18 C :   -0.120655
  19 S :    1.262673
  20 O :   -0.563916
  21 O :   -0.566970
  22 C :   -0.176210
  23 C :   -0.107298
  24 C :   -0.097687
  25 C :   -0.036961
  26 C :    0.180178
  27 O :   -0.258446
  28 O :   -0.333780
  29 C :   -0.086033
  30 C :   -0.101854
  31 N :   -0.109478
  32 C :   -0.054040
  33 C :   -0.029000
  34 C :   -0.109885
  35 C :   -0.126622
  36 C :   -0.117192
  37 C :   -0.126292
  38 C :   -0.007134
  39 H :    0.139798
  40 H :    0.136135
  41 H :    0.137093
  42 H :    0.139540
  43 H :    0.135203
  44 H :    0.133697
  45 H :    0.136837
  46 H :    0.143562
  47 H :    0.140002
  48 H :    0.146036
  49 H :    0.315890
  50 H :    0.139509
  51 H :    0.163067
  52 H :    0.156919
  53 H :    0.350807
  54 H :    0.160889
  55 H :    0.158449
  56 H :    0.140352
  57 H :    0.138663
  58 H :    0.135947
  59 H :    0.136584
  60 H :    0.137365

  Mayer bond orders larger than 0.100000
B(  0-C ,  1-C ) :   0.9967 B(  0-C , 39-H ) :   0.9287 B(  0-C , 40-H ) :   0.9268
B(  0-C , 41-H ) :   0.9302 B(  1-C ,  2-C ) :   1.4379 B(  1-C , 32-C ) :   0.1016
B(  1-C , 38-C ) :   1.2662 B(  2-C ,  3-N ) :   0.8901 B(  2-C , 31-N ) :   1.2854
B(  3-N ,  4-C ) :   0.9410 B(  3-N , 19-S ) :   0.7953 B(  4-C ,  5-C ) :   0.9309
B(  4-C , 42-H ) :   0.9213 B(  4-C , 43-H ) :   0.9238 B(  5-C ,  6-C ) :   1.4288
B(  5-C , 18-C ) :   1.4399 B(  6-C ,  7-C ) :   1.4333 B(  6-C , 44-H ) :   0.9211
B(  7-C ,  8-C ) :   1.4091 B(  7-C , 45-H ) :   0.9147 B(  8-C ,  9-C ) :   0.9308
B(  8-C , 16-C ) :   1.3589 B(  9-C , 10-C ) :   0.9688 B(  9-C , 11-O ) :   0.9108
B(  9-C , 12-C ) :   0.9119 B( 10-C , 46-H ) :   0.9251 B( 10-C , 47-H ) :   0.9343
B( 10-C , 48-H ) :   0.9390 B( 11-O , 49-H ) :   0.7673 B( 12-C , 13-F ) :   0.9439
B( 12-C , 14-F ) :   0.9710 B( 12-C , 15-F ) :   0.9661 B( 16-C , 17-Cl) :   1.0234
B( 16-C , 18-C ) :   1.3966 B( 18-C , 50-H ) :   0.9123 B( 19-S , 20-O ) :   1.6531
B( 19-S , 21-O ) :   1.6429 B( 19-S , 22-C ) :   0.8084 B( 22-C , 23-C ) :   1.3973
B( 22-C , 30-C ) :   1.3771 B( 23-C , 24-C ) :   1.4076 B( 23-C , 51-H ) :   0.9025
B( 24-C , 25-C ) :   1.3888 B( 24-C , 52-H ) :   0.9139 B( 25-C , 26-C ) :   1.0072
B( 25-C , 29-C ) :   1.3976 B( 26-C , 27-O ) :   1.8636 B( 26-C , 28-O ) :   1.0271
B( 28-O , 53-H ) :   0.7409 B( 29-C , 30-C ) :   1.4289 B( 29-C , 54-H ) :   0.9092
B( 30-C , 55-H ) :   0.9101 B( 31-N , 32-C ) :   1.4974 B( 32-C , 33-C ) :   1.2298
B( 32-C , 56-H ) :   0.9258 B( 33-C , 34-C ) :   1.2846 B( 33-C , 38-C ) :   1.2906
B( 34-C , 35-C ) :   1.5124 B( 34-C , 37-C ) :   0.1061 B( 34-C , 57-H ) :   0.9227
B( 35-C , 36-C ) :   1.3534 B( 35-C , 58-H ) :   0.9291 B( 36-C , 37-C ) :   1.5094
B( 36-C , 59-H ) :   0.9290 B( 37-C , 38-C ) :   1.2930 B( 37-C , 60-H ) :   0.9173

FINAL SINGLE POINT ENERGY     -2684.394249374987

DIPOLE MOMENT
-------------

Method             : SCF
Type of density    : Electron Density
Multiplicity       :   1
Irrep              :   0
Energy             : -2684.3942493749873393 Eh
Relativity type    :
Basis              : AO
                                X                 Y                 Z
Electronic contribution:     35.725193630     -21.032053945      -0.093730990
Nuclear contribution   :    -36.368979721      22.451087153      -2.018916390
                        -----------------------------------------
Total Dipole Moment    :     -0.643786091       1.419033208      -2.112647379
                        -----------------------------------------
Magnitude (a.u.)       :      2.625146610
Magnitude (Debye)      :      6.672592404

Rotational constants in cm-1:             0.002643             0.001981             0.001243
Rotational constants in MHz :            79.237413            59.387882            37.254465

                             ****ORCA TERMINATED NORMALLY****
TOTAL RUN TIME: 0 days 0 hours 15 minutes 1 seconds 585 msec
