                         Program Version 6.0.0  -   RELEASE  -
|  1> ! B3LYP 6-31G* SP
|  2>
|  3> * xyz 0 1
|  4> O 0.9937 0.7575 -1.9049
|  5> C 1.1991 0.0262 -0.8976
|  6> N 2.3769 0.2268 -0.0985
|  7> C 3.5517 0.9142 -0.5621
|  8> C 3.9535 0.8539 -1.9098
|  9> C 5.1131 1.5131 -2.3302
| 10> C 5.8870 2.2262 -1.4107
| 11> F 7.0116 2.8631 -1.8203
| 12> C 5.5065 2.2739 -0.0670
| 13> C 4.3483 1.6153 0.3573
| 14> N 0.2151 -0.9590 -0.5196
| 15> C 0.6037 -2.1039 0.3136
| 16> C -0.0494 -3.3778 -0.2083
| 17> C -1.5312 -3.2004 -0.3759
| 18> C -2.3724 -4.3199 -0.3099
| 19> C -3.7387 -4.1714 -0.5472
| 20> N -4.2466 -2.9523 -0.8616
| 21> C -3.4567 -1.8502 -0.9479
| 22> C -2.0759 -1.9409 -0.6994
| 23> C -1.2092 -0.6958 -0.8062
| 24> C -1.7138 0.4030 0.1103
| 25> C -1.9244 0.1618 1.4791
| 26> C -2.3605 1.1881 2.3211
| 27> C -2.5696 2.4829 1.8175
| 28> C -3.0866 3.5778 2.7162
| 29> F -2.6380 3.3983 4.0134
| 30> F -4.4687 3.5564 2.7105
| 31> F -2.6529 4.8167 2.2766
| 32> C -2.3770 2.7192 0.4460
| 33> C -1.9416 1.6926 -0.3964
| 34> H 2.3326 -0.0422 0.9104
| 35> H 3.3878 0.2807 -2.6321
| 36> H 5.4153 1.4634 -3.3684
| 37> H 6.1094 2.8195 0.6476
| 38> H 4.0653 1.6586 1.4016
| 39> H 0.2999 -1.9214 1.3660
| 40> H 1.7045 -2.2566 0.2927
| 41> H 0.3916 -3.6408 -1.1941
| 42> H 0.1647 -4.2060 0.5023
| 43> H -1.9725 -5.3008 -0.0842
| 44> H -4.3951 -5.0296 -0.4932
| 45> H -3.9046 -0.8998 -1.2085
| 46> H -1.2960 -0.3687 -1.8665
| 47> H -1.7657 -0.8249 1.8939
| 48> H -2.5357 0.9685 3.3667
| 49> H -2.5627 3.6991 0.0243
| 50> H -1.7854 1.9055 -1.4466
| 51> *
| 52>
| 53>                          ****END OF INPUT****

CARTESIAN COORDINATES (ANGSTROEM)
---------------------------------
  O      0.993700    0.757500   -1.904900
  C      1.199100    0.026200   -0.897600
  N      2.376900    0.226800   -0.098500
  C      3.551700    0.914200   -0.562100
  C      3.953500    0.853900   -1.909800
  C      5.113100    1.513100   -2.330200
  C      5.887000    2.226200   -1.410700
  F      7.011600    2.863100   -1.820300
  C      5.506500    2.273900   -0.067000
  C      4.348300    1.615300    0.357300
  N      0.215100   -0.959000   -0.519600
  C      0.603700   -2.103900    0.313600
  C     -0.049400   -3.377800   -0.208300
  C     -1.531200   -3.200400   -0.375900
  C     -2.372400   -4.319900   -0.309900
  C     -3.738700   -4.171400   -0.547200
  N     -4.246600   -2.952300   -0.861600
  C     -3.456700   -1.850200   -0.947900
  C     -2.075900   -1.940900   -0.699400
  C     -1.209200   -0.695800   -0.806200
  C     -1.713800    0.403000    0.110300
  C     -1.924400    0.161800    1.479100
  C     -2.360500    1.188100    2.321100
  C     -2.569600    2.482900    1.817500
  C     -3.086600    3.577800    2.716200
  F     -2.638000    3.398300    4.013400
  F     -4.468700    3.556400    2.710500
  F     -2.652900    4.816700    2.276600
  C     -2.377000    2.719200    0.446000
  C     -1.941600    1.692600   -0.396400
  H      2.332600   -0.042200    0.910400
  H      3.387800    0.280700   -2.632100
  H      5.415300    1.463400   -3.368400
  H      6.109400    2.819500    0.647600
  H      4.065300    1.658600    1.401600
  H      0.299900   -1.921400    1.366000
  H      1.704500   -2.256600    0.292700
  H      0.391600   -3.640800   -1.194100
  H      0.164700   -4.206000    0.502300
  H     -1.972500   -5.300800   -0.084200
  H     -4.395100   -5.029600   -0.493200
  H     -3.904600   -0.899800   -1.208500
  H     -1.296000   -0.368700   -1.866500
  H     -1.765700   -0.824900    1.893900
  H     -2.535700    0.968500    3.366700
  H     -2.562700    3.699100    0.024300
  H     -1.785400    1.905500   -1.446600

 Total Charge           Charge          ....    0
 Multiplicity           Mult            ....    1
 Number of Electrons    NEL             ....  214
 Basis Dimension        Dim             ....  454

ORBITAL ENERGIES
----------------

  NO   OCC          E(Eh)            E(eV)
   0   2.0000     -24.717765      -672.6046
   1   2.0000     -24.716915      -672.5814
   2   2.0000     -24.713138      -672.4787
   3   2.0000     -24.693599      -671.9470
   4   2.0000     -19.112129      -520.0675
   5   2.0000     -14.376713      -391.2102
   6   2.0000     -14.368700      -390.9922
   7   2.0000     -14.329135      -389.9156
   8   2.0000     -10.432438      -283.8811
   9   2.0000     -10.325465      -280.9702
  10   2.0000     -10.264054      -279.2991
  11   2.0000     -10.245442      -278.7926
  12   2.0000     -10.238759      -278.6108
  13   2.0000     -10.236993      -278.5627
  14   2.0000     -10.225269      -278.2437
  15   2.0000     -10.222054      -278.1562
  16   2.0000     -10.216037      -277.9925
  17   2.0000     -10.212750      -277.9031
  18   2.0000     -10.210929      -277.8535
  19   2.0000     -10.208206      -277.7794
  20   2.0000     -10.207021      -277.7472
  21   2.0000     -10.203685      -277.6564
  22   2.0000     -10.201613      -277.6000
  23   2.0000     -10.200012      -277.5564
  24   2.0000     -10.196393      -277.4580
  25   2.0000     -10.196113      -277.4503
  26   2.0000     -10.195498      -277.4336
  27   2.0000     -10.191744      -277.3314
  28   2.0000     -10.190149      -277.2880
  29   2.0000     -10.189455      -277.2692
  30   2.0000      -1.277002       -34.7490
  31   2.0000      -1.207251       -32.8510
  32   2.0000      -1.202755       -32.7286
  33   2.0000      -1.201032       -32.6817
  34   2.0000      -1.028385       -27.9838
  35   2.0000      -0.945092       -25.7173
  36   2.0000      -0.928339       -25.2614
  37   2.0000      -0.923024       -25.1168
  38   2.0000      -0.872827       -23.7508
  39   2.0000      -0.849021       -23.1030
  40   2.0000      -0.827891       -22.5281
  41   2.0000      -0.813711       -22.1422
  42   2.0000      -0.773124       -21.0378
  43   2.0000      -0.762207       -20.7407
  44   2.0000      -0.759958       -20.6795
  45   2.0000      -0.755150       -20.5487
  46   2.0000      -0.741139       -20.1674
  47   2.0000      -0.708463       -19.2783
  48   2.0000      -0.676477       -18.4079
  49   2.0000      -0.665332       -18.1046
  50   2.0000      -0.633973       -17.2513
  51   2.0000      -0.631842       -17.1933
  52   2.0000      -0.623965       -16.9790
  53   2.0000      -0.622238       -16.9320
  54   2.0000      -0.607261       -16.5244
  55   2.0000      -0.592652       -16.1269
  56   2.0000      -0.567847       -15.4519
  57   2.0000      -0.565340       -15.3837
  58   2.0000      -0.562127       -15.2962
  59   2.0000      -0.558979       -15.2106
  60   2.0000      -0.548821       -14.9342
  61   2.0000      -0.538429       -14.6514
  62   2.0000      -0.522017       -14.2048
  63   2.0000      -0.506137       -13.7727
  64   2.0000      -0.504110       -13.7175
  65   2.0000      -0.495279       -13.4772
  66   2.0000      -0.483234       -13.1495
  67   2.0000      -0.480542       -13.0762
  68   2.0000      -0.475584       -12.9413
  69   2.0000      -0.462661       -12.5897
  70   2.0000      -0.457719       -12.4552
  71   2.0000      -0.450902       -12.2697
  72   2.0000      -0.450016       -12.2455
  73   2.0000      -0.445891       -12.1333
  74   2.0000      -0.443854       -12.0779
  75   2.0000      -0.442747       -12.0478
  76   2.0000      -0.436620       -11.8810
  77   2.0000      -0.431062       -11.7298
  78   2.0000      -0.428466       -11.6592
  79   2.0000      -0.422537       -11.4978
  80   2.0000      -0.419625       -11.4186
  81   2.0000      -0.418236       -11.3808
  82   2.0000      -0.408138       -11.1060
  83   2.0000      -0.405350       -11.0301
  84   2.0000      -0.403608       -10.9827
  85   2.0000      -0.400672       -10.9028
  86   2.0000      -0.398729       -10.8500
  87   2.0000      -0.395661       -10.7665
  88   2.0000      -0.385191       -10.4816
  89   2.0000      -0.378549       -10.3008
  90   2.0000      -0.373226       -10.1560
  91   2.0000      -0.370345       -10.0776
  92   2.0000      -0.363264        -9.8849
  93   2.0000      -0.360421        -9.8075
  94   2.0000      -0.357089        -9.7169
  95   2.0000      -0.348070        -9.4715
  96   2.0000      -0.344811        -9.3828
  97   2.0000      -0.296347        -8.0640
  98   2.0000      -0.277643        -7.5550
  99   2.0000      -0.275592        -7.4992
 100   2.0000      -0.266557        -7.2534
 101   2.0000      -0.264067        -7.1856
 102   2.0000      -0.255614        -6.9556
 103   2.0000      -0.252123        -6.8606
 104   2.0000      -0.245514        -6.6808
 105   2.0000      -0.239357        -6.5132
 106   2.0000      -0.215399        -5.8613
 107   0.0000      -0.035730        -0.9723
 108   0.0000      -0.028625        -0.7789
 109   0.0000      -0.022485        -0.6118
 110   0.0000      -0.013442        -0.3658
 111   0.0000      -0.008525        -0.2320

MULLIKEN ATOMIC CHARGES
-----------------------
   0 O :   -0.489723
   1 C :    0.688206
   2 N :   -0.718301
   3 C :    0.341614
   4 C :   -0.125847
   5 C :   -0.219897
   6 C :    0.408203
   7 F :   -0.320925
   8 C :   -0.211336
   9 C :   -0.174247
  10 N :   -0.452711
  11 C :   -0.159818
  12 C :   -0.333627
  13 C :    0.129450
  14 C :   -0.193072
  15 C :    0.021821
  16 N :   -0.371238
  17 C :   -0.015768
  18 C :    0.069632
  19 C :   -0.111885
  20 C :    0.177605
  21 C :   -0.179877
  22 C :   -0.160265
  23 C :   -0.015686
  24 C :    0.895415
  25 F :   -0.306848
  26 F :   -0.296208
  27 F :   -0.305049
  28 C :   -0.158745
  29 C :   -0.179341
  30 H :    0.330876
  31 H :    0.158098
  32 H :    0.148254
  33 H :    0.145561
  34 H :    0.131413
  35 H :    0.138609
  36 H :    0.162601
  37 H :    0.174535
  38 H :    0.150448
  39 H :    0.128976
  40 H :    0.149371
  41 H :    0.155879
  42 H :    0.189588
  43 H :    0.136607
  44 H :    0.151230
  45 H :    0.156271
  46 H :    0.160154
Sum of atomic charges:    0.0000000

LOEWDIN ATOMIC CHARGES
----------------------
   0 O :   -0.304766
   1 C :    0.165709
   2 N :   -0.222706
   3 C :    0.033338
   4 C :   -0.120960
   5 C :   -0.151885
   6 C :    0.106397
   7 F :   -0.107131
   8 C :   -0.154385
   9 C :   -0.144353
  10 N :   -0.115580
  11 C :   -0.158325
  12 C :   -0.226696
  13 C :   -0.009781
  14 C :   -0.147124
  15 C :   -0.069874
  16 N :   -0.133245
  17 C :   -0.063384
  18 C :   -0.038529
  19 C :   -0.038373
  20 C :   -0.012439
  21 C :   -0.128673
  22 C :   -0.113164
  23 C :   -0.070140
  24 C :    0.309973
  25 F :   -0.114871
  26 F :   -0.113713
  27 F :   -0.113318
  28 C :   -0.108581
  29 C :   -0.123788
  30 H :    0.257121
  31 H :    0.149333
  32 H :    0.145506
  33 H :    0.144342
  34 H :    0.133737
  35 H :    0.110032
  36 H :    0.136214
  37 H :    0.144461
  38 H :    0.134264
  39 H :    0.134007
  40 H :    0.135201
  41 H :    0.139312
  42 H :    0.156144
  43 H :    0.134937
  44 H :    0.142984
  45 H :    0.145572
  46 H :    0.147200

  Mayer bond orders larger than 0.100000
B(  0-O ,  1-C ) :   1.7841 B(  1-C ,  2-N ) :   1.0128 B(  1-C , 10-N ) :   1.0349
B(  2-N ,  3-C ) :   0.8674 B(  2-N , 30-H ) :   0.8229 B(  3-C ,  4-C ) :   1.4185
B(  3-C ,  9-C ) :   1.4083 B(  4-C ,  5-C ) :   1.4297 B(  4-C , 31-H ) :   0.9118
B(  5-C ,  6-C ) :   1.3838 B(  5-C , 32-H ) :   0.9206 B(  6-C ,  7-F ) :   0.9140
B(  6-C ,  8-C ) :   1.3978 B(  8-C ,  9-C ) :   1.4275 B(  8-C , 33-H ) :   0.9204
B(  9-C , 34-H ) :   0.9241 B( 10-N , 11-C ) :   0.9483 B( 10-N , 19-C ) :   0.9201
B( 11-C , 12-C ) :   0.9884 B( 11-C , 35-H ) :   0.9175 B( 11-C , 36-H ) :   0.9251
B( 12-C , 13-C ) :   0.9958 B( 12-C , 37-H ) :   0.9168 B( 12-C , 38-H ) :   0.9275
B( 13-C , 14-C ) :   1.4085 B( 13-C , 18-C ) :   1.4392 B( 14-C , 15-C ) :   1.4219
B( 14-C , 17-C ) :   0.1003 B( 14-C , 39-H ) :   0.9203 B( 15-C , 16-N ) :   1.4188
B( 15-C , 40-H ) :   0.9306 B( 16-N , 17-C ) :   1.4364 B( 17-C , 18-C ) :   1.3512
B( 17-C , 41-H ) :   0.9245 B( 18-C , 19-C ) :   0.9515 B( 19-C , 20-C ) :   0.9415
B( 19-C , 42-H ) :   0.8965 B( 20-C , 21-C ) :   1.4075 B( 20-C , 29-C ) :   1.4255
B( 21-C , 22-C ) :   1.4371 B( 21-C , 43-H ) :   0.9179 B( 22-C , 23-C ) :   1.4042
B( 22-C , 44-H ) :   0.9202 B( 23-C , 24-C ) :   0.9796 B( 23-C , 28-C ) :   1.4163
B( 24-C , 25-F ) :   0.9465 B( 24-C , 26-F ) :   0.9870 B( 24-C , 27-F ) :   0.9487
B( 28-C , 29-C ) :   1.4120 B( 28-C , 45-H ) :   0.9192 B( 29-C , 46-H ) :   0.9172

FINAL SINGLE POINT ENERGY     -1486.600587322511

DIPOLE MOMENT
-------------

Method             : SCF
Type of density    : Electron Density
Multiplicity       :   1
Irrep              :   0
Energy             : -1486.6005873225110463 Eh
Relativity type    :
Basis              : AO
                                X                 Y                 Z
Electronic contribution:     -6.935839770      29.334839779      11.046332137
Nuclear contribution   :      7.714724382     -31.236656730     -10.244902942
                        -----------------------------------------
Total Dipole Moment    :      0.778884612      -1.901816952       0.801429196
                        -----------------------------------------
Magnitude (a.u.)       :      2.205868925
Magnitude (Debye)      :      5.606873221

Rotational constants in cm-1:             0.005164             0.003062             0.002083
Rotational constants in MHz :           154.801953            91.798740            62.458229

                             ****ORCA TERMINATED NORMALLY****
TOTAL RUN TIME: 0 days 0 hours 8 minutes 23 seconds 34 msec
