                         Program Version 6.0.0  -   RELEASE  -
|  1> ! B3LYP 6-31G* SP
|  2>
|  3> * xyz 0 1
|  4> C -0.7390 0.8480 -3.8006
|  5> C -1.0722 -0.0757 -2.6491
|  6> C -0.1734 -0.2166 -1.5705
|  7> N 1.0318 0.5549 -1.4910
|  8> C 1.0094 1.9551 -1.0514
|  9> C 0.1883 2.1301 0.2024
| 10> C 0.4840 1.3802 1.3512
| 11> C -0.2786 1.5336 2.5082
| 12> C -1.3254 2.4579 2.5443
| 13> F -2.0350 2.6053 3.6915
| 14> C -1.6264 3.2393 1.4122
| 15> C -2.7054 4.2956 1.4956
| 16> F -2.9614 4.8698 0.2616
| 17> F -2.2998 5.2881 2.3701
| 18> F -3.8786 3.7313 1.9629
| 19> C -0.8622 3.0654 0.2413
| 20> S 2.5493 -0.2306 -1.7883
| 21> O 2.3148 -1.5952 -2.3762
| 22> O 3.3456 0.5765 -2.7760
| 23> C 3.4346 -0.3893 -0.2767
| 24> C 4.3675 0.5855 0.0992
| 25> C 5.0548 0.4717 1.3105
| 26> C 4.8155 -0.6203 2.1661
| 27> C 5.5481 -0.7499 3.4452
| 28> O 6.3556 0.1481 3.8112
| 29> O 5.3559 -1.8674 4.2566
| 30> C 3.8680 -1.5890 1.7882
| 31> C 3.1803 -1.4713 0.5763
| 32> N -0.4371 -1.0974 -0.5742
| 33> C -1.5660 -1.8463 -0.5239
| 34> C -1.7395 -2.8042 0.6283
| 35> C -1.2452 -2.3134 1.9852
| 36> C -2.7328 -2.3385 1.6844
| 37> C -2.5196 -1.7344 -1.5591
| 38> C -3.6990 -2.5084 -1.5615
| 39> C -4.6316 -2.3781 -2.5908
| 40> C -4.4106 -1.4741 -3.6257
| 41> C -3.2498 -0.7007 -3.6475
| 42> C -2.2779 -0.8250 -2.6271
| 43> H -1.3649 1.7612 -3.7383
| 44> H 0.3278 1.1465 -3.8087
| 45> H -0.9136 0.3371 -4.7689
| 46> H 0.6152 2.5869 -1.8722
| 47> H 2.0402 2.3059 -0.8419
| 48> H 1.2970 0.6686 1.3487
| 49> H -0.0488 0.9418 3.3854
| 50> H -1.0710 3.6651 -0.6367
| 51> H 4.5604 1.4369 -0.5420
| 52> H 5.7744 1.2370 1.5763
| 53> H 5.8562 -1.9655 5.1329
| 54> H 3.6558 -2.4366 2.4296
| 55> H 2.4456 -2.2202 0.3068
| 56> H -1.6891 -3.9030 0.4588
| 57> H -0.9172 -3.1151 2.6805
| 58> H -0.8234 -1.2873 2.0273
| 59> H -3.2831 -3.1608 2.1879
| 60> H -3.1827 -1.3336 1.5192
| 61> H -3.9097 -3.2193 -0.7732
| 62> H -5.5329 -2.9772 -2.5825
| 63> H -5.1416 -1.3742 -4.4196
| 64> H -3.1316 -0.0049 -4.4664
| 65> *
| 66>
| 67>                          ****END OF INPUT****

CARTESIAN COORDINATES (ANGSTROEM)
---------------------------------
  C     -0.739000    0.848000   -3.800600
  C     -1.072200   -0.075700   -2.649100
  C     -0.173400   -0.216600   -1.570500
  N      1.031800    0.554900   -1.491000
  C      1.009400    1.955100   -1.051400
  C      0.188300    2.130100    0.202400
  C      0.484000    1.380200    1.351200
  C     -0.278600    1.533600    2.508200
  C     -1.325400    2.457900    2.544300
  F     -2.035000    2.605300    3.691500
  C     -1.626400    3.239300    1.412200
  C     -2.705400    4.295600    1.495600
  F     -2.961400    4.869800    0.261600
  F     -2.299800    5.288100    2.370100
  F     -3.878600    3.731300    1.962900
  C     -0.862200    3.065400    0.241300
  S      2.549300   -0.230600   -1.788300
  O      2.314800   -1.595200   -2.376200
  O      3.345600    0.576500   -2.776000
  C      3.434600   -0.389300   -0.276700
  C      4.367500    0.585500    0.099200
  C      5.054800    0.471700    1.310500
  C      4.815500   -0.620300    2.166100
  C      5.548100   -0.749900    3.445200
  O      6.355600    0.148100    3.811200
  O      5.355900   -1.867400    4.256600
  C      3.868000   -1.589000    1.788200
  C      3.180300   -1.471300    0.576300
  N     -0.437100   -1.097400   -0.574200
  C     -1.566000   -1.846300   -0.523900
  C     -1.739500   -2.804200    0.628300
  C     -1.245200   -2.313400    1.985200
  C     -2.732800   -2.338500    1.684400
  C     -2.519600   -1.734400   -1.559100
  C     -3.699000   -2.508400   -1.561500
  C     -4.631600   -2.378100   -2.590800
  C     -4.410600   -1.474100   -3.625700
  C     -3.249800   -0.700700   -3.647500
  C     -2.277900   -0.825000   -2.627100
  H     -1.364900    1.761200   -3.738300
  H      0.327800    1.146500   -3.808700
  H     -0.913600    0.337100   -4.768900
  H      0.615200    2.586900   -1.872200
  H      2.040200    2.305900   -0.841900
  H      1.297000    0.668600    1.348700
  H     -0.048800    0.941800    3.385400
  H     -1.071000    3.665100   -0.636700
  H      4.560400    1.436900   -0.542000
  H      5.774400    1.237000    1.576300
  H      5.856200   -1.965500    5.132900
  H      3.655800   -2.436600    2.429600
  H      2.445600   -2.220200    0.306800
  H     -1.689100   -3.903000    0.458800
  H     -0.917200   -3.115100    2.680500
  H     -0.823400   -1.287300    2.027300
  H     -3.283100   -3.160800    2.187900
  H     -3.182700   -1.333600    1.519200
  H     -3.909700   -3.219300   -0.773200
  H     -5.532900   -2.977200   -2.582500
  H     -5.141600   -1.374200   -4.419600
  H     -3.131600   -0.004900   -4.466400

 Total Charge           Charge          ....    0
 Multiplicity           Mult            ....    1
 Number of Electrons    NEL             ....  288
 Basis Dimension        Dim             ....  594

ORBITAL ENERGIES
----------------

  NO   OCC          E(Eh)            E(eV)
   0   2.0000     -89.099116     -2424.5102
   1   2.0000     -24.726211      -672.8344
   2   2.0000     -24.717768      -672.6047
   3   2.0000     -24.717534      -672.5983
   4   2.0000     -24.716394      -672.5673
   5   2.0000     -19.198994      -522.4312
   6   2.0000     -19.140864      -520.8494
   7   2.0000     -19.127810      -520.4942
   8   2.0000     -19.126371      -520.4550
   9   2.0000     -14.375523      -391.1779
  10   2.0000     -14.329530      -389.9263
  11   2.0000     -10.441182      -284.1190
  12   2.0000     -10.338383      -281.3217
  13   2.0000     -10.294354      -280.1236
  14   2.0000     -10.259169      -279.1662
  15   2.0000     -10.245848      -278.8037
  16   2.0000     -10.244636      -278.7707
  17   2.0000     -10.235395      -278.5193
  18   2.0000     -10.234013      -278.4817
  19   2.0000     -10.226217      -278.2695
  20   2.0000     -10.223781      -278.2032
  21   2.0000     -10.221363      -278.1374
  22   2.0000     -10.220668      -278.1185
  23   2.0000     -10.220279      -278.1079
  24   2.0000     -10.216934      -278.0169
  25   2.0000     -10.214235      -277.9435
  26   2.0000     -10.210265      -277.8354
  27   2.0000     -10.209262      -277.8082
  28   2.0000     -10.208902      -277.7984
  29   2.0000     -10.206937      -277.7449
  30   2.0000     -10.200950      -277.5820
  31   2.0000     -10.199560      -277.5441
  32   2.0000     -10.196781      -277.4685
  33   2.0000     -10.195529      -277.4345
  34   2.0000     -10.195380      -277.4304
  35   2.0000     -10.194498      -277.4064
  36   2.0000     -10.189013      -277.2571
  37   2.0000     -10.185670      -277.1662
  38   2.0000     -10.183822      -277.1159
  39   2.0000      -8.134816      -221.3596
  40   2.0000      -6.099808      -165.9842
  41   2.0000      -6.097837      -165.9306
  42   2.0000      -6.097521      -165.9220
  43   2.0000      -1.281757       -34.8784
  44   2.0000      -1.229241       -33.4494
  45   2.0000      -1.208071       -32.8733
  46   2.0000      -1.203944       -32.7610
  47   2.0000      -1.084868       -29.5208
  48   2.0000      -1.082790       -29.4642
  49   2.0000      -0.997413       -27.1410
  50   2.0000      -0.966644       -26.3037
  51   2.0000      -0.962402       -26.1883
  52   2.0000      -0.920151       -25.0386
  53   2.0000      -0.893060       -24.3014
  54   2.0000      -0.883011       -24.0280
  55   2.0000      -0.864218       -23.5166
  56   2.0000      -0.855631       -23.2829
  57   2.0000      -0.810943       -22.0669
  58   2.0000      -0.806797       -21.9541
  59   2.0000      -0.798673       -21.7330
  60   2.0000      -0.785189       -21.3661
  61   2.0000      -0.779124       -21.2010
  62   2.0000      -0.772459       -21.0197
  63   2.0000      -0.743721       -20.2377
  64   2.0000      -0.720841       -19.6151
  65   2.0000      -0.711743       -19.3675
  66   2.0000      -0.702314       -19.1109
  67   2.0000      -0.689633       -18.7659
  68   2.0000      -0.657842       -17.9008
  69   2.0000      -0.646685       -17.5972
  70   2.0000      -0.640903       -17.4398
  71   2.0000      -0.640158       -17.4196
  72   2.0000      -0.626231       -17.0406
  73   2.0000      -0.615902       -16.7595
  74   2.0000      -0.613584       -16.6965
  75   2.0000      -0.596990       -16.2449
  76   2.0000      -0.587849       -15.9962
  77   2.0000      -0.573166       -15.5966
  78   2.0000      -0.571886       -15.5618
  79   2.0000      -0.571115       -15.5408
  80   2.0000      -0.565883       -15.3985
  81   2.0000      -0.559316       -15.2198
  82   2.0000      -0.543946       -14.8015
  83   2.0000      -0.536240       -14.5918
  84   2.0000      -0.534801       -14.5527
  85   2.0000      -0.520882       -14.1739
  86   2.0000      -0.509451       -13.8629
  87   2.0000      -0.502143       -13.6640
  88   2.0000      -0.494220       -13.4484
  89   2.0000      -0.486479       -13.2378
  90   2.0000      -0.481952       -13.1146
  91   2.0000      -0.477113       -12.9829
  92   2.0000      -0.475515       -12.9394
  93   2.0000      -0.474217       -12.9041
  94   2.0000      -0.471382       -12.8270
  95   2.0000      -0.463456       -12.6113
  96   2.0000      -0.462074       -12.5737
  97   2.0000      -0.453163       -12.3312
  98   2.0000      -0.451406       -12.2834
  99   2.0000      -0.450459       -12.2576
 100   2.0000      -0.449081       -12.2201
 101   2.0000      -0.445841       -12.1319
 102   2.0000      -0.443782       -12.0759
 103   2.0000      -0.438682       -11.9372
 104   2.0000      -0.435915       -11.8619
 105   2.0000      -0.432861       -11.7788
 106   2.0000      -0.424243       -11.5442
 107   2.0000      -0.419737       -11.4216
 108   2.0000      -0.417658       -11.3650
 109   2.0000      -0.417112       -11.3502
 110   2.0000      -0.409904       -11.1541
 111   2.0000      -0.406012       -11.0481
 112   2.0000      -0.401339       -10.9210
 113   2.0000      -0.399334       -10.8664
 114   2.0000      -0.398062       -10.8318
 115   2.0000      -0.395062       -10.7502
 116   2.0000      -0.388560       -10.5733
 117   2.0000      -0.388152       -10.5622
 118   2.0000      -0.385364       -10.4863
 119   2.0000      -0.380165       -10.3448
 120   2.0000      -0.374879       -10.2010
 121   2.0000      -0.370982       -10.0949
 122   2.0000      -0.369712       -10.0604
 123   2.0000      -0.365260        -9.9392
 124   2.0000      -0.357997        -9.7416
 125   2.0000      -0.353186        -9.6107
 126   2.0000      -0.348125        -9.4730
 127   2.0000      -0.328131        -8.9289
 128   2.0000      -0.323823        -8.8117
 129   2.0000      -0.311392        -8.4734
 130   2.0000      -0.303773        -8.2661
 131   2.0000      -0.299208        -8.1419
 132   2.0000      -0.290971        -7.9177
 133   2.0000      -0.288563        -7.8522
 134   2.0000      -0.282730        -7.6935
 135   2.0000      -0.279512        -7.6059
 136   2.0000      -0.277845        -7.5605
 137   2.0000      -0.277215        -7.5434
 138   2.0000      -0.273862        -7.4522
 139   2.0000      -0.270728        -7.3669
 140   2.0000      -0.261511        -7.1161
 141   2.0000      -0.254203        -6.9172
 142   2.0000      -0.248570        -6.7639
 143   2.0000      -0.221132        -6.0173
 144   0.0000      -0.086043        -2.3413
 145   0.0000      -0.062304        -1.6954
 146   0.0000      -0.042706        -1.1621
 147   0.0000      -0.033098        -0.9006
 148   0.0000      -0.030982        -0.8431

MULLIKEN ATOMIC CHARGES
-----------------------
   0 C :   -0.551565
   1 C :    0.103530
   2 C :    0.332993
   3 N :   -0.624169
   4 C :   -0.225443
   5 C :    0.145740
   6 C :   -0.120873
   7 C :   -0.215288
   8 C :    0.385523
   9 F :   -0.299425
  10 C :   -0.113233
  11 C :    0.918563
  12 F :   -0.305417
  13 F :   -0.296239
  14 F :   -0.299234
  15 C :   -0.207351
  16 S :    1.207315
  17 O :   -0.538747
  18 O :   -0.544478
  19 C :   -0.134999
  20 C :   -0.152382
  21 C :   -0.139770
  22 C :    0.082158
  23 C :    0.528980
  24 O :   -0.443542
  25 O :   -0.624028
  26 C :   -0.152247
  27 C :   -0.137559
  28 N :   -0.427698
  29 C :    0.168665
  30 C :   -0.162638
  31 C :   -0.309266
  32 C :   -0.302703
  33 C :    0.108856
  34 C :   -0.200428
  35 C :   -0.123520
  36 C :   -0.117364
  37 C :   -0.201471
  38 C :    0.124525
  39 H :    0.157128
  40 H :    0.195741
  41 H :    0.170128
  42 H :    0.168434
  43 H :    0.182834
  44 H :    0.159724
  45 H :    0.158858
  46 H :    0.158321
  47 H :    0.184272
  48 H :    0.182105
  49 H :    0.434838
  50 H :    0.174760
  51 H :    0.199047
  52 H :    0.162020
  53 H :    0.141752
  54 H :    0.166793
  55 H :    0.146878
  56 H :    0.162118
  57 H :    0.145959
  58 H :    0.135510
  59 H :    0.137408
  60 H :    0.139601
Sum of atomic charges:    0.0000000

LOEWDIN ATOMIC CHARGES
----------------------
   0 C :   -0.362721
   1 C :   -0.009377
   2 C :    0.029361
   3 N :   -0.283831
   4 C :   -0.142013
   5 C :   -0.039091
   6 C :   -0.094933
   7 C :   -0.153077
   8 C :    0.134579
   9 F :   -0.092172
  10 C :   -0.097795
  11 C :    0.315224
  12 F :   -0.111754
  13 F :   -0.111583
  14 F :   -0.110780
  15 C :   -0.111422
  16 S :    1.263621
  17 O :   -0.565908
  18 O :   -0.573479
  19 C :   -0.178822
  20 C :   -0.112124
  21 C :   -0.086846
  22 C :   -0.039586
  23 C :    0.180872
  24 O :   -0.260044
  25 O :   -0.335432
  26 C :   -0.100986
  27 C :   -0.098324
  28 N :   -0.130656
  29 C :    0.044815
  30 C :   -0.143091
  31 C :   -0.248110
  32 C :   -0.250167
  33 C :   -0.023525
  34 C :   -0.111721
  35 C :   -0.124870
  36 C :   -0.116899
  37 C :   -0.122731
  38 C :   -0.003795
  39 H :    0.134628
  40 H :    0.150417
  41 H :    0.141171
  42 H :    0.131816
  43 H :    0.148034
  44 H :    0.148370
  45 H :    0.150464
  46 H :    0.146656
  47 H :    0.158683
  48 H :    0.161012
  49 H :    0.350324
  50 H :    0.155562
  51 H :    0.166693
  52 H :    0.140365
  53 H :    0.130551
  54 H :    0.142898
  55 H :    0.130319
  56 H :    0.137658
  57 H :    0.142861
  58 H :    0.135342
  59 H :    0.136248
  60 H :    0.139122

  Mayer bond orders larger than 0.100000
B(  0-C ,  1-C ) :   0.9997 B(  0-C , 39-H ) :   0.9271 B(  0-C , 40-H ) :   0.9247
B(  0-C , 41-H ) :   0.9279 B(  1-C ,  2-C ) :   1.4530 B(  1-C , 38-C ) :   1.2595
B(  2-C ,  3-N ) :   0.8631 B(  2-C , 28-N ) :   1.2624 B(  3-N ,  4-C ) :   0.9206
B(  3-N , 16-S ) :   0.8068 B(  4-C ,  5-C ) :   0.9552 B(  4-C , 42-H ) :   0.9195
B(  4-C , 43-H ) :   0.9131 B(  5-C ,  6-C ) :   1.4168 B(  5-C , 15-C ) :   1.4213
B(  6-C ,  7-C ) :   1.4234 B(  6-C , 44-H ) :   0.9097 B(  7-C ,  8-C ) :   1.3766
B(  7-C , 45-H ) :   0.9167 B(  8-C ,  9-F ) :   0.9557 B(  8-C , 10-C ) :   1.3343
B( 10-C , 11-C ) :   0.9641 B( 10-C , 15-C ) :   1.3915 B( 11-C , 12-F ) :   0.9459
B( 11-C , 13-F ) :   0.9809 B( 11-C , 14-F ) :   0.9643 B( 15-C , 46-H ) :   0.9105
B( 16-S , 17-O ) :   1.6395 B( 16-S , 18-O ) :   1.6401 B( 16-S , 19-C ) :   0.8107
B( 19-C , 20-C ) :   1.3808 B( 19-C , 27-C ) :   1.3924 B( 20-C , 21-C ) :   1.4165
B( 20-C , 47-H ) :   0.9088 B( 21-C , 22-C ) :   1.4045 B( 21-C , 48-H ) :   0.9092
B( 22-C , 23-C ) :   1.0079 B( 22-C , 26-C ) :   1.3785 B( 23-C , 24-O ) :   1.8623
B( 23-C , 25-O ) :   1.0247 B( 25-O , 49-H ) :   0.7414 B( 26-C , 27-C ) :   1.4157
B( 26-C , 50-H ) :   0.9150 B( 27-C , 51-H ) :   0.9026 B( 28-N , 29-C ) :   1.4475
B( 29-C , 30-C ) :   1.0232 B( 29-C , 33-C ) :   1.2291 B( 30-C , 31-C ) :   0.9507
B( 30-C , 32-C ) :   0.9230 B( 30-C , 52-H ) :   0.9206 B( 31-C , 32-C ) :   0.9665
B( 31-C , 53-H ) :   0.9433 B( 31-C , 54-H ) :   0.9267 B( 32-C , 55-H ) :   0.9430
B( 32-C , 56-H ) :   0.9426 B( 33-C , 34-C ) :   1.3050 B( 33-C , 38-C ) :   1.2799
B( 34-C , 35-C ) :   1.5011 B( 34-C , 37-C ) :   0.1057 B( 34-C , 57-H ) :   0.9125
B( 35-C , 36-C ) :   1.3569 B( 35-C , 58-H ) :   0.9293 B( 36-C , 37-C ) :   1.5087
B( 36-C , 59-H ) :   0.9289 B( 37-C , 38-C ) :   1.2897 B( 37-C , 60-H ) :   0.9167

FINAL SINGLE POINT ENERGY     -2286.950352320542

DIPOLE MOMENT
-------------

Method             : SCF
Type of density    : Electron Density
Multiplicity       :   1
Irrep              :   0
Energy             : -2286.9503523205421516 Eh
Relativity type    :
Basis              : AO
                                X                 Y                 Z
Electronic contribution:     -4.607200870      31.295383178      16.141461945
Nuclear contribution   :      3.571832712     -32.201385477     -15.325520269
                        -----------------------------------------
Total Dipole Moment    :     -1.035368159      -0.906002299       0.815941676
                        -----------------------------------------
Magnitude (a.u.)       :      1.599558754
Magnitude (Debye)      :      4.065755243

Rotational constants in cm-1:             0.003260             0.002264             0.001789
Rotational constants in MHz :            97.728779            67.866837            53.635846

                             ****ORCA TERMINATED NORMALLY****
TOTAL RUN TIME: 0 days 0 hours 13 minutes 28 seconds 281 msec
