                         Program Version 6.0.0  -   RELEASE  -
|  1> ! B3LYP 6-31G* SP
|  2>
|  3> * xyz 0 1
|  4> C -2.3039 0.1540 1.5650
|  5> C -1.5100 -0.9699 0.9363
|  6> C -0.6016 -0.7123 -0.1189
|  7> N -0.3488 0.6197 -0.5844
|  8> C 0.5750 1.4952 0.1439
|  9> C 1.9536 0.8933 0.1627
| 10> C 2.7546 0.9316 -0.9878
| 11> C 4.0082 0.3110 -0.9950
| 12> C 4.4799 -0.3502 0.1534
| 13> O 5.7341 -0.9734 0.1951
| 14> C 6.6196 -1.0471 -0.9167
| 15> C 8.0665 -1.2340 -0.4998
| 16> C 7.5859 0.1190 -1.0091
| 17> C 3.6745 -0.3928 1.2969
| 18> C 2.4162 0.2156 1.3013
| 19> S -1.1112 1.1587 -2.0481
| 20> O -0.1931 2.0817 -2.7990
| 21> O -1.4099 -0.0220 -2.9294
| 22> C -2.6031 1.9941 -1.6411
| 23> C -3.8087 1.2860 -1.5687
| 24> C -4.9869 1.9375 -1.1931
| 25> C -4.9741 3.3081 -0.8789
| 26> C -6.2220 3.9928 -0.4758
| 27> O -6.2170 5.2242 -0.2083
| 28> O -7.4152 3.2812 -0.3862
| 29> C -3.7577 4.0120 -0.9471
| 30> C -2.5806 3.3572 -1.3221
| 31> N 0.0714 -1.7365 -0.7049
| 32> C -0.0747 -3.0242 -0.3109
| 33> C -0.9324 -3.3421 0.7446
| 34> C -1.0675 -4.6723 1.1692
| 35> C -1.9147 -4.9867 2.2320
| 36> C -2.6336 -3.9795 2.8754
| 37> C -2.5131 -2.6512 2.4591
| 38> C -1.6612 -2.3085 1.3854
| 39> H -3.3896 -0.0774 1.5121
| 40> H -2.1593 1.1254 1.0560
| 41> H -2.0014 0.2759 2.6257
| 42> H 0.2034 1.6526 1.1802
| 43> H 0.6188 2.4991 -0.3329
| 44> H 2.4031 1.4303 -1.8822
| 45> H 4.6031 0.3525 -1.8958
| 46> H 6.3000 -1.5614 -1.8482
| 47> H 8.2453 -1.2685 0.5948
| 48> H 8.6822 -1.8033 -1.2267
| 49> H 7.4601 0.8939 -0.2218
| 50> H 7.8984 0.3575 -2.0450
| 51> H 4.0229 -0.9038 2.1839
| 52> H 1.8020 0.1545 2.1905
| 53> H -3.8352 0.2262 -1.7902
| 54> H -5.9055 1.3667 -1.1446
| 55> H -8.2747 3.7392 -0.1087
| 56> H -3.7135 5.0668 -0.7040
| 57> H -1.6507 3.9108 -1.3535
| 58> H 0.4915 -3.7962 -0.8166
| 59> H -0.5154 -5.4662 0.6801
| 60> H -2.0124 -6.0134 2.5595
| 61> H -3.2867 -4.2279 3.7015
| 62> H -3.0849 -1.9037 2.9912
| 63> *
| 64>
| 65>                          ****END OF INPUT****

CARTESIAN COORDINATES (ANGSTROEM)
---------------------------------
  C     -2.303900    0.154000    1.565000
  C     -1.510000   -0.969900    0.936300
  C     -0.601600   -0.712300   -0.118900
  N     -0.348800    0.619700   -0.584400
  C      0.575000    1.495200    0.143900
  C      1.953600    0.893300    0.162700
  C      2.754600    0.931600   -0.987800
  C      4.008200    0.311000   -0.995000
  C      4.479900   -0.350200    0.153400
  O      5.734100   -0.973400    0.195100
  C      6.619600   -1.047100   -0.916700
  C      8.066500   -1.234000   -0.499800
  C      7.585900    0.119000   -1.009100
  C      3.674500   -0.392800    1.296900
  C      2.416200    0.215600    1.301300
  S     -1.111200    1.158700   -2.048100
  O     -0.193100    2.081700   -2.799000
  O     -1.409900   -0.022000   -2.929400
  C     -2.603100    1.994100   -1.641100
  C     -3.808700    1.286000   -1.568700
  C     -4.986900    1.937500   -1.193100
  C     -4.974100    3.308100   -0.878900
  C     -6.222000    3.992800   -0.475800
  O     -6.217000    5.224200   -0.208300
  O     -7.415200    3.281200   -0.386200
  C     -3.757700    4.012000   -0.947100
  C     -2.580600    3.357200   -1.322100
  N      0.071400   -1.736500   -0.704900
  C     -0.074700   -3.024200   -0.310900
  C     -0.932400   -3.342100    0.744600
  C     -1.067500   -4.672300    1.169200
  C     -1.914700   -4.986700    2.232000
  C     -2.633600   -3.979500    2.875400
  C     -2.513100   -2.651200    2.459100
  C     -1.661200   -2.308500    1.385400
  H     -3.389600   -0.077400    1.512100
  H     -2.159300    1.125400    1.056000
  H     -2.001400    0.275900    2.625700
  H      0.203400    1.652600    1.180200
  H      0.618800    2.499100   -0.332900
  H      2.403100    1.430300   -1.882200
  H      4.603100    0.352500   -1.895800
  H      6.300000   -1.561400   -1.848200
  H      8.245300   -1.268500    0.594800
  H      8.682200   -1.803300   -1.226700
  H      7.460100    0.893900   -0.221800
  H      7.898400    0.357500   -2.045000
  H      4.022900   -0.903800    2.183900
  H      1.802000    0.154500    2.190500
  H     -3.835200    0.226200   -1.790200
  H     -5.905500    1.366700   -1.144600
  H     -8.274700    3.739200   -0.108700
  H     -3.713500    5.066800   -0.704000
  H     -1.650700    3.910800   -1.353500
  H      0.491500   -3.796200   -0.816600
  H     -0.515400   -5.466200    0.680100
  H     -2.012400   -6.013400    2.559500
  H     -3.286700   -4.227900    3.701500
  H     -3.084900   -1.903700    2.991200

 Total Charge           Charge          ....    0
 Multiplicity           Mult            ....    1
 Number of Electrons    NEL             ....  256
 Basis Dimension        Dim             ....  542

ORBITAL ENERGIES
----------------

  NO   OCC          E(Eh)            E(eV)
   0   2.0000     -89.093356     -2424.3535
   1   2.0000     -19.196917      -522.3747
   2   2.0000     -19.161509      -521.4112
   3   2.0000     -19.138377      -520.7817
   4   2.0000     -19.124346      -520.3999
   5   2.0000     -19.119564      -520.2698
   6   2.0000     -14.365364      -390.9014
   7   2.0000     -14.323830      -389.7712
   8   2.0000     -10.335807      -281.2516
   9   2.0000     -10.256609      -279.0965
  10   2.0000     -10.240744      -278.6648
  11   2.0000     -10.240028      -278.6453
  12   2.0000     -10.236647      -278.5533
  13   2.0000     -10.231883      -278.4237
  14   2.0000     -10.226357      -278.2733
  15   2.0000     -10.220490      -278.1137
  16   2.0000     -10.219664      -278.0912
  17   2.0000     -10.218906      -278.0706
  18   2.0000     -10.218080      -278.0481
  19   2.0000     -10.217539      -278.0334
  20   2.0000     -10.210372      -277.8383
  21   2.0000     -10.206173      -277.7241
  22   2.0000     -10.198482      -277.5148
  23   2.0000     -10.198072      -277.5037
  24   2.0000     -10.196745      -277.4675
  25   2.0000     -10.196660      -277.4652
  26   2.0000     -10.195417      -277.4314
  27   2.0000     -10.190142      -277.2879
  28   2.0000     -10.184265      -277.1279
  29   2.0000     -10.181840      -277.0619
  30   2.0000     -10.177633      -276.9475
  31   2.0000     -10.176164      -276.9075
  32   2.0000     -10.171731      -276.7869
  33   2.0000     -10.171710      -276.7863
  34   2.0000     -10.170413      -276.7510
  35   2.0000      -8.128938      -221.1997
  36   2.0000      -6.093865      -165.8225
  37   2.0000      -6.092024      -165.7724
  38   2.0000      -6.091692      -165.7634
  39   2.0000      -1.081837       -29.4383
  40   2.0000      -1.079369       -29.3711
  41   2.0000      -1.039974       -28.2991
  42   2.0000      -0.995921       -27.1004
  43   2.0000      -0.959481       -26.1088
  44   2.0000      -0.955357       -25.9966
  45   2.0000      -0.909009       -24.7354
  46   2.0000      -0.890129       -24.2216
  47   2.0000      -0.863141       -23.4873
  48   2.0000      -0.852080       -23.1863
  49   2.0000      -0.832231       -22.6462
  50   2.0000      -0.808770       -22.0078
  51   2.0000      -0.805735       -21.9252
  52   2.0000      -0.776597       -21.1323
  53   2.0000      -0.775307       -21.0972
  54   2.0000      -0.757052       -20.6004
  55   2.0000      -0.742057       -20.1924
  56   2.0000      -0.735431       -20.0121
  57   2.0000      -0.713041       -19.4028
  58   2.0000      -0.701239       -19.0817
  59   2.0000      -0.676498       -18.4084
  60   2.0000      -0.652129       -17.7453
  61   2.0000      -0.643621       -17.5138
  62   2.0000      -0.638524       -17.3751
  63   2.0000      -0.621065       -16.9000
  64   2.0000      -0.615615       -16.7517
  65   2.0000      -0.599687       -16.3183
  66   2.0000      -0.595658       -16.2087
  67   2.0000      -0.591409       -16.0930
  68   2.0000      -0.586388       -15.9564
  69   2.0000      -0.563061       -15.3217
  70   2.0000      -0.559399       -15.2220
  71   2.0000      -0.541934       -14.7468
  72   2.0000      -0.532220       -14.4824
  73   2.0000      -0.529819       -14.4171
  74   2.0000      -0.509828       -13.8731
  75   2.0000      -0.501746       -13.6532
  76   2.0000      -0.491294       -13.3688
  77   2.0000      -0.481945       -13.1144
  78   2.0000      -0.478268       -13.0143
  79   2.0000      -0.476731       -12.9725
  80   2.0000      -0.471214       -12.8224
  81   2.0000      -0.470464       -12.8020
  82   2.0000      -0.461344       -12.5538
  83   2.0000      -0.455363       -12.3911
  84   2.0000      -0.449208       -12.2236
  85   2.0000      -0.448504       -12.2044
  86   2.0000      -0.443988       -12.0815
  87   2.0000      -0.442195       -12.0327
  88   2.0000      -0.438323       -11.9274
  89   2.0000      -0.433921       -11.8076
  90   2.0000      -0.428893       -11.6708
  91   2.0000      -0.423992       -11.5374
  92   2.0000      -0.418576       -11.3900
  93   2.0000      -0.415661       -11.3107
  94   2.0000      -0.412507       -11.2249
  95   2.0000      -0.407137       -11.0788
  96   2.0000      -0.403156       -10.9704
  97   2.0000      -0.398635       -10.8474
  98   2.0000      -0.392474       -10.6798
  99   2.0000      -0.387326       -10.5397
 100   2.0000      -0.385776       -10.4975
 101   2.0000      -0.385148       -10.4804
 102   2.0000      -0.370407       -10.0793
 103   2.0000      -0.369312       -10.0495
 104   2.0000      -0.368470       -10.0266
 105   2.0000      -0.362739        -9.8706
 106   2.0000      -0.357805        -9.7364
 107   2.0000      -0.351861        -9.5746
 108   2.0000      -0.349622        -9.5137
 109   2.0000      -0.334923        -9.1137
 110   2.0000      -0.324440        -8.8285
 111   2.0000      -0.321021        -8.7354
 112   2.0000      -0.319746        -8.7007
 113   2.0000      -0.305313        -8.3080
 114   2.0000      -0.290786        -7.9127
 115   2.0000      -0.288763        -7.8576
 116   2.0000      -0.286797        -7.8041
 117   2.0000      -0.284655        -7.7459
 118   2.0000      -0.278928        -7.5900
 119   2.0000      -0.275256        -7.4901
 120   2.0000      -0.270088        -7.3495
 121   2.0000      -0.266760        -7.2589
 122   2.0000      -0.261710        -7.1215
 123   2.0000      -0.251294        -6.8380
 124   2.0000      -0.242845        -6.6081
 125   2.0000      -0.238363        -6.4862
 126   2.0000      -0.223285        -6.0759
 127   2.0000      -0.206346        -5.6150
 128   0.0000      -0.082680        -2.2498
 129   0.0000      -0.059479        -1.6185
 130   0.0000      -0.032984        -0.8975
 131   0.0000      -0.028656        -0.7798
 132   0.0000       0.003106         0.0845

MULLIKEN ATOMIC CHARGES
-----------------------
   0 C :   -0.543217
   1 C :    0.095402
   2 C :    0.311834
   3 N :   -0.602849
   4 C :   -0.246057
   5 C :    0.161149
   6 C :   -0.157594
   7 C :   -0.198136
   8 C :    0.366222
   9 O :   -0.526048
  10 C :    0.137289
  11 C :   -0.328357
  12 C :   -0.323545
  13 C :   -0.178574
  14 C :   -0.166148
  15 S :    1.204204
  16 O :   -0.550230
  17 O :   -0.532043
  18 C :   -0.115718
  19 C :   -0.146940
  20 C :   -0.149135
  21 C :    0.081869
  22 C :    0.527536
  23 O :   -0.444444
  24 O :   -0.624134
  25 C :   -0.140234
  26 C :   -0.150958
  27 N :   -0.350039
  28 C :   -0.049876
  29 C :    0.136884
  30 C :   -0.201612
  31 C :   -0.127288
  32 C :   -0.120631
  33 C :   -0.201646
  34 C :    0.124416
  35 H :    0.162983
  36 H :    0.170638
  37 H :    0.162368
  38 H :    0.145484
  39 H :    0.180712
  40 H :    0.165168
  41 H :    0.138963
  42 H :    0.152145
  43 H :    0.169964
  44 H :    0.153054
  45 H :    0.169529
  46 H :    0.148676
  47 H :    0.130754
  48 H :    0.120397
  49 H :    0.187026
  50 H :    0.172343
  51 H :    0.434031
  52 H :    0.180366
  53 H :    0.179772
  54 H :    0.155215
  55 H :    0.141337
  56 H :    0.135900
  57 H :    0.136283
  58 H :    0.135541
Sum of atomic charges:   -0.0000000

LOEWDIN ATOMIC CHARGES
----------------------
   0 C :   -0.361911
   1 C :   -0.018919
   2 C :    0.030969
   3 N :   -0.281984
   4 C :   -0.146762
   5 C :   -0.049782
   6 C :   -0.105900
   7 C :   -0.163915
   8 C :    0.090401
   9 O :   -0.171731
  10 C :   -0.020696
  11 C :   -0.255980
  12 C :   -0.267197
  13 C :   -0.153691
  14 C :   -0.126557
  15 S :    1.264363
  16 O :   -0.573834
  17 O :   -0.561197
  18 C :   -0.174680
  19 C :   -0.105914
  20 C :   -0.100087
  21 C :   -0.041505
  22 C :    0.178940
  23 O :   -0.260673
  24 O :   -0.334990
  25 C :   -0.085899
  26 C :   -0.109638
  27 N :   -0.101219
  28 C :   -0.054559
  29 C :   -0.027405
  30 C :   -0.110248
  31 C :   -0.126703
  32 C :   -0.118772
  33 C :   -0.126449
  34 C :   -0.008731
  35 H :    0.137276
  36 H :    0.139090
  37 H :    0.136722
  38 H :    0.118973
  39 H :    0.146485
  40 H :    0.148150
  41 H :    0.138677
  42 H :    0.125921
  43 H :    0.145251
  44 H :    0.135536
  45 H :    0.144758
  46 H :    0.132361
  47 H :    0.137370
  48 H :    0.128733
  49 H :    0.160742
  50 H :    0.154417
  51 H :    0.349670
  52 H :    0.160173
  53 H :    0.157041
  54 H :    0.138933
  55 H :    0.138211
  56 H :    0.135410
  57 H :    0.135892
  58 H :    0.137064

  Mayer bond orders larger than 0.100000
B(  0-C ,  1-C ) :   0.9975 B(  0-C , 35-H ) :   0.9281 B(  0-C , 36-H ) :   0.9298
B(  0-C , 37-H ) :   0.9268 B(  1-C ,  2-C ) :   1.4364 B(  1-C , 28-C ) :   0.1012
B(  1-C , 34-C ) :   1.2604 B(  2-C ,  3-N ) :   0.8846 B(  2-C , 27-N ) :   1.2945
B(  3-N ,  4-C ) :   0.9148 B(  3-N , 15-S ) :   0.8195 B(  4-C ,  5-C ) :   0.9688
B(  4-C , 38-H ) :   0.9223 B(  4-C , 39-H ) :   0.9140 B(  5-C ,  6-C ) :   1.4312
B(  5-C , 14-C ) :   1.4299 B(  6-C ,  7-C ) :   1.4320 B(  6-C , 40-H ) :   0.9098
B(  7-C ,  8-C ) :   1.3669 B(  7-C , 41-H ) :   0.9166 B(  8-C ,  9-O ) :   0.9049
B(  8-C , 13-C ) :   1.4082 B(  9-O , 10-C ) :   0.9154 B( 10-C , 11-C ) :   0.9617
B( 10-C , 12-C ) :   0.9394 B( 10-C , 42-H ) :   0.9128 B( 11-C , 12-C ) :   0.9601
B( 11-C , 43-H ) :   0.9397 B( 11-C , 44-H ) :   0.9417 B( 12-C , 45-H ) :   0.9409
B( 12-C , 46-H ) :   0.9409 B( 13-C , 14-C ) :   1.4378 B( 13-C , 47-H ) :   0.9202
B( 14-C , 48-H ) :   0.9242 B( 15-S , 16-O ) :   1.6091 B( 15-S , 17-O ) :   1.6491
B( 15-S , 18-C ) :   0.8138 B( 18-C , 19-C ) :   1.3953 B( 18-C , 26-C ) :   1.3768
B( 19-C , 20-C ) :   1.4142 B( 19-C , 49-H ) :   0.9084 B( 20-C , 21-C ) :   1.3827
B( 20-C , 50-H ) :   0.9151 B( 21-C , 22-C ) :   1.0088 B( 21-C , 25-C ) :   1.4009
B( 22-C , 23-O ) :   1.8635 B( 22-C , 24-O ) :   1.0244 B( 24-O , 51-H ) :   0.7418
B( 25-C , 26-C ) :   1.4228 B( 25-C , 52-H ) :   0.9097 B( 26-C , 53-H ) :   0.9111
B( 27-N , 28-C ) :   1.5023 B( 28-C , 29-C ) :   1.2292 B( 28-C , 54-H ) :   0.9262
B( 29-C , 30-C ) :   1.2857 B( 29-C , 34-C ) :   1.2927 B( 30-C , 31-C ) :   1.5111
B( 30-C , 33-C ) :   0.1060 B( 30-C , 55-H ) :   0.9228 B( 31-C , 32-C ) :   1.3543
B( 31-C , 56-H ) :   0.9293 B( 32-C , 33-C ) :   1.5082 B( 32-C , 57-H ) :   0.9293
B( 33-C , 34-C ) :   1.2950 B( 33-C , 58-H ) :   0.9172

FINAL SINGLE POINT ENERGY     -1926.012892081632

DIPOLE MOMENT
-------------

Method             : SCF
Type of density    : Electron Density
Multiplicity       :   1
Irrep              :   0
Energy             : -1926.0128920816323443 Eh
Relativity type    :
Basis              : AO
                                X                 Y                 Z
Electronic contribution:    -22.376490111       7.501193734      -9.607038239
Nuclear contribution   :     21.358079276      -8.378657761      11.648733726
                        -----------------------------------------
Total Dipole Moment    :     -1.018410835      -0.877464027       2.041695487
                        -----------------------------------------
Magnitude (a.u.)       :      2.444508991
Magnitude (Debye)      :      6.213448065

Rotational constants in cm-1:             0.005094             0.001999             0.001578
Rotational constants in MHz :           152.720790            59.929661            47.314945

                             ****ORCA TERMINATED NORMALLY****
TOTAL RUN TIME: 0 days 0 hours 10 minutes 24 seconds 697 msec
