                         Program Version 6.0.0  -   RELEASE  -
|  1> ! B3LYP 6-31G* SP
|  2>
|  3> * xyz 0 1
|  4> N -2.9238 0.2682 0.9934
|  5> C -2.1357 1.3983 0.5088
|  6> C -1.5733 1.1112 -0.8862
|  7> C -0.6204 -0.0482 -0.8637
|  8> C -0.9202 -1.3743 -1.1611
|  9> N 0.1663 -2.1574 -0.9714
| 10> C 1.1448 -1.3391 -0.5465
| 11> C 2.4493 -1.6895 -0.2022
| 12> C 3.3104 -0.6679 0.2385
| 13> C 2.8527 0.6669 0.3277
| 14> Cl 3.9383 1.9270 0.8835
| 15> C 1.5287 0.9899 -0.0256
| 16> C 0.7013 -0.0443 -0.4632
| 17> H -3.7933 0.2038 0.4152
| 18> H -3.2306 0.4894 1.9682
| 19> H -1.2993 1.5977 1.2146
| 20> H -2.7731 2.3094 0.4658
| 21> H -2.4063 0.8996 -1.5912
| 22> H -1.0420 2.0133 -1.2581
| 23> H -1.8829 -1.7458 -1.4872
| 24> H 0.2249 -3.1902 -1.1140
| 25> H 2.7896 -2.7148 -0.2686
| 26> H 4.3290 -0.9106 0.5128
| 27> H 1.1655 2.0074 0.0415
| 28> *
| 29>
| 30>                          ****END OF INPUT****

CARTESIAN COORDINATES (ANGSTROEM)
---------------------------------
  N     -2.923800    0.268200    0.993400
  C     -2.135700    1.398300    0.508800
  C     -1.573300    1.111200   -0.886200
  C     -0.620400   -0.048200   -0.863700
  C     -0.920200   -1.374300   -1.161100
  N      0.166300   -2.157400   -0.971400
  C      1.144800   -1.339100   -0.546500
  C      2.449300   -1.689500   -0.202200
  C      3.310400   -0.667900    0.238500
  C      2.852700    0.666900    0.327700
  Cl     3.938300    1.927000    0.883500
  C      1.528700    0.989900   -0.025600
  C      0.701300   -0.044300   -0.463200
  H     -3.793300    0.203800    0.415200
  H     -3.230600    0.489400    1.968200
  H     -1.299300    1.597700    1.214600
  H     -2.773100    2.309400    0.465800
  H     -2.406300    0.899600   -1.591200
  H     -1.042000    2.013300   -1.258100
  H     -1.882900   -1.745800   -1.487200
  H      0.224900   -3.190200   -1.114000
  H      2.789600   -2.714800   -0.268600
  H      4.329000   -0.910600    0.512800
  H      1.165500    2.007400    0.041500

 Total Charge           Charge          ....    0
 Multiplicity           Mult            ....    1
 Number of Electrons    NEL             ....  102
 Basis Dimension        Dim             ....  208

ORBITAL ENERGIES
----------------

  NO   OCC          E(Eh)            E(eV)
   0   2.0000    -101.509754     -2762.2208
   1   2.0000     -14.373761      -391.1299
   2   2.0000     -14.303519      -389.2185
   3   2.0000     -10.225604      -278.2528
   4   2.0000     -10.200974      -277.5826
   5   2.0000     -10.200450      -277.5684
   6   2.0000     -10.196811      -277.4693
   7   2.0000     -10.180540      -277.0266
   8   2.0000     -10.178143      -276.9614
   9   2.0000     -10.177396      -276.9410
  10   2.0000     -10.177105      -276.9331
  11   2.0000     -10.162856      -276.5454
  12   2.0000     -10.158576      -276.4289
  13   2.0000      -9.441656      -256.9205
  14   2.0000      -7.204571      -196.0464
  15   2.0000      -7.195269      -195.7932
  16   2.0000      -7.195087      -195.7883
  17   2.0000      -0.991872       -26.9902
  18   2.0000      -0.872591       -23.7444
  19   2.0000      -0.865286       -23.5456
  20   2.0000      -0.816783       -22.2258
  21   2.0000      -0.791393       -21.5349
  22   2.0000      -0.731809       -19.9135
  23   2.0000      -0.715341       -19.4654
  24   2.0000      -0.700106       -19.0508
  25   2.0000      -0.620607       -16.8876
  26   2.0000      -0.605364       -16.4728
  27   2.0000      -0.586254       -15.9528
  28   2.0000      -0.551539       -15.0081
  29   2.0000      -0.535065       -14.5599
  30   2.0000      -0.482819       -13.1382
  31   2.0000      -0.478905       -13.0317
  32   2.0000      -0.462018       -12.5721
  33   2.0000      -0.450990       -12.2721
  34   2.0000      -0.438051       -11.9200
  35   2.0000      -0.432615       -11.7721
  36   2.0000      -0.426207       -11.5977
  37   2.0000      -0.413316       -11.2469
  38   2.0000      -0.386599       -10.5199
  39   2.0000      -0.375832       -10.2269
  40   2.0000      -0.368849       -10.0369
  41   2.0000      -0.360044        -9.7973
  42   2.0000      -0.354141        -9.6367
  43   2.0000      -0.346278        -9.4227
  44   2.0000      -0.330300        -8.9879
  45   2.0000      -0.297787        -8.1032
  46   2.0000      -0.293295        -7.9810
  47   2.0000      -0.268107        -7.2956
  48   2.0000      -0.227164        -6.1815
  49   2.0000      -0.210563        -5.7297
  50   2.0000      -0.188802        -5.1376
  51   0.0000      -0.007490        -0.2038
  52   0.0000       0.031919         0.8686
  53   0.0000       0.051406         1.3988
  54   0.0000       0.067263         1.8303
  55   0.0000       0.068324         1.8592

MULLIKEN ATOMIC CHARGES
-----------------------
   0 N :   -0.696948
   1 C :   -0.124437
   2 C :   -0.352098
   3 C :    0.087593
   4 C :   -0.002524
   5 N :   -0.633888
   6 C :    0.293168
   7 C :   -0.170401
   8 C :   -0.154101
   9 C :   -0.087694
  10 Cl:   -0.042921
  11 C :   -0.207272
  12 C :    0.125554
  13 H :    0.281116
  14 H :    0.292051
  15 H :    0.146373
  16 H :    0.108042
  17 H :    0.128643
  18 H :    0.139246
  19 H :    0.137422
  20 H :    0.334297
  21 H :    0.121962
  22 H :    0.138163
  23 H :    0.138653
Sum of atomic charges:    0.0000000

LOEWDIN ATOMIC CHARGES
----------------------
   0 N :   -0.474388
   1 C :   -0.170999
   2 C :   -0.225001
   3 C :   -0.066273
   4 C :   -0.099877
   5 N :   -0.111634
   6 C :    0.003697
   7 C :   -0.145539
   8 C :   -0.152230
   9 C :   -0.102534
  10 Cl:    0.017847
  11 C :   -0.143574
  12 C :   -0.039351
  13 H :    0.215989
  14 H :    0.222997
  15 H :    0.121993
  16 H :    0.091962
  17 H :    0.121427
  18 H :    0.126905
  19 H :    0.132293
  20 H :    0.267301
  21 H :    0.130540
  22 H :    0.139148
  23 H :    0.139302

  Mayer bond orders larger than 0.100000
B(  0-N ,  1-C ) :   0.9999 B(  0-N , 13-H ) :   0.8673 B(  0-N , 14-H ) :   0.8661
B(  1-C ,  2-C ) :   0.9872 B(  1-C , 15-H ) :   0.9365 B(  1-C , 16-H ) :   0.9355
B(  2-C ,  3-C ) :   1.0010 B(  2-C , 17-H ) :   0.9380 B(  2-C , 18-H ) :   0.9287
B(  3-C ,  4-C ) :   1.5361 B(  3-C , 12-C ) :   1.3255 B(  4-C ,  5-N ) :   1.0921
B(  4-C , 19-H ) :   0.9277 B(  5-N ,  6-C ) :   1.0183 B(  5-N , 20-H ) :   0.8369
B(  6-C ,  7-C ) :   1.3521 B(  6-C , 12-C ) :   1.3027 B(  7-C ,  8-C ) :   1.4731
B(  7-C , 21-H ) :   0.9232 B(  8-C ,  9-C ) :   1.3499 B(  8-C , 22-H ) :   0.9268
B(  9-C , 10-Cl) :   0.9900 B(  9-C , 11-C ) :   1.4326 B( 11-C , 12-C ) :   1.3212
B( 11-C , 23-H ) :   0.9185

FINAL SINGLE POINT ENERGY      -956.976264710665

DIPOLE MOMENT
-------------

Method             : SCF
Type of density    : Electron Density
Multiplicity       :   1
Irrep              :   0
Energy             :  -956.9762647106654185 Eh
Relativity type    :
Basis              : AO
                                X                 Y                 Z
Electronic contribution:     19.389354820       2.139414591       1.512996802
Nuclear contribution   :    -20.762081564      -3.121350149      -1.923371428
                        -----------------------------------------
Total Dipole Moment    :     -1.372726744      -0.981935557      -0.410374626
                        -----------------------------------------
Magnitude (a.u.)       :      1.736946598
Magnitude (Debye)      :      4.414967390

Rotational constants in cm-1:             0.037400             0.014935             0.011482
Rotational constants in MHz :          1121.235518           447.732273           344.212270

                             ****ORCA TERMINATED NORMALLY****
TOTAL RUN TIME: 0 days 0 hours 1 minutes 11 seconds 868 msec
