                         Program Version 6.0.0  -   RELEASE  -
|  1> ! B3LYP 6-31G* SP
|  2>
|  3> * xyz 0 1
|  4> C -2.8684 -3.4090 -1.8255
|  5> C -1.9256 -3.1389 -0.6759
|  6> C -1.6489 -1.8130 -0.2676
|  7> N -2.1865 -0.6876 -0.9727
|  8> C -1.5331 -0.2055 -2.1929
|  9> C -0.1362 0.2646 -1.8846
| 10> C 0.9350 -0.6359 -1.9277
| 11> C 2.2164 -0.2352 -1.5430
| 12> C 2.4597 1.0854 -1.0943
| 13> C 3.8457 1.5574 -0.6102
| 14> C 3.7566 1.9378 0.8829
| 15> C 4.9423 0.4742 -0.7587
| 16> C 4.2927 2.7888 -1.4294
| 17> C 1.3663 1.9820 -1.0611
| 18> C 0.0906 1.5779 -1.4573
| 19> S -3.4785 0.2218 -0.2532
| 20> O -4.1217 -0.5799 0.8448
| 21> O -4.5195 0.5102 -1.2988
| 22> C -2.8423 1.7195 0.4187
| 23> C -3.2009 2.9585 -0.1286
| 24> C -2.6441 4.1385 0.3764
| 25> C -1.7198 4.0954 1.4364
| 26> C -1.1203 5.3432 1.9601
| 27> O -0.2678 5.3007 2.8921
| 28> O -1.4901 6.5768 1.4266
| 29> C -1.3739 2.8483 1.9875
| 30> C -1.9322 1.6712 1.4825
| 31> N -0.8283 -1.5809 0.7916
| 32> C -0.2354 -2.5802 1.4861
| 33> C -0.4451 -3.9111 1.1153
| 34> C 0.1838 -4.9482 1.8218
| 35> C -0.0189 -6.2764 1.4476
| 36> C -0.8461 -6.5784 0.3651
| 37> C -1.4815 -5.5560 -0.3479
| 38> C -1.2965 -4.2043 0.0194
| 39> H -2.3027 -3.8521 -2.6718
| 40> H -3.3788 -2.4923 -2.1885
| 41> H -3.6677 -4.1090 -1.5011
| 42> H -1.5064 -1.0205 -2.9478
| 43> H -2.1170 0.6270 -2.6421
| 44> H 0.7728 -1.6604 -2.2403
| 45> H 2.9998 -0.9791 -1.5871
| 46> H 4.7515 2.2399 1.2674
| 47> H 3.3931 1.0746 1.4860
| 48> H 3.0618 2.7902 1.0463
| 49> H 5.9283 0.8664 -0.4246
| 50> H 4.7118 -0.4172 -0.1319
| 51> H 5.0477 0.1611 -1.8209
| 52> H 3.6203 3.6581 -1.2689
| 53> H 5.3170 3.1064 -1.1380
| 54> H 4.3015 2.5503 -2.5164
| 55> H 1.4903 2.9996 -0.7119
| 56> H -0.7229 2.2904 -1.4153
| 57> H -3.8997 3.0138 -0.9540
| 58> H -2.9321 5.0833 -0.0677
| 59> H -1.0891 7.4374 1.7820
| 60> H -0.6703 2.7804 2.8078
| 61> H -1.6498 0.7224 1.9188
| 62> H 0.4102 -2.3310 2.3204
| 63> H 0.8350 -4.7306 2.6602
| 64> H 0.4694 -7.0734 1.9943
| 65> H -0.9951 -7.6107 0.0765
| 66> H -2.1064 -5.8365 -1.1877
| 67> *
| 68>
| 69>                          ****END OF INPUT****

CARTESIAN COORDINATES (ANGSTROEM)
---------------------------------
  C     -2.868400   -3.409000   -1.825500
  C     -1.925600   -3.138900   -0.675900
  C     -1.648900   -1.813000   -0.267600
  N     -2.186500   -0.687600   -0.972700
  C     -1.533100   -0.205500   -2.192900
  C     -0.136200    0.264600   -1.884600
  C      0.935000   -0.635900   -1.927700
  C      2.216400   -0.235200   -1.543000
  C      2.459700    1.085400   -1.094300
  C      3.845700    1.557400   -0.610200
  C      3.756600    1.937800    0.882900
  C      4.942300    0.474200   -0.758700
  C      4.292700    2.788800   -1.429400
  C      1.366300    1.982000   -1.061100
  C      0.090600    1.577900   -1.457300
  S     -3.478500    0.221800   -0.253200
  O     -4.121700   -0.579900    0.844800
  O     -4.519500    0.510200   -1.298800
  C     -2.842300    1.719500    0.418700
  C     -3.200900    2.958500   -0.128600
  C     -2.644100    4.138500    0.376400
  C     -1.719800    4.095400    1.436400
  C     -1.120300    5.343200    1.960100
  O     -0.267800    5.300700    2.892100
  O     -1.490100    6.576800    1.426600
  C     -1.373900    2.848300    1.987500
  C     -1.932200    1.671200    1.482500
  N     -0.828300   -1.580900    0.791600
  C     -0.235400   -2.580200    1.486100
  C     -0.445100   -3.911100    1.115300
  C      0.183800   -4.948200    1.821800
  C     -0.018900   -6.276400    1.447600
  C     -0.846100   -6.578400    0.365100
  C     -1.481500   -5.556000   -0.347900
  C     -1.296500   -4.204300    0.019400
  H     -2.302700   -3.852100   -2.671800
  H     -3.378800   -2.492300   -2.188500
  H     -3.667700   -4.109000   -1.501100
  H     -1.506400   -1.020500   -2.947800
  H     -2.117000    0.627000   -2.642100
  H      0.772800   -1.660400   -2.240300
  H      2.999800   -0.979100   -1.587100
  H      4.751500    2.239900    1.267400
  H      3.393100    1.074600    1.486000
  H      3.061800    2.790200    1.046300
  H      5.928300    0.866400   -0.424600
  H      4.711800   -0.417200   -0.131900
  H      5.047700    0.161100   -1.820900
  H      3.620300    3.658100   -1.268900
  H      5.317000    3.106400   -1.138000
  H      4.301500    2.550300   -2.516400
  H      1.490300    2.999600   -0.711900
  H     -0.722900    2.290400   -1.415300
  H     -3.899700    3.013800   -0.954000
  H     -2.932100    5.083300   -0.067700
  H     -1.089100    7.437400    1.782000
  H     -0.670300    2.780400    2.807800
  H     -1.649800    0.722400    1.918800
  H      0.410200   -2.331000    2.320400
  H      0.835000   -4.730600    2.660200
  H      0.469400   -7.073400    1.994300
  H     -0.995100   -7.610700    0.076500
  H     -2.106400   -5.836500   -1.187700

 Total Charge           Charge          ....    0
 Multiplicity           Mult            ....    1
 Number of Electrons    NEL             ....  258
 Basis Dimension        Dim             ....  550

ORBITAL ENERGIES
----------------

  NO   OCC          E(Eh)            E(eV)
   0   2.0000     -89.091834     -2424.3120
   1   2.0000     -19.193649      -522.2857
   2   2.0000     -19.134697      -520.6816
   3   2.0000     -19.121640      -520.3263
   4   2.0000     -19.119481      -520.2675
   5   2.0000     -14.366500      -390.9323
   6   2.0000     -14.330919      -389.9641
   7   2.0000     -10.332139      -281.1518
   8   2.0000     -10.257706      -279.1264
   9   2.0000     -10.234665      -278.4994
  10   2.0000     -10.228708      -278.3373
  11   2.0000     -10.226401      -278.2745
  12   2.0000     -10.224345      -278.2186
  13   2.0000     -10.213732      -277.9298
  14   2.0000     -10.212048      -277.8840
  15   2.0000     -10.210046      -277.8295
  16   2.0000     -10.209530      -277.8154
  17   2.0000     -10.209247      -277.8077
  18   2.0000     -10.206561      -277.7346
  19   2.0000     -10.200349      -277.5656
  20   2.0000     -10.198328      -277.5106
  21   2.0000     -10.197944      -277.5002
  22   2.0000     -10.196621      -277.4642
  23   2.0000     -10.196099      -277.4500
  24   2.0000     -10.195987      -277.4469
  25   2.0000     -10.187693      -277.2212
  26   2.0000     -10.184002      -277.1208
  27   2.0000     -10.181547      -277.0540
  28   2.0000     -10.178283      -276.9652
  29   2.0000     -10.177921      -276.9553
  30   2.0000     -10.177051      -276.9316
  31   2.0000     -10.177048      -276.9315
  32   2.0000     -10.169073      -276.7145
  33   2.0000     -10.167279      -276.6657
  34   2.0000     -10.166019      -276.6314
  35   2.0000      -8.127503      -221.1606
  36   2.0000      -6.092532      -165.7862
  37   2.0000      -6.090530      -165.7317
  38   2.0000      -6.090174      -165.7221
  39   2.0000      -1.077816       -29.3289
  40   2.0000      -1.076846       -29.3025
  41   2.0000      -0.990916       -26.9642
  42   2.0000      -0.960785       -26.1443
  43   2.0000      -0.955892       -26.0111
  44   2.0000      -0.911846       -24.8126
  45   2.0000      -0.883244       -24.0343
  46   2.0000      -0.864242       -23.5172
  47   2.0000      -0.852008       -23.1843
  48   2.0000      -0.812141       -22.0995
  49   2.0000      -0.807235       -21.9660
  50   2.0000      -0.799198       -21.7473
  51   2.0000      -0.775992       -21.1158
  52   2.0000      -0.769089       -20.9280
  53   2.0000      -0.754045       -20.5186
  54   2.0000      -0.741240       -20.1702
  55   2.0000      -0.739630       -20.1264
  56   2.0000      -0.708865       -19.2892
  57   2.0000      -0.699833       -19.0434
  58   2.0000      -0.677105       -18.4250
  59   2.0000      -0.675627       -18.3847
  60   2.0000      -0.674490       -18.3538
  61   2.0000      -0.650012       -17.6877
  62   2.0000      -0.644350       -17.5336
  63   2.0000      -0.632534       -17.2121
  64   2.0000      -0.615695       -16.7539
  65   2.0000      -0.599804       -16.3215
  66   2.0000      -0.596995       -16.2451
  67   2.0000      -0.594465       -16.1762
  68   2.0000      -0.585443       -15.9307
  69   2.0000      -0.555357       -15.1120
  70   2.0000      -0.542183       -14.7536
  71   2.0000      -0.536686       -14.6040
  72   2.0000      -0.532483       -14.4896
  73   2.0000      -0.515030       -14.0147
  74   2.0000      -0.503083       -13.6896
  75   2.0000      -0.489002       -13.3064
  76   2.0000      -0.483909       -13.1678
  77   2.0000      -0.480595       -13.0777
  78   2.0000      -0.473214       -12.8768
  79   2.0000      -0.464607       -12.6426
  80   2.0000      -0.459646       -12.5076
  81   2.0000      -0.456177       -12.4132
  82   2.0000      -0.453368       -12.3368
  83   2.0000      -0.449112       -12.2210
  84   2.0000      -0.443900       -12.0791
  85   2.0000      -0.440706       -11.9922
  86   2.0000      -0.439353       -11.9554
  87   2.0000      -0.436070       -11.8661
  88   2.0000      -0.432203       -11.7608
  89   2.0000      -0.431836       -11.7509
  90   2.0000      -0.430119       -11.7041
  91   2.0000      -0.422139       -11.4870
  92   2.0000      -0.417174       -11.3519
  93   2.0000      -0.416139       -11.3237
  94   2.0000      -0.409939       -11.1550
  95   2.0000      -0.404639       -11.0108
  96   2.0000      -0.396893       -10.8000
  97   2.0000      -0.394850       -10.7444
  98   2.0000      -0.388377       -10.5683
  99   2.0000      -0.385278       -10.4840
 100   2.0000      -0.380504       -10.3540
 101   2.0000      -0.379987       -10.3400
 102   2.0000      -0.374261       -10.1842
 103   2.0000      -0.368799       -10.0355
 104   2.0000      -0.366922        -9.9844
 105   2.0000      -0.362140        -9.8543
 106   2.0000      -0.358862        -9.7651
 107   2.0000      -0.353786        -9.6270
 108   2.0000      -0.351448        -9.5634
 109   2.0000      -0.346925        -9.4403
 110   2.0000      -0.344449        -9.3729
 111   2.0000      -0.325038        -8.8447
 112   2.0000      -0.320769        -8.7286
 113   2.0000      -0.317998        -8.6532
 114   2.0000      -0.317028        -8.6268
 115   2.0000      -0.310418        -8.4469
 116   2.0000      -0.301757        -8.2112
 117   2.0000      -0.293575        -7.9886
 118   2.0000      -0.290393        -7.9020
 119   2.0000      -0.277768        -7.5584
 120   2.0000      -0.273250        -7.4355
 121   2.0000      -0.271438        -7.3862
 122   2.0000      -0.268895        -7.3170
 123   2.0000      -0.267041        -7.2666
 124   2.0000      -0.253351        -6.8940
 125   2.0000      -0.250121        -6.8061
 126   2.0000      -0.242955        -6.6111
 127   2.0000      -0.231083        -6.2881
 128   2.0000      -0.220783        -6.0078
 129   0.0000      -0.077852        -2.1185
 130   0.0000      -0.060953        -1.6586
 131   0.0000      -0.031655        -0.8614
 132   0.0000      -0.023768        -0.6468
 133   0.0000      -0.002619        -0.0713

MULLIKEN ATOMIC CHARGES
-----------------------
   0 C :   -0.547529
   1 C :    0.101864
   2 C :    0.332430
   3 N :   -0.604653
   4 C :   -0.261093
   5 C :    0.185037
   6 C :   -0.164645
   7 C :   -0.188453
   8 C :    0.162639
   9 C :    0.037539
  10 C :   -0.433660
  11 C :   -0.451330
  12 C :   -0.436586
  13 C :   -0.183231
  14 C :   -0.174641
  15 S :    1.203578
  16 O :   -0.537200
  17 O :   -0.549605
  18 C :   -0.130358
  19 C :   -0.157066
  20 C :   -0.149576
  21 C :    0.081521
  22 C :    0.526394
  23 O :   -0.447932
  24 O :   -0.623944
  25 C :   -0.143437
  26 C :   -0.122698
  27 N :   -0.387887
  28 C :   -0.047050
  29 C :    0.134607
  30 C :   -0.202926
  31 C :   -0.125928
  32 C :   -0.121396
  33 C :   -0.197876
  34 C :    0.122695
  35 H :    0.155351
  36 H :    0.197145
  37 H :    0.171872
  38 H :    0.162839
  39 H :    0.184156
  40 H :    0.121413
  41 H :    0.125628
  42 H :    0.136330
  43 H :    0.142284
  44 H :    0.143741
  45 H :    0.139171
  46 H :    0.139470
  47 H :    0.140931
  48 H :    0.138823
  49 H :    0.136145
  50 H :    0.143238
  51 H :    0.126696
  52 H :    0.126699
  53 H :    0.185245
  54 H :    0.170359
  55 H :    0.432807
  56 H :    0.178527
  57 H :    0.198080
  58 H :    0.151098
  59 H :    0.138884
  60 H :    0.136456
  61 H :    0.138096
  62 H :    0.140914
Sum of atomic charges:    0.0000000

LOEWDIN ATOMIC CHARGES
----------------------
   0 C :   -0.361366
   1 C :   -0.006873
   2 C :    0.035157
   3 N :   -0.279153
   4 C :   -0.146597
   5 C :   -0.038188
   6 C :   -0.129314
   7 C :   -0.138337
   8 C :    0.000309
   9 C :   -0.035650
  10 C :   -0.341834
  11 C :   -0.347520
  12 C :   -0.342987
  13 C :   -0.128753
  14 C :   -0.129435
  15 S :    1.264435
  16 O :   -0.566667
  17 O :   -0.576918
  18 C :   -0.175279
  19 C :   -0.112126
  20 C :   -0.104461
  21 C :   -0.042774
  22 C :    0.181076
  23 O :   -0.264868
  24 O :   -0.335928
  25 C :   -0.086111
  26 C :   -0.092273
  27 N :   -0.126992
  28 C :   -0.059154
  29 C :   -0.027920
  30 C :   -0.111613
  31 C :   -0.126357
  32 C :   -0.116883
  33 C :   -0.122560
  34 C :   -0.006138
  35 H :    0.133879
  36 H :    0.151495
  37 H :    0.142899
  38 H :    0.131060
  39 H :    0.147070
  40 H :    0.128235
  41 H :    0.132845
  42 H :    0.120362
  43 H :    0.123979
  44 H :    0.122822
  45 H :    0.123409
  46 H :    0.120824
  47 H :    0.121880
  48 H :    0.120113
  49 H :    0.120220
  50 H :    0.124217
  51 H :    0.129985
  52 H :    0.131413
  53 H :    0.160133
  54 H :    0.153404
  55 H :    0.348896
  56 H :    0.159501
  57 H :    0.165915
  58 H :    0.136459
  59 H :    0.136994
  60 H :    0.135659
  61 H :    0.136718
  62 H :    0.139671

  Mayer bond orders larger than 0.100000
B(  0-C ,  1-C ) :   1.0021 B(  0-C , 35-H ) :   0.9273 B(  0-C , 36-H ) :   0.9249
B(  0-C , 37-H ) :   0.9269 B(  1-C ,  2-C ) :   1.4468 B(  1-C , 28-C ) :   0.1004
B(  1-C , 34-C ) :   1.2606 B(  2-C ,  3-N ) :   0.8850 B(  2-C , 27-N ) :   1.2638
B(  3-N ,  4-C ) :   0.9179 B(  3-N , 15-S ) :   0.8078 B(  4-C ,  5-C ) :   0.9433
B(  4-C , 38-H ) :   0.9224 B(  4-C , 39-H ) :   0.9185 B(  5-C ,  6-C ) :   1.4368
B(  5-C , 14-C ) :   1.4234 B(  6-C ,  7-C ) :   1.4158 B(  6-C , 40-H ) :   0.9231
B(  7-C ,  8-C ) :   1.4346 B(  7-C , 41-H ) :   0.9179 B(  8-C ,  9-C ) :   0.9733
B(  8-C , 13-C ) :   1.3944 B(  9-C , 10-C ) :   0.9908 B(  9-C , 11-C ) :   0.9985
B(  9-C , 12-C ) :   0.9891 B( 10-C , 42-H ) :   0.9428 B( 10-C , 43-H ) :   0.9469
B( 10-C , 44-H ) :   0.9419 B( 11-C , 45-H ) :   0.9430 B( 11-C , 46-H ) :   0.9409
B( 11-C , 47-H ) :   0.9414 B( 12-C , 48-H ) :   0.9421 B( 12-C , 49-H ) :   0.9432
B( 12-C , 50-H ) :   0.9473 B( 13-C , 14-C ) :   1.4425 B( 13-C , 51-H ) :   0.9212
B( 14-C , 52-H ) :   0.9158 B( 15-S , 16-O ) :   1.6573 B( 15-S , 17-O ) :   1.6235
B( 15-S , 18-C ) :   0.8127 B( 18-C , 19-C ) :   1.3973 B( 18-C , 26-C ) :   1.3795
B( 19-C , 20-C ) :   1.4045 B( 19-C , 53-H ) :   0.9089 B( 20-C , 21-C ) :   1.3846
B( 20-C , 54-H ) :   0.9158 B( 21-C , 22-C ) :   1.0093 B( 21-C , 25-C ) :   1.3938
B( 22-C , 23-O ) :   1.8588 B( 22-C , 24-O ) :   1.0231 B( 24-O , 55-H ) :   0.7427
B( 25-C , 26-C ) :   1.4283 B( 25-C , 56-H ) :   0.9108 B( 26-C , 57-H ) :   0.8911
B( 27-N , 28-C ) :   1.4924 B( 28-C , 29-C ) :   1.2375 B( 28-C , 58-H ) :   0.9260
B( 29-C , 30-C ) :   1.2847 B( 29-C , 34-C ) :   1.2904 B( 30-C , 31-C ) :   1.5127
B( 30-C , 33-C ) :   0.1061 B( 30-C , 59-H ) :   0.9233 B( 31-C , 32-C ) :   1.3533
B( 31-C , 60-H ) :   0.9292 B( 32-C , 33-C ) :   1.5071 B( 32-C , 61-H ) :   0.9290
B( 33-C , 34-C ) :   1.2952 B( 33-C , 62-H ) :   0.9161

FINAL SINGLE POINT ENERGY     -1891.366499873427

DIPOLE MOMENT
-------------

Method             : SCF
Type of density    : Electron Density
Multiplicity       :   1
Irrep              :   0
Energy             : -1891.3664998734270739 Eh
Relativity type    :
Basis              : AO
                                X                 Y                 Z
Electronic contribution:    -35.168514028       3.025692355       9.481369480
Nuclear contribution   :     36.967119974      -3.464783909     -10.025618896
                        -----------------------------------------
Total Dipole Moment    :      1.798605946      -0.439091554      -0.544249416
                        -----------------------------------------
Magnitude (a.u.)       :      1.929764796
Magnitude (Debye)      :      4.905072299

Rotational constants in cm-1:             0.004569             0.002727             0.002059
Rotational constants in MHz :           136.984092            81.740232            61.724403

                             ****ORCA TERMINATED NORMALLY****
TOTAL RUN TIME: 0 days 0 hours 8 minutes 23 seconds 980 msec
