                         Program Version 6.0.0  -   RELEASE  -
|  1> ! B3LYP 6-31G* SP
|  2>
|  3> * xyz 0 1
|  4> C -4.7995 -1.0377 -0.2961
|  5> C -3.3044 -0.9686 -0.4269
|  6> C -2.4477 -1.4362 0.5094
|  7> C -2.9878 -2.1062 1.7562
|  8> C -0.9241 -1.3228 0.3238
|  9> C -0.3807 -1.8622 -0.9986
| 10> C -1.1989 -2.6857 -1.9680
| 11> C 0.9404 -1.7578 -1.2167
| 12> C 1.8232 -1.0537 -0.2138
| 13> C 3.2382 -0.8945 -0.8006
| 14> C 4.1443 -0.0991 0.1462
| 15> C 5.5568 0.0235 -0.4368
| 16> C 3.5389 1.2891 0.3895
| 17> C 2.1356 1.1844 1.0176
| 18> C 1.6165 2.5844 1.2319
| 19> O 1.3156 3.3134 0.2491
| 20> O 1.5409 3.1035 2.5209
| 21> C 1.1680 0.3068 0.1448
| 22> C -0.3155 0.0980 0.7317
| 23> C -0.2802 0.0988 2.2928
| 24> C -1.2293 1.2546 0.2560
| 25> O -1.9564 1.8156 1.0663
| 26> C -1.2576 1.7313 -1.1911
| 27> C -2.4628 2.6185 -1.5320
| 28> O -3.6622 1.9247 -1.3351
| 29> H -5.1323 -0.4569 0.5894
| 30> H -5.1293 -2.0933 -0.2016
| 31> H -5.2729 -0.6020 -1.2007
| 32> H -2.9156 -0.5476 -1.3437
| 33> H -2.1764 -2.4412 2.4346
| 34> H -3.6278 -1.3964 2.3211
| 35> H -3.5841 -3.0002 1.4777
| 36> H -0.4919 -2.0584 1.0392
| 37> H -2.1227 -3.0838 -1.5047
| 38> H -0.6188 -3.5689 -2.3121
| 39> H -1.4622 -2.0660 -2.8504
| 40> H 1.3737 -2.1679 -2.1267
| 41> H 1.8942 -1.6782 0.7047
| 42> H 3.6769 -1.9039 -0.9649
| 43> H 3.1833 -0.3793 -1.7868
| 44> H 4.2208 -0.6393 1.1168
| 45> H 5.9955 -0.9854 -0.5912
| 46> H 6.2129 0.5813 0.2650
| 47> H 5.5363 0.5586 -1.4107
| 48> H 3.4840 1.8466 -0.5733
| 49> H 4.2033 1.8597 1.0767
| 50> H 2.2701 0.7031 2.0102
| 51> H 1.2155 4.0492 2.6818
| 52> H 1.1059 0.8259 -0.8318
| 53> H -0.0147 1.0889 2.7079
| 54> H -1.2760 -0.1449 2.7164
| 55> H 0.4438 -0.6526 2.6750
| 56> H -0.3579 2.3448 -1.3924
| 57> H -1.2245 0.8634 -1.8813
| 58> H -2.3862 2.9304 -2.5975
| 59> H -2.4448 3.5340 -0.8986
| 60> H -4.3892 2.5583 -1.5687
| 61> *
| 62>
| 63>                          ****END OF INPUT****

CARTESIAN COORDINATES (ANGSTROEM)
---------------------------------
  C     -4.799500   -1.037700   -0.296100
  C     -3.304400   -0.968600   -0.426900
  C     -2.447700   -1.436200    0.509400
  C     -2.987800   -2.106200    1.756200
  C     -0.924100   -1.322800    0.323800
  C     -0.380700   -1.862200   -0.998600
  C     -1.198900   -2.685700   -1.968000
  C      0.940400   -1.757800   -1.216700
  C      1.823200   -1.053700   -0.213800
  C      3.238200   -0.894500   -0.800600
  C      4.144300   -0.099100    0.146200
  C      5.556800    0.023500   -0.436800
  C      3.538900    1.289100    0.389500
  C      2.135600    1.184400    1.017600
  C      1.616500    2.584400    1.231900
  O      1.315600    3.313400    0.249100
  O      1.540900    3.103500    2.520900
  C      1.168000    0.306800    0.144800
  C     -0.315500    0.098000    0.731700
  C     -0.280200    0.098800    2.292800
  C     -1.229300    1.254600    0.256000
  O     -1.956400    1.815600    1.066300
  C     -1.257600    1.731300   -1.191100
  C     -2.462800    2.618500   -1.532000
  O     -3.662200    1.924700   -1.335100
  H     -5.132300   -0.456900    0.589400
  H     -5.129300   -2.093300   -0.201600
  H     -5.272900   -0.602000   -1.200700
  H     -2.915600   -0.547600   -1.343700
  H     -2.176400   -2.441200    2.434600
  H     -3.627800   -1.396400    2.321100
  H     -3.584100   -3.000200    1.477700
  H     -0.491900   -2.058400    1.039200
  H     -2.122700   -3.083800   -1.504700
  H     -0.618800   -3.568900   -2.312100
  H     -1.462200   -2.066000   -2.850400
  H      1.373700   -2.167900   -2.126700
  H      1.894200   -1.678200    0.704700
  H      3.676900   -1.903900   -0.964900
  H      3.183300   -0.379300   -1.786800
  H      4.220800   -0.639300    1.116800
  H      5.995500   -0.985400   -0.591200
  H      6.212900    0.581300    0.265000
  H      5.536300    0.558600   -1.410700
  H      3.484000    1.846600   -0.573300
  H      4.203300    1.859700    1.076700
  H      2.270100    0.703100    2.010200
  H      1.215500    4.049200    2.681800
  H      1.105900    0.825900   -0.831800
  H     -0.014700    1.088900    2.707900
  H     -1.276000   -0.144900    2.716400
  H      0.443800   -0.652600    2.675000
  H     -0.357900    2.344800   -1.392400
  H     -1.224500    0.863400   -1.881300
  H     -2.386200    2.930400   -2.597500
  H     -2.444800    3.534000   -0.898600
  H     -4.389200    2.558300   -1.568700

 Total Charge           Charge          ....    0
 Multiplicity           Mult            ....    1
 Number of Electrons    NEL             ....  190
 Basis Dimension        Dim             ....  414

ORBITAL ENERGIES
----------------

  NO   OCC          E(Eh)            E(eV)
   0   2.0000     -19.184676      -522.0416
   1   2.0000     -19.125759      -520.4384
   2   2.0000     -19.125339      -520.4269
   3   2.0000     -19.113498      -520.1047
   4   2.0000     -10.319350      -280.8038
   5   2.0000     -10.251692      -278.9627
   6   2.0000     -10.214740      -277.9572
   7   2.0000     -10.202899      -277.6350
   8   2.0000     -10.200103      -277.5589
   9   2.0000     -10.192586      -277.3544
  10   2.0000     -10.189691      -277.2756
  11   2.0000     -10.182737      -277.0864
  12   2.0000     -10.182465      -277.0790
  13   2.0000     -10.182031      -277.0672
  14   2.0000     -10.175079      -276.8780
  15   2.0000     -10.173332      -276.8304
  16   2.0000     -10.171354      -276.7766
  17   2.0000     -10.169080      -276.7147
  18   2.0000     -10.167537      -276.6727
  19   2.0000     -10.164363      -276.5864
  20   2.0000     -10.163820      -276.5716
  21   2.0000     -10.158598      -276.4295
  22   2.0000     -10.158540      -276.4279
  23   2.0000     -10.157227      -276.3922
  24   2.0000     -10.155438      -276.3435
  25   2.0000      -1.068502       -29.0754
  26   2.0000      -1.016794       -27.6684
  27   2.0000      -1.003949       -27.3188
  28   2.0000      -0.983599       -26.7651
  29   2.0000      -0.855681       -23.2843
  30   2.0000      -0.822989       -22.3947
  31   2.0000      -0.785604       -21.3774
  32   2.0000      -0.783128       -21.3100
  33   2.0000      -0.755529       -20.5590
  34   2.0000      -0.747646       -20.3445
  35   2.0000      -0.744751       -20.2657
  36   2.0000      -0.704507       -19.1706
  37   2.0000      -0.675370       -18.3778
  38   2.0000      -0.670233       -18.2380
  39   2.0000      -0.662410       -18.0251
  40   2.0000      -0.656931       -17.8760
  41   2.0000      -0.636107       -17.3093
  42   2.0000      -0.619886       -16.8679
  43   2.0000      -0.589972       -16.0540
  44   2.0000      -0.585910       -15.9434
  45   2.0000      -0.573915       -15.6170
  46   2.0000      -0.548883       -14.9359
  47   2.0000      -0.516662       -14.0591
  48   2.0000      -0.506062       -13.7707
  49   2.0000      -0.501146       -13.6369
  50   2.0000      -0.492422       -13.3995
  51   2.0000      -0.478771       -13.0280
  52   2.0000      -0.477805       -13.0017
  53   2.0000      -0.465559       -12.6685
  54   2.0000      -0.459145       -12.4940
  55   2.0000      -0.453491       -12.3401
  56   2.0000      -0.446875       -12.1601
  57   2.0000      -0.435367       -11.8469
  58   2.0000      -0.428911       -11.6713
  59   2.0000      -0.422753       -11.5037
  60   2.0000      -0.419655       -11.4194
  61   2.0000      -0.419010       -11.4019
  62   2.0000      -0.411851       -11.2070
  63   2.0000      -0.406300       -11.0560
  64   2.0000      -0.398618       -10.8470
  65   2.0000      -0.393610       -10.7107
  66   2.0000      -0.391042       -10.6408
  67   2.0000      -0.387166       -10.5353
  68   2.0000      -0.384990       -10.4761
  69   2.0000      -0.381623       -10.3845
  70   2.0000      -0.378553       -10.3009
  71   2.0000      -0.374028       -10.1778
  72   2.0000      -0.369639       -10.0584
  73   2.0000      -0.367136        -9.9903
  74   2.0000      -0.362654        -9.8683
  75   2.0000      -0.358854        -9.7649
  76   2.0000      -0.352806        -9.6004
  77   2.0000      -0.348633        -9.4868
  78   2.0000      -0.344737        -9.3808
  79   2.0000      -0.338166        -9.2020
  80   2.0000      -0.333171        -9.0660
  81   2.0000      -0.329973        -8.9790
  82   2.0000      -0.327981        -8.9248
  83   2.0000      -0.319337        -8.6896
  84   2.0000      -0.315928        -8.5968
  85   2.0000      -0.310750        -8.4559
  86   2.0000      -0.308798        -8.4028
  87   2.0000      -0.299757        -8.1568
  88   2.0000      -0.291099        -7.9212
  89   2.0000      -0.284430        -7.7397
  90   2.0000      -0.259679        -7.0662
  91   2.0000      -0.251620        -6.8469
  92   2.0000      -0.224558        -6.1105
  93   2.0000      -0.220677        -6.0049
  94   2.0000      -0.209935        -5.7126
  95   0.0000      -0.007931        -0.2158
  96   0.0000       0.002275         0.0619
  97   0.0000       0.024779         0.6743
  98   0.0000       0.034402         0.9361
  99   0.0000       0.054633         1.4866

MULLIKEN ATOMIC CHARGES
-----------------------
   0 C :   -0.478639
   1 C :   -0.117738
   2 C :    0.141660
   3 C :   -0.517992
   4 C :   -0.243426
   5 C :    0.163344
   6 C :   -0.515069
   7 C :   -0.184381
   8 C :   -0.113659
   9 C :   -0.268146
  10 C :   -0.074475
  11 C :   -0.437447
  12 C :   -0.270649
  13 C :   -0.153174
  14 C :    0.586704
  15 O :   -0.469766
  16 O :   -0.610965
  17 C :   -0.130643
  18 C :    0.021320
  19 C :   -0.479858
  20 C :    0.455486
  21 O :   -0.422200
  22 C :   -0.400478
  23 C :    0.001721
  24 O :   -0.612426
  25 H :    0.163164
  26 H :    0.142171
  27 H :    0.146156
  28 H :    0.134673
  29 H :    0.141918
  30 H :    0.164661
  31 H :    0.150243
  32 H :    0.146970
  33 H :    0.157914
  34 H :    0.147727
  35 H :    0.153169
  36 H :    0.113175
  37 H :    0.125231
  38 H :    0.129752
  39 H :    0.128031
  40 H :    0.117477
  41 H :    0.138955
  42 H :    0.137507
  43 H :    0.139541
  44 H :    0.151248
  45 H :    0.139074
  46 H :    0.147090
  47 H :    0.426806
  48 H :    0.148481
  49 H :    0.166036
  50 H :    0.165355
  51 H :    0.126195
  52 H :    0.195216
  53 H :    0.154597
  54 H :    0.106518
  55 H :    0.131729
  56 H :    0.394115
Sum of atomic charges:   -0.0000000

LOEWDIN ATOMIC CHARGES
----------------------
   0 C :   -0.357290
   1 C :   -0.132564
   2 C :   -0.047890
   3 C :   -0.358691
   4 C :   -0.098868
   5 C :   -0.031612
   6 C :   -0.358888
   7 C :   -0.163062
   8 C :   -0.121248
   9 C :   -0.216651
  10 C :   -0.127786
  11 C :   -0.350941
  12 C :   -0.209442
  13 C :   -0.138279
  14 C :    0.187270
  15 O :   -0.279225
  16 O :   -0.329030
  17 C :   -0.096610
  18 C :   -0.037562
  19 C :   -0.355845
  20 C :    0.144629
  21 O :   -0.201490
  22 C :   -0.277426
  23 C :   -0.101288
  24 O :   -0.401298
  25 H :    0.136873
  26 H :    0.125319
  27 H :    0.129403
  28 H :    0.128299
  29 H :    0.122767
  30 H :    0.136407
  31 H :    0.129590
  32 H :    0.137215
  33 H :    0.134325
  34 H :    0.127979
  35 H :    0.132068
  36 H :    0.123248
  37 H :    0.117510
  38 H :    0.120313
  39 H :    0.117627
  40 H :    0.113994
  41 H :    0.122496
  42 H :    0.121207
  43 H :    0.122036
  44 H :    0.128690
  45 H :    0.124594
  46 H :    0.135242
  47 H :    0.343613
  48 H :    0.132540
  49 H :    0.133473
  50 H :    0.136679
  51 H :    0.113547
  52 H :    0.160737
  53 H :    0.133785
  54 H :    0.096848
  55 H :    0.109398
  56 H :    0.313263

  Mayer bond orders larger than 0.100000
B(  0-C ,  1-C ) :   1.0231 B(  0-C , 25-H ) :   0.9363 B(  0-C , 26-H ) :   0.9361
B(  0-C , 27-H ) :   0.9515 B(  1-C ,  2-C ) :   1.8732 B(  1-C , 28-H ) :   0.9210
B(  2-C ,  3-C ) :   1.0026 B(  2-C ,  4-C ) :   0.9858 B(  3-C , 29-H ) :   0.9436
B(  3-C , 30-H ) :   0.9334 B(  3-C , 31-H ) :   0.9348 B(  4-C ,  5-C ) :   0.9963
B(  4-C , 18-C ) :   0.9281 B(  4-C , 32-H ) :   0.9012 B(  5-C ,  6-C ) :   0.9955
B(  5-C ,  7-C ) :   1.8526 B(  6-C , 33-H ) :   0.9317 B(  6-C , 34-H ) :   0.9457
B(  6-C , 35-H ) :   0.9367 B(  7-C ,  8-C ) :   0.9925 B(  7-C , 36-H ) :   0.9265
B(  8-C ,  9-C ) :   0.9890 B(  8-C , 17-C ) :   0.9773 B(  8-C , 37-H ) :   0.9097
B(  9-C , 10-C ) :   0.9996 B(  9-C , 38-H ) :   0.9337 B(  9-C , 39-H ) :   0.9306
B( 10-C , 11-C ) :   1.0028 B( 10-C , 12-C ) :   0.9960 B( 10-C , 40-H ) :   0.9273
B( 11-C , 41-H ) :   0.9482 B( 11-C , 42-H ) :   0.9485 B( 11-C , 43-H ) :   0.9469
B( 12-C , 13-C ) :   0.9765 B( 12-C , 44-H ) :   0.9227 B( 12-C , 45-H ) :   0.9329
B( 13-C , 14-C ) :   0.9450 B( 13-C , 17-C ) :   0.9669 B( 13-C , 46-H ) :   0.9036
B( 14-C , 15-O ) :   1.8313 B( 14-C , 16-O ) :   1.0176 B( 16-O , 47-H ) :   0.7446
B( 17-C , 18-C ) :   0.9425 B( 17-C , 48-H ) :   0.9013 B( 18-C , 19-C ) :   0.9771
B( 18-C , 20-C ) :   0.9231 B( 19-C , 49-H ) :   0.9223 B( 19-C , 50-H ) :   0.9316
B( 19-C , 51-H ) :   0.9366 B( 20-C , 21-O ) :   1.9078 B( 20-C , 22-C ) :   0.9583
B( 22-C , 23-C ) :   1.0046 B( 22-C , 52-H ) :   0.8932 B( 22-C , 53-H ) :   0.9115
B( 23-C , 24-O ) :   0.9601 B( 23-C , 54-H ) :   0.9290 B( 23-C , 55-H ) :   0.9220
B( 24-O , 56-H ) :   0.7922

FINAL SINGLE POINT ENERGY     -1119.616057308264

DIPOLE MOMENT
-------------

Method             : SCF
Type of density    : Electron Density
Multiplicity       :   1
Irrep              :   0
Energy             : -1119.6160573082638621 Eh
Relativity type    :
Basis              : AO
                                X                 Y                 Z
Electronic contribution:     -0.801764490      14.732729311       4.797672149
Nuclear contribution   :      1.266405294     -14.904428020      -5.016297843
                        -----------------------------------------
Total Dipole Moment    :      0.464640804      -0.171698709      -0.218625694
                        -----------------------------------------
Magnitude (a.u.)       :      0.541450568
Magnitude (Debye)      :      1.376257971

Rotational constants in cm-1:             0.010709             0.005718             0.004693
Rotational constants in MHz :           321.061933           171.409947           140.691125

                             ****ORCA TERMINATED NORMALLY****
TOTAL RUN TIME: 0 days 0 hours 5 minutes 16 seconds 225 msec
