                         Program Version 6.0.0  -   RELEASE  -
|  1> ! B3LYP 6-31G* SP
|  2>
|  3> * xyz 0 1
|  4> C 1.7836 -0.8029 -2.8276
|  5> C 0.8527 -0.2839 -1.7324
|  6> N 1.3071 -0.7049 -0.3921
|  7> C 1.4500 -2.1095 -0.0839
|  8> O 2.4234 -2.4922 0.6214
|  9> C 0.5101 -3.1290 -0.6058
| 10> C 1.0315 -4.3294 -1.1187
| 11> C 0.1812 -5.3187 -1.6138
| 12> C -1.1991 -5.1278 -1.5909
| 13> C -1.7352 -3.9504 -1.0665
| 14> C -0.8898 -2.9409 -0.5610
| 15> O -1.4090 -1.7614 -0.0010
| 16> C -2.7948 -1.4277 0.0367
| 17> C -2.9559 -0.0421 0.5869
| 18> C -2.9098 1.0678 -0.2721
| 19> C -2.9907 2.3640 0.2459
| 20> C -3.1089 2.5620 1.6270
| 21> C -3.1723 3.8969 2.1612
| 22> N -3.2223 4.9703 2.5907
| 23> C -3.1498 1.4586 2.4883
| 24> C -3.0707 0.1617 1.9712
| 25> C 1.6623 0.2934 0.6416
| 26> C 0.4167 1.0871 1.0837
| 27> C 0.8131 2.2733 1.9673
| 28> C 1.7622 3.2587 1.2507
| 29> C 2.4296 2.6744 -0.0139
| 30> N 3.5800 3.4961 -0.3966
| 31> C 2.8437 1.2007 0.1957
| 32> H 1.7518 -1.9109 -2.8766
| 33> H 2.8272 -0.4777 -2.6398
| 34> H 1.4585 -0.4017 -3.8105
| 35> H 0.8180 0.8206 -1.8093
| 36> H -0.1758 -0.6487 -1.9253
| 37> H 2.1018 -4.4937 -1.1501
| 38> H 0.5937 -6.2350 -2.0158
| 39> H -1.8567 -5.8975 -1.9743
| 40> H -2.8105 -3.8408 -1.0493
| 41> H -3.2213 -1.4722 -0.9894
| 42> H -3.3393 -2.1581 0.6740
| 43> H -2.7954 0.9300 -1.3402
| 44> H -2.9479 3.2107 -0.4286
| 45> H -3.2323 1.6008 3.5591
| 46> H -3.0844 -0.6819 2.6501
| 47> H 2.0091 -0.2390 1.5569
| 48> H -0.2555 0.4149 1.6570
| 49> H -0.1468 1.4660 0.2068
| 50> H 1.3093 1.8844 2.8839
| 51> H -0.1040 2.8103 2.2927
| 52> H 2.5430 3.5818 1.9742
| 53> H 1.1927 4.1682 0.9588
| 54> H 1.6900 2.7212 -0.8423
| 55> H 4.3421 3.3801 0.3110
| 56> H 3.9499 3.1472 -1.3109
| 57> H 3.6344 1.1664 0.9783
| 58> H 3.3094 0.8105 -0.7325
| 59> *
| 60>
| 61>                          ****END OF INPUT****

CARTESIAN COORDINATES (ANGSTROEM)
---------------------------------
  C      1.783600   -0.802900   -2.827600
  C      0.852700   -0.283900   -1.732400
  N      1.307100   -0.704900   -0.392100
  C      1.450000   -2.109500   -0.083900
  O      2.423400   -2.492200    0.621400
  C      0.510100   -3.129000   -0.605800
  C      1.031500   -4.329400   -1.118700
  C      0.181200   -5.318700   -1.613800
  C     -1.199100   -5.127800   -1.590900
  C     -1.735200   -3.950400   -1.066500
  C     -0.889800   -2.940900   -0.561000
  O     -1.409000   -1.761400   -0.001000
  C     -2.794800   -1.427700    0.036700
  C     -2.955900   -0.042100    0.586900
  C     -2.909800    1.067800   -0.272100
  C     -2.990700    2.364000    0.245900
  C     -3.108900    2.562000    1.627000
  C     -3.172300    3.896900    2.161200
  N     -3.222300    4.970300    2.590700
  C     -3.149800    1.458600    2.488300
  C     -3.070700    0.161700    1.971200
  C      1.662300    0.293400    0.641600
  C      0.416700    1.087100    1.083700
  C      0.813100    2.273300    1.967300
  C      1.762200    3.258700    1.250700
  C      2.429600    2.674400   -0.013900
  N      3.580000    3.496100   -0.396600
  C      2.843700    1.200700    0.195700
  H      1.751800   -1.910900   -2.876600
  H      2.827200   -0.477700   -2.639800
  H      1.458500   -0.401700   -3.810500
  H      0.818000    0.820600   -1.809300
  H     -0.175800   -0.648700   -1.925300
  H      2.101800   -4.493700   -1.150100
  H      0.593700   -6.235000   -2.015800
  H     -1.856700   -5.897500   -1.974300
  H     -2.810500   -3.840800   -1.049300
  H     -3.221300   -1.472200   -0.989400
  H     -3.339300   -2.158100    0.674000
  H     -2.795400    0.930000   -1.340200
  H     -2.947900    3.210700   -0.428600
  H     -3.232300    1.600800    3.559100
  H     -3.084400   -0.681900    2.650100
  H      2.009100   -0.239000    1.556900
  H     -0.255500    0.414900    1.657000
  H     -0.146800    1.466000    0.206800
  H      1.309300    1.884400    2.883900
  H     -0.104000    2.810300    2.292700
  H      2.543000    3.581800    1.974200
  H      1.192700    4.168200    0.958800
  H      1.690000    2.721200   -0.842300
  H      4.342100    3.380100    0.311000
  H      3.949900    3.147200   -1.310900
  H      3.634400    1.166400    0.978300
  H      3.309400    0.810500   -0.732500

 Total Charge           Charge          ....    0
 Multiplicity           Mult            ....    1
 Number of Electrons    NEL             ....  202
 Basis Dimension        Dim             ....  446

ORBITAL ENERGIES
----------------

  NO   OCC          E(Eh)            E(eV)
   0   2.0000     -19.183183      -522.0010
   1   2.0000     -19.102447      -519.8040
   2   2.0000     -14.338574      -390.1724
   3   2.0000     -14.332743      -390.0138
   4   2.0000     -14.298890      -389.0926
   5   2.0000     -10.278509      -279.6924
   6   2.0000     -10.264544      -279.3124
   7   2.0000     -10.261923      -279.2411
   8   2.0000     -10.243744      -278.7465
   9   2.0000     -10.227579      -278.3066
  10   2.0000     -10.223723      -278.2016
  11   2.0000     -10.220321      -278.1091
  12   2.0000     -10.220026      -278.1010
  13   2.0000     -10.215774      -277.9853
  14   2.0000     -10.215213      -277.9701
  15   2.0000     -10.213666      -277.9280
  16   2.0000     -10.205885      -277.7163
  17   2.0000     -10.201686      -277.6020
  18   2.0000     -10.199259      -277.5359
  19   2.0000     -10.196049      -277.4486
  20   2.0000     -10.194634      -277.4101
  21   2.0000     -10.194247      -277.3996
  22   2.0000     -10.185262      -277.1551
  23   2.0000     -10.172111      -276.7972
  24   2.0000     -10.168091      -276.6878
  25   2.0000     -10.164962      -276.6027
  26   2.0000     -10.164686      -276.5952
  27   2.0000     -10.164304      -276.5848
  28   2.0000      -1.063080       -28.9279
  29   2.0000      -1.000534       -27.2259
  30   2.0000      -0.913032       -24.8449
  31   2.0000      -0.903015       -24.5723
  32   2.0000      -0.887027       -24.1372
  33   2.0000      -0.872389       -23.7389
  34   2.0000      -0.860637       -23.4191
  35   2.0000      -0.811993       -22.0955
  36   2.0000      -0.797801       -21.7093
  37   2.0000      -0.777593       -21.1594
  38   2.0000      -0.767640       -20.8886
  39   2.0000      -0.754184       -20.5224
  40   2.0000      -0.748446       -20.3663
  41   2.0000      -0.717904       -19.5352
  42   2.0000      -0.712562       -19.3898
  43   2.0000      -0.701137       -19.0789
  44   2.0000      -0.643589       -17.5130
  45   2.0000      -0.642007       -17.4699
  46   2.0000      -0.639941       -17.4137
  47   2.0000      -0.623279       -16.9603
  48   2.0000      -0.604820       -16.4580
  49   2.0000      -0.601001       -16.3541
  50   2.0000      -0.591979       -16.1086
  51   2.0000      -0.572745       -15.5852
  52   2.0000      -0.555656       -15.1202
  53   2.0000      -0.534449       -14.5431
  54   2.0000      -0.517269       -14.0756
  55   2.0000      -0.510354       -13.8874
  56   2.0000      -0.507900       -13.8207
  57   2.0000      -0.500548       -13.6206
  58   2.0000      -0.482917       -13.1408
  59   2.0000      -0.476228       -12.9588
  60   2.0000      -0.472276       -12.8513
  61   2.0000      -0.466213       -12.6863
  62   2.0000      -0.461076       -12.5465
  63   2.0000      -0.459057       -12.4916
  64   2.0000      -0.455233       -12.3875
  65   2.0000      -0.449472       -12.2307
  66   2.0000      -0.441997       -12.0273
  67   2.0000      -0.439869       -11.9695
  68   2.0000      -0.436306       -11.8725
  69   2.0000      -0.410217       -11.1626
  70   2.0000      -0.407345       -11.0844
  71   2.0000      -0.400650       -10.9022
  72   2.0000      -0.399064       -10.8591
  73   2.0000      -0.396310       -10.7842
  74   2.0000      -0.388624       -10.5750
  75   2.0000      -0.385075       -10.4784
  76   2.0000      -0.383209       -10.4276
  77   2.0000      -0.377502       -10.2724
  78   2.0000      -0.373122       -10.1532
  79   2.0000      -0.371957       -10.1215
  80   2.0000      -0.366806        -9.9813
  81   2.0000      -0.363185        -9.8828
  82   2.0000      -0.359432        -9.7806
  83   2.0000      -0.353657        -9.6235
  84   2.0000      -0.351294        -9.5592
  85   2.0000      -0.347425        -9.4539
  86   2.0000      -0.337080        -9.1724
  87   2.0000      -0.336434        -9.1548
  88   2.0000      -0.335765        -9.1366
  89   2.0000      -0.333205        -9.0670
  90   2.0000      -0.323629        -8.8064
  91   2.0000      -0.308823        -8.4035
  92   2.0000      -0.302676        -8.2362
  93   2.0000      -0.298364        -8.1189
  94   2.0000      -0.278973        -7.5912
  95   2.0000      -0.271884        -7.3983
  96   2.0000      -0.262361        -7.1392
  97   2.0000      -0.238500        -6.4899
  98   2.0000      -0.230456        -6.2710
  99   2.0000      -0.221443        -6.0258
 100   2.0000      -0.205426        -5.5899
 101   0.0000      -0.062337        -1.6963
 102   0.0000      -0.037305        -1.0151
 103   0.0000      -0.033149        -0.9020
 104   0.0000      -0.002663        -0.0725
 105   0.0000       0.034785         0.9466

MULLIKEN ATOMIC CHARGES
-----------------------
   0 C :   -0.441973
   1 C :   -0.142995
   2 N :   -0.403695
   3 C :    0.441853
   4 O :   -0.467785
   5 C :    0.031183
   6 C :   -0.146589
   7 C :   -0.135911
   8 C :   -0.116246
   9 C :   -0.209760
  10 C :    0.335493
  11 O :   -0.508880
  12 C :   -0.105932
  13 C :    0.157800
  14 C :   -0.161902
  15 C :   -0.138754
  16 C :    0.124801
  17 C :    0.086300
  18 N :   -0.299605
  19 C :   -0.135075
  20 C :   -0.164510
  21 C :    0.038486
  22 C :   -0.261030
  23 C :   -0.277380
  24 C :   -0.247705
  25 C :    0.024556
  26 N :   -0.702802
  27 C :   -0.290834
  28 H :    0.154123
  29 H :    0.155512
  30 H :    0.134348
  31 H :    0.147788
  32 H :    0.142265
  33 H :    0.159495
  34 H :    0.132959
  35 H :    0.136562
  36 H :    0.137423
  37 H :    0.140778
  38 H :    0.143781
  39 H :    0.147157
  40 H :    0.162339
  41 H :    0.163732
  42 H :    0.152207
  43 H :    0.158591
  44 H :    0.141325
  45 H :    0.123796
  46 H :    0.127554
  47 H :    0.135616
  48 H :    0.125386
  49 H :    0.141752
  50 H :    0.120642
  51 H :    0.285754
  52 H :    0.285079
  53 H :    0.126442
  54 H :    0.136483
Sum of atomic charges:    0.0000000

LOEWDIN ATOMIC CHARGES
----------------------
   0 C :   -0.368317
   1 C :   -0.159839
   2 N :   -0.106295
   3 C :    0.144667
   4 O :   -0.275663
   5 C :   -0.068261
   6 C :   -0.091685
   7 C :   -0.145371
   8 C :   -0.112506
   9 C :   -0.175352
  10 C :    0.095699
  11 O :   -0.179647
  12 C :   -0.080521
  13 C :   -0.014076
  14 C :   -0.113894
  15 C :   -0.098391
  16 C :   -0.049093
  17 C :   -0.008663
  18 N :   -0.088480
  19 C :   -0.096570
  20 C :   -0.113545
  21 C :   -0.052689
  22 C :   -0.235053
  23 C :   -0.235229
  24 C :   -0.229441
  25 C :   -0.083332
  26 N :   -0.460572
  27 C :   -0.249311
  28 H :    0.128792
  29 H :    0.126460
  30 H :    0.122081
  31 H :    0.125905
  32 H :    0.118015
  33 H :    0.150091
  34 H :    0.134416
  35 H :    0.135621
  36 H :    0.135718
  37 H :    0.118248
  38 H :    0.119735
  39 H :    0.141249
  40 H :    0.149409
  41 H :    0.150224
  42 H :    0.144008
  43 H :    0.139234
  44 H :    0.127412
  45 H :    0.113891
  46 H :    0.115006
  47 H :    0.122865
  48 H :    0.118775
  49 H :    0.125976
  50 H :    0.109043
  51 H :    0.218895
  52 H :    0.218866
  53 H :    0.119320
  54 H :    0.122173

  Mayer bond orders larger than 0.100000
B(  0-C ,  1-C ) :   1.0053 B(  0-C , 28-H ) :   0.9422 B(  0-C , 29-H ) :   0.9443
B(  0-C , 30-H ) :   0.9446 B(  1-C ,  2-N ) :   0.9496 B(  1-C , 31-H ) :   0.9314
B(  1-C , 32-H ) :   0.9209 B(  2-N ,  3-C ) :   1.0712 B(  2-N , 21-C ) :   0.9334
B(  3-C ,  4-O ) :   1.8147 B(  3-C ,  5-C ) :   0.9364 B(  5-C ,  6-C ) :   1.4149
B(  5-C , 10-C ) :   1.3538 B(  6-C ,  7-C ) :   1.4357 B(  6-C , 33-H ) :   0.9164
B(  7-C ,  8-C ) :   1.4442 B(  7-C , 34-H ) :   0.9291 B(  8-C ,  9-C ) :   1.4418
B(  8-C , 35-H ) :   0.9291 B(  9-C , 10-C ) :   1.3523 B(  9-C , 36-H ) :   0.9175
B( 10-C , 11-O ) :   0.9134 B( 11-O , 12-C ) :   0.9054 B( 12-C , 13-C ) :   0.9878
B( 12-C , 37-H ) :   0.9108 B( 12-C , 38-H ) :   0.9111 B( 13-C , 14-C ) :   1.4256
B( 13-C , 20-C ) :   1.4249 B( 14-C , 15-C ) :   1.4236 B( 14-C , 39-H ) :   0.9212
B( 15-C , 16-C ) :   1.4028 B( 15-C , 40-H ) :   0.9215 B( 16-C , 17-C ) :   0.9802
B( 16-C , 19-C ) :   1.4017 B( 17-C , 18-N ) :   3.0173 B( 19-C , 20-C ) :   1.4252
B( 19-C , 41-H ) :   0.9211 B( 20-C , 42-H ) :   0.9210 B( 21-C , 22-C ) :   0.9938
B( 21-C , 27-C ) :   0.9504 B( 21-C , 43-H ) :   0.9189 B( 22-C , 23-C ) :   0.9994
B( 22-C , 44-H ) :   0.9291 B( 22-C , 45-H ) :   0.9272 B( 23-C , 24-C ) :   0.9840
B( 23-C , 46-H ) :   0.9441 B( 23-C , 47-H ) :   0.9409 B( 24-C , 25-C ) :   0.9993
B( 24-C , 48-H ) :   0.9437 B( 24-C , 49-H ) :   0.9448 B( 25-C , 26-N ) :   0.9940
B( 25-C , 27-C ) :   0.9883 B( 25-C , 50-H ) :   0.9260 B( 26-N , 51-H ) :   0.8595
B( 26-N , 52-H ) :   0.8640 B( 27-C , 53-H ) :   0.9378 B( 27-C , 54-H ) :   0.9338

FINAL SINGLE POINT ENERGY     -1206.595792250643

DIPOLE MOMENT
-------------

Method             : SCF
Type of density    : Electron Density
Multiplicity       :   1
Irrep              :   0
Energy             : -1206.5957922506431714 Eh
Relativity type    :
Basis              : AO
                                X                 Y                 Z
Electronic contribution:    -16.816314638      -7.763026398       7.804086115
Nuclear contribution   :     15.570925219       6.212755074      -9.100560120
                        -----------------------------------------
Total Dipole Moment    :     -1.245389420      -1.550271323      -1.296474005
                        -----------------------------------------
Magnitude (a.u.)       :      2.373853582
Magnitude (Debye)      :      6.033856287

Rotational constants in cm-1:             0.007636             0.004618             0.003221
Rotational constants in MHz :           228.923388           138.446591            96.558879

                             ****ORCA TERMINATED NORMALLY****
TOTAL RUN TIME: 0 days 0 hours 7 minutes 9 seconds 88 msec
