                         Program Version 6.0.0  -   RELEASE  -
|  1> ! B3LYP 6-31G* SP
|  2>
|  3> * xyz 0 1
|  4> C -3.6358 -1.3117 3.0692
|  5> N -3.9294 -0.6706 1.7754
|  6> C -3.2784 0.4909 1.4259
|  7> O -2.4200 0.9983 2.1980
|  8> C -3.5877 1.1109 0.2103
|  9> C -3.0566 2.3057 -0.3609
| 10> C -1.9620 3.1397 0.2432
| 11> C -0.6281 2.4899 0.0277
| 12> O 0.0343 2.0909 1.0235
| 13> N -0.1141 2.3342 -1.3042
| 14> C 1.0835 1.6120 -1.6162
| 15> N 1.8337 0.9571 -0.7043
| 16> C 2.9066 0.3405 -1.2741
| 17> C 3.8524 -0.4631 -0.4630
| 18> C 3.3805 -1.1197 0.6855
| 19> C 4.2423 -1.8882 1.4675
| 20> C 5.5882 -2.0070 1.1217
| 21> C 6.0916 -1.3490 -0.0142
| 22> C 7.5513 -1.4485 -0.3907
| 23> F 8.2501 -2.2750 0.4729
| 24> F 7.6638 -1.9591 -1.6713
| 25> F 8.1238 -0.1900 -0.3543
| 26> C 5.2187 -0.5716 -0.8017
| 27> F 5.7179 0.1127 -1.8636
| 28> C 2.9958 0.4955 -2.6607
| 29> S 1.6998 1.4408 -3.1677
| 30> N -3.5809 2.6486 -1.5721
| 31> S -4.7120 1.4831 -1.9372
| 32> C -4.5480 0.5264 -0.5835
| 33> N -5.2067 -0.6150 -0.2493
| 34> C -6.2590 -1.1515 -1.1242
| 35> C -4.9121 -1.1972 0.9601
| 36> O -5.5524 -2.2215 1.3318
| 37> H -4.3203 -0.9119 3.8467
| 38> H -3.7575 -2.4143 3.0074
| 39> H -2.5848 -1.1331 3.3820
| 40> H -1.9492 4.1409 -0.2385
| 41> H -2.1547 3.3096 1.3233
| 42> H -0.6495 2.7551 -2.0964
| 43> H 2.3381 -1.0501 0.9716
| 44> H 3.8645 -2.3952 2.3461
| 45> H 6.2320 -2.6088 1.7498
| 46> H 3.7364 0.0557 -3.3141
| 47> H -6.4029 -2.2412 -0.9656
| 48> H -5.9879 -1.0198 -2.1929
| 49> H -7.2154 -0.6254 -0.9217
| 50> *
| 51>
| 52>                          ****END OF INPUT****

CARTESIAN COORDINATES (ANGSTROEM)
---------------------------------
  C     -3.635800   -1.311700    3.069200
  N     -3.929400   -0.670600    1.775400
  C     -3.278400    0.490900    1.425900
  O     -2.420000    0.998300    2.198000
  C     -3.587700    1.110900    0.210300
  C     -3.056600    2.305700   -0.360900
  C     -1.962000    3.139700    0.243200
  C     -0.628100    2.489900    0.027700
  O      0.034300    2.090900    1.023500
  N     -0.114100    2.334200   -1.304200
  C      1.083500    1.612000   -1.616200
  N      1.833700    0.957100   -0.704300
  C      2.906600    0.340500   -1.274100
  C      3.852400   -0.463100   -0.463000
  C      3.380500   -1.119700    0.685500
  C      4.242300   -1.888200    1.467500
  C      5.588200   -2.007000    1.121700
  C      6.091600   -1.349000   -0.014200
  C      7.551300   -1.448500   -0.390700
  F      8.250100   -2.275000    0.472900
  F      7.663800   -1.959100   -1.671300
  F      8.123800   -0.190000   -0.354300
  C      5.218700   -0.571600   -0.801700
  F      5.717900    0.112700   -1.863600
  C      2.995800    0.495500   -2.660700
  S      1.699800    1.440800   -3.167700
  N     -3.580900    2.648600   -1.572100
  S     -4.712000    1.483100   -1.937200
  C     -4.548000    0.526400   -0.583500
  N     -5.206700   -0.615000   -0.249300
  C     -6.259000   -1.151500   -1.124200
  C     -4.912100   -1.197200    0.960100
  O     -5.552400   -2.221500    1.331800
  H     -4.320300   -0.911900    3.846700
  H     -3.757500   -2.414300    3.007400
  H     -2.584800   -1.133100    3.382000
  H     -1.949200    4.140900   -0.238500
  H     -2.154700    3.309600    1.323300
  H     -0.649500    2.755100   -2.096400
  H      2.338100   -1.050100    0.971600
  H      3.864500   -2.395200    2.346100
  H      6.232000   -2.608800    1.749800
  H      3.736400    0.055700   -3.314100
  H     -6.402900   -2.241200   -0.965600
  H     -5.987900   -1.019800   -2.192900
  H     -7.215400   -0.625400   -0.921700

 Total Charge           Charge          ....    0
 Multiplicity           Mult            ....    1
 Number of Electrons    NEL             ....  254
 Basis Dimension        Dim             ....  496

ORBITAL ENERGIES
----------------

  NO   OCC          E(Eh)            E(eV)
   0   2.0000     -88.941357     -2420.2174
   1   2.0000     -88.906928     -2419.2805
   2   2.0000     -24.717875      -672.6076
   3   2.0000     -24.713604      -672.4914
   4   2.0000     -24.710205      -672.3989
   5   2.0000     -24.709234      -672.3724
   6   2.0000     -19.130479      -520.5668
   7   2.0000     -19.119407      -520.2655
   8   2.0000     -19.115110      -520.1486
   9   2.0000     -14.432200      -392.7201
  10   2.0000     -14.408255      -392.0686
  11   2.0000     -14.393286      -391.6612
  12   2.0000     -14.376693      -391.2097
  13   2.0000     -14.325653      -389.8208
  14   2.0000     -10.432321      -283.8779
  15   2.0000     -10.346010      -281.5292
  16   2.0000     -10.302819      -280.3540
  17   2.0000     -10.302579      -280.3474
  18   2.0000     -10.291952      -280.0583
  19   2.0000     -10.290058      -280.0067
  20   2.0000     -10.286640      -279.9137
  21   2.0000     -10.266599      -279.3683
  22   2.0000     -10.255934      -279.0782
  23   2.0000     -10.227303      -278.2991
  24   2.0000     -10.226607      -278.2801
  25   2.0000     -10.218296      -278.0540
  26   2.0000     -10.215602      -277.9807
  27   2.0000     -10.211749      -277.8758
  28   2.0000     -10.211598      -277.8717
  29   2.0000     -10.208529      -277.7882
  30   2.0000     -10.202266      -277.6178
  31   2.0000     -10.195645      -277.4376
  32   2.0000     -10.190982      -277.3107
  33   2.0000      -8.015549      -218.1142
  34   2.0000      -7.984730      -217.2756
  35   2.0000      -5.979847      -162.7199
  36   2.0000      -5.974540      -162.5755
  37   2.0000      -5.971596      -162.4954
  38   2.0000      -5.947797      -161.8478
  39   2.0000      -5.943682      -161.7358
  40   2.0000      -5.941553      -161.6779
  41   2.0000      -1.273850       -34.6632
  42   2.0000      -1.225835       -33.3567
  43   2.0000      -1.200027       -32.6544
  44   2.0000      -1.196125       -32.5482
  45   2.0000      -1.086455       -29.5639
  46   2.0000      -1.031829       -28.0775
  47   2.0000      -1.018995       -27.7283
  48   2.0000      -1.008755       -27.4496
  49   2.0000      -0.976924       -26.5835
  50   2.0000      -0.974168       -26.5085
  51   2.0000      -0.950624       -25.8678
  52   2.0000      -0.915061       -24.9001
  53   2.0000      -0.872169       -23.7329
  54   2.0000      -0.832054       -22.6413
  55   2.0000      -0.820801       -22.3351
  56   2.0000      -0.813704       -22.1420
  57   2.0000      -0.792834       -21.5741
  58   2.0000      -0.771062       -20.9817
  59   2.0000      -0.766536       -20.8585
  60   2.0000      -0.748887       -20.3782
  61   2.0000      -0.727255       -19.7896
  62   2.0000      -0.715953       -19.4821
  63   2.0000      -0.692159       -18.8346
  64   2.0000      -0.671931       -18.2842
  65   2.0000      -0.656596       -17.8669
  66   2.0000      -0.641453       -17.4548
  67   2.0000      -0.625027       -17.0078
  68   2.0000      -0.614378       -16.7181
  69   2.0000      -0.605743       -16.4831
  70   2.0000      -0.599440       -16.3116
  71   2.0000      -0.583985       -15.8910
  72   2.0000      -0.568285       -15.4638
  73   2.0000      -0.564993       -15.3742
  74   2.0000      -0.563414       -15.3313
  75   2.0000      -0.540805       -14.7160
  76   2.0000      -0.533877       -14.5275
  77   2.0000      -0.530799       -14.4438
  78   2.0000      -0.525227       -14.2921
  79   2.0000      -0.517013       -14.0686
  80   2.0000      -0.513306       -13.9678
  81   2.0000      -0.492156       -13.3923
  82   2.0000      -0.484727       -13.1901
  83   2.0000      -0.480876       -13.0853
  84   2.0000      -0.476008       -12.9528
  85   2.0000      -0.472844       -12.8667
  86   2.0000      -0.469918       -12.7871
  87   2.0000      -0.461527       -12.5588
  88   2.0000      -0.456996       -12.4355
  89   2.0000      -0.446718       -12.1558
  90   2.0000      -0.442788       -12.0489
  91   2.0000      -0.442126       -12.0309
  92   2.0000      -0.441255       -12.0072
  93   2.0000      -0.435852       -11.8601
  94   2.0000      -0.429647       -11.6913
  95   2.0000      -0.427003       -11.6193
  96   2.0000      -0.420400       -11.4397
  97   2.0000      -0.412610       -11.2277
  98   2.0000      -0.411210       -11.1896
  99   2.0000      -0.410667       -11.1748
 100   2.0000      -0.406904       -11.0724
 101   2.0000      -0.404106       -10.9963
 102   2.0000      -0.401165       -10.9162
 103   2.0000      -0.398342       -10.8394
 104   2.0000      -0.394671       -10.7396
 105   2.0000      -0.391222       -10.6457
 106   2.0000      -0.390008       -10.6127
 107   2.0000      -0.381969       -10.3939
 108   2.0000      -0.374702       -10.1961
 109   2.0000      -0.369813       -10.0631
 110   2.0000      -0.361749        -9.8437
 111   2.0000      -0.358671        -9.7599
 112   2.0000      -0.347234        -9.4487
 113   2.0000      -0.346479        -9.4282
 114   2.0000      -0.331730        -9.0268
 115   2.0000      -0.307608        -8.3704
 116   2.0000      -0.293778        -7.9941
 117   2.0000      -0.288836        -7.8596
 118   2.0000      -0.286399        -7.7933
 119   2.0000      -0.278989        -7.5917
 120   2.0000      -0.275117        -7.4863
 121   2.0000      -0.261411        -7.1134
 122   2.0000      -0.257698        -7.0123
 123   2.0000      -0.255411        -6.9501
 124   2.0000      -0.252985        -6.8841
 125   2.0000      -0.230980        -6.2853
 126   2.0000      -0.214012        -5.8236
 127   0.0000      -0.055857        -1.5199
 128   0.0000      -0.041824        -1.1381
 129   0.0000      -0.035601        -0.9688
 130   0.0000      -0.025183        -0.6853
 131   0.0000      -0.015182        -0.4131

MULLIKEN ATOMIC CHARGES
-----------------------
   0 C :   -0.317764
   1 N :   -0.478929
   2 C :    0.511438
   3 O :   -0.468001
   4 C :    0.057961
   5 C :    0.166084
   6 C :   -0.399841
   7 C :    0.562371
   8 O :   -0.401359
   9 N :   -0.663019
  10 C :    0.251317
  11 N :   -0.367897
  12 C :    0.212520
  13 C :    0.028106
  14 C :   -0.142024
  15 C :   -0.130998
  16 C :   -0.152340
  17 C :   -0.114927
  18 C :    0.920779
  19 F :   -0.306767
  20 F :   -0.301736
  21 F :   -0.298645
  22 C :    0.325015
  23 F :   -0.299031
  24 C :   -0.380266
  25 S :    0.249924
  26 N :   -0.503001
  27 S :    0.394623
  28 C :    0.045426
  29 N :   -0.448306
  30 C :   -0.342120
  31 C :    0.686492
  32 O :   -0.495008
  33 H :    0.180491
  34 H :    0.194199
  35 H :    0.205771
  36 H :    0.177238
  37 H :    0.224534
  38 H :    0.351417
  39 H :    0.177180
  40 H :    0.142168
  41 H :    0.157840
  42 H :    0.192783
  43 H :    0.221702
  44 H :    0.182959
  45 H :    0.191644
Sum of atomic charges:    0.0000000

LOEWDIN ATOMIC CHARGES
----------------------
   0 C :   -0.259646
   1 N :   -0.027637
   2 C :    0.113065
   3 O :   -0.268471
   4 C :   -0.125943
   5 C :    0.039320
   6 C :   -0.241267
   7 C :    0.151540
   8 O :   -0.220307
   9 N :   -0.210461
  10 C :   -0.082505
  11 N :   -0.151506
  12 C :   -0.005872
  13 C :   -0.040001
  14 C :   -0.089593
  15 C :   -0.132832
  16 C :   -0.110945
  17 C :   -0.097924
  18 C :    0.314520
  19 F :   -0.111374
  20 F :   -0.113814
  21 F :   -0.111853
  22 C :    0.135513
  23 F :   -0.090154
  24 C :   -0.338431
  25 S :    0.388174
  26 N :   -0.341460
  27 S :    0.470180
  28 C :   -0.118071
  29 N :   -0.022357
  30 C :   -0.263061
  31 C :    0.146079
  32 O :   -0.303497
  33 H :    0.141911
  34 H :    0.152115
  35 H :    0.158260
  36 H :    0.151571
  37 H :    0.180026
  38 H :    0.269460
  39 H :    0.157561
  40 H :    0.139145
  41 H :    0.147124
  42 H :    0.166507
  43 H :    0.167775
  44 H :    0.144275
  45 H :    0.144859

  Mayer bond orders larger than 0.100000
B(  0-C ,  1-N ) :   0.9139 B(  0-C , 33-H ) :   0.9399 B(  0-C , 34-H ) :   0.9268
B(  0-C , 35-H ) :   0.9207 B(  1-N ,  2-C ) :   0.9713 B(  1-N , 31-C ) :   1.0491
B(  2-C ,  3-O ) :   1.7959 B(  2-C ,  4-C ) :   1.0794 B(  4-C ,  5-C ) :   1.2555
B(  4-C , 28-C ) :   1.3494 B(  5-C ,  6-C ) :   0.9909 B(  5-C , 26-N ) :   1.5050
B(  6-C ,  7-C ) :   0.9536 B(  6-C , 36-H ) :   0.9084 B(  6-C , 37-H ) :   0.8950
B(  7-C ,  8-O ) :   1.9071 B(  7-C ,  9-N ) :   0.9768 B(  9-N , 10-C ) :   0.9535
B(  9-N , 38-H ) :   0.8115 B( 10-C , 11-N ) :   1.5157 B( 10-C , 24-C ) :   0.1094
B( 10-C , 25-S ) :   1.1379 B( 11-N , 12-C ) :   1.2673 B( 12-C , 13-C ) :   1.0107
B( 12-C , 24-C ) :   1.5239 B( 13-C , 14-C ) :   1.4004 B( 13-C , 22-C ) :   1.3284
B( 14-C , 15-C ) :   1.4349 B( 14-C , 39-H ) :   0.9111 B( 15-C , 16-C ) :   1.4323
B( 15-C , 40-H ) :   0.9280 B( 16-C , 17-C ) :   1.4149 B( 16-C , 41-H ) :   0.9187
B( 17-C , 18-C ) :   0.9635 B( 17-C , 22-C ) :   1.3181 B( 18-C , 19-F ) :   0.9445
B( 18-C , 20-F ) :   0.9667 B( 18-C , 21-F ) :   0.9727 B( 22-C , 23-F ) :   0.9511
B( 24-C , 25-S ) :   1.1183 B( 24-C , 42-H ) :   0.8996 B( 26-N , 27-S ) :   1.0932
B( 26-N , 28-C ) :   0.1305 B( 27-S , 28-C ) :   1.1563 B( 28-C , 29-N ) :   1.0016
B( 29-N , 30-C ) :   0.9232 B( 29-N , 31-C ) :   1.0213 B( 30-C , 43-H ) :   0.9178
B( 30-C , 44-H ) :   0.9244 B( 30-C , 45-H ) :   0.9314 B( 31-C , 32-O ) :   1.7996

FINAL SINGLE POINT ENERGY     -2426.032701826134

DIPOLE MOMENT
-------------

Method             : SCF
Type of density    : Electron Density
Multiplicity       :   1
Irrep              :   0
Energy             : -2426.0327018261341436 Eh
Relativity type    :
Basis              : AO
                                X                 Y                 Z
Electronic contribution:     47.815266104       1.075940118     -14.009286159
Nuclear contribution   :    -50.476619320      -1.411819454      12.879336842
                        -----------------------------------------
Total Dipole Moment    :     -2.661353216      -0.335879336      -1.129949318
                        -----------------------------------------
Magnitude (a.u.)       :      2.910738966
Magnitude (Debye)      :      7.398510483

Rotational constants in cm-1:             0.007624             0.001458             0.001337
Rotational constants in MHz :           228.568564            43.705061            40.082267

                             ****ORCA TERMINATED NORMALLY****
TOTAL RUN TIME: 0 days 0 hours 4 minutes 59 seconds 714 msec
