                         Program Version 6.0.0  -   RELEASE  -
|  1> ! B3LYP 6-31G* SP
|  2>
|  3> * xyz 0 1
|  4> C -6.4301 2.5215 0.7392
|  5> C -6.3629 1.0790 1.2362
|  6> C -5.9922 0.1182 0.1008
|  7> C -5.8895 -1.3255 0.6157
|  8> C -5.5211 -2.3181 -0.4951
|  9> C -4.0878 -2.1575 -0.9216
| 10> C -3.7523 -1.4222 -1.9912
| 11> C -2.3175 -1.1770 -2.3657
| 12> C -2.0446 0.3026 -2.4485
| 13> C -1.8462 1.0998 -1.3813
| 14> C -1.8297 0.6192 0.0464
| 15> C -0.5505 -0.1026 0.3616
| 16> C -0.4099 -0.7733 1.5134
| 17> C 0.8658 -1.4855 1.8578
| 18> C 1.9408 -0.4909 2.1947
| 19> C 3.1882 -0.6152 1.7217
| 20> C 4.2656 0.3733 2.0808
| 21> C 4.0161 1.7631 1.4679
| 22> C 4.0085 1.7679 -0.0693
| 23> C 5.3607 1.4408 -0.6315
| 24> O 6.2257 2.3531 -0.7352
| 25> N 5.6755 0.0939 -1.0153
| 26> C 7.0039 -0.3016 -1.4781
| 27> C 7.9794 -0.3777 -0.3060
| 28> O 9.2374 -0.7807 -0.7699
| 29> H -5.4532 2.8291 0.3125
| 30> H -6.6742 3.1946 1.5872
| 31> H -7.2185 2.6258 -0.0343
| 32> H -5.6024 1.0135 2.0457
| 33> H -7.3531 0.7964 1.6573
| 34> H -6.7653 0.1732 -0.6983
| 35> H -5.0188 0.4335 -0.3305
| 36> H -5.1357 -1.3845 1.4310
| 37> H -6.8722 -1.6262 1.0403
| 38> H -5.6491 -3.3490 -0.1032
| 39> H -6.2133 -2.2077 -1.3580
| 40> H -3.3139 -2.5857 -0.2912
| 41> H -4.5297 -0.9768 -2.6063
| 42> H -2.1456 -1.6250 -3.3672
| 43> H -1.6094 -1.6665 -1.6633
| 44> H -2.0200 0.7554 -3.4358
| 45> H -1.6761 2.1575 -1.5575
| 46> H -2.7029 -0.0343 0.2439
| 47> H -1.9127 1.4968 0.7222
| 48> H 0.2717 -0.0789 -0.3494
| 49> H -1.2291 -0.8031 2.2247
| 50> H 0.6915 -2.1254 2.7479
| 51> H 1.1630 -2.1461 1.0144
| 52> H 1.7015 0.3214 2.8774
| 53> H 3.4497 -1.4526 1.0784
| 54> H 5.2489 -0.0153 1.7408
| 55> H 4.3181 0.4671 3.1871
| 56> H 3.0415 2.1572 1.8304
| 57> H 4.8025 2.4615 1.8313
| 58> H 3.2455 1.0588 -0.4567
| 59> H 3.7132 2.7815 -0.4177
| 60> H 4.9218 -0.6294 -0.9920
| 61> H 6.9390 -1.3034 -1.9568
| 62> H 7.3701 0.4197 -2.2403
| 63> H 7.6011 -1.1131 0.4392
| 64> H 8.0641 0.6184 0.1813
| 65> H 9.8185 -0.8430 0.0326
| 66> *
| 67>
| 68>                          ****END OF INPUT****

CARTESIAN COORDINATES (ANGSTROEM)
---------------------------------
  C     -6.430100    2.521500    0.739200
  C     -6.362900    1.079000    1.236200
  C     -5.992200    0.118200    0.100800
  C     -5.889500   -1.325500    0.615700
  C     -5.521100   -2.318100   -0.495100
  C     -4.087800   -2.157500   -0.921600
  C     -3.752300   -1.422200   -1.991200
  C     -2.317500   -1.177000   -2.365700
  C     -2.044600    0.302600   -2.448500
  C     -1.846200    1.099800   -1.381300
  C     -1.829700    0.619200    0.046400
  C     -0.550500   -0.102600    0.361600
  C     -0.409900   -0.773300    1.513400
  C      0.865800   -1.485500    1.857800
  C      1.940800   -0.490900    2.194700
  C      3.188200   -0.615200    1.721700
  C      4.265600    0.373300    2.080800
  C      4.016100    1.763100    1.467900
  C      4.008500    1.767900   -0.069300
  C      5.360700    1.440800   -0.631500
  O      6.225700    2.353100   -0.735200
  N      5.675500    0.093900   -1.015300
  C      7.003900   -0.301600   -1.478100
  C      7.979400   -0.377700   -0.306000
  O      9.237400   -0.780700   -0.769900
  H     -5.453200    2.829100    0.312500
  H     -6.674200    3.194600    1.587200
  H     -7.218500    2.625800   -0.034300
  H     -5.602400    1.013500    2.045700
  H     -7.353100    0.796400    1.657300
  H     -6.765300    0.173200   -0.698300
  H     -5.018800    0.433500   -0.330500
  H     -5.135700   -1.384500    1.431000
  H     -6.872200   -1.626200    1.040300
  H     -5.649100   -3.349000   -0.103200
  H     -6.213300   -2.207700   -1.358000
  H     -3.313900   -2.585700   -0.291200
  H     -4.529700   -0.976800   -2.606300
  H     -2.145600   -1.625000   -3.367200
  H     -1.609400   -1.666500   -1.663300
  H     -2.020000    0.755400   -3.435800
  H     -1.676100    2.157500   -1.557500
  H     -2.702900   -0.034300    0.243900
  H     -1.912700    1.496800    0.722200
  H      0.271700   -0.078900   -0.349400
  H     -1.229100   -0.803100    2.224700
  H      0.691500   -2.125400    2.747900
  H      1.163000   -2.146100    1.014400
  H      1.701500    0.321400    2.877400
  H      3.449700   -1.452600    1.078400
  H      5.248900   -0.015300    1.740800
  H      4.318100    0.467100    3.187100
  H      3.041500    2.157200    1.830400
  H      4.802500    2.461500    1.831300
  H      3.245500    1.058800   -0.456700
  H      3.713200    2.781500   -0.417700
  H      4.921800   -0.629400   -0.992000
  H      6.939000   -1.303400   -1.956800
  H      7.370100    0.419700   -2.240300
  H      7.601100   -1.113100    0.439200
  H      8.064100    0.618400    0.181300
  H      9.818500   -0.843000    0.032600

 Total Charge           Charge          ....    0
 Multiplicity           Mult            ....    1
 Number of Electrons    NEL             ....  192
 Basis Dimension        Dim             ....  424

ORBITAL ENERGIES
----------------

  NO   OCC          E(Eh)            E(eV)
   0   2.0000     -19.130959      -520.5799
   1   2.0000     -19.099187      -519.7153
   2   2.0000     -14.352982      -390.5645
   3   2.0000     -10.280553      -279.7481
   4   2.0000     -10.216122      -277.9948
   5   2.0000     -10.211335      -277.8646
   6   2.0000     -10.184819      -277.1430
   7   2.0000     -10.182894      -277.0906
   8   2.0000     -10.182684      -277.0849
   9   2.0000     -10.178030      -276.9583
  10   2.0000     -10.177898      -276.9547
  11   2.0000     -10.177646      -276.9478
  12   2.0000     -10.177180      -276.9352
  13   2.0000     -10.174617      -276.8654
  14   2.0000     -10.174377      -276.8589
  15   2.0000     -10.172956      -276.8202
  16   2.0000     -10.172322      -276.8030
  17   2.0000     -10.172187      -276.7993
  18   2.0000     -10.171967      -276.7933
  19   2.0000     -10.171823      -276.7894
  20   2.0000     -10.170195      -276.7451
  21   2.0000     -10.168183      -276.6903
  22   2.0000     -10.168008      -276.6856
  23   2.0000     -10.164296      -276.5845
  24   2.0000     -10.161989      -276.5218
  25   2.0000      -1.012347       -27.5474
  26   2.0000      -0.999446       -27.1963
  27   2.0000      -0.896079       -24.3836
  28   2.0000      -0.823709       -22.4143
  29   2.0000      -0.815804       -22.1991
  30   2.0000      -0.804421       -21.8894
  31   2.0000      -0.792799       -21.5732
  32   2.0000      -0.776110       -21.1190
  33   2.0000      -0.759870       -20.6771
  34   2.0000      -0.742115       -20.1940
  35   2.0000      -0.727063       -19.7844
  36   2.0000      -0.713351       -19.4113
  37   2.0000      -0.691123       -18.8064
  38   2.0000      -0.670860       -18.2550
  39   2.0000      -0.648793       -17.6546
  40   2.0000      -0.627871       -17.0852
  41   2.0000      -0.615221       -16.7410
  42   2.0000      -0.592447       -16.1213
  43   2.0000      -0.584781       -15.9127
  44   2.0000      -0.562825       -15.3153
  45   2.0000      -0.560035       -15.2393
  46   2.0000      -0.547922       -14.9097
  47   2.0000      -0.545726       -14.8499
  48   2.0000      -0.540932       -14.7195
  49   2.0000      -0.522469       -14.2171
  50   2.0000      -0.515187       -14.0189
  51   2.0000      -0.490607       -13.3501
  52   2.0000      -0.479313       -13.0428
  53   2.0000      -0.468910       -12.7597
  54   2.0000      -0.460610       -12.5338
  55   2.0000      -0.458608       -12.4794
  56   2.0000      -0.453180       -12.3316
  57   2.0000      -0.449587       -12.2339
  58   2.0000      -0.445506       -12.1228
  59   2.0000      -0.442596       -12.0436
  60   2.0000      -0.434077       -11.8118
  61   2.0000      -0.430897       -11.7253
  62   2.0000      -0.417699       -11.3662
  63   2.0000      -0.416801       -11.3417
  64   2.0000      -0.412859       -11.2345
  65   2.0000      -0.404045       -10.9946
  66   2.0000      -0.402427       -10.9506
  67   2.0000      -0.395783       -10.7698
  68   2.0000      -0.390179       -10.6173
  69   2.0000      -0.384536       -10.4638
  70   2.0000      -0.380903       -10.3649
  71   2.0000      -0.375096       -10.2069
  72   2.0000      -0.370669       -10.0864
  73   2.0000      -0.368488       -10.0271
  74   2.0000      -0.367108        -9.9895
  75   2.0000      -0.359133        -9.7725
  76   2.0000      -0.356178        -9.6921
  77   2.0000      -0.353518        -9.6197
  78   2.0000      -0.346664        -9.4332
  79   2.0000      -0.340858        -9.2752
  80   2.0000      -0.334488        -9.1019
  81   2.0000      -0.331371        -9.0171
  82   2.0000      -0.329889        -8.9767
  83   2.0000      -0.324448        -8.8287
  84   2.0000      -0.322906        -8.7867
  85   2.0000      -0.320746        -8.7279
  86   2.0000      -0.319049        -8.6818
  87   2.0000      -0.309260        -8.4154
  88   2.0000      -0.303915        -8.2700
  89   2.0000      -0.257521        -7.0075
  90   2.0000      -0.251100        -6.8328
  91   2.0000      -0.241353        -6.5676
  92   2.0000      -0.240022        -6.5313
  93   2.0000      -0.234337        -6.3766
  94   2.0000      -0.230220        -6.2646
  95   2.0000      -0.225549        -6.1375
  96   0.0000       0.009563         0.2602
  97   0.0000       0.015769         0.4291
  98   0.0000       0.016401         0.4463
  99   0.0000       0.019232         0.5233
 100   0.0000       0.033887         0.9221

MULLIKEN ATOMIC CHARGES
-----------------------
   0 C :   -0.431682
   1 C :   -0.237729
   2 C :   -0.247026
   3 C :   -0.243653
   4 C :   -0.298431
   5 C :   -0.107303
   6 C :   -0.066923
   7 C :   -0.350493
   8 C :   -0.108205
   9 C :   -0.118344
  10 C :   -0.347794
  11 C :   -0.081298
  12 C :   -0.124661
  13 C :   -0.340847
  14 C :   -0.058538
  15 C :   -0.127216
  16 C :   -0.308919
  17 C :   -0.250302
  18 C :   -0.336135
  19 C :    0.554277
  20 O :   -0.489636
  21 N :   -0.604284
  22 C :   -0.131468
  23 C :   -0.006405
  24 O :   -0.626105
  25 H :    0.138534
  26 H :    0.135082
  27 H :    0.137324
  28 H :    0.123258
  29 H :    0.124945
  30 H :    0.119190
  31 H :    0.147245
  32 H :    0.123480
  33 H :    0.124648
  34 H :    0.126295
  35 H :    0.133048
  36 H :    0.122872
  37 H :    0.124348
  38 H :    0.138639
  39 H :    0.151691
  40 H :    0.123157
  41 H :    0.125243
  42 H :    0.172163
  43 H :    0.147622
  44 H :    0.129359
  45 H :    0.120084
  46 H :    0.142133
  47 H :    0.145517
  48 H :    0.125435
  49 H :    0.107341
  50 H :    0.139962
  51 H :    0.144220
  52 H :    0.139017
  53 H :    0.152606
  54 H :    0.136908
  55 H :    0.171264
  56 H :    0.323425
  57 H :    0.145666
  58 H :    0.179681
  59 H :    0.101994
  60 H :    0.148388
  61 H :    0.397333
Sum of atomic charges:    0.0000000

LOEWDIN ATOMIC CHARGES
----------------------
   0 C :   -0.358283
   1 C :   -0.229703
   2 C :   -0.233138
   3 C :   -0.222636
   4 C :   -0.228268
   5 C :   -0.149839
   6 C :   -0.132982
   7 C :   -0.232818
   8 C :   -0.142330
   9 C :   -0.142236
  10 C :   -0.240394
  11 C :   -0.133323
  12 C :   -0.148759
  13 C :   -0.227791
  14 C :   -0.125819
  15 C :   -0.160497
  16 C :   -0.239918
  17 C :   -0.212143
  18 C :   -0.248849
  19 C :    0.142022
  20 O :   -0.301133
  21 N :   -0.245611
  22 C :   -0.161473
  23 C :   -0.117726
  24 O :   -0.411315
  25 H :    0.120017
  26 H :    0.119948
  27 H :    0.119767
  28 H :    0.113288
  29 H :    0.113736
  30 H :    0.112795
  31 H :    0.124043
  32 H :    0.114142
  33 H :    0.115148
  34 H :    0.119690
  35 H :    0.121455
  36 H :    0.124587
  37 H :    0.126874
  38 H :    0.128334
  39 H :    0.133539
  40 H :    0.125278
  41 H :    0.125557
  42 H :    0.142940
  43 H :    0.133349
  44 H :    0.128259
  45 H :    0.123003
  46 H :    0.129214
  47 H :    0.131529
  48 H :    0.127737
  49 H :    0.115635
  50 H :    0.123101
  51 H :    0.128975
  52 H :    0.122003
  53 H :    0.128784
  54 H :    0.123184
  55 H :    0.148116
  56 H :    0.247872
  57 H :    0.128249
  58 H :    0.141439
  59 H :    0.091688
  60 H :    0.115572
  61 H :    0.316115

  Mayer bond orders larger than 0.100000
B(  0-C ,  1-C ) :   1.0163 B(  0-C , 25-H ) :   0.9519 B(  0-C , 26-H ) :   0.9532
B(  0-C , 27-H ) :   0.9529 B(  1-C ,  2-C ) :   1.0112 B(  1-C , 28-H ) :   0.9435
B(  1-C , 29-H ) :   0.9437 B(  2-C ,  3-C ) :   1.0120 B(  2-C , 30-H ) :   0.9396
B(  2-C , 31-H ) :   0.9234 B(  3-C ,  4-C ) :   0.9850 B(  3-C , 32-H ) :   0.9392
B(  3-C , 33-H ) :   0.9380 B(  4-C ,  5-C ) :   1.0142 B(  4-C , 34-H ) :   0.9355
B(  4-C , 35-H ) :   0.9376 B(  5-C ,  6-C ) :   1.9106 B(  5-C , 36-H ) :   0.9273
B(  6-C ,  7-C ) :   0.9967 B(  6-C , 37-H ) :   0.9277 B(  7-C ,  8-C ) :   0.9922
B(  7-C , 38-H ) :   0.9280 B(  7-C , 39-H ) :   0.9234 B(  8-C ,  9-C ) :   1.9577
B(  8-C , 40-H ) :   0.9317 B(  9-C , 10-C ) :   1.0075 B(  9-C , 41-H ) :   0.9325
B( 10-C , 11-C ) :   0.9901 B( 10-C , 42-H ) :   0.9061 B( 10-C , 43-H ) :   0.9306
B( 11-C , 12-C ) :   1.9226 B( 11-C , 44-H ) :   0.9288 B( 12-C , 13-C ) :   0.9823
B( 12-C , 45-H ) :   0.9330 B( 13-C , 14-C ) :   1.0050 B( 13-C , 46-H ) :   0.9265
B( 13-C , 47-H ) :   0.9346 B( 14-C , 15-C ) :   1.9185 B( 14-C , 48-H ) :   0.9277
B( 15-C , 16-C ) :   0.9952 B( 15-C , 49-H ) :   0.9309 B( 16-C , 17-C ) :   1.0037
B( 16-C , 50-H ) :   0.9282 B( 16-C , 51-H ) :   0.9361 B( 17-C , 18-C ) :   0.9974
B( 17-C , 52-H ) :   0.9332 B( 17-C , 53-H ) :   0.9296 B( 18-C , 19-C ) :   0.9740
B( 18-C , 54-H ) :   0.9168 B( 18-C , 55-H ) :   0.9275 B( 19-C , 20-O ) :   1.8161
B( 19-C , 21-N ) :   1.0662 B( 21-N , 22-C ) :   0.9249 B( 21-N , 56-H ) :   0.8290
B( 22-C , 23-C ) :   0.9926 B( 22-C , 57-H ) :   0.9373 B( 22-C , 58-H ) :   0.9224
B( 23-C , 24-O ) :   0.9560 B( 23-C , 59-H ) :   0.9281 B( 23-C , 60-H ) :   0.9205
B( 24-O , 61-H ) :   0.7913

FINAL SINGLE POINT ENERGY     -1064.999027994529

DIPOLE MOMENT
-------------

Method             : SCF
Type of density    : Electron Density
Multiplicity       :   1
Irrep              :   0
Energy             : -1064.9990279945293423 Eh
Relativity type    :
Basis              : AO
                                X                 Y                 Z
Electronic contribution:     31.979114604      -0.030034155      -6.161141457
Nuclear contribution   :    -32.992171491      -1.038948484       6.914250194
                        -----------------------------------------
Total Dipole Moment    :     -1.013056887      -1.068982639       0.753108737
                        -----------------------------------------
Magnitude (a.u.)       :      1.654140535
Magnitude (Debye)      :      4.204491104

Rotational constants in cm-1:             0.013120             0.001851             0.001823
Rotational constants in MHz :           393.315922            55.489617            54.659021

                             ****ORCA TERMINATED NORMALLY****
TOTAL RUN TIME: 0 days 0 hours 5 minutes 57 seconds 475 msec
