                         Program Version 6.0.0  -   RELEASE  -
|  1> ! B3LYP 6-31G* SP
|  2>
|  3> * xyz 0 1
|  4> C -0.6269 -2.3441 -1.9161
|  5> O -1.5321 -1.4456 -1.2811
|  6> C -1.2054 -0.1429 -0.8729
|  7> C 0.0804 0.3984 -1.0642
|  8> C 0.3832 1.6957 -0.6263
|  9> C 1.7800 2.2401 -0.7757
| 10> N 2.6581 1.6772 0.2604
| 11> C 2.6957 2.3229 1.5825
| 12> C 3.8133 3.3670 1.6594
| 13> N 5.1284 2.7377 1.5713
| 14> C 3.3850 0.4557 0.0040
| 15> N 3.5036 -0.0895 -1.2349
| 16> C 4.2182 -1.2430 -1.1985
| 17> C 4.4998 -2.0334 -2.3159
| 18> C 5.2508 -3.2097 -2.1407
| 19> C 5.7061 -3.5806 -0.8594
| 20> C 5.4153 -2.7789 0.2576
| 21> C 4.6704 -1.6188 0.0565
| 22> S 4.1694 -0.4820 1.1848
| 23> C -0.6104 2.4571 0.0042
| 24> C -1.8925 1.9343 0.1832
| 25> C -2.1985 0.6307 -0.2518
| 26> O -3.4738 0.0680 -0.0848
| 27> C -4.5886 0.7458 0.4903
| 28> C -5.7803 -0.1686 0.4822
| 29> C -6.1204 -0.8965 1.6364
| 30> C -7.2110 -1.7712 1.6201
| 31> C -7.9600 -1.9375 0.4500
| 32> C -7.6174 -1.2319 -0.7069
| 33> C -6.5298 -0.3522 -0.6961
| 34> F -6.2046 0.3144 -1.8341
| 35> H -1.1447 -3.3069 -2.1079
| 36> H -0.2888 -1.9223 -2.8869
| 37> H 0.2477 -2.5396 -1.2580
| 38> H 0.8506 -0.1860 -1.5451
| 39> H 1.7726 3.3499 -0.6999
| 40> H 2.1694 2.0139 -1.7910
| 41> H 2.8114 1.5732 2.3933
| 42> H 1.7299 2.8364 1.7774
| 43> H 3.7289 3.8972 2.6343
| 44> H 3.6916 4.1202 0.8490
| 45> H 5.8413 3.4564 1.8339
| 46> H 5.3126 2.5002 0.5694
| 47> H 4.1465 -1.7482 -3.2988
| 48> H 5.4782 -3.8359 -2.9951
| 49> H 6.2848 -4.4873 -0.7360
| 50> H 5.7587 -3.0573 1.2462
| 51> H -0.3903 3.4558 0.3648
| 52> H -2.6362 2.5502 0.6715
| 53> H -4.3464 1.0538 1.5315
| 54> H -4.8157 1.6619 -0.0976
| 55> H -5.5417 -0.7882 2.5472
| 56> H -7.4712 -2.3257 2.5133
| 57> H -8.8015 -2.6184 0.4377
| 58> H -8.1936 -1.3719 -1.6142
| 59> *
| 60>
| 61>                          ****END OF INPUT****

CARTESIAN COORDINATES (ANGSTROEM)
---------------------------------
  C     -0.626900   -2.344100   -1.916100
  O     -1.532100   -1.445600   -1.281100
  C     -1.205400   -0.142900   -0.872900
  C      0.080400    0.398400   -1.064200
  C      0.383200    1.695700   -0.626300
  C      1.780000    2.240100   -0.775700
  N      2.658100    1.677200    0.260400
  C      2.695700    2.322900    1.582500
  C      3.813300    3.367000    1.659400
  N      5.128400    2.737700    1.571300
  C      3.385000    0.455700    0.004000
  N      3.503600   -0.089500   -1.234900
  C      4.218200   -1.243000   -1.198500
  C      4.499800   -2.033400   -2.315900
  C      5.250800   -3.209700   -2.140700
  C      5.706100   -3.580600   -0.859400
  C      5.415300   -2.778900    0.257600
  C      4.670400   -1.618800    0.056500
  S      4.169400   -0.482000    1.184800
  C     -0.610400    2.457100    0.004200
  C     -1.892500    1.934300    0.183200
  C     -2.198500    0.630700   -0.251800
  O     -3.473800    0.068000   -0.084800
  C     -4.588600    0.745800    0.490300
  C     -5.780300   -0.168600    0.482200
  C     -6.120400   -0.896500    1.636400
  C     -7.211000   -1.771200    1.620100
  C     -7.960000   -1.937500    0.450000
  C     -7.617400   -1.231900   -0.706900
  C     -6.529800   -0.352200   -0.696100
  F     -6.204600    0.314400   -1.834100
  H     -1.144700   -3.306900   -2.107900
  H     -0.288800   -1.922300   -2.886900
  H      0.247700   -2.539600   -1.258000
  H      0.850600   -0.186000   -1.545100
  H      1.772600    3.349900   -0.699900
  H      2.169400    2.013900   -1.791000
  H      2.811400    1.573200    2.393300
  H      1.729900    2.836400    1.777400
  H      3.728900    3.897200    2.634300
  H      3.691600    4.120200    0.849000
  H      5.841300    3.456400    1.833900
  H      5.312600    2.500200    0.569400
  H      4.146500   -1.748200   -3.298800
  H      5.478200   -3.835900   -2.995100
  H      6.284800   -4.487300   -0.736000
  H      5.758700   -3.057300    1.246200
  H     -0.390300    3.455800    0.364800
  H     -2.636200    2.550200    0.671500
  H     -4.346400    1.053800    1.531500
  H     -4.815700    1.661900   -0.097600
  H     -5.541700   -0.788200    2.547200
  H     -7.471200   -2.325700    2.513300
  H     -8.801500   -2.618400    0.437700
  H     -8.193600   -1.371900   -1.614200

 Total Charge           Charge          ....    0
 Multiplicity           Mult            ....    1
 Number of Electrons    NEL             ....  230
 Basis Dimension        Dim             ....  486

ORBITAL ENERGIES
----------------

  NO   OCC          E(Eh)            E(eV)
   0   2.0000     -88.879637     -2418.5379
   1   2.0000     -24.698789      -672.0882
   2   2.0000     -19.153976      -521.2062
   3   2.0000     -19.151020      -521.1257
   4   2.0000     -14.360676      -390.7739
   5   2.0000     -14.310121      -389.3982
   6   2.0000     -14.305519      -389.2730
   7   2.0000     -10.275939      -279.6225
   8   2.0000     -10.268974      -279.4330
   9   2.0000     -10.237708      -278.5822
  10   2.0000     -10.237213      -278.5687
  11   2.0000     -10.236639      -278.5531
  12   2.0000     -10.223642      -278.1994
  13   2.0000     -10.219663      -278.0912
  14   2.0000     -10.215705      -277.9835
  15   2.0000     -10.207544      -277.7614
  16   2.0000     -10.198513      -277.5156
  17   2.0000     -10.196986      -277.4741
  18   2.0000     -10.194203      -277.3984
  19   2.0000     -10.191829      -277.3338
  20   2.0000     -10.191648      -277.3288
  21   2.0000     -10.188835      -277.2523
  22   2.0000     -10.184735      -277.1407
  23   2.0000     -10.181321      -277.0478
  24   2.0000     -10.178402      -276.9684
  25   2.0000     -10.176345      -276.9124
  26   2.0000     -10.173236      -276.8278
  27   2.0000     -10.172923      -276.8193
  28   2.0000     -10.172486      -276.8074
  29   2.0000     -10.169825      -276.7350
  30   2.0000     -10.169522      -276.7268
  31   2.0000      -7.957724      -216.5407
  32   2.0000      -5.921001      -161.1186
  33   2.0000      -5.917095      -161.0123
  34   2.0000      -5.913754      -160.9214
  35   2.0000      -1.210141       -32.9296
  36   2.0000      -1.039422       -28.2841
  37   2.0000      -1.022523       -27.8243
  38   2.0000      -0.967618       -26.3302
  39   2.0000      -0.921250       -25.0685
  40   2.0000      -0.874874       -23.8065
  41   2.0000      -0.858722       -23.3670
  42   2.0000      -0.840982       -22.8843
  43   2.0000      -0.828667       -22.5492
  44   2.0000      -0.800023       -21.7697
  45   2.0000      -0.781123       -21.2554
  46   2.0000      -0.756923       -20.5969
  47   2.0000      -0.745294       -20.2805
  48   2.0000      -0.741725       -20.1834
  49   2.0000      -0.736336       -20.0367
  50   2.0000      -0.718455       -19.5502
  51   2.0000      -0.713284       -19.4095
  52   2.0000      -0.687278       -18.7018
  53   2.0000      -0.682376       -18.5684
  54   2.0000      -0.655007       -17.8237
  55   2.0000      -0.619424       -16.8554
  56   2.0000      -0.615805       -16.7569
  57   2.0000      -0.605570       -16.4784
  58   2.0000      -0.590135       -16.0584
  59   2.0000      -0.585409       -15.9298
  60   2.0000      -0.579553       -15.7704
  61   2.0000      -0.573609       -15.6087
  62   2.0000      -0.549106       -14.9419
  63   2.0000      -0.534078       -14.5330
  64   2.0000      -0.524147       -14.2628
  65   2.0000      -0.505657       -13.7596
  66   2.0000      -0.501134       -13.6365
  67   2.0000      -0.495869       -13.4933
  68   2.0000      -0.491239       -13.3673
  69   2.0000      -0.487949       -13.2778
  70   2.0000      -0.483086       -13.1454
  71   2.0000      -0.473719       -12.8905
  72   2.0000      -0.470981       -12.8160
  73   2.0000      -0.457442       -12.4476
  74   2.0000      -0.452597       -12.3158
  75   2.0000      -0.449454       -12.2303
  76   2.0000      -0.446345       -12.1457
  77   2.0000      -0.445434       -12.1209
  78   2.0000      -0.444366       -12.0918
  79   2.0000      -0.436576       -11.8798
  80   2.0000      -0.433382       -11.7929
  81   2.0000      -0.423486       -11.5236
  82   2.0000      -0.422793       -11.5048
  83   2.0000      -0.419855       -11.4248
  84   2.0000      -0.417067       -11.3490
  85   2.0000      -0.411300       -11.1920
  86   2.0000      -0.395910       -10.7733
  87   2.0000      -0.393538       -10.7087
  88   2.0000      -0.385617       -10.4932
  89   2.0000      -0.380809       -10.3623
  90   2.0000      -0.376103       -10.2343
  91   2.0000      -0.374586       -10.1930
  92   2.0000      -0.370809       -10.0902
  93   2.0000      -0.362668        -9.8687
  94   2.0000      -0.362024        -9.8512
  95   2.0000      -0.353540        -9.6203
  96   2.0000      -0.351891        -9.5754
  97   2.0000      -0.347611        -9.4590
  98   2.0000      -0.342934        -9.3317
  99   2.0000      -0.332493        -9.0476
 100   2.0000      -0.326575        -8.8866
 101   2.0000      -0.311643        -8.4802
 102   2.0000      -0.302655        -8.2357
 103   2.0000      -0.300247        -8.1701
 104   2.0000      -0.298260        -8.1161
 105   2.0000      -0.290328        -7.9002
 106   2.0000      -0.264778        -7.2050
 107   2.0000      -0.256640        -6.9835
 108   2.0000      -0.254454        -6.9240
 109   2.0000      -0.241025        -6.5586
 110   2.0000      -0.237954        -6.4751
 111   2.0000      -0.226050        -6.1511
 112   2.0000      -0.214094        -5.8258
 113   2.0000      -0.197628        -5.3777
 114   2.0000      -0.186952        -5.0872
 115   0.0000      -0.012838        -0.3493
 116   0.0000      -0.010045        -0.2733
 117   0.0000       0.000872         0.0237
 118   0.0000       0.009474         0.2578
 119   0.0000       0.013583         0.3696

MULLIKEN ATOMIC CHARGES
-----------------------
   0 C :   -0.194844
   1 O :   -0.504159
   2 C :    0.330627
   3 C :   -0.262735
   4 C :    0.171189
   5 C :   -0.259481
   6 N :   -0.407430
   7 C :   -0.152535
   8 C :   -0.127725
   9 N :   -0.701975
  10 C :    0.229882
  11 N :   -0.474824
  12 C :    0.258073
  13 C :   -0.156713
  14 C :   -0.148120
  15 C :   -0.124740
  16 C :   -0.179030
  17 C :   -0.126378
  18 S :    0.234812
  19 C :   -0.190403
  20 C :   -0.207594
  21 C :    0.330875
  22 O :   -0.504436
  23 C :   -0.089949
  24 C :    0.046651
  25 C :   -0.147078
  26 C :   -0.135268
  27 C :   -0.110801
  28 C :   -0.206971
  29 C :    0.384520
  30 F :   -0.311236
  31 H :    0.165783
  32 H :    0.145969
  33 H :    0.152291
  34 H :    0.165662
  35 H :    0.148066
  36 H :    0.189097
  37 H :    0.174770
  38 H :    0.151659
  39 H :    0.135125
  40 H :    0.119426
  41 H :    0.295919
  42 H :    0.306595
  43 H :    0.129730
  44 H :    0.124401
  45 H :    0.123587
  46 H :    0.135086
  47 H :    0.112900
  48 H :    0.133551
  49 H :    0.131278
  50 H :    0.142610
  51 H :    0.139400
  52 H :    0.131946
  53 H :    0.138184
  54 H :    0.144758
Sum of atomic charges:   -0.0000000

LOEWDIN ATOMIC CHARGES
----------------------
   0 C :   -0.197864
   1 O :   -0.186932
   2 C :    0.076006
   3 C :   -0.167277
   4 C :   -0.041181
   5 C :   -0.144609
   6 N :   -0.097251
   7 C :   -0.156964
   8 C :   -0.181127
   9 N :   -0.472555
  10 C :   -0.057312
  11 N :   -0.220172
  12 C :   -0.013381
  13 C :   -0.137641
  14 C :   -0.134844
  15 C :   -0.145446
  16 C :   -0.136748
  17 C :   -0.193966
  18 S :    0.359613
  19 C :   -0.154866
  20 C :   -0.171509
  21 C :    0.072671
  22 O :   -0.179414
  23 C :   -0.078178
  24 C :   -0.057108
  25 C :   -0.112752
  26 C :   -0.138266
  27 C :   -0.117227
  28 C :   -0.155772
  29 C :    0.128949
  30 F :   -0.100088
  31 H :    0.133717
  32 H :    0.115884
  33 H :    0.118780
  34 H :    0.150493
  35 H :    0.124789
  36 H :    0.149852
  37 H :    0.140115
  38 H :    0.129728
  39 H :    0.119772
  40 H :    0.099286
  41 H :    0.225125
  42 H :    0.228715
  43 H :    0.137191
  44 H :    0.130078
  45 H :    0.130409
  46 H :    0.135568
  47 H :    0.124031
  48 H :    0.135650
  49 H :    0.113282
  50 H :    0.119499
  51 H :    0.137814
  52 H :    0.133421
  53 H :    0.136614
  54 H :    0.143394

  Mayer bond orders larger than 0.100000
B(  0-C ,  1-O ) :   0.9191 B(  0-C , 31-H ) :   0.9452 B(  0-C , 32-H ) :   0.9308
B(  0-C , 33-H ) :   0.9288 B(  1-O ,  2-C ) :   0.9326 B(  2-C ,  3-C ) :   1.3722
B(  2-C , 21-C ) :   1.3112 B(  3-C ,  4-C ) :   1.4126 B(  3-C , 34-H ) :   0.8923
B(  4-C ,  5-C ) :   0.9508 B(  4-C , 19-C ) :   1.4431 B(  5-C ,  6-N ) :   0.9431
B(  5-C , 35-H ) :   0.9291 B(  5-C , 36-H ) :   0.9114 B(  6-N ,  7-C ) :   0.9563
B(  6-N , 10-C ) :   1.0362 B(  7-C ,  8-C ) :   0.9793 B(  7-C , 37-H ) :   0.9164
B(  7-C , 38-H ) :   0.9241 B(  8-C ,  9-N ) :   1.0127 B(  8-C , 39-H ) :   0.9359
B(  8-C , 40-H ) :   0.9314 B(  9-N , 41-H ) :   0.8642 B(  9-N , 42-H ) :   0.8516
B( 10-C , 11-N ) :   1.4745 B( 10-C , 18-S ) :   1.1037 B( 11-N , 12-C ) :   1.1838
B( 12-C , 13-C ) :   1.3543 B( 12-C , 17-C ) :   1.3077 B( 13-C , 14-C ) :   1.4678
B( 13-C , 43-H ) :   0.9218 B( 14-C , 15-C ) :   1.4055 B( 14-C , 44-H ) :   0.9312
B( 15-C , 16-C ) :   1.4736 B( 15-C , 45-H ) :   0.9320 B( 16-C , 17-C ) :   1.3531
B( 16-C , 46-H ) :   0.9264 B( 17-C , 18-S ) :   1.0317 B( 19-C , 20-C ) :   1.4057
B( 19-C , 47-H ) :   0.9240 B( 20-C , 21-C ) :   1.3922 B( 20-C , 48-H ) :   0.9179
B( 21-C , 22-O ) :   0.9289 B( 22-O , 23-C ) :   0.9082 B( 23-C , 24-C ) :   0.9842
B( 23-C , 49-H ) :   0.9120 B( 23-C , 50-H ) :   0.9073 B( 24-C , 25-C ) :   1.4314
B( 24-C , 29-C ) :   1.3554 B( 25-C , 26-C ) :   1.4450 B( 25-C , 51-H ) :   0.9240
B( 26-C , 27-C ) :   1.4524 B( 26-C , 52-H ) :   0.9289 B( 27-C , 28-C ) :   1.4344
B( 27-C , 53-H ) :   0.9298 B( 28-C , 29-C ) :   1.3866 B( 28-C , 54-H ) :   0.9197
B( 29-C , 30-F ) :   0.9357

FINAL SINGLE POINT ENERGY     -1740.798516112047

DIPOLE MOMENT
-------------

Method             : SCF
Type of density    : Electron Density
Multiplicity       :   1
Irrep              :   0
Energy             : -1740.7985161120466273 Eh
Relativity type    :
Basis              : AO
                                X                 Y                 Z
Electronic contribution:    -12.905667507      -5.562547108      -4.650768312
Nuclear contribution   :     12.678750602       6.282863351       5.425175607
                        -----------------------------------------
Total Dipole Moment    :     -0.226916905       0.720316243       0.774407296
                        -----------------------------------------
Magnitude (a.u.)       :      1.081690081
Magnitude (Debye)      :      2.749437684

Rotational constants in cm-1:             0.008117             0.001829             0.001632
Rotational constants in MHz :           243.333395            54.844959            48.932768

                             ****ORCA TERMINATED NORMALLY****
TOTAL RUN TIME: 0 days 0 hours 5 minutes 44 seconds 233 msec
