                         Program Version 6.0.0  -   RELEASE  -
|  1> ! B3LYP def2-TZVP SP
|  2>
|  3> * xyz 0 1
|  4> C -2.1029 3.5615 0.6036
|  5> N -2.7043 2.2365 0.3527
|  6> C -2.2287 1.4605 -0.6680
|  7> O -1.2881 1.9039 -1.3794
|  8> C -2.7800 0.1806 -0.9207
|  9> C -2.3455 -0.6760 -1.9916
| 10> C -1.2270 -0.3426 -2.9653
| 11> C 0.1230 -0.4962 -2.3236
| 12> O 0.9481 0.4549 -2.3890
| 13> N 0.4858 -1.7336 -1.6904
| 14> C 1.6802 -1.9099 -0.9189
| 15> N 2.5599 -0.9228 -0.6474
| 16> C 3.5989 -1.3557 0.1210
| 17> C 4.6894 -0.4332 0.5349
| 18> C 4.7809 0.8465 -0.0469
| 19> C 5.7969 1.7294 0.3302
| 20> C 6.7335 1.3508 1.2943
| 21> I 8.2648 2.6856 1.8614
| 22> C 6.6525 0.0876 1.8843
| 23> C 5.6387 -0.8000 1.5108
| 24> C 3.5356 -2.7124 0.4608
| 25> S 2.1413 -3.3631 -0.2204
| 26> C -2.9561 -1.9294 -2.1575
| 27> C -3.9713 -2.3482 -1.3151
| 28> C -4.4015 -1.5338 -0.2793
| 29> C -3.8215 -0.2624 -0.0538
| 30> N -4.2447 0.5338 0.9907
| 31> C -5.3106 0.0687 1.9061
| 32> C -3.6758 1.7660 1.1921
| 33> O -4.0480 2.4797 2.1673
| 34> H -1.7734 4.0435 -0.3417
| 35> H -1.2301 3.4523 1.2812
| 36> H -2.8343 4.2617 1.0605
| 37> H -1.3660 0.6716 -3.3934
| 38> H -1.2540 -1.0183 -3.8476
| 39> H -0.1571 -2.5513 -1.7834
| 40> H 4.0708 1.1657 -0.7994
| 41> H 5.8553 2.7080 -0.1284
| 42> H 7.3737 -0.2069 2.6358
| 43> H 5.5994 -1.7622 2.0005
| 44> H 4.2518 -3.2732 1.0436
| 45> H -2.6404 -2.5991 -2.9484
| 46> H -4.4279 -3.3187 -1.4638
| 47> H -5.1948 -1.9234 0.3417
| 48> H -5.5557 0.7968 2.7061
| 49> H -4.9925 -0.8674 2.4129
| 50> H -6.2485 -0.1059 1.3369
| 51> *
| 52>
| 53>                          ****END OF INPUT****

CARTESIAN COORDINATES (ANGSTROEM)
---------------------------------
  C     -2.102900    3.561500    0.603600
  N     -2.704300    2.236500    0.352700
  C     -2.228700    1.460500   -0.668000
  O     -1.288100    1.903900   -1.379400
  C     -2.780000    0.180600   -0.920700
  C     -2.345500   -0.676000   -1.991600
  C     -1.227000   -0.342600   -2.965300
  C      0.123000   -0.496200   -2.323600
  O      0.948100    0.454900   -2.389000
  N      0.485800   -1.733600   -1.690400
  C      1.680200   -1.909900   -0.918900
  N      2.559900   -0.922800   -0.647400
  C      3.598900   -1.355700    0.121000
  C      4.689400   -0.433200    0.534900
  C      4.780900    0.846500   -0.046900
  C      5.796900    1.729400    0.330200
  C      6.733500    1.350800    1.294300
  I      8.264800    2.685600    1.861400
  C      6.652500    0.087600    1.884300
  C      5.638700   -0.800000    1.510800
  C      3.535600   -2.712400    0.460800
  S      2.141300   -3.363100   -0.220400
  C     -2.956100   -1.929400   -2.157500
  C     -3.971300   -2.348200   -1.315100
  C     -4.401500   -1.533800   -0.279300
  C     -3.821500   -0.262400   -0.053800
  N     -4.244700    0.533800    0.990700
  C     -5.310600    0.068700    1.906100
  C     -3.675800    1.766000    1.192100
  O     -4.048000    2.479700    2.167300
  H     -1.773400    4.043500   -0.341700
  H     -1.230100    3.452300    1.281200
  H     -2.834300    4.261700    1.060500
  H     -1.366000    0.671600   -3.393400
  H     -1.254000   -1.018300   -3.847600
  H     -0.157100   -2.551300   -1.783400
  H      4.070800    1.165700   -0.799400
  H      5.855300    2.708000   -0.128400
  H      7.373700   -0.206900    2.635800
  H      5.599400   -1.762200    2.000500
  H      4.251800   -3.273200    1.043600
  H     -2.640400   -2.599100   -2.948400
  H     -4.427900   -3.318700   -1.463800
  H     -5.194800   -1.923400    0.341700
  H     -5.555700    0.796800    2.706100
  H     -4.992500   -0.867400    2.412900
  H     -6.248500   -0.105900    1.336900

 Total Charge           Charge          ....    0
 Multiplicity           Mult            ....    1
 Number of Electrons    NEL             ....  236
 Basis Dimension        Dim             .... 1057

ORBITAL ENERGIES
----------------

  NO   OCC          E(Eh)            E(eV)
   0   2.0000     -88.900777     -2419.1131
   1   2.0000     -19.096739      -519.6487
   2   2.0000     -19.093662      -519.5650
   3   2.0000     -19.092031      -519.5206
   4   2.0000     -14.397759      -391.7829
   5   2.0000     -14.388098      -391.5201
   6   2.0000     -14.380218      -391.3056
   7   2.0000     -14.310523      -389.4091
   8   2.0000     -10.321628      -280.8658
   9   2.0000     -10.290467      -280.0178
  10   2.0000     -10.287418      -279.9349
  11   2.0000     -10.281330      -279.7692
  12   2.0000     -10.261943      -279.2417
  13   2.0000     -10.234055      -278.4828
  14   2.0000     -10.228608      -278.3346
  15   2.0000     -10.218692      -278.0648
  16   2.0000     -10.218165      -278.0504
  17   2.0000     -10.216424      -278.0030
  18   2.0000     -10.213037      -277.9109
  19   2.0000     -10.208460      -277.7863
  20   2.0000     -10.203767      -277.6586
  21   2.0000     -10.201008      -277.5835
  22   2.0000     -10.200736      -277.5761
  23   2.0000     -10.198189      -277.5068
  24   2.0000     -10.193722      -277.3853
  25   2.0000     -10.184674      -277.1391
  26   2.0000     -10.184054      -277.1222
  27   2.0000     -10.180708      -277.0312
  28   2.0000     -10.175958      -276.9019
  29   2.0000      -7.978446      -217.1046
  30   2.0000      -6.835572      -186.0054
  31   2.0000      -5.940508      -161.6494
  32   2.0000      -5.936668      -161.5449
  33   2.0000      -5.935640      -161.5170
  34   2.0000      -4.860601      -132.2637
  35   2.0000      -4.848146      -131.9248
  36   2.0000      -4.847704      -131.9127
  37   2.0000      -1.908218       -51.9252
  38   2.0000      -1.904599       -51.8268
  39   2.0000      -1.904397       -51.8213
  40   2.0000      -1.893691       -51.5300
  41   2.0000      -1.893679       -51.5296
  42   2.0000      -1.077056       -29.3082
  43   2.0000      -1.030241       -28.0343
  44   2.0000      -1.019289       -27.7363
  45   2.0000      -0.981355       -26.7040
  46   2.0000      -0.974210       -26.5096
  47   2.0000      -0.947231       -25.7755
  48   2.0000      -0.916815       -24.9478
  49   2.0000      -0.884009       -24.0551
  50   2.0000      -0.863430       -23.4951
  51   2.0000      -0.812588       -22.1117
  52   2.0000      -0.809848       -22.0371
  53   2.0000      -0.799279       -21.7495
  54   2.0000      -0.782703       -21.2984
  55   2.0000      -0.755260       -20.5517
  56   2.0000      -0.751332       -20.4448
  57   2.0000      -0.740147       -20.1404
  58   2.0000      -0.726846       -19.7785
  59   2.0000      -0.714361       -19.4387
  60   2.0000      -0.681744       -18.5512
  61   2.0000      -0.666038       -18.1238
  62   2.0000      -0.664177       -18.0732
  63   2.0000      -0.630287       -17.1510
  64   2.0000      -0.623744       -16.9729
  65   2.0000      -0.618776       -16.8378
  66   2.0000      -0.599834       -16.3223
  67   2.0000      -0.588567       -16.0157
  68   2.0000      -0.584349       -15.9009
  69   2.0000      -0.560042       -15.2395
  70   2.0000      -0.549029       -14.9398
  71   2.0000      -0.530311       -14.4305
  72   2.0000      -0.524832       -14.2814
  73   2.0000      -0.514222       -13.9927
  74   2.0000      -0.502179       -13.6650
  75   2.0000      -0.499740       -13.5986
  76   2.0000      -0.489035       -13.3073
  77   2.0000      -0.477845       -13.0028
  78   2.0000      -0.469634       -12.7794
  79   2.0000      -0.469255       -12.7691
  80   2.0000      -0.461311       -12.5529
  81   2.0000      -0.457277       -12.4432
  82   2.0000      -0.455548       -12.3961
  83   2.0000      -0.450249       -12.2519
  84   2.0000      -0.441764       -12.0210
  85   2.0000      -0.437399       -11.9022
  86   2.0000      -0.431246       -11.7348
  87   2.0000      -0.426051       -11.5934
  88   2.0000      -0.423871       -11.5341
  89   2.0000      -0.414608       -11.2821
  90   2.0000      -0.411019       -11.1844
  91   2.0000      -0.409923       -11.1546
  92   2.0000      -0.402342       -10.9483
  93   2.0000      -0.396813       -10.7978
  94   2.0000      -0.395105       -10.7514
  95   2.0000      -0.387645       -10.5483
  96   2.0000      -0.383034       -10.4229
  97   2.0000      -0.381114       -10.3706
  98   2.0000      -0.373318       -10.1585
  99   2.0000      -0.371786       -10.1168
 100   2.0000      -0.366703        -9.9785
 101   2.0000      -0.351305        -9.5595
 102   2.0000      -0.334839        -9.1114
 103   2.0000      -0.331830        -9.0295
 104   2.0000      -0.318588        -8.6692
 105   2.0000      -0.301582        -8.2065
 106   2.0000      -0.287867        -7.8333
 107   2.0000      -0.285779        -7.7764
 108   2.0000      -0.280054        -7.6207
 109   2.0000      -0.278459        -7.5772
 110   2.0000      -0.275908        -7.5079
 111   2.0000      -0.260011        -7.0753
 112   2.0000      -0.259061        -7.0494
 113   2.0000      -0.258617        -7.0373
 114   2.0000      -0.248615        -6.7652
 115   2.0000      -0.242414        -6.5964
 116   2.0000      -0.236125        -6.4253
 117   2.0000      -0.212656        -5.7867
 118   0.0000      -0.076602        -2.0845
 119   0.0000      -0.049919        -1.3584
 120   0.0000      -0.044221        -1.2033
 121   0.0000      -0.029145        -0.7931
 122   0.0000      -0.027803        -0.7566

MULLIKEN ATOMIC CHARGES
-----------------------
   0 C :   -0.262862
   1 N :   -0.075345
   2 C :    0.252422
   3 O :   -0.396589
   4 C :   -0.032412
   5 C :    0.042378
   6 C :   -0.113487
   7 C :    0.269840
   8 O :   -0.307837
   9 N :   -0.291063
  10 C :    0.200385
  11 N :   -0.211710
  12 C :    0.143576
  13 C :    0.134646
  14 C :   -0.216633
  15 C :   -0.170204
  16 C :    0.108674
  17 I :   -0.028846
  18 C :   -0.200228
  19 C :   -0.171350
  20 C :   -0.231137
  21 S :    0.021558
  22 C :   -0.224701
  23 C :   -0.104948
  24 C :   -0.225257
  25 C :    0.155131
  26 N :   -0.054828
  27 C :   -0.317310
  28 C :    0.316661
  29 O :   -0.440424
  30 H :    0.160386
  31 H :    0.134276
  32 H :    0.159216
  33 H :    0.131231
  34 H :    0.124728
  35 H :    0.226775
  36 H :    0.172180
  37 H :    0.128510
  38 H :    0.122018
  39 H :    0.098079
  40 H :    0.140015
  41 H :    0.118779
  42 H :    0.120207
  43 H :    0.131456
  44 H :    0.191720
  45 H :    0.136364
  46 H :    0.135961
Sum of atomic charges:   -0.0000000

LOEWDIN ATOMIC CHARGES
----------------------
   0 C :   -0.242792
   1 N :    0.255770
   2 C :   -0.350715
   3 O :    0.074643
   4 C :   -0.059058
   5 C :   -0.059093
   6 C :   -0.178439
   7 C :   -0.349790
   8 O :    0.086370
   9 N :    0.116478
  10 C :   -0.507317
  11 N :    0.143143
  12 C :   -0.236731
  13 C :   -0.100206
  14 C :   -0.074497
  15 C :   -0.146547
  16 C :   -0.358617
  17 I :    0.330923
  18 C :   -0.152791
  19 C :   -0.094312
  20 C :   -0.405388
  21 S :    0.741557
  22 C :   -0.137288
  23 C :   -0.124208
  24 C :   -0.120337
  25 C :   -0.114003
  26 N :    0.247003
  27 C :   -0.251168
  28 C :   -0.416276
  29 O :    0.002144
  30 H :    0.134922
  31 H :    0.128905
  32 H :    0.133523
  33 H :    0.172095
  34 H :    0.155701
  35 H :    0.196555
  36 H :    0.161208
  37 H :    0.146536
  38 H :    0.144754
  39 H :    0.143356
  40 H :    0.129335
  41 H :    0.145914
  42 H :    0.148717
  43 H :    0.149218
  44 H :    0.142423
  45 H :    0.124338
  46 H :    0.124042

  Mayer bond orders larger than 0.100000
B(  0-C ,  1-N ) :   0.8899 B(  0-C , 30-H ) :   0.9554 B(  0-C , 31-H ) :   0.9667
B(  0-C , 32-H ) :   0.9555 B(  1-N ,  2-C ) :   1.1889 B(  1-N , 28-C ) :   1.1545
B(  2-C ,  3-O ) :   1.9190 B(  2-C ,  4-C ) :   1.0281 B(  4-C ,  5-C ) :   1.3332
B(  4-C , 25-C ) :   1.2760 B(  5-C ,  6-C ) :   0.9001 B(  5-C , 22-C ) :   1.4015
B(  6-C ,  7-C ) :   0.9626 B(  6-C , 33-H ) :   0.9320 B(  6-C , 34-H ) :   0.9607
B(  7-C ,  8-O ) :   2.0722 B(  7-C ,  9-N ) :   1.0348 B(  9-N , 10-C ) :   1.0726
B(  9-N , 35-H ) :   0.8989 B( 10-C , 11-N ) :   1.5367 B( 10-C , 21-S ) :   1.3130
B( 11-N , 12-C ) :   1.3740 B( 11-N , 13-C ) :  -0.1088 B( 12-C , 13-C ) :   0.9484
B( 12-C , 20-C ) :   1.5447 B( 13-C , 14-C ) :   1.3874 B( 13-C , 19-C ) :   1.3366
B( 14-C , 15-C ) :   1.3850 B( 14-C , 36-H ) :   0.9418 B( 15-C , 16-C ) :   1.3453
B( 15-C , 37-H ) :   0.9765 B( 16-C , 17-I ) :   1.0370 B( 16-C , 18-C ) :   1.3609
B( 18-C , 19-C ) :   1.4393 B( 18-C , 38-H ) :   0.9709 B( 19-C , 39-H ) :   0.9577
B( 20-C , 21-S ) :   1.2787 B( 20-C , 40-H ) :   0.9198 B( 22-C , 23-C ) :   1.3864
B( 22-C , 41-H ) :   0.9775 B( 23-C , 24-C ) :   1.4630 B( 23-C , 42-H ) :   0.9662
B( 24-C , 25-C ) :   1.2919 B( 24-C , 43-H ) :   0.9571 B( 25-C , 26-N ) :   1.1714
B( 26-N , 27-C ) :   0.8952 B( 26-N , 28-C ) :   1.1448 B( 27-C , 44-H ) :   0.9531
B( 27-C , 45-H ) :   0.9617 B( 27-C , 46-H ) :   0.9617 B( 28-C , 29-O ) :   1.9185

FINAL SINGLE POINT ENERGY     -1950.785890102586

DIPOLE MOMENT
-------------

Method             : SCF
Type of density    : Electron Density
Multiplicity       :   1
Irrep              :   0
Energy             : -1950.7858901025863361 Eh
Relativity type    :
Basis              : AO
                                X                 Y                 Z
Electronic contribution:    492.112342609     164.165801551     119.595586508
Nuclear contribution   :   -494.566308786    -166.855744928    -119.656709451
                        -----------------------------------------
Total Dipole Moment    :     -2.453966177      -2.689943377      -0.061122943
                        -----------------------------------------
Magnitude (a.u.)       :      3.641631693
Magnitude (Debye)      :      9.256292153

Rotational constants in cm-1:             0.006326             0.001276             0.001150
Rotational constants in MHz :           189.639394            38.251331            34.485578

                             ****ORCA TERMINATED NORMALLY****
TOTAL RUN TIME: 0 days 0 hours 19 minutes 43 seconds 810 msec
