                         Program Version 6.0.0  -   RELEASE  -
|  1> ! B3LYP 6-31G* SP
|  2>
|  3> * xyz 0 1
|  4> O 0.4518 -0.8033 2.0368
|  5> C 0.6879 -0.4838 0.8392
|  6> N -0.3958 -0.4082 -0.1020
|  7> C -1.7985 -0.4200 0.3280
|  8> C -2.1578 0.8823 1.0203
|  9> C -1.6544 2.1154 0.5608
| 10> C -2.0202 3.3078 1.1921
| 11> C -2.8993 3.2852 2.2778
| 12> F -3.2541 4.4431 2.8873
| 13> C -3.4185 2.0696 2.7305
| 14> C -3.0556 0.8742 2.1027
| 15> C -2.7078 -0.6763 -0.8629
| 16> N -3.1159 0.3943 -1.6039
| 17> C -3.9044 0.2710 -2.7004
| 18> C -4.3249 -0.9872 -3.1150
| 19> C -3.9149 -2.1129 -2.4044
| 20> C -3.0792 -1.9868 -1.2774
| 21> C -2.6376 -3.2307 -0.5289
| 22> F -2.9655 -4.3858 -1.2183
| 23> F -3.2595 -3.2732 0.7056
| 24> F -1.2656 -3.2213 -0.3537
| 25> C 2.0824 -0.2041 0.4233
| 26> C 2.3562 0.6421 -0.6680
| 27> C 3.6746 0.9085 -1.0496
| 28> C 4.7397 0.3381 -0.3415
| 29> C 6.0705 0.5873 -0.7018
| 30> C 7.1076 0.0043 0.0294
| 31> C 6.8043 -0.8219 1.1146
| 32> N 5.5084 -1.0554 1.4548
| 33> C 4.4762 -0.5022 0.7617
| 34> C 3.1553 -0.7648 1.1404
| 35> H -0.1800 -0.3403 -1.1224
| 36> H -1.9266 -1.2366 1.0676
| 37> H -0.9830 2.1553 -0.2877
| 38> H -1.6247 4.2501 0.8353
| 39> H -4.1059 2.0524 3.5665
| 40> H -3.4753 -0.0579 2.4605
| 41> H -4.2060 1.1535 -3.2486
| 42> H -4.9605 -1.0910 -3.9850
| 43> H -4.2519 -3.0828 -2.7461
| 44> H 1.5554 1.1215 -1.2152
| 45> H 3.8608 1.5643 -1.8918
| 46> H 6.3065 1.2284 -1.5427
| 47> H 8.1385 0.1911 -0.2420
| 48> H 7.6006 -1.2780 1.6874
| 49> H 2.9669 -1.4151 1.9867
| 50> *
| 51>
| 52>                          ****END OF INPUT****

CARTESIAN COORDINATES (ANGSTROEM)
---------------------------------
  O      0.451800   -0.803300    2.036800
  C      0.687900   -0.483800    0.839200
  N     -0.395800   -0.408200   -0.102000
  C     -1.798500   -0.420000    0.328000
  C     -2.157800    0.882300    1.020300
  C     -1.654400    2.115400    0.560800
  C     -2.020200    3.307800    1.192100
  C     -2.899300    3.285200    2.277800
  F     -3.254100    4.443100    2.887300
  C     -3.418500    2.069600    2.730500
  C     -3.055600    0.874200    2.102700
  C     -2.707800   -0.676300   -0.862900
  N     -3.115900    0.394300   -1.603900
  C     -3.904400    0.271000   -2.700400
  C     -4.324900   -0.987200   -3.115000
  C     -3.914900   -2.112900   -2.404400
  C     -3.079200   -1.986800   -1.277400
  C     -2.637600   -3.230700   -0.528900
  F     -2.965500   -4.385800   -1.218300
  F     -3.259500   -3.273200    0.705600
  F     -1.265600   -3.221300   -0.353700
  C      2.082400   -0.204100    0.423300
  C      2.356200    0.642100   -0.668000
  C      3.674600    0.908500   -1.049600
  C      4.739700    0.338100   -0.341500
  C      6.070500    0.587300   -0.701800
  C      7.107600    0.004300    0.029400
  C      6.804300   -0.821900    1.114600
  N      5.508400   -1.055400    1.454800
  C      4.476200   -0.502200    0.761700
  C      3.155300   -0.764800    1.140400
  H     -0.180000   -0.340300   -1.122400
  H     -1.926600   -1.236600    1.067600
  H     -0.983000    2.155300   -0.287700
  H     -1.624700    4.250100    0.835300
  H     -4.105900    2.052400    3.566500
  H     -3.475300   -0.057900    2.460500
  H     -4.206000    1.153500   -3.248600
  H     -4.960500   -1.091000   -3.985000
  H     -4.251900   -3.082800   -2.746100
  H      1.555400    1.121500   -1.215200
  H      3.860800    1.564300   -1.891800
  H      6.306500    1.228400   -1.542700
  H      8.138500    0.191100   -0.242000
  H      7.600600   -1.278000    1.687400
  H      2.966900   -1.415100    1.986700

 Total Charge           Charge          ....    0
 Multiplicity           Mult            ....    1
 Number of Electrons    NEL             ....  218
 Basis Dimension        Dim             ....  464

ORBITAL ENERGIES
----------------

  NO   OCC          E(Eh)            E(eV)
   0   2.0000     -24.730872      -672.9612
   1   2.0000     -24.727866      -672.8795
   2   2.0000     -24.725920      -672.8265
   3   2.0000     -24.688940      -671.8202
   4   2.0000     -19.107766      -519.9487
   5   2.0000     -14.358551      -390.7160
   6   2.0000     -14.348576      -390.4446
   7   2.0000     -14.325219      -389.8090
   8   2.0000     -10.446907      -284.2748
   9   2.0000     -10.289225      -279.9840
  10   2.0000     -10.259544      -279.1764
  11   2.0000     -10.258561      -279.1496
  12   2.0000     -10.242448      -278.7112
  13   2.0000     -10.237788      -278.5844
  14   2.0000     -10.234625      -278.4983
  15   2.0000     -10.226806      -278.2855
  16   2.0000     -10.224280      -278.2168
  17   2.0000     -10.221515      -278.1416
  18   2.0000     -10.213025      -277.9105
  19   2.0000     -10.207085      -277.7489
  20   2.0000     -10.205143      -277.6960
  21   2.0000     -10.200197      -277.5615
  22   2.0000     -10.200119      -277.5593
  23   2.0000     -10.196660      -277.4652
  24   2.0000     -10.196633      -277.4645
  25   2.0000     -10.191854      -277.3344
  26   2.0000     -10.186295      -277.1832
  27   2.0000     -10.182970      -277.0927
  28   2.0000     -10.182414      -277.0776
  29   2.0000     -10.180125      -277.0153
  30   2.0000     -10.179690      -277.0035
  31   2.0000      -1.289495       -35.0889
  32   2.0000      -1.214606       -33.0511
  33   2.0000      -1.212671       -32.9985
  34   2.0000      -1.202136       -32.7118
  35   2.0000      -1.008472       -27.4419
  36   2.0000      -0.956641       -26.0315
  37   2.0000      -0.936228       -25.4761
  38   2.0000      -0.908448       -24.7201
  39   2.0000      -0.856026       -23.2937
  40   2.0000      -0.847026       -23.0487
  41   2.0000      -0.832355       -22.6495
  42   2.0000      -0.811058       -22.0700
  43   2.0000      -0.805065       -21.9069
  44   2.0000      -0.770604       -20.9692
  45   2.0000      -0.754809       -20.5394
  46   2.0000      -0.743716       -20.2375
  47   2.0000      -0.742997       -20.2180
  48   2.0000      -0.716862       -19.5068
  49   2.0000      -0.695792       -18.9335
  50   2.0000      -0.663775       -18.0622
  51   2.0000      -0.645961       -17.5775
  52   2.0000      -0.638609       -17.3774
  53   2.0000      -0.630420       -17.1546
  54   2.0000      -0.613587       -16.6965
  55   2.0000      -0.609572       -16.5873
  56   2.0000      -0.592228       -16.1153
  57   2.0000      -0.580465       -15.7953
  58   2.0000      -0.578358       -15.7379
  59   2.0000      -0.572642       -15.5824
  60   2.0000      -0.569795       -15.5049
  61   2.0000      -0.546299       -14.8656
  62   2.0000      -0.530873       -14.4458
  63   2.0000      -0.526616       -14.3300
  64   2.0000      -0.520126       -14.1533
  65   2.0000      -0.511482       -13.9181
  66   2.0000      -0.508792       -13.8449
  67   2.0000      -0.490556       -13.3487
  68   2.0000      -0.478795       -13.0287
  69   2.0000      -0.473384       -12.8814
  70   2.0000      -0.462429       -12.5833
  71   2.0000      -0.459313       -12.4986
  72   2.0000      -0.456966       -12.4347
  73   2.0000      -0.447640       -12.1809
  74   2.0000      -0.444387       -12.0924
  75   2.0000      -0.442361       -12.0372
  76   2.0000      -0.437879       -11.9153
  77   2.0000      -0.433176       -11.7873
  78   2.0000      -0.431911       -11.7529
  79   2.0000      -0.429957       -11.6997
  80   2.0000      -0.429185       -11.6787
  81   2.0000      -0.419642       -11.4190
  82   2.0000      -0.417114       -11.3503
  83   2.0000      -0.414735       -11.2855
  84   2.0000      -0.412075       -11.2131
  85   2.0000      -0.409654       -11.1473
  86   2.0000      -0.407326       -11.0839
  87   2.0000      -0.406055       -11.0493
  88   2.0000      -0.399723       -10.8770
  89   2.0000      -0.385121       -10.4797
  90   2.0000      -0.380104       -10.3432
  91   2.0000      -0.373267       -10.1571
  92   2.0000      -0.364582        -9.9208
  93   2.0000      -0.361941        -9.8489
  94   2.0000      -0.360085        -9.7984
  95   2.0000      -0.342206        -9.3119
  96   2.0000      -0.334244        -9.0953
  97   2.0000      -0.332332        -9.0432
  98   2.0000      -0.305819        -8.3217
  99   2.0000      -0.304882        -8.2963
 100   2.0000      -0.286584        -7.7983
 101   2.0000      -0.268618        -7.3095
 102   2.0000      -0.260737        -7.0950
 103   2.0000      -0.250692        -6.8217
 104   2.0000      -0.247539        -6.7359
 105   2.0000      -0.245913        -6.6916
 106   2.0000      -0.243799        -6.6341
 107   2.0000      -0.228253        -6.2111
 108   2.0000      -0.225005        -6.1227
 109   0.0000      -0.068922        -1.8755
 110   0.0000      -0.051454        -1.4001
 111   0.0000      -0.047619        -1.2958
 112   0.0000      -0.033199        -0.9034
 113   0.0000       0.002191         0.0596

MULLIKEN ATOMIC CHARGES
-----------------------
   0 O :   -0.474545
   1 C :    0.517678
   2 N :   -0.639278
   3 C :   -0.070193
   4 C :    0.172397
   5 C :   -0.123083
   6 C :   -0.214618
   7 C :    0.410544
   8 F :   -0.321068
   9 C :   -0.210858
  10 C :   -0.156151
  11 C :    0.181894
  12 N :   -0.393307
  13 C :    0.026308
  14 C :   -0.134235
  15 C :   -0.131567
  16 C :   -0.057792
  17 C :    0.921581
  18 F :   -0.304272
  19 F :   -0.295657
  20 F :   -0.294911
  21 C :    0.075803
  22 C :   -0.180416
  23 C :   -0.207245
  24 C :    0.172898
  25 C :   -0.153481
  26 C :   -0.144907
  27 C :    0.016108
  28 N :   -0.427778
  29 C :    0.210392
  30 C :   -0.170641
  31 H :    0.325744
  32 H :    0.181592
  33 H :    0.123288
  34 H :    0.137764
  35 H :    0.140936
  36 H :    0.137645
  37 H :    0.161836
  38 H :    0.148277
  39 H :    0.168951
  40 H :    0.131407
  41 H :    0.134724
  42 H :    0.142365
  43 H :    0.136580
  44 H :    0.153271
  45 H :    0.176021
Sum of atomic charges:    0.0000000

LOEWDIN ATOMIC CHARGES
----------------------
   0 O :   -0.278203
   1 C :    0.147460
   2 N :   -0.232572
   3 C :   -0.055650
   4 C :   -0.018020
   5 C :   -0.106162
   6 C :   -0.159396
   7 C :    0.115347
   8 F :   -0.106949
   9 C :   -0.158413
  10 C :   -0.117221
  11 C :    0.043896
  12 N :   -0.121177
  13 C :   -0.054861
  14 C :   -0.140279
  15 C :   -0.090349
  16 C :   -0.079414
  17 C :    0.312171
  18 F :   -0.109592
  19 F :   -0.109126
  20 F :   -0.103774
  21 C :   -0.046863
  22 C :   -0.129333
  23 C :   -0.120873
  24 C :   -0.022694
  25 C :   -0.093922
  26 C :   -0.145556
  27 C :   -0.061295
  28 N :   -0.123942
  29 C :    0.013383
  30 C :   -0.074088
  31 H :    0.250393
  32 H :    0.150751
  33 H :    0.131369
  34 H :    0.140124
  35 H :    0.141723
  36 H :    0.136352
  37 H :    0.141184
  38 H :    0.142615
  39 H :    0.150911
  40 H :    0.131844
  41 H :    0.134274
  42 H :    0.138213
  43 H :    0.136927
  44 H :    0.137399
  45 H :    0.163385

  Mayer bond orders larger than 0.100000
B(  0-O ,  1-C ) :   1.8080 B(  1-C ,  2-N ) :   1.0254 B(  1-C , 21-C ) :   0.9810
B(  2-N ,  3-C ) :   0.8978 B(  2-N , 31-H ) :   0.8193 B(  3-C ,  4-C ) :   0.9526
B(  3-C , 11-C ) :   0.9501 B(  3-C , 32-H ) :   0.8905 B(  4-C ,  5-C ) :   1.4178
B(  4-C , 10-C ) :   1.4318 B(  5-C ,  6-C ) :   1.4258 B(  5-C , 33-H ) :   0.9191
B(  6-C ,  7-C ) :   1.3876 B(  6-C , 34-H ) :   0.9222 B(  7-C ,  8-F ) :   0.9150
B(  7-C ,  9-C ) :   1.3990 B(  9-C , 10-C ) :   1.4148 B(  9-C , 35-H ) :   0.9212
B( 10-C , 36-H ) :   0.9225 B( 11-C , 12-N ) :   1.3992 B( 11-C , 16-C ) :   1.3479
B( 12-N , 13-C ) :   1.4201 B( 13-C , 14-C ) :   1.4194 B( 13-C , 37-H ) :   0.9265
B( 14-C , 15-C ) :   1.4328 B( 14-C , 38-H ) :   0.9231 B( 15-C , 16-C ) :   1.4100
B( 15-C , 39-H ) :   0.9160 B( 16-C , 17-C ) :   0.9682 B( 17-C , 18-F ) :   0.9433
B( 17-C , 19-F ) :   0.9524 B( 17-C , 20-F ) :   0.9421 B( 21-C , 22-C ) :   1.3011
B( 21-C , 30-C ) :   1.4502 B( 22-C , 23-C ) :   1.5019 B( 22-C , 40-H ) :   0.9197
B( 23-C , 24-C ) :   1.2869 B( 23-C , 30-C ) :   0.1021 B( 23-C , 41-H ) :   0.9237
B( 24-C , 25-C ) :   1.3027 B( 24-C , 29-C ) :   1.2502 B( 25-C , 26-C ) :   1.5143
B( 25-C , 42-H ) :   0.9242 B( 26-C , 27-C ) :   1.3206 B( 26-C , 43-H ) :   0.9247
B( 27-C , 28-N ) :   1.5174 B( 27-C , 44-H ) :   0.9296 B( 28-N , 29-C ) :   1.2429
B( 29-C , 30-C ) :   1.2693 B( 30-C , 45-H ) :   0.9042

FINAL SINGLE POINT ENERGY     -1523.481571173997

DIPOLE MOMENT
-------------

Method             : SCF
Type of density    : Electron Density
Multiplicity       :   1
Irrep              :   0
Energy             : -1523.4815711739965991 Eh
Relativity type    :
Basis              : AO
                                X                 Y                 Z
Electronic contribution:    -17.337975538     -13.218074225       5.165179849
Nuclear contribution   :     17.357884793      13.471354307      -8.021461548
                        -----------------------------------------
Total Dipole Moment    :      0.019909255       0.253280083      -2.856281699
                        -----------------------------------------
Magnitude (a.u.)       :      2.867558599
Magnitude (Debye)      :      7.288754713

Rotational constants in cm-1:             0.005915             0.002793             0.002228
Rotational constants in MHz :           177.312613            83.736360            66.786539

                             ****ORCA TERMINATED NORMALLY****
TOTAL RUN TIME: 0 days 0 hours 7 minutes 1 seconds 31 msec
