                         Program Version 6.0.0  -   RELEASE  -
|  1> ! B3LYP 6-31G* SP
|  2>
|  3> * xyz 0 1
|  4> C -1.6144 -3.3620 -0.9787
|  5> C -2.5300 -2.2342 -0.6309
|  6> O -3.3916 -2.2801 0.3670
|  7> C -4.0101 -1.1235 0.4069
|  8> C -3.5615 -0.2920 -0.5736
|  9> C -2.5946 -0.9966 -1.2741
| 10> C -1.7261 -0.5245 -2.4062
| 11> C -0.3908 -0.0877 -1.8855
| 12> O 0.6049 -0.8480 -2.0283
| 13> N -0.2592 1.1718 -1.2088
| 14> C 0.9428 1.6059 -0.5606
| 15> N 2.0677 0.8644 -0.4732
| 16> C 3.0542 1.5075 0.2118
| 17> C 4.3829 0.8817 0.4382
| 18> C 5.5153 1.6757 0.6992
| 19> C 6.7661 1.0882 0.9051
| 20> C 6.9201 -0.3048 0.8372
| 21> C 8.2639 -0.9336 1.1082
| 22> F 8.3604 -2.1742 0.5012
| 23> F 9.2805 -0.1323 0.6175
| 24> F 8.4285 -1.0859 2.4723
| 25> C 5.7895 -1.1027 0.6001
| 26> C 4.5360 -0.5193 0.3909
| 27> F 3.4712 -1.3323 0.1718
| 28> C 2.6986 2.7780 0.6773
| 29> S 1.1110 3.0854 0.2122
| 30> C -4.0997 0.9844 -0.6997
| 31> O -3.7119 1.7539 -1.6206
| 32> N -5.0708 1.3792 0.1924
| 33> C -5.6830 2.7128 0.0665
| 34> C -5.5286 0.5011 1.1595
| 35> O -6.4678 0.8491 1.9304
| 36> N -4.9772 -0.7536 1.2879
| 37> C -5.4669 -1.6973 2.3006
| 38> H -0.5647 -3.0679 -0.7720
| 39> H -1.7229 -3.6208 -2.0525
| 40> H -1.8645 -4.2541 -0.3677
| 41> H -1.5942 -1.3510 -3.1369
| 42> H -2.2052 0.3108 -2.9545
| 43> H -1.0872 1.8062 -1.1691
| 44> H 5.4448 2.7545 0.7301
| 45> H 7.6161 1.7252 1.1158
| 46> H 5.8734 -2.1822 0.5805
| 47> H 3.3136 3.4492 1.2605
| 48> H -6.5818 2.6502 -0.5825
| 49> H -5.9766 3.1131 1.0605
| 50> H -4.9709 3.4468 -0.3671
| 51> H -4.7385 -2.5171 2.4796
| 52> H -6.4281 -2.1390 1.9629
| 53> H -5.6228 -1.1783 3.2704
| 54> *
| 55>
| 56>                          ****END OF INPUT****

CARTESIAN COORDINATES (ANGSTROEM)
---------------------------------
  C     -1.614400   -3.362000   -0.978700
  C     -2.530000   -2.234200   -0.630900
  O     -3.391600   -2.280100    0.367000
  C     -4.010100   -1.123500    0.406900
  C     -3.561500   -0.292000   -0.573600
  C     -2.594600   -0.996600   -1.274100
  C     -1.726100   -0.524500   -2.406200
  C     -0.390800   -0.087700   -1.885500
  O      0.604900   -0.848000   -2.028300
  N     -0.259200    1.171800   -1.208800
  C      0.942800    1.605900   -0.560600
  N      2.067700    0.864400   -0.473200
  C      3.054200    1.507500    0.211800
  C      4.382900    0.881700    0.438200
  C      5.515300    1.675700    0.699200
  C      6.766100    1.088200    0.905100
  C      6.920100   -0.304800    0.837200
  C      8.263900   -0.933600    1.108200
  F      8.360400   -2.174200    0.501200
  F      9.280500   -0.132300    0.617500
  F      8.428500   -1.085900    2.472300
  C      5.789500   -1.102700    0.600100
  C      4.536000   -0.519300    0.390900
  F      3.471200   -1.332300    0.171800
  C      2.698600    2.778000    0.677300
  S      1.111000    3.085400    0.212200
  C     -4.099700    0.984400   -0.699700
  O     -3.711900    1.753900   -1.620600
  N     -5.070800    1.379200    0.192400
  C     -5.683000    2.712800    0.066500
  C     -5.528600    0.501100    1.159500
  O     -6.467800    0.849100    1.930400
  N     -4.977200   -0.753600    1.287900
  C     -5.466900   -1.697300    2.300600
  H     -0.564700   -3.067900   -0.772000
  H     -1.722900   -3.620800   -2.052500
  H     -1.864500   -4.254100   -0.367700
  H     -1.594200   -1.351000   -3.136900
  H     -2.205200    0.310800   -2.954500
  H     -1.087200    1.806200   -1.169100
  H      5.444800    2.754500    0.730100
  H      7.616100    1.725200    1.115800
  H      5.873400   -2.182200    0.580500
  H      3.313600    3.449200    1.260500
  H     -6.581800    2.650200   -0.582500
  H     -5.976600    3.113100    1.060500
  H     -4.970900    3.446800   -0.367100
  H     -4.738500   -2.517100    2.479600
  H     -6.428100   -2.139000    1.962900
  H     -5.622800   -1.178300    3.270400

 Total Charge           Charge          ....    0
 Multiplicity           Mult            ....    1
 Number of Electrons    NEL             ....  254
 Basis Dimension        Dim             ....  512

ORBITAL ENERGIES
----------------

  NO   OCC          E(Eh)            E(eV)
   0   2.0000     -88.906983     -2419.2820
   1   2.0000     -24.716696      -672.5755
   2   2.0000     -24.716427      -672.5682
   3   2.0000     -24.713064      -672.4767
   4   2.0000     -24.693410      -671.9418
   5   2.0000     -19.255835      -523.9779
   6   2.0000     -19.120323      -520.2904
   7   2.0000     -19.118743      -520.2474
   8   2.0000     -19.114133      -520.1220
   9   2.0000     -14.420159      -392.3925
  10   2.0000     -14.404691      -391.9716
  11   2.0000     -14.387656      -391.5080
  12   2.0000     -14.321740      -389.7144
  13   2.0000     -10.432721      -283.8888
  14   2.0000     -10.337292      -281.2920
  15   2.0000     -10.304133      -280.3897
  16   2.0000     -10.299276      -280.2575
  17   2.0000     -10.299005      -280.2502
  18   2.0000     -10.287590      -279.9396
  19   2.0000     -10.276861      -279.6476
  20   2.0000     -10.254176      -279.0303
  21   2.0000     -10.244721      -278.7730
  22   2.0000     -10.228887      -278.3422
  23   2.0000     -10.226085      -278.2659
  24   2.0000     -10.214705      -277.9563
  25   2.0000     -10.213869      -277.9335
  26   2.0000     -10.211129      -277.8590
  27   2.0000     -10.202345      -277.6199
  28   2.0000     -10.202240      -277.6171
  29   2.0000     -10.202027      -277.6113
  30   2.0000     -10.201277      -277.5909
  31   2.0000     -10.199494      -277.5424
  32   2.0000     -10.195193      -277.4253
  33   2.0000     -10.193237      -277.3721
  34   2.0000      -7.984678      -217.2741
  35   2.0000      -5.947718      -161.8456
  36   2.0000      -5.943664      -161.7353
  37   2.0000      -5.941512      -161.6768
  38   2.0000      -1.276333       -34.7308
  39   2.0000      -1.205668       -32.8079
  40   2.0000      -1.201805       -32.7028
  41   2.0000      -1.200664       -32.6717
  42   2.0000      -1.186095       -32.2753
  43   2.0000      -1.075279       -29.2598
  44   2.0000      -1.028844       -27.9963
  45   2.0000      -1.017606       -27.6905
  46   2.0000      -0.982084       -26.7239
  47   2.0000      -0.972861       -26.4729
  48   2.0000      -0.947300       -25.7773
  49   2.0000      -0.911307       -24.7979
  50   2.0000      -0.873241       -23.7621
  51   2.0000      -0.856668       -23.3111
  52   2.0000      -0.813544       -22.1377
  53   2.0000      -0.809853       -22.0372
  54   2.0000      -0.796965       -21.6865
  55   2.0000      -0.770771       -20.9738
  56   2.0000      -0.756889       -20.5960
  57   2.0000      -0.750772       -20.4295
  58   2.0000      -0.733956       -19.9720
  59   2.0000      -0.728493       -19.8233
  60   2.0000      -0.711549       -19.3622
  61   2.0000      -0.691210       -18.8088
  62   2.0000      -0.669012       -18.2047
  63   2.0000      -0.636806       -17.3284
  64   2.0000      -0.635264       -17.2864
  65   2.0000      -0.629084       -17.1182
  66   2.0000      -0.616055       -16.7637
  67   2.0000      -0.609328       -16.5807
  68   2.0000      -0.594798       -16.1853
  69   2.0000      -0.582882       -15.8610
  70   2.0000      -0.567538       -15.4435
  71   2.0000      -0.565203       -15.3800
  72   2.0000      -0.564111       -15.3502
  73   2.0000      -0.548035       -14.9128
  74   2.0000      -0.539058       -14.6685
  75   2.0000      -0.534219       -14.5368
  76   2.0000      -0.523400       -14.2424
  77   2.0000      -0.511747       -13.9253
  78   2.0000      -0.498820       -13.5736
  79   2.0000      -0.493179       -13.4201
  80   2.0000      -0.488987       -13.3060
  81   2.0000      -0.485121       -13.2008
  82   2.0000      -0.480070       -13.0634
  83   2.0000      -0.473571       -12.8865
  84   2.0000      -0.466561       -12.6958
  85   2.0000      -0.455272       -12.3886
  86   2.0000      -0.453783       -12.3481
  87   2.0000      -0.452769       -12.3205
  88   2.0000      -0.447277       -12.1710
  89   2.0000      -0.445031       -12.1099
  90   2.0000      -0.443131       -12.0582
  91   2.0000      -0.439793       -11.9674
  92   2.0000      -0.436339       -11.8734
  93   2.0000      -0.427960       -11.6454
  94   2.0000      -0.425197       -11.5702
  95   2.0000      -0.419900       -11.4261
  96   2.0000      -0.417178       -11.3520
  97   2.0000      -0.416980       -11.3466
  98   2.0000      -0.412943       -11.2368
  99   2.0000      -0.410470       -11.1695
 100   2.0000      -0.408952       -11.1282
 101   2.0000      -0.405704       -11.0398
 102   2.0000      -0.405189       -11.0258
 103   2.0000      -0.395381       -10.7589
 104   2.0000      -0.395221       -10.7545
 105   2.0000      -0.390592       -10.6286
 106   2.0000      -0.389990       -10.6122
 107   2.0000      -0.388514       -10.5720
 108   2.0000      -0.377758       -10.2793
 109   2.0000      -0.374782       -10.1983
 110   2.0000      -0.369942       -10.0666
 111   2.0000      -0.363503        -9.8914
 112   2.0000      -0.358069        -9.7436
 113   2.0000      -0.345570        -9.4034
 114   2.0000      -0.331814        -9.0291
 115   2.0000      -0.308530        -8.3955
 116   2.0000      -0.293759        -7.9936
 117   2.0000      -0.292100        -7.9485
 118   2.0000      -0.283878        -7.7247
 119   2.0000      -0.274761        -7.4766
 120   2.0000      -0.273252        -7.4356
 121   2.0000      -0.262293        -7.1373
 122   2.0000      -0.257952        -7.0192
 123   2.0000      -0.250078        -6.8050
 124   2.0000      -0.232029        -6.3138
 125   2.0000      -0.214012        -5.8236
 126   2.0000      -0.208303        -5.6682
 127   0.0000      -0.046088        -1.2541
 128   0.0000      -0.030275        -0.8238
 129   0.0000      -0.022670        -0.6169
 130   0.0000      -0.009095        -0.2475
 131   0.0000      -0.007833        -0.2131

MULLIKEN ATOMIC CHARGES
-----------------------
   0 C :   -0.532066
   1 C :    0.256210
   2 O :   -0.401705
   3 C :    0.487075
   4 C :    0.029745
   5 C :    0.017115
   6 C :   -0.435880
   7 C :    0.564622
   8 O :   -0.429276
   9 N :   -0.666602
  10 C :    0.249972
  11 N :   -0.360766
  12 C :    0.223491
  13 C :    0.038459
  14 C :   -0.169464
  15 C :   -0.171629
  16 C :    0.001492
  17 C :    0.897649
  18 F :   -0.304281
  19 F :   -0.304834
  20 F :   -0.296360
  21 C :   -0.247497
  22 C :    0.381330
  23 F :   -0.289645
  24 C :   -0.390909
  25 S :    0.252920
  26 C :    0.504401
  27 O :   -0.521752
  28 N :   -0.482407
  29 C :   -0.315026
  30 C :    0.675867
  31 O :   -0.504139
  32 N :   -0.501555
  33 C :   -0.329880
  34 H :    0.212288
  35 H :    0.176958
  36 H :    0.160729
  37 H :    0.180496
  38 H :    0.199110
  39 H :    0.359897
  40 H :    0.143133
  41 H :    0.151405
  42 H :    0.165244
  43 H :    0.180878
  44 H :    0.180627
  45 H :    0.194511
  46 H :    0.193362
  47 H :    0.184986
  48 H :    0.187697
  49 H :    0.204004
Sum of atomic charges:    0.0000000

LOEWDIN ATOMIC CHARGES
----------------------
   0 C :   -0.363500
   1 C :    0.029502
   2 O :    0.001349
   3 C :    0.093640
   4 C :   -0.115722
   5 C :   -0.049038
   6 C :   -0.241667
   7 C :    0.156702
   8 O :   -0.248400
   9 N :   -0.209513
  10 C :   -0.080519
  11 N :   -0.146859
  12 C :   -0.004566
  13 C :   -0.031062
  14 C :   -0.116559
  15 C :   -0.123155
  16 C :   -0.065666
  17 C :    0.311625
  18 F :   -0.112468
  19 F :   -0.113196
  20 F :   -0.113625
  21 C :   -0.139388
  22 C :    0.135982
  23 F :   -0.080055
  24 C :   -0.346899
  25 S :    0.390439
  26 C :    0.109741
  27 O :   -0.319971
  28 N :   -0.027537
  29 C :   -0.259857
  30 C :    0.142390
  31 O :   -0.312937
  32 N :   -0.021530
  33 C :   -0.259914
  34 H :    0.163758
  35 H :    0.148173
  36 H :    0.141020
  37 H :    0.155122
  38 H :    0.160686
  39 H :    0.272617
  40 H :    0.140002
  41 H :    0.143549
  42 H :    0.154616
  43 H :    0.160009
  44 H :    0.141804
  45 H :    0.152106
  46 H :    0.151976
  47 H :    0.146275
  48 H :    0.143665
  49 H :    0.156854

  Mayer bond orders larger than 0.100000
B(  0-C ,  1-C ) :   1.0404 B(  0-C , 34-H ) :   0.9111 B(  0-C , 35-H ) :   0.9302
B(  0-C , 36-H ) :   0.9352 B(  1-C ,  2-O ) :   0.9864 B(  1-C ,  5-C ) :   1.5497
B(  2-O ,  3-C ) :   1.0753 B(  3-C ,  4-C ) :   1.3623 B(  3-C , 32-N ) :   0.9784
B(  4-C ,  5-C ) :   1.2787 B(  4-C , 26-C ) :   1.0908 B(  5-C ,  6-C ) :   0.9956
B(  6-C ,  7-C ) :   0.9591 B(  6-C , 37-H ) :   0.9138 B(  6-C , 38-H ) :   0.8943
B(  7-C ,  8-O ) :   1.8809 B(  7-C ,  9-N ) :   0.9920 B(  9-N , 10-C ) :   0.9589
B(  9-N , 39-H ) :   0.7911 B( 10-C , 11-N ) :   1.5114 B( 10-C , 24-C ) :   0.1073
B( 10-C , 25-S ) :   1.1342 B( 11-N , 12-C ) :   1.2666 B( 12-C , 13-C ) :   1.0256
B( 12-C , 24-C ) :   1.5137 B( 13-C , 14-C ) :   1.3970 B( 13-C , 22-C ) :   1.3060
B( 14-C , 15-C ) :   1.4361 B( 14-C , 40-H ) :   0.9208 B( 15-C , 16-C ) :   1.4038
B( 15-C , 41-H ) :   0.9199 B( 16-C , 17-C ) :   0.9812 B( 16-C , 21-C ) :   1.3852
B( 17-C , 18-F ) :   0.9479 B( 17-C , 19-F ) :   0.9499 B( 17-C , 20-F ) :   0.9863
B( 21-C , 22-C ) :   1.3706 B( 21-C , 42-H ) :   0.9094 B( 22-C , 23-F ) :   0.9490
B( 24-C , 25-S ) :   1.1212 B( 24-C , 43-H ) :   0.9040 B( 26-C , 27-O ) :   1.7264
B( 26-C , 28-N ) :   0.9786 B( 28-N , 29-C ) :   0.9175 B( 28-N , 30-C ) :   1.0388
B( 29-C , 44-H ) :   0.9399 B( 29-C , 45-H ) :   0.9269 B( 29-C , 46-H ) :   0.9241
B( 30-C , 31-O ) :   1.7929 B( 30-C , 32-N ) :   1.0493 B( 32-N , 33-C ) :   0.9250
B( 33-C , 47-H ) :   0.9299 B( 33-C , 48-H ) :   0.9343 B( 33-C , 49-H ) :   0.9269

FINAL SINGLE POINT ENERGY     -2126.343113385536

DIPOLE MOMENT
-------------

Method             : SCF
Type of density    : Electron Density
Multiplicity       :   1
Irrep              :   0
Energy             : -2126.3431133855356165 Eh
Relativity type    :
Basis              : AO
                                X                 Y                 Z
Electronic contribution:     54.814495379      -2.167007754       4.714625269
Nuclear contribution   :    -56.429827361       2.306931374      -3.994803420
                        -----------------------------------------
Total Dipole Moment    :     -1.615331983       0.139923620       0.719821849
                        -----------------------------------------
Magnitude (a.u.)       :      1.773984083
Magnitude (Debye)      :      4.509109195

Rotational constants in cm-1:             0.008338             0.001353             0.001279
Rotational constants in MHz :           249.976250            40.567011            38.341280

                             ****ORCA TERMINATED NORMALLY****
TOTAL RUN TIME: 0 days 0 hours 5 minutes 29 seconds 177 msec
