                         Program Version 6.0.0  -   RELEASE  -
|  1> ! B3LYP 6-31G* SP
|  2>
|  3> * xyz 0 1
|  4> O 2.0624 -0.8722 -1.2090
|  5> C 1.9725 -0.2779 -0.0995
|  6> N 0.7409 0.3691 0.2611
|  7> C -0.3714 0.5030 -0.6851
|  8> C -1.1256 -0.8080 -0.8191
|  9> C -1.6454 -1.1895 -2.0668
| 10> C -2.3682 -2.3780 -2.2020
| 11> C -2.6129 -3.1948 -1.0853
| 12> C -3.3505 -4.5010 -1.2398
| 13> F -2.4432 -5.5054 -1.5203
| 14> F -4.2715 -4.4246 -2.2703
| 15> F -4.0296 -4.8187 -0.0762
| 16> C -2.0855 -2.8192 0.1614
| 17> C -1.3626 -1.6311 0.2970
| 18> C -1.2922 1.6286 -0.2443
| 19> N -2.3121 1.3299 0.6115
| 20> C -3.1710 2.2661 1.0858
| 21> C -3.0271 3.5956 0.7070
| 22> C -1.9865 3.9535 -0.1471
| 23> C -1.0821 2.9846 -0.6241
| 24> C 0.0479 3.4039 -1.5463
| 25> F -0.1890 2.9176 -2.8190
| 26> F 0.1599 4.7818 -1.6238
| 27> F 1.2533 2.9105 -1.0812
| 28> C 3.1361 -0.2732 0.8185
| 29> C 4.1277 -1.2612 0.7101
| 30> C 5.2254 -1.2526 1.5710
| 31> C 5.3327 -0.2481 2.5348
| 32> O 6.3201 -0.2312 3.3173
| 33> N 4.3730 0.7135 2.6264
| 34> C 3.2929 0.7242 1.7974
| 35> H 0.5824 0.6385 1.2584
| 36> H 0.0492 0.7483 -1.6823
| 37> H -1.4869 -0.5682 -2.9396
| 38> H -2.7373 -2.6575 -3.1808
| 39> H -2.2345 -3.4438 1.0333
| 40> H -0.9886 -1.3553 1.2747
| 41> H -3.9680 1.9747 1.7568
| 42> H -3.7141 4.3459 1.0766
| 43> H -1.8918 4.9944 -0.4276
| 44> H 4.0489 -2.0456 -0.0325
| 45> H 5.9849 -2.0204 1.4879
| 46> H 4.4651 1.4674 3.3445
| 47> H 2.5723 1.5263 1.8902
| 48> *
| 49>
| 50>                          ****END OF INPUT****

CARTESIAN COORDINATES (ANGSTROEM)
---------------------------------
  O      2.062400   -0.872200   -1.209000
  C      1.972500   -0.277900   -0.099500
  N      0.740900    0.369100    0.261100
  C     -0.371400    0.503000   -0.685100
  C     -1.125600   -0.808000   -0.819100
  C     -1.645400   -1.189500   -2.066800
  C     -2.368200   -2.378000   -2.202000
  C     -2.612900   -3.194800   -1.085300
  C     -3.350500   -4.501000   -1.239800
  F     -2.443200   -5.505400   -1.520300
  F     -4.271500   -4.424600   -2.270300
  F     -4.029600   -4.818700   -0.076200
  C     -2.085500   -2.819200    0.161400
  C     -1.362600   -1.631100    0.297000
  C     -1.292200    1.628600   -0.244300
  N     -2.312100    1.329900    0.611500
  C     -3.171000    2.266100    1.085800
  C     -3.027100    3.595600    0.707000
  C     -1.986500    3.953500   -0.147100
  C     -1.082100    2.984600   -0.624100
  C      0.047900    3.403900   -1.546300
  F     -0.189000    2.917600   -2.819000
  F      0.159900    4.781800   -1.623800
  F      1.253300    2.910500   -1.081200
  C      3.136100   -0.273200    0.818500
  C      4.127700   -1.261200    0.710100
  C      5.225400   -1.252600    1.571000
  C      5.332700   -0.248100    2.534800
  O      6.320100   -0.231200    3.317300
  N      4.373000    0.713500    2.626400
  C      3.292900    0.724200    1.797400
  H      0.582400    0.638500    1.258400
  H      0.049200    0.748300   -1.682300
  H     -1.486900   -0.568200   -2.939600
  H     -2.737300   -2.657500   -3.180800
  H     -2.234500   -3.443800    1.033300
  H     -0.988600   -1.355300    1.274700
  H     -3.968000    1.974700    1.756800
  H     -3.714100    4.345900    1.076600
  H     -1.891800    4.994400   -0.427600
  H      4.048900   -2.045600   -0.032500
  H      5.984900   -2.020400    1.487900
  H      4.465100    1.467400    3.344500
  H      2.572300    1.526300    1.890200

 Total Charge           Charge          ....    0
 Multiplicity           Mult            ....    1
 Number of Electrons    NEL             ....  224
 Basis Dimension        Dim             ....  460

ORBITAL ENERGIES
----------------

  NO   OCC          E(Eh)            E(eV)
   0   2.0000     -24.740145      -673.2136
   1   2.0000     -24.737448      -673.1402
   2   2.0000     -24.737378      -673.1383
   3   2.0000     -24.712127      -672.4512
   4   2.0000     -24.712044      -672.4489
   5   2.0000     -24.707426      -672.3232
   6   2.0000     -19.120616      -520.2984
   7   2.0000     -19.088401      -519.4218
   8   2.0000     -14.413948      -392.2235
   9   2.0000     -14.371321      -391.0635
  10   2.0000     -14.358275      -390.7085
  11   2.0000     -10.457239      -284.5559
  12   2.0000     -10.426460      -283.7184
  13   2.0000     -10.303771      -280.3799
  14   2.0000     -10.279350      -279.7153
  15   2.0000     -10.270775      -279.4820
  16   2.0000     -10.268559      -279.4217
  17   2.0000     -10.250821      -278.9390
  18   2.0000     -10.250030      -278.9175
  19   2.0000     -10.243643      -278.7437
  20   2.0000     -10.235891      -278.5328
  21   2.0000     -10.221579      -278.1433
  22   2.0000     -10.218267      -278.0532
  23   2.0000     -10.212607      -277.8992
  24   2.0000     -10.204510      -277.6788
  25   2.0000     -10.201799      -277.6051
  26   2.0000     -10.194632      -277.4100
  27   2.0000     -10.194378      -277.4031
  28   2.0000     -10.194141      -277.3967
  29   2.0000     -10.190816      -277.3062
  30   2.0000     -10.190297      -277.2921
  31   2.0000      -1.299743       -35.3678
  32   2.0000      -1.271645       -34.6032
  33   2.0000      -1.224130       -33.3103
  34   2.0000      -1.223707       -33.2988
  35   2.0000      -1.197565       -32.5874
  36   2.0000      -1.195553       -32.5326
  37   2.0000      -1.032521       -28.0963
  38   2.0000      -1.021302       -27.7910
  39   2.0000      -0.966191       -26.2914
  40   2.0000      -0.957674       -26.0596
  41   2.0000      -0.921194       -25.0670
  42   2.0000      -0.863117       -23.4866
  43   2.0000      -0.841621       -22.9017
  44   2.0000      -0.836673       -22.7670
  45   2.0000      -0.816070       -22.2064
  46   2.0000      -0.786268       -21.3954
  47   2.0000      -0.772131       -21.0107
  48   2.0000      -0.752085       -20.4653
  49   2.0000      -0.735808       -20.0223
  50   2.0000      -0.715062       -19.4578
  51   2.0000      -0.682596       -18.5744
  52   2.0000      -0.677770       -18.4431
  53   2.0000      -0.657597       -17.8941
  54   2.0000      -0.654281       -17.8039
  55   2.0000      -0.639132       -17.3917
  56   2.0000      -0.621712       -16.9177
  57   2.0000      -0.610707       -16.6182
  58   2.0000      -0.592377       -16.1194
  59   2.0000      -0.589452       -16.0398
  60   2.0000      -0.589177       -16.0323
  61   2.0000      -0.580425       -15.7942
  62   2.0000      -0.567087       -15.4312
  63   2.0000      -0.562287       -15.3006
  64   2.0000      -0.559068       -15.2130
  65   2.0000      -0.553148       -15.0519
  66   2.0000      -0.538532       -14.6542
  67   2.0000      -0.528623       -14.3846
  68   2.0000      -0.518995       -14.1226
  69   2.0000      -0.511082       -13.9072
  70   2.0000      -0.495597       -13.4859
  71   2.0000      -0.485064       -13.1993
  72   2.0000      -0.481198       -13.0941
  73   2.0000      -0.469337       -12.7713
  74   2.0000      -0.468380       -12.7453
  75   2.0000      -0.461925       -12.5696
  76   2.0000      -0.457113       -12.4387
  77   2.0000      -0.454959       -12.3801
  78   2.0000      -0.444128       -12.0853
  79   2.0000      -0.442152       -12.0316
  80   2.0000      -0.440555       -11.9881
  81   2.0000      -0.439743       -11.9660
  82   2.0000      -0.439228       -11.9520
  83   2.0000      -0.434131       -11.8133
  84   2.0000      -0.429813       -11.6958
  85   2.0000      -0.426410       -11.6032
  86   2.0000      -0.420229       -11.4350
  87   2.0000      -0.418244       -11.3810
  88   2.0000      -0.415948       -11.3185
  89   2.0000      -0.412742       -11.2313
  90   2.0000      -0.408210       -11.1080
  91   2.0000      -0.405389       -11.0312
  92   2.0000      -0.399922       -10.8824
  93   2.0000      -0.391764       -10.6605
  94   2.0000      -0.390402       -10.6234
  95   2.0000      -0.386388       -10.5141
  96   2.0000      -0.380280       -10.3479
  97   2.0000      -0.377250       -10.2655
  98   2.0000      -0.360386        -9.8066
  99   2.0000      -0.351321        -9.5599
 100   2.0000      -0.350354        -9.5336
 101   2.0000      -0.333098        -9.0640
 102   2.0000      -0.314582        -8.5602
 103   2.0000      -0.313298        -8.5253
 104   2.0000      -0.295591        -8.0435
 105   2.0000      -0.278699        -7.5838
 106   2.0000      -0.270201        -7.3525
 107   2.0000      -0.257430        -7.0050
 108   2.0000      -0.252960        -6.8834
 109   2.0000      -0.247000        -6.7212
 110   2.0000      -0.237458        -6.4616
 111   2.0000      -0.219654        -5.9771
 112   0.0000      -0.062372        -1.6972
 113   0.0000      -0.060617        -1.6495
 114   0.0000      -0.056947        -1.5496
 115   0.0000      -0.031506        -0.8573
 116   0.0000      -0.019179        -0.5219

MULLIKEN ATOMIC CHARGES
-----------------------
   0 O :   -0.477556
   1 C :    0.520062
   2 N :   -0.635501
   3 C :   -0.091789
   4 C :    0.206064
   5 C :   -0.169894
   6 C :   -0.161631
   7 C :   -0.013290
   8 C :    0.892407
   9 F :   -0.296867
  10 F :   -0.307081
  11 F :   -0.307427
  12 C :   -0.166600
  13 C :   -0.135377
  14 C :    0.192369
  15 N :   -0.397164
  16 C :    0.026856
  17 C :   -0.134075
  18 C :   -0.131972
  19 C :   -0.058239
  20 C :    0.920806
  21 F :   -0.294038
  22 F :   -0.303019
  23 F :   -0.298315
  24 C :    0.020351
  25 C :   -0.104458
  26 C :   -0.206966
  27 C :    0.552707
  28 O :   -0.520281
  29 N :   -0.579020
  30 C :    0.036718
  31 H :    0.321584
  32 H :    0.183160
  33 H :    0.137833
  34 H :    0.149724
  35 H :    0.147304
  36 H :    0.118425
  37 H :    0.165959
  38 H :    0.151825
  39 H :    0.171253
  40 H :    0.178115
  41 H :    0.168211
  42 H :    0.355529
  43 H :    0.173297
Sum of atomic charges:    0.0000000

LOEWDIN ATOMIC CHARGES
----------------------
   0 O :   -0.281372
   1 C :    0.145404
   2 N :   -0.236136
   3 C :   -0.056283
   4 C :    0.005191
   5 C :   -0.123382
   6 C :   -0.112038
   7 C :   -0.071363
   8 C :    0.309348
   9 F :   -0.114451
  10 F :   -0.115089
  11 F :   -0.115520
  12 C :   -0.113955
  13 C :   -0.111391
  14 C :    0.043095
  15 N :   -0.122621
  16 C :   -0.053075
  17 C :   -0.138659
  18 C :   -0.089562
  19 C :   -0.079601
  20 C :    0.312250
  21 F :   -0.108017
  22 F :   -0.108545
  23 F :   -0.106769
  24 C :   -0.097848
  25 C :   -0.069654
  26 C :   -0.145778
  27 C :    0.080117
  28 O :   -0.323146
  29 N :   -0.093620
  30 C :   -0.043882
  31 H :    0.247440
  32 H :    0.153984
  33 H :    0.136367
  34 H :    0.142528
  35 H :    0.141276
  36 H :    0.130690
  37 H :    0.143170
  38 H :    0.144338
  39 H :    0.151981
  40 H :    0.158465
  41 H :    0.159387
  42 H :    0.280678
  43 H :    0.146049

  Mayer bond orders larger than 0.100000
B(  0-O ,  1-C ) :   1.8000 B(  1-C ,  2-N ) :   1.0195 B(  1-C , 24-C ) :   1.0101
B(  2-N ,  3-C ) :   0.9130 B(  2-N , 31-H ) :   0.8197 B(  3-C ,  4-C ) :   0.9442
B(  3-C , 14-C ) :   0.9468 B(  3-C , 32-H ) :   0.8920 B(  4-C ,  5-C ) :   1.4302
B(  4-C , 13-C ) :   1.4129 B(  5-C ,  6-C ) :   1.4220 B(  5-C , 33-H ) :   0.9221
B(  6-C ,  7-C ) :   1.4166 B(  6-C , 34-H ) :   0.9201 B(  7-C ,  8-C ) :   0.9806
B(  7-C , 12-C ) :   1.4044 B(  8-C ,  9-F ) :   0.9865 B(  8-C , 10-F ) :   0.9466
B(  8-C , 11-F ) :   0.9463 B( 12-C , 13-C ) :   1.4350 B( 12-C , 35-H ) :   0.9209
B( 13-C , 36-H ) :   0.9209 B( 14-C , 15-N ) :   1.3993 B( 14-C , 19-C ) :   1.3487
B( 15-N , 16-C ) :   1.4172 B( 16-C , 17-C ) :   1.4206 B( 16-C , 37-H ) :   0.9256
B( 17-C , 18-C ) :   1.4315 B( 17-C , 38-H ) :   0.9225 B( 18-C , 19-C ) :   1.4110
B( 18-C , 39-H ) :   0.9155 B( 19-C , 20-C ) :   0.9687 B( 20-C , 21-F ) :   0.9546
B( 20-C , 22-F ) :   0.9449 B( 20-C , 23-F ) :   0.9376 B( 24-C , 25-C ) :   1.2445
B( 24-C , 30-C ) :   1.5090 B( 25-C , 26-C ) :   1.5559 B( 25-C , 40-H ) :   0.9100
B( 26-C , 27-C ) :   1.1869 B( 26-C , 41-H ) :   0.9248 B( 27-C , 28-O ) :   1.7572
B( 27-C , 29-N ) :   0.9774 B( 29-N , 30-C ) :   1.1427 B( 29-N , 42-H ) :   0.8113
B( 30-C , 43-H ) :   0.9109

FINAL SINGLE POINT ENERGY     -1682.842397872234

DIPOLE MOMENT
-------------

Method             : SCF
Type of density    : Electron Density
Multiplicity       :   1
Irrep              :   0
Energy             : -1682.8423978722341872 Eh
Relativity type    :
Basis              : AO
                                X                 Y                 Z
Electronic contribution:    -11.880966936      -5.613249004     -13.900530887
Nuclear contribution   :     10.129490094       8.245812033      14.880789748
                        -----------------------------------------
Total Dipole Moment    :     -1.751476842       2.632563029       0.980258861
                        -----------------------------------------
Magnitude (a.u.)       :      3.310433003
Magnitude (Debye)      :      8.414451985

Rotational constants in cm-1:             0.004752             0.003034             0.002125
Rotational constants in MHz :           142.473645            90.942581            63.693538

                             ****ORCA TERMINATED NORMALLY****
TOTAL RUN TIME: 0 days 0 hours 7 minutes 34 seconds 410 msec
