                         Program Version 6.0.0  -   RELEASE  -
|  1> ! B3LYP def2-TZVP SP
|  2>
|  3> * xyz 0 1
|  4> O -6.8439 -3.4236 1.1445
|  5> C -6.1181 -3.8244 0.1946
|  6> O -6.3716 -5.0672 -0.3791
|  7> C -5.0103 -2.9832 -0.3083
|  8> C -4.7497 -1.7241 0.2614
|  9> C -3.7036 -0.9326 -0.2197
| 10> C -2.9041 -1.3845 -1.2754
| 11> S -1.5738 -0.3860 -1.8466
| 12> O -2.0886 0.9928 -2.1520
| 13> O -0.9764 -0.9598 -3.1010
| 14> N -0.3563 -0.3103 -0.6127
| 15> C 0.3919 -1.5164 -0.2559
| 16> C 1.8637 -1.2783 -0.4448
| 17> C 2.6458 -0.8022 0.6177
| 18> C 3.9984 -0.5090 0.4236
| 19> C 4.5870 -0.6802 -0.8448
| 20> O 5.9386 -0.3966 -1.0994
| 21> C 6.8733 0.0910 -0.1397
| 22> F 6.4536 1.3123 0.3558
| 23> F 7.0116 -0.8161 0.8954
| 24> F 8.0995 0.2562 -0.7541
| 25> C 3.7999 -1.1487 -1.9028
| 26> C 2.4476 -1.4417 -1.7089
| 27> C -0.2958 0.8391 0.2388
| 28> N -0.8550 0.7732 1.4753
| 29> C -0.8282 1.8178 2.3389
| 30> C -0.2054 3.0148 1.9735
| 31> C -0.1709 4.0992 2.8627
| 32> C 0.4589 5.2879 2.4926
| 33> C 1.0562 5.4026 1.2371
| 34> C 1.0281 4.3304 0.3419
| 35> C 0.3970 3.1213 0.6957
| 36> C 0.3512 2.0157 -0.1822
| 37> Br 1.1863 2.0617 -1.9185
| 38> C -3.1520 -2.6407 -1.8423
| 39> C -4.1999 -3.4334 -1.3650
| 40> H -7.1286 -5.6501 -0.0437
| 41> H -5.3526 -1.3508 1.0789
| 42> H -3.5153 0.0323 0.2325
| 43> H 0.0697 -2.3750 -0.8850
| 44> H 0.1738 -1.7951 0.7982
| 45> H 2.2048 -0.6456 1.5949
| 46> H 4.5717 -0.1436 1.2632
| 47> H 4.2379 -1.2796 -2.8844
| 48> H 1.8526 -1.7848 -2.5462
| 49> H -1.2928 1.7100 3.3108
| 50> H -0.6286 4.0264 3.8418
| 51> H 0.4850 6.1217 3.1810
| 52> H 1.5434 6.3269 0.9555
| 53> H 1.5017 4.4608 -0.6207
| 54> H -2.5355 -3.0107 -2.6512
| 55> H -4.3721 -4.3999 -1.8218
| 56> *
| 57>
| 58>                          ****END OF INPUT****

CARTESIAN COORDINATES (ANGSTROEM)
---------------------------------
  O     -6.843900   -3.423600    1.144500
  C     -6.118100   -3.824400    0.194600
  O     -6.371600   -5.067200   -0.379100
  C     -5.010300   -2.983200   -0.308300
  C     -4.749700   -1.724100    0.261400
  C     -3.703600   -0.932600   -0.219700
  C     -2.904100   -1.384500   -1.275400
  S     -1.573800   -0.386000   -1.846600
  O     -2.088600    0.992800   -2.152000
  O     -0.976400   -0.959800   -3.101000
  N     -0.356300   -0.310300   -0.612700
  C      0.391900   -1.516400   -0.255900
  C      1.863700   -1.278300   -0.444800
  C      2.645800   -0.802200    0.617700
  C      3.998400   -0.509000    0.423600
  C      4.587000   -0.680200   -0.844800
  O      5.938600   -0.396600   -1.099400
  C      6.873300    0.091000   -0.139700
  F      6.453600    1.312300    0.355800
  F      7.011600   -0.816100    0.895400
  F      8.099500    0.256200   -0.754100
  C      3.799900   -1.148700   -1.902800
  C      2.447600   -1.441700   -1.708900
  C     -0.295800    0.839100    0.238800
  N     -0.855000    0.773200    1.475300
  C     -0.828200    1.817800    2.338900
  C     -0.205400    3.014800    1.973500
  C     -0.170900    4.099200    2.862700
  C      0.458900    5.287900    2.492600
  C      1.056200    5.402600    1.237100
  C      1.028100    4.330400    0.341900
  C      0.397000    3.121300    0.695700
  C      0.351200    2.015700   -0.182200
  Br     1.186300    2.061700   -1.918500
  C     -3.152000   -2.640700   -1.842300
  C     -4.199900   -3.433400   -1.365000
  H     -7.128600   -5.650100   -0.043700
  H     -5.352600   -1.350800    1.078900
  H     -3.515300    0.032300    0.232500
  H      0.069700   -2.375000   -0.885000
  H      0.173800   -1.795100    0.798200
  H      2.204800   -0.645600    1.594900
  H      4.571700   -0.143600    1.263200
  H      4.237900   -1.279600   -2.884400
  H      1.852600   -1.784800   -2.546200
  H     -1.292800    1.710000    3.310800
  H     -0.628600    4.026400    3.841800
  H      0.485000    6.121700    3.181000
  H      1.543400    6.326900    0.955500
  H      1.501700    4.460800   -0.620700
  H     -2.535500   -3.010700   -2.651200
  H     -4.372100   -4.399900   -1.821800

 Total Charge           Charge          ....    0
 Multiplicity           Mult            ....    1
 Number of Electrons    NEL             ....  292
 Basis Dimension        Dim             .... 1235

ORBITAL ENERGIES
----------------

  NO   OCC          E(Eh)            E(eV)
   0   2.0000    -482.861752    -13139.3363
   1   2.0000     -89.067315     -2423.6449
   2   2.0000     -62.508429     -1700.9408
   3   2.0000     -56.324232     -1532.6603
   4   2.0000     -56.321427     -1532.5839
   5   2.0000     -56.321243     -1532.5789
   6   2.0000     -24.738603      -673.1716
   7   2.0000     -24.736054      -673.1023
   8   2.0000     -24.736014      -673.1012
   9   2.0000     -19.203142      -522.5441
  10   2.0000     -19.187159      -522.1091
  11   2.0000     -19.124125      -520.3939
  12   2.0000     -19.117528      -520.2144
  13   2.0000     -19.116101      -520.1756
  14   2.0000     -14.369435      -391.0122
  15   2.0000     -14.340043      -390.2124
  16   2.0000     -10.502715      -285.7934
  17   2.0000     -10.332243      -281.1546
  18   2.0000     -10.271974      -279.5146
  19   2.0000     -10.264212      -279.3034
  20   2.0000     -10.254224      -279.0316
  21   2.0000     -10.238612      -278.6068
  22   2.0000     -10.236462      -278.5483
  23   2.0000     -10.232864      -278.4504
  24   2.0000     -10.228543      -278.3328
  25   2.0000     -10.218978      -278.0725
  26   2.0000     -10.215254      -277.9712
  27   2.0000     -10.214896      -277.9615
  28   2.0000     -10.213349      -277.9194
  29   2.0000     -10.212731      -277.9025
  30   2.0000     -10.211129      -277.8590
  31   2.0000     -10.203882      -277.6618
  32   2.0000     -10.200976      -277.5827
  33   2.0000     -10.200258      -277.5631
  34   2.0000     -10.198781      -277.5229
  35   2.0000     -10.192574      -277.3540
  36   2.0000     -10.192095      -277.3410
  37   2.0000     -10.191421      -277.3227
  38   2.0000     -10.190791      -277.3055
  39   2.0000     -10.188754      -277.2501
  40   2.0000      -8.698785      -236.7060
  41   2.0000      -8.111398      -220.7224
  42   2.0000      -6.528781      -177.6572
  43   2.0000      -6.517337      -177.3457
  44   2.0000      -6.516451      -177.3216
  45   2.0000      -6.075529      -165.3236
  46   2.0000      -6.073132      -165.2583
  47   2.0000      -6.073032      -165.2556
  48   2.0000      -2.643281       -71.9273
  49   2.0000      -2.640255       -71.8450
  50   2.0000      -2.639597       -71.8271
  51   2.0000      -2.630128       -71.5694
  52   2.0000      -2.630115       -71.5691
  53   2.0000      -1.318741       -35.8848
  54   2.0000      -1.240499       -33.7557
  55   2.0000      -1.239892       -33.7392
  56   2.0000      -1.092077       -29.7169
  57   2.0000      -1.090859       -29.6838
  58   2.0000      -1.088381       -29.6163
  59   2.0000      -1.005175       -27.3522
  60   2.0000      -0.982714       -26.7410
  61   2.0000      -0.970927       -26.4203
  62   2.0000      -0.931722       -25.3534
  63   2.0000      -0.896896       -24.4058
  64   2.0000      -0.883974       -24.0542
  65   2.0000      -0.870608       -23.6904
  66   2.0000      -0.837498       -22.7895
  67   2.0000      -0.813717       -22.1424
  68   2.0000      -0.797655       -21.7053
  69   2.0000      -0.788460       -21.4551
  70   2.0000      -0.782041       -21.2804
  71   2.0000      -0.773206       -21.0400
  72   2.0000      -0.764101       -20.7923
  73   2.0000      -0.746585       -20.3156
  74   2.0000      -0.736954       -20.0535
  75   2.0000      -0.712927       -19.3997
  76   2.0000      -0.689579       -18.7644
  77   2.0000      -0.670574       -18.2472
  78   2.0000      -0.664261       -18.0755
  79   2.0000      -0.647240       -17.6123
  80   2.0000      -0.643289       -17.5048
  81   2.0000      -0.632904       -17.2222
  82   2.0000      -0.625811       -17.0292
  83   2.0000      -0.620076       -16.8731
  84   2.0000      -0.613509       -16.6944
  85   2.0000      -0.607731       -16.5372
  86   2.0000      -0.603187       -16.4136
  87   2.0000      -0.581493       -15.8232
  88   2.0000      -0.569870       -15.5070
  89   2.0000      -0.553552       -15.0629
  90   2.0000      -0.550935       -14.9917
  91   2.0000      -0.530501       -14.4357
  92   2.0000      -0.519193       -14.1280
  93   2.0000      -0.511692       -13.9238
  94   2.0000      -0.499474       -13.5914
  95   2.0000      -0.496803       -13.5187
  96   2.0000      -0.493512       -13.4291
  97   2.0000      -0.491954       -13.3867
  98   2.0000      -0.489596       -13.3226
  99   2.0000      -0.485331       -13.2065
 100   2.0000      -0.479507       -13.0481
 101   2.0000      -0.471765       -12.8374
 102   2.0000      -0.470358       -12.7991
 103   2.0000      -0.466689       -12.6993
 104   2.0000      -0.463984       -12.6256
 105   2.0000      -0.462552       -12.5867
 106   2.0000      -0.459209       -12.4957
 107   2.0000      -0.454830       -12.3766
 108   2.0000      -0.453940       -12.3523
 109   2.0000      -0.449827       -12.2404
 110   2.0000      -0.447188       -12.1686
 111   2.0000      -0.438280       -11.9262
 112   2.0000      -0.436668       -11.8823
 113   2.0000      -0.436179       -11.8690
 114   2.0000      -0.434019       -11.8102
 115   2.0000      -0.425079       -11.5670
 116   2.0000      -0.420456       -11.4412
 117   2.0000      -0.418012       -11.3747
 118   2.0000      -0.417013       -11.3475
 119   2.0000      -0.402826       -10.9614
 120   2.0000      -0.397656       -10.8208
 121   2.0000      -0.395564       -10.7638
 122   2.0000      -0.387617       -10.5476
 123   2.0000      -0.383808       -10.4440
 124   2.0000      -0.377736       -10.2787
 125   2.0000      -0.375051       -10.2056
 126   2.0000      -0.371163       -10.0998
 127   2.0000      -0.359904        -9.7935
 128   2.0000      -0.355964        -9.6863
 129   2.0000      -0.344954        -9.3867
 130   2.0000      -0.342740        -9.3264
 131   2.0000      -0.335789        -9.1373
 132   2.0000      -0.324907        -8.8412
 133   2.0000      -0.316170        -8.6034
 134   2.0000      -0.304480        -8.2853
 135   2.0000      -0.295532        -8.0418
 136   2.0000      -0.295091        -8.0298
 137   2.0000      -0.289125        -7.8675
 138   2.0000      -0.288760        -7.8576
 139   2.0000      -0.285490        -7.7686
 140   2.0000      -0.283928        -7.7261
 141   2.0000      -0.277998        -7.5647
 142   2.0000      -0.269800        -7.3416
 143   2.0000      -0.268253        -7.2995
 144   2.0000      -0.249506        -6.7894
 145   2.0000      -0.239814        -6.5257
 146   0.0000      -0.097600        -2.6558
 147   0.0000      -0.084728        -2.3056
 148   0.0000      -0.057643        -1.5685
 149   0.0000      -0.045324        -1.2333
 150   0.0000      -0.029590        -0.8052

MULLIKEN ATOMIC CHARGES
-----------------------
   0 O :   -0.353819
   1 C :    0.349289
   2 O :   -0.415209
   3 C :    0.076155
   4 C :   -0.181053
   5 C :   -0.082798
   6 C :    0.036070
   7 S :    0.808902
   8 O :   -0.470127
   9 O :   -0.488805
  10 N :   -0.113492
  11 C :   -0.172899
  12 C :    0.138008
  13 C :   -0.194068
  14 C :   -0.178077
  15 C :    0.276248
  16 O :   -0.264484
  17 C :    0.589373
  18 F :   -0.173974
  19 F :   -0.174042
  20 F :   -0.156741
  21 C :   -0.159425
  22 C :   -0.172229
  23 C :    0.080009
  24 N :   -0.266655
  25 C :   -0.112956
  26 C :    0.130542
  27 C :   -0.161410
  28 C :   -0.094393
  29 C :   -0.093556
  30 C :   -0.177609
  31 C :    0.040398
  32 C :    0.093362
  33 Br:   -0.026216
  34 C :   -0.107215
  35 C :   -0.145520
  36 H :    0.346174
  37 H :    0.148776
  38 H :    0.140652
  39 H :    0.141194
  40 H :    0.132519
  41 H :    0.122921
  42 H :    0.123139
  43 H :    0.121258
  44 H :    0.131211
  45 H :    0.124911
  46 H :    0.112738
  47 H :    0.119226
  48 H :    0.122051
  49 H :    0.135339
  50 H :    0.152739
  51 H :    0.143568
Sum of atomic charges:   -0.0000000

LOEWDIN ATOMIC CHARGES
----------------------
   0 O :    0.045182
   1 C :   -0.365367
   2 O :    0.037689
   3 C :   -0.113635
   4 C :   -0.055664
   5 C :   -0.095845
   6 C :   -0.265010
   7 S :    0.807373
   8 O :   -0.303541
   9 O :   -0.319782
  10 N :    0.034557
  11 C :   -0.244532
  12 C :   -0.156524
  13 C :   -0.103477
  14 C :   -0.120947
  15 C :   -0.202501
  16 O :    0.258559
  17 C :   -0.617248
  18 F :    0.154487
  19 F :    0.154289
  20 F :    0.165098
  21 C :   -0.105224
  22 C :   -0.092632
  23 C :   -0.306011
  24 N :    0.147392
  25 C :   -0.141561
  26 C :   -0.111829
  27 C :   -0.082370
  28 C :   -0.125226
  29 C :   -0.118220
  30 C :   -0.084351
  31 C :   -0.095555
  32 C :   -0.276266
  33 Br:    0.397943
  34 C :   -0.106563
  35 C :   -0.071048
  36 H :    0.221460
  37 H :    0.160627
  38 H :    0.156493
  39 H :    0.150387
  40 H :    0.144641
  41 H :    0.149344
  42 H :    0.146310
  43 H :    0.150894
  44 H :    0.154169
  45 H :    0.142215
  46 H :    0.149431
  47 H :    0.145142
  48 H :    0.146851
  49 H :    0.147390
  50 H :    0.156327
  51 H :    0.156678

  Mayer bond orders larger than 0.100000
B(  0-O ,  1-C ) :   2.0107 B(  0-O ,  3-C ) :  -0.1026 B(  1-C ,  2-O ) :   1.2297
B(  1-C ,  3-C ) :   1.0121 B(  2-O ,  3-C ) :  -0.1033 B(  2-O , 36-H ) :   0.8369
B(  3-C ,  4-C ) :   1.3607 B(  3-C , 35-C ) :   1.3461 B(  4-C ,  5-C ) :   1.3689
B(  4-C , 37-H ) :   0.9665 B(  5-C ,  6-C ) :   1.3569 B(  5-C , 38-H ) :   0.9545
B(  6-C ,  7-S ) :   0.9223 B(  6-C , 34-C ) :   1.3463 B(  7-S ,  8-O ) :   1.7905
B(  7-S ,  9-O ) :   1.7893 B(  7-S , 10-N ) :   0.9428 B( 10-N , 11-C ) :   0.8911
B( 10-N , 23-C ) :   0.9695 B( 11-C , 12-C ) :   0.9038 B( 11-C , 39-H ) :   0.9563
B( 11-C , 40-H ) :   0.9829 B( 12-C , 13-C ) :   1.3672 B( 12-C , 22-C ) :   1.3662
B( 13-C , 14-C ) :   1.4136 B( 13-C , 41-H ) :   0.9589 B( 14-C , 15-C ) :   1.3512
B( 14-C , 42-H ) :   0.9444 B( 15-C , 16-O ) :   0.9726 B( 15-C , 21-C ) :   1.3810
B( 16-O , 17-C ) :   1.1302 B( 17-C , 18-F ) :   1.1033 B( 17-C , 19-F ) :   1.1034
B( 17-C , 20-F ) :   1.1587 B( 21-C , 22-C ) :   1.4064 B( 21-C , 43-H ) :   0.9804
B( 22-C , 44-H ) :   0.9662 B( 23-C , 24-N ) :   1.2233 B( 23-C , 32-C ) :   1.4266
B( 24-N , 25-C ) :   1.6113 B( 25-C , 26-C ) :   1.1941 B( 25-C , 45-H ) :   0.9965
B( 26-C , 27-C ) :   1.2386 B( 26-C , 31-C ) :   1.2175 B( 27-C , 28-C ) :   1.4949
B( 27-C , 46-H ) :   0.9745 B( 28-C , 29-C ) :   1.3145 B( 28-C , 47-H ) :   0.9680
B( 29-C , 30-C ) :   1.4981 B( 29-C , 48-H ) :   0.9673 B( 30-C , 31-C ) :   1.3080
B( 30-C , 49-H ) :   0.9409 B( 31-C , 32-C ) :   1.1890 B( 32-C , 33-Br) :   1.2028
B( 34-C , 35-C ) :   1.3569 B( 34-C , 50-H ) :   0.9554 B( 35-C , 51-H ) :   0.9663

FINAL SINGLE POINT ENERGY     -4681.260735189012

DIPOLE MOMENT
-------------

Method             : SCF
Type of density    : Electron Density
Multiplicity       :   1
Irrep              :   0
Energy             : -4681.2607351890119389 Eh
Relativity type    :
Basis              : AO
                                X                 Y                 Z
Electronic contribution:     39.845280038      20.093056999     -21.469324090
Nuclear contribution   :    -40.058835561     -20.247968094      23.060082526
                        -----------------------------------------
Total Dipole Moment    :     -0.213555523      -0.154911095       1.590758436
                        -----------------------------------------
Magnitude (a.u.)       :      1.612487461
Magnitude (Debye)      :      4.098617402

Rotational constants in cm-1:             0.004416             0.001672             0.001423
Rotational constants in MHz :           132.388332            50.134196            42.658821

                             ****ORCA TERMINATED NORMALLY****
TOTAL RUN TIME: 0 days 0 hours 24 minutes 49 seconds 483 msec
