                         Program Version 6.0.0  -   RELEASE  -
|  1> ! B3LYP 6-31G* SP
|  2>
|  3> * xyz 0 1
|  4> Cl 7.1247 -0.8900 -1.4001
|  5> C 5.5485 -0.5339 -0.7178
|  6> C 5.3158 0.6985 -0.0983
|  7> C 4.0589 0.9849 0.4439
|  8> C 3.0285 0.0327 0.3813
|  9> C 1.6645 0.3495 0.9197
| 10> O 0.8636 0.8383 -0.1374
| 11> C -0.5034 0.8568 0.2339
| 12> C -1.2384 1.8948 -0.6294
| 13> N -2.6472 1.9910 -0.2494
| 14> C -3.6851 1.3676 -0.8301
| 15> C -4.8171 1.6750 -0.1097
| 16> N -4.4920 2.4803 0.9234
| 17> C -3.1581 2.6490 0.8085
| 18> C -1.1302 -0.5225 0.0710
| 19> C -1.9690 -1.0043 1.0936
| 20> C -2.5895 -2.2496 0.9809
| 21> C -2.3857 -3.0331 -0.1555
| 22> Cl -3.1679 -4.5970 -0.2950
| 23> C -1.5619 -2.5692 -1.1834
| 24> C -0.9352 -1.3208 -1.0843
| 25> Cl 0.0757 -0.8093 -2.4332
| 26> C 3.2634 -1.1960 -0.2570
| 27> C 4.5207 -1.4793 -0.7989
| 28> H 6.1058 1.4364 -0.0404
| 29> H 3.8896 1.9475 0.9104
| 30> H 1.2387 -0.5764 1.3718
| 31> H 1.7428 1.1179 1.7213
| 32> H -0.6131 1.2060 1.2900
| 33> H -0.7562 2.8875 -0.4931
| 34> H -1.1568 1.6376 -1.7070
| 35> H -3.6215 0.7248 -1.6987
| 36> H -5.8192 1.3253 -0.3178
| 37> H -2.5671 3.2370 1.4989
| 38> H -2.1504 -0.4108 1.9812
| 39> H -3.2315 -2.6031 1.7777
| 40> H -1.4108 -3.1800 -2.0648
| 41> H 2.4724 -1.9320 -0.3365
| 42> H 4.6934 -2.4312 -1.2847
| 43> *
| 44>
| 45>                          ****END OF INPUT****

CARTESIAN COORDINATES (ANGSTROEM)
---------------------------------
  Cl     7.124700   -0.890000   -1.400100
  C      5.548500   -0.533900   -0.717800
  C      5.315800    0.698500   -0.098300
  C      4.058900    0.984900    0.443900
  C      3.028500    0.032700    0.381300
  C      1.664500    0.349500    0.919700
  O      0.863600    0.838300   -0.137400
  C     -0.503400    0.856800    0.233900
  C     -1.238400    1.894800   -0.629400
  N     -2.647200    1.991000   -0.249400
  C     -3.685100    1.367600   -0.830100
  C     -4.817100    1.675000   -0.109700
  N     -4.492000    2.480300    0.923400
  C     -3.158100    2.649000    0.808500
  C     -1.130200   -0.522500    0.071000
  C     -1.969000   -1.004300    1.093600
  C     -2.589500   -2.249600    0.980900
  C     -2.385700   -3.033100   -0.155500
  Cl    -3.167900   -4.597000   -0.295000
  C     -1.561900   -2.569200   -1.183400
  C     -0.935200   -1.320800   -1.084300
  Cl     0.075700   -0.809300   -2.433200
  C      3.263400   -1.196000   -0.257000
  C      4.520700   -1.479300   -0.798900
  H      6.105800    1.436400   -0.040400
  H      3.889600    1.947500    0.910400
  H      1.238700   -0.576400    1.371800
  H      1.742800    1.117900    1.721300
  H     -0.613100    1.206000    1.290000
  H     -0.756200    2.887500   -0.493100
  H     -1.156800    1.637600   -1.707000
  H     -3.621500    0.724800   -1.698700
  H     -5.819200    1.325300   -0.317800
  H     -2.567100    3.237000    1.498900
  H     -2.150400   -0.410800    1.981200
  H     -3.231500   -2.603100    1.777700
  H     -1.410800   -3.180000   -2.064800
  H      2.472400   -1.932000   -0.336500
  H      4.693400   -2.431200   -1.284700

 Total Charge           Charge          ....    0
 Multiplicity           Mult            ....    1
 Number of Electrons    NEL             ....  196
 Basis Dimension        Dim             ....  378

ORBITAL ENERGIES
----------------

  NO   OCC          E(Eh)            E(eV)
   0   2.0000    -101.541637     -2763.0884
   1   2.0000    -101.541038     -2763.0721
   2   2.0000    -101.529873     -2762.7683
   3   2.0000     -19.166498      -521.5469
   4   2.0000     -14.394661      -391.6986
   5   2.0000     -14.301877      -389.1739
   6   2.0000     -10.269769      -279.4546
   7   2.0000     -10.265511      -279.3387
   8   2.0000     -10.265474      -279.3378
   9   2.0000     -10.250627      -278.9337
  10   2.0000     -10.244902      -278.7780
  11   2.0000     -10.244878      -278.7773
  12   2.0000     -10.223871      -278.2057
  13   2.0000     -10.223346      -278.1914
  14   2.0000     -10.218297      -278.0540
  15   2.0000     -10.215407      -277.9754
  16   2.0000     -10.212067      -277.8845
  17   2.0000     -10.202148      -277.6146
  18   2.0000     -10.200423      -277.5676
  19   2.0000     -10.200108      -277.5590
  20   2.0000     -10.199828      -277.5514
  21   2.0000     -10.198848      -277.5248
  22   2.0000     -10.195657      -277.4379
  23   2.0000     -10.180058      -277.0134
  24   2.0000      -9.473457      -257.7859
  25   2.0000      -9.472393      -257.7569
  26   2.0000      -9.461817      -257.4691
  27   2.0000      -7.236588      -196.9176
  28   2.0000      -7.235694      -196.8932
  29   2.0000      -7.227021      -196.6572
  30   2.0000      -7.226687      -196.6482
  31   2.0000      -7.226105      -196.6323
  32   2.0000      -7.225371      -196.6123
  33   2.0000      -7.224831      -196.5976
  34   2.0000      -7.215431      -196.3419
  35   2.0000      -7.215102      -196.3329
  36   2.0000      -1.062395       -28.9092
  37   2.0000      -1.024746       -27.8848
  38   2.0000      -0.914807       -24.8932
  39   2.0000      -0.891464       -24.2580
  40   2.0000      -0.887474       -24.1494
  41   2.0000      -0.880270       -23.9534
  42   2.0000      -0.844402       -22.9773
  43   2.0000      -0.837854       -22.7992
  44   2.0000      -0.797118       -21.6907
  45   2.0000      -0.763537       -20.7769
  46   2.0000      -0.760264       -20.6878
  47   2.0000      -0.755447       -20.5568
  48   2.0000      -0.745326       -20.2814
  49   2.0000      -0.726567       -19.7709
  50   2.0000      -0.682565       -18.5735
  51   2.0000      -0.650689       -17.7061
  52   2.0000      -0.636012       -17.3068
  53   2.0000      -0.625460       -17.0196
  54   2.0000      -0.602877       -16.4051
  55   2.0000      -0.593696       -16.1553
  56   2.0000      -0.590038       -16.0558
  57   2.0000      -0.571149       -15.5418
  58   2.0000      -0.545273       -14.8376
  59   2.0000      -0.533196       -14.5090
  60   2.0000      -0.517487       -14.0815
  61   2.0000      -0.511835       -13.9277
  62   2.0000      -0.494646       -13.4600
  63   2.0000      -0.492799       -13.4097
  64   2.0000      -0.481671       -13.1069
  65   2.0000      -0.476969       -12.9790
  66   2.0000      -0.466780       -12.7017
  67   2.0000      -0.459105       -12.4929
  68   2.0000      -0.448983       -12.2174
  69   2.0000      -0.445563       -12.1244
  70   2.0000      -0.436636       -11.8815
  71   2.0000      -0.433292       -11.7905
  72   2.0000      -0.427726       -11.6390
  73   2.0000      -0.419039       -11.4026
  74   2.0000      -0.414459       -11.2780
  75   2.0000      -0.409966       -11.1557
  76   2.0000      -0.400151       -10.8887
  77   2.0000      -0.398149       -10.8342
  78   2.0000      -0.393873       -10.7178
  79   2.0000      -0.386913       -10.5284
  80   2.0000      -0.381294       -10.3755
  81   2.0000      -0.368620       -10.0307
  82   2.0000      -0.363317        -9.8864
  83   2.0000      -0.360599        -9.8124
  84   2.0000      -0.343540        -9.3482
  85   2.0000      -0.332886        -9.0583
  86   2.0000      -0.329373        -8.9627
  87   2.0000      -0.326814        -8.8931
  88   2.0000      -0.318200        -8.6587
  89   2.0000      -0.313202        -8.5227
  90   2.0000      -0.279237        -7.5984
  91   2.0000      -0.271848        -7.3974
  92   2.0000      -0.268139        -7.2964
  93   2.0000      -0.263406        -7.1677
  94   2.0000      -0.258202        -7.0260
  95   2.0000      -0.255093        -6.9414
  96   2.0000      -0.246038        -6.6950
  97   2.0000      -0.216712        -5.8970
  98   0.0000      -0.037897        -1.0312
  99   0.0000      -0.032436        -0.8826
 100   0.0000      -0.020409        -0.5554
 101   0.0000      -0.015355        -0.4178
 102   0.0000       0.000187         0.0051

MULLIKEN ATOMIC CHARGES
-----------------------
   0 Cl:   -0.017004
   1 C :   -0.060352
   2 C :   -0.134236
   3 C :   -0.152082
   4 C :    0.134858
   5 C :   -0.108777
   6 O :   -0.462759
   7 C :    0.080268
   8 C :   -0.199561
   9 N :   -0.300995
  10 C :   -0.018089
  11 C :   -0.047165
  12 N :   -0.384450
  13 C :    0.117723
  14 C :    0.132461
  15 C :   -0.149768
  16 C :   -0.132170
  17 C :   -0.052941
  18 Cl:    0.000244
  19 C :   -0.138324
  20 C :   -0.121716
  21 Cl:    0.015751
  22 C :   -0.141453
  23 C :   -0.136419
  24 H :    0.152517
  25 H :    0.137555
  26 H :    0.135673
  27 H :    0.126863
  28 H :    0.133432
  29 H :    0.175542
  30 H :    0.192292
  31 H :    0.149832
  32 H :    0.131510
  33 H :    0.145621
  34 H :    0.159449
  35 H :    0.162724
  36 H :    0.175524
  37 H :    0.144653
  38 H :    0.153770
Sum of atomic charges:    0.0000000

LOEWDIN ATOMIC CHARGES
----------------------
   0 Cl:    0.037256
   1 C :   -0.084224
   2 C :   -0.132567
   3 C :   -0.117667
   4 C :   -0.031524
   5 C :   -0.090646
   6 O :   -0.211649
   7 C :   -0.006222
   8 C :   -0.147693
   9 N :    0.034255
  10 C :   -0.159122
  11 C :   -0.143754
  12 N :   -0.170539
  13 C :   -0.105849
  14 C :   -0.043403
  15 C :   -0.112245
  16 C :   -0.128556
  17 C :   -0.081726
  18 Cl:    0.050175
  19 C :   -0.137992
  20 C :   -0.082009
  21 Cl:    0.050456
  22 C :   -0.110755
  23 C :   -0.131343
  24 H :    0.144618
  25 H :    0.137311
  26 H :    0.114950
  27 H :    0.108750
  28 H :    0.117631
  29 H :    0.142143
  30 H :    0.150802
  31 H :    0.137942
  32 H :    0.130109
  33 H :    0.132605
  34 H :    0.147499
  35 H :    0.149952
  36 H :    0.157043
  37 H :    0.140758
  38 H :    0.145229

  Mayer bond orders larger than 0.100000
B(  0-Cl,  1-C ) :   1.0149 B(  1-C ,  2-C ) :   1.4197 B(  1-C , 23-C ) :   1.4133
B(  2-C ,  3-C ) :   1.4360 B(  2-C , 24-H ) :   0.9230 B(  3-C ,  4-C ) :   1.4388
B(  3-C , 25-H ) :   0.9231 B(  4-C ,  5-C ) :   0.9944 B(  4-C , 22-C ) :   1.4287
B(  5-C ,  6-O ) :   0.9151 B(  5-C , 26-H ) :   0.9069 B(  5-C , 27-H ) :   0.9149
B(  6-O ,  7-C ) :   0.9041 B(  7-C ,  8-C ) :   0.9535 B(  7-C , 14-C ) :   0.9460
B(  7-C , 28-H ) :   0.9096 B(  8-C ,  9-N ) :   0.9165 B(  8-C , 29-H ) :   0.9239
B(  8-C , 30-H ) :   0.9181 B(  9-N , 10-C ) :   1.1763 B(  9-N , 13-C ) :   1.1925
B( 10-C , 11-C ) :   1.5468 B( 10-C , 31-H ) :   0.9265 B( 11-C , 12-N ) :   1.3582
B( 11-C , 32-H ) :   0.9407 B( 12-N , 13-C ) :   1.5425 B( 13-C , 33-H ) :   0.9343
B( 14-C , 15-C ) :   1.4090 B( 14-C , 20-C ) :   1.3662 B( 15-C , 16-C ) :   1.4342
B( 15-C , 34-H ) :   0.9162 B( 16-C , 17-C ) :   1.4156 B( 16-C , 35-H ) :   0.9206
B( 17-C , 18-Cl) :   1.0268 B( 17-C , 19-C ) :   1.4108 B( 19-C , 20-C ) :   1.4011
B( 19-C , 36-H ) :   0.9153 B( 20-C , 21-Cl) :   1.0456 B( 22-C , 23-C ) :   1.4410
B( 22-C , 37-H ) :   0.9211 B( 23-C , 38-H ) :   0.9230

FINAL SINGLE POINT ENERGY     -2259.470679340107

DIPOLE MOMENT
-------------

Method             : SCF
Type of density    : Electron Density
Multiplicity       :   1
Irrep              :   0
Energy             : -2259.4706793401069262 Eh
Relativity type    :
Basis              : AO
                                X                 Y                 Z
Electronic contribution:      9.671571413     -17.549755408     -11.508021863
Nuclear contribution   :     -9.102604006      17.447898553      11.886617866
                        -----------------------------------------
Total Dipole Moment    :      0.568967407      -0.101856855       0.378596003
                        -----------------------------------------
Magnitude (a.u.)       :      0.690965746
Magnitude (Debye)      :      1.756295351

Rotational constants in cm-1:             0.009303             0.003186             0.002606
Rotational constants in MHz :           278.887392            95.518499            78.115795

                             ****ORCA TERMINATED NORMALLY****
TOTAL RUN TIME: 0 days 0 hours 3 minutes 38 seconds 950 msec
