                         Program Version 6.0.0  -   RELEASE  -
|  1> ! B3LYP 6-31G* SP
|  2>
|  3> * xyz 0 1
|  4> C -0.0230 -1.7139 -2.1110
|  5> C -0.0134 -1.9814 -0.5970
|  6> C -0.4954 -3.3694 -0.2069
|  7> C 0.0357 -3.9705 0.9495
|  8> C -0.4124 -5.2259 1.3702
|  9> C -1.4060 -5.8923 0.6504
| 10> F -1.8418 -7.1088 1.0614
| 11> C -1.9579 -5.3000 -0.4877
| 12> C -1.5136 -4.0441 -0.9131
| 13> N -0.7650 -0.9492 0.1439
| 14> C -2.2206 -0.8006 -0.0140
| 15> C -2.5785 0.6457 -0.2392
| 16> C -3.2075 1.3876 0.7709
| 17> C -3.5049 2.7372 0.5723
| 18> C -3.1624 3.3615 -0.6308
| 19> C -2.5150 2.6388 -1.6497
| 20> C -2.1352 3.2992 -2.9172
| 21> O -2.3640 4.5271 -3.0914
| 22> O -1.5138 2.5709 -3.9297
| 23> C -2.2310 1.2773 -1.4451
| 24> C -0.1207 -0.2588 1.2317
| 25> O -0.6365 -0.2993 2.3821
| 26> C 1.1121 0.5243 1.0023
| 27> C 1.8556 1.0391 2.0769
| 28> C 3.0087 1.7931 1.8210
| 29> C 3.7752 2.3167 2.8745
| 30> C 4.9245 3.0649 2.5996
| 31> C 5.3151 3.2961 1.2769
| 32> C 4.5571 2.7833 0.2200
| 33> C 3.4042 2.0290 0.4848
| 34> C 2.6295 1.5027 -0.5553
| 35> N 1.5158 0.7778 -0.2734
| 36> H 0.5494 -2.5068 -2.6376
| 37> H 0.4643 -0.7393 -2.3227
| 38> H -1.0480 -1.6770 -2.5296
| 39> H 1.0620 -1.9255 -0.3109
| 40> H 0.7973 -3.4635 1.5294
| 41> H 0.0088 -5.6787 2.2586
| 42> H -2.7352 -5.8119 -1.0404
| 43> H -1.9724 -3.6097 -1.7896
| 44> H -2.5975 -1.3982 -0.8688
| 45> H -2.7285 -1.1963 0.8929
| 46> H -3.4673 0.9235 1.7127
| 47> H -3.9969 3.3034 1.3556
| 48> H -3.3996 4.4099 -0.7596
| 49> H -1.2413 3.0148 -4.8000
| 50> H -1.7331 0.7064 -2.2178
| 51> H 1.5429 0.8545 3.0989
| 52> H 3.4862 2.1488 3.9053
| 53> H 5.5141 3.4661 3.4140
| 54> H 6.2046 3.8774 1.0710
| 55> H 4.8715 2.9742 -0.7989
| 56> H 2.9038 1.6701 -1.5893
| 57> *
| 58>
| 59>                          ****END OF INPUT****

CARTESIAN COORDINATES (ANGSTROEM)
---------------------------------
  C     -0.023000   -1.713900   -2.111000
  C     -0.013400   -1.981400   -0.597000
  C     -0.495400   -3.369400   -0.206900
  C      0.035700   -3.970500    0.949500
  C     -0.412400   -5.225900    1.370200
  C     -1.406000   -5.892300    0.650400
  F     -1.841800   -7.108800    1.061400
  C     -1.957900   -5.300000   -0.487700
  C     -1.513600   -4.044100   -0.913100
  N     -0.765000   -0.949200    0.143900
  C     -2.220600   -0.800600   -0.014000
  C     -2.578500    0.645700   -0.239200
  C     -3.207500    1.387600    0.770900
  C     -3.504900    2.737200    0.572300
  C     -3.162400    3.361500   -0.630800
  C     -2.515000    2.638800   -1.649700
  C     -2.135200    3.299200   -2.917200
  O     -2.364000    4.527100   -3.091400
  O     -1.513800    2.570900   -3.929700
  C     -2.231000    1.277300   -1.445100
  C     -0.120700   -0.258800    1.231700
  O     -0.636500   -0.299300    2.382100
  C      1.112100    0.524300    1.002300
  C      1.855600    1.039100    2.076900
  C      3.008700    1.793100    1.821000
  C      3.775200    2.316700    2.874500
  C      4.924500    3.064900    2.599600
  C      5.315100    3.296100    1.276900
  C      4.557100    2.783300    0.220000
  C      3.404200    2.029000    0.484800
  C      2.629500    1.502700   -0.555300
  N      1.515800    0.777800   -0.273400
  H      0.549400   -2.506800   -2.637600
  H      0.464300   -0.739300   -2.322700
  H     -1.048000   -1.677000   -2.529600
  H      1.062000   -1.925500   -0.310900
  H      0.797300   -3.463500    1.529400
  H      0.008800   -5.678700    2.258600
  H     -2.735200   -5.811900   -1.040400
  H     -1.972400   -3.609700   -1.789600
  H     -2.597500   -1.398200   -0.868800
  H     -2.728500   -1.196300    0.892900
  H     -3.467300    0.923500    1.712700
  H     -3.996900    3.303400    1.355600
  H     -3.399600    4.409900   -0.759600
  H     -1.241300    3.014800   -4.800000
  H     -1.733100    0.706400   -2.217800
  H      1.542900    0.854500    3.098900
  H      3.486200    2.148800    3.905300
  H      5.514100    3.466100    3.414000
  H      6.204600    3.877400    1.071000
  H      4.871500    2.974200   -0.798900
  H      2.903800    1.670100   -1.589300

 Total Charge           Charge          ....    0
 Multiplicity           Mult            ....    1
 Number of Electrons    NEL             ....  224
 Basis Dimension        Dim             ....  490

ORBITAL ENERGIES
----------------

  NO   OCC          E(Eh)            E(eV)
   0   2.0000     -24.694648      -671.9755
   1   2.0000     -19.177410      -521.8439
   2   2.0000     -19.119225      -520.2606
   3   2.0000     -19.116438      -520.1847
   4   2.0000     -14.335632      -390.0924
   5   2.0000     -14.335578      -390.0909
   6   2.0000     -10.314051      -280.6596
   7   2.0000     -10.288108      -279.9537
   8   2.0000     -10.265069      -279.3267
   9   2.0000     -10.231320      -278.4084
  10   2.0000     -10.230914      -278.3973
  11   2.0000     -10.224339      -278.2184
  12   2.0000     -10.214597      -277.9533
  13   2.0000     -10.209568      -277.8165
  14   2.0000     -10.206214      -277.7252
  15   2.0000     -10.202903      -277.6351
  16   2.0000     -10.202661      -277.6285
  17   2.0000     -10.202223      -277.6166
  18   2.0000     -10.201788      -277.6048
  19   2.0000     -10.201320      -277.5920
  20   2.0000     -10.200924      -277.5813
  21   2.0000     -10.190590      -277.3001
  22   2.0000     -10.190528      -277.2984
  23   2.0000     -10.189903      -277.2814
  24   2.0000     -10.188435      -277.2414
  25   2.0000     -10.187621      -277.2193
  26   2.0000     -10.187488      -277.2156
  27   2.0000     -10.187071      -277.2043
  28   2.0000     -10.186795      -277.1968
  29   2.0000     -10.185463      -277.1605
  30   2.0000     -10.183222      -277.0996
  31   2.0000     -10.167297      -276.6662
  32   2.0000      -1.207747       -32.8645
  33   2.0000      -1.061248       -28.8780
  34   2.0000      -1.015383       -27.6300
  35   2.0000      -0.974838       -26.5267
  36   2.0000      -0.940734       -25.5987
  37   2.0000      -0.914599       -24.8875
  38   2.0000      -0.870886       -23.6980
  39   2.0000      -0.858401       -23.3583
  40   2.0000      -0.851749       -23.1773
  41   2.0000      -0.800337       -21.7783
  42   2.0000      -0.784550       -21.3487
  43   2.0000      -0.783283       -21.3142
  44   2.0000      -0.762257       -20.7421
  45   2.0000      -0.754287       -20.5252
  46   2.0000      -0.750980       -20.4352
  47   2.0000      -0.743763       -20.2388
  48   2.0000      -0.717511       -19.5245
  49   2.0000      -0.688635       -18.7387
  50   2.0000      -0.659675       -17.9507
  51   2.0000      -0.652765       -17.7626
  52   2.0000      -0.647813       -17.6279
  53   2.0000      -0.629913       -17.1408
  54   2.0000      -0.619753       -16.8643
  55   2.0000      -0.616044       -16.7634
  56   2.0000      -0.605048       -16.4642
  57   2.0000      -0.587721       -15.9927
  58   2.0000      -0.577077       -15.7031
  59   2.0000      -0.558721       -15.2036
  60   2.0000      -0.537266       -14.6197
  61   2.0000      -0.533749       -14.5240
  62   2.0000      -0.523853       -14.2548
  63   2.0000      -0.512154       -13.9364
  64   2.0000      -0.503638       -13.7047
  65   2.0000      -0.488388       -13.2897
  66   2.0000      -0.486832       -13.2474
  67   2.0000      -0.485074       -13.1995
  68   2.0000      -0.473238       -12.8775
  69   2.0000      -0.468726       -12.7547
  70   2.0000      -0.461519       -12.5586
  71   2.0000      -0.456003       -12.4085
  72   2.0000      -0.450003       -12.2452
  73   2.0000      -0.447255       -12.1704
  74   2.0000      -0.443028       -12.0554
  75   2.0000      -0.438108       -11.9215
  76   2.0000      -0.435562       -11.8522
  77   2.0000      -0.430793       -11.7225
  78   2.0000      -0.427419       -11.6307
  79   2.0000      -0.425799       -11.5866
  80   2.0000      -0.420515       -11.4428
  81   2.0000      -0.419478       -11.4146
  82   2.0000      -0.414912       -11.2903
  83   2.0000      -0.404721       -11.0130
  84   2.0000      -0.400168       -10.8891
  85   2.0000      -0.391198       -10.6450
  86   2.0000      -0.389677       -10.6037
  87   2.0000      -0.384325       -10.4580
  88   2.0000      -0.374350       -10.1866
  89   2.0000      -0.371955       -10.1214
  90   2.0000      -0.368667       -10.0319
  91   2.0000      -0.359524        -9.7831
  92   2.0000      -0.358387        -9.7522
  93   2.0000      -0.353768        -9.6265
  94   2.0000      -0.351994        -9.5782
  95   2.0000      -0.347774        -9.4634
  96   2.0000      -0.341619        -9.2959
  97   2.0000      -0.339491        -9.2380
  98   2.0000      -0.337061        -9.1719
  99   2.0000      -0.332590        -9.0502
 100   2.0000      -0.303124        -8.2484
 101   2.0000      -0.297914        -8.1067
 102   2.0000      -0.273019        -7.4292
 103   2.0000      -0.264167        -7.1883
 104   2.0000      -0.255369        -6.9489
 105   2.0000      -0.254633        -6.9289
 106   2.0000      -0.253338        -6.8937
 107   2.0000      -0.249032        -6.7765
 108   2.0000      -0.246365        -6.7039
 109   2.0000      -0.237309        -6.4575
 110   2.0000      -0.230172        -6.2633
 111   2.0000      -0.209152        -5.6913
 112   0.0000      -0.072452        -1.9715
 113   0.0000      -0.052280        -1.4226
 114   0.0000      -0.043331        -1.1791
 115   0.0000      -0.008673        -0.2360
 116   0.0000      -0.005291        -0.1440

MULLIKEN ATOMIC CHARGES
-----------------------
   0 C :   -0.459554
   1 C :   -0.073497
   2 C :    0.170607
   3 C :   -0.156055
   4 C :   -0.207727
   5 C :    0.410538
   6 F :   -0.319750
   7 C :   -0.212590
   8 C :   -0.163766
   9 N :   -0.398590
  10 C :   -0.225338
  11 C :    0.134452
  12 C :   -0.151528
  13 C :   -0.132356
  14 C :   -0.152770
  15 C :    0.081052
  16 C :    0.519041
  17 O :   -0.458683
  18 O :   -0.627393
  19 C :   -0.188373
  20 C :    0.477518
  21 O :   -0.457833
  22 C :    0.201894
  23 C :   -0.228111
  24 C :    0.174772
  25 C :   -0.187061
  26 C :   -0.129156
  27 C :   -0.123535
  28 C :   -0.202218
  29 C :    0.139239
  30 C :   -0.047636
  31 N :   -0.411582
  32 H :    0.141112
  33 H :    0.180829
  34 H :    0.136053
  35 H :    0.151517
  36 H :    0.138255
  37 H :    0.144030
  38 H :    0.142446
  39 H :    0.134029
  40 H :    0.157659
  41 H :    0.163639
  42 H :    0.148985
  43 H :    0.137029
  44 H :    0.160925
  45 H :    0.425166
  46 H :    0.158429
  47 H :    0.165958
  48 H :    0.144618
  49 H :    0.140990
  50 H :    0.139849
  51 H :    0.140632
  52 H :    0.153839
Sum of atomic charges:    0.0000000

LOEWDIN ATOMIC CHARGES
----------------------
   0 C :   -0.367113
   1 C :   -0.047727
   2 C :   -0.030160
   3 C :   -0.116006
   4 C :   -0.155239
   5 C :    0.114719
   6 F :   -0.105790
   7 C :   -0.158091
   8 C :   -0.128598
   9 N :   -0.106591
  10 C :   -0.141413
  11 C :   -0.030757
  12 C :   -0.108195
  13 C :   -0.130029
  14 C :   -0.093683
  15 C :   -0.059538
  16 C :    0.179152
  17 O :   -0.274942
  18 O :   -0.340594
  19 C :   -0.095138
  20 C :    0.142213
  21 O :   -0.259592
  22 C :   -0.023681
  23 C :   -0.089434
  24 C :   -0.007267
  25 C :   -0.112296
  26 C :   -0.118628
  27 C :   -0.120452
  28 C :   -0.113839
  29 C :   -0.026736
  30 C :   -0.056693
  31 N :   -0.124970
  32 H :    0.125585
  33 H :    0.141613
  34 H :    0.116061
  35 H :    0.136597
  36 H :    0.136978
  37 H :    0.143026
  38 H :    0.141996
  39 H :    0.134355
  40 H :    0.135331
  41 H :    0.131701
  42 H :    0.141764
  43 H :    0.136163
  44 H :    0.150242
  45 H :    0.343686
  46 H :    0.147305
  47 H :    0.153787
  48 H :    0.140035
  49 H :    0.137963
  50 H :    0.137354
  51 H :    0.137835
  52 H :    0.137732

  Mayer bond orders larger than 0.100000
B(  0-C ,  1-C ) :   0.9950 B(  0-C , 32-H ) :   0.9418 B(  0-C , 33-H ) :   0.9272
B(  0-C , 34-H ) :   0.9356 B(  1-C ,  2-C ) :   0.9480 B(  1-C ,  9-N ) :   0.9540
B(  1-C , 35-H ) :   0.9206 B(  2-C ,  3-C ) :   1.4188 B(  2-C ,  8-C ) :   1.4226
B(  3-C ,  4-C ) :   1.4259 B(  3-C , 36-H ) :   0.9231 B(  4-C ,  5-C ) :   1.3908
B(  4-C , 37-H ) :   0.9206 B(  5-C ,  6-F ) :   0.9158 B(  5-C ,  7-C ) :   1.3969
B(  7-C ,  8-C ) :   1.4175 B(  7-C , 38-H ) :   0.9210 B(  8-C , 39-H ) :   0.9200
B(  9-N , 10-C ) :   0.9369 B(  9-N , 20-C ) :   1.0192 B( 10-C , 11-C ) :   0.9687
B( 10-C , 40-H ) :   0.9222 B( 10-C , 41-H ) :   0.9154 B( 11-C , 12-C ) :   1.4459
B( 11-C , 19-C ) :   1.3947 B( 12-C , 13-C ) :   1.4107 B( 12-C , 42-H ) :   0.9187
B( 13-C , 14-C ) :   1.4431 B( 13-C , 43-H ) :   0.9288 B( 14-C , 15-C ) :   1.3928
B( 14-C , 44-H ) :   0.9141 B( 15-C , 16-C ) :   1.0144 B( 15-C , 19-C ) :   1.3774
B( 16-C , 17-O ) :   1.8552 B( 16-C , 18-O ) :   1.0118 B( 18-O , 45-H ) :   0.7472
B( 19-C , 46-H ) :   0.9053 B( 20-C , 21-O ) :   1.8391 B( 20-C , 22-C ) :   0.9800
B( 22-C , 23-C ) :   1.4169 B( 22-C , 31-N ) :   1.2575 B( 23-C , 24-C ) :   1.2574
B( 23-C , 47-H ) :   0.9078 B( 24-C , 25-C ) :   1.2886 B( 24-C , 29-C ) :   1.2951
B( 25-C , 26-C ) :   1.5106 B( 25-C , 28-C ) :   0.1052 B( 25-C , 48-H ) :   0.9232
B( 26-C , 27-C ) :   1.3475 B( 26-C , 49-H ) :   0.9284 B( 27-C , 28-C ) :   1.5104
B( 27-C , 50-H ) :   0.9290 B( 28-C , 29-C ) :   1.2911 B( 28-C , 51-H ) :   0.9231
B( 29-C , 30-C ) :   1.2311 B( 30-C , 31-N ) :   1.5057 B( 30-C , 52-H ) :   0.9264

FINAL SINGLE POINT ENERGY     -1437.563422634553

DIPOLE MOMENT
-------------

Method             : SCF
Type of density    : Electron Density
Multiplicity       :   1
Irrep              :   0
Energy             : -1437.5634226345525803 Eh
Relativity type    :
Basis              : AO
                                X                 Y                 Z
Electronic contribution:     -4.695381689      -6.562169465       3.789571995
Nuclear contribution   :      6.467967164       6.757112838      -4.004588548
                        -----------------------------------------
Total Dipole Moment    :      1.772585474       0.194943374      -0.215016553
                        -----------------------------------------
Magnitude (a.u.)       :      1.796188827
Magnitude (Debye)      :      4.565549167

Rotational constants in cm-1:             0.004722             0.003148             0.002230
Rotational constants in MHz :           141.557446            94.360045            66.859597

                             ****ORCA TERMINATED NORMALLY****
TOTAL RUN TIME: 0 days 0 hours 9 minutes 29 seconds 46 msec
