                         Program Version 6.0.0  -   RELEASE  -
|  1> ! B3LYP 6-31G* SP
|  2>
|  3> * xyz 0 1
|  4> C -0.0558 -1.1929 -3.5804
|  5> C -0.2030 -1.0540 -2.0588
|  6> C -1.2414 -1.9980 -1.4624
|  7> C -1.0416 -2.5094 -0.1663
|  8> C -2.0028 -3.3277 0.4336
|  9> C -3.1742 -3.6522 -0.2527
| 10> F -4.1062 -4.4446 0.3318
| 11> C -3.3848 -3.1607 -1.5422
| 12> C -2.4294 -2.3371 -2.1451
| 13> N -0.4624 0.3560 -1.6994
| 14> C -1.8180 0.9284 -1.7353
| 15> C -2.4310 0.8747 -0.3662
| 16> C -3.6497 0.2196 -0.1419
| 17> C -4.1656 0.1601 1.1529
| 18> C -3.4734 0.7571 2.2078
| 19> C -2.2621 1.4180 1.9499
| 20> C -1.4872 2.0533 3.0289
| 21> O -1.9087 2.0415 4.2172
| 22> O -0.2738 2.6687 2.7351
| 23> N -1.7829 1.4604 0.6773
| 24> C 0.6560 1.2549 -1.5765
| 25> O 0.7504 2.2313 -2.3690
| 26> C 1.6967 1.0528 -0.5421
| 27> C 1.4172 0.3344 0.6316
| 28> N 2.3730 0.1672 1.5832
| 29> C 3.6224 0.6821 1.4425
| 30> C 4.5813 0.4851 2.4429
| 31> C 5.8651 1.0197 2.2959
| 32> C 6.1945 1.7531 1.1512
| 33> C 5.2422 1.9558 0.1469
| 34> C 3.9520 1.4221 0.2864
| 35> C 2.9773 1.6068 -0.7019
| 36> H 0.8516 -0.6487 -3.9185
| 37> H 0.0553 -2.2619 -3.8619
| 38> H -0.9289 -0.7597 -4.1109
| 39> H 0.7834 -1.3554 -1.6395
| 40> H -0.1377 -2.2823 0.3820
| 41> H -1.8370 -3.7111 1.4321
| 42> H -4.2945 -3.4094 -2.0739
| 43> H -2.6327 -1.9599 -3.1374
| 44> H -2.4454 0.3920 -2.4766
| 45> H -1.7898 1.9877 -2.0702
| 46> H -4.1901 -0.2466 -0.9558
| 47> H -5.1011 -0.3513 1.3396
| 48> H -3.8792 0.7024 3.2103
| 49> H 0.2780 3.1058 3.4636
| 50> H 0.4337 -0.0744 0.8051
| 51> H 4.3344 -0.0803 3.3330
| 52> H 6.6060 0.8657 3.0698
| 53> H 7.1896 2.1647 1.0422
| 54> H 5.5125 2.5262 -0.7337
| 55> H 3.2179 2.1700 -1.5964
| 56> *
| 57>
| 58>                          ****END OF INPUT****

CARTESIAN COORDINATES (ANGSTROEM)
---------------------------------
  C     -0.055800   -1.192900   -3.580400
  C     -0.203000   -1.054000   -2.058800
  C     -1.241400   -1.998000   -1.462400
  C     -1.041600   -2.509400   -0.166300
  C     -2.002800   -3.327700    0.433600
  C     -3.174200   -3.652200   -0.252700
  F     -4.106200   -4.444600    0.331800
  C     -3.384800   -3.160700   -1.542200
  C     -2.429400   -2.337100   -2.145100
  N     -0.462400    0.356000   -1.699400
  C     -1.818000    0.928400   -1.735300
  C     -2.431000    0.874700   -0.366200
  C     -3.649700    0.219600   -0.141900
  C     -4.165600    0.160100    1.152900
  C     -3.473400    0.757100    2.207800
  C     -2.262100    1.418000    1.949900
  C     -1.487200    2.053300    3.028900
  O     -1.908700    2.041500    4.217200
  O     -0.273800    2.668700    2.735100
  N     -1.782900    1.460400    0.677300
  C      0.656000    1.254900   -1.576500
  O      0.750400    2.231300   -2.369000
  C      1.696700    1.052800   -0.542100
  C      1.417200    0.334400    0.631600
  N      2.373000    0.167200    1.583200
  C      3.622400    0.682100    1.442500
  C      4.581300    0.485100    2.442900
  C      5.865100    1.019700    2.295900
  C      6.194500    1.753100    1.151200
  C      5.242200    1.955800    0.146900
  C      3.952000    1.422100    0.286400
  C      2.977300    1.606800   -0.701900
  H      0.851600   -0.648700   -3.918500
  H      0.055300   -2.261900   -3.861900
  H     -0.928900   -0.759700   -4.110900
  H      0.783400   -1.355400   -1.639500
  H     -0.137700   -2.282300    0.382000
  H     -1.837000   -3.711100    1.432100
  H     -4.294500   -3.409400   -2.073900
  H     -2.632700   -1.959900   -3.137400
  H     -2.445400    0.392000   -2.476600
  H     -1.789800    1.987700   -2.070200
  H     -4.190100   -0.246600   -0.955800
  H     -5.101100   -0.351300    1.339600
  H     -3.879200    0.702400    3.210300
  H      0.278000    3.105800    3.463600
  H      0.433700   -0.074400    0.805100
  H      4.334400   -0.080300    3.333000
  H      6.606000    0.865700    3.069800
  H      7.189600    2.164700    1.042200
  H      5.512500    2.526200   -0.733700
  H      3.217900    2.170000   -1.596400

 Total Charge           Charge          ....    0
 Multiplicity           Mult            ....    1
 Number of Electrons    NEL             ....  224
 Basis Dimension        Dim             ....  488

ORBITAL ENERGIES
----------------

  NO   OCC          E(Eh)            E(eV)
   0   2.0000     -24.705080      -672.2594
   1   2.0000     -19.176119      -521.8087
   2   2.0000     -19.125927      -520.4429
   3   2.0000     -19.118028      -520.2280
   4   2.0000     -14.341140      -390.2423
   5   2.0000     -14.336957      -390.1284
   6   2.0000     -14.320886      -389.6911
   7   2.0000     -10.320818      -280.8437
   8   2.0000     -10.289334      -279.9870
   9   2.0000     -10.276355      -279.6338
  10   2.0000     -10.243094      -278.7288
  11   2.0000     -10.235681      -278.5270
  12   2.0000     -10.233768      -278.4750
  13   2.0000     -10.224634      -278.2264
  14   2.0000     -10.220343      -278.1097
  15   2.0000     -10.219096      -278.0757
  16   2.0000     -10.207817      -277.7688
  17   2.0000     -10.204193      -277.6702
  18   2.0000     -10.202987      -277.6374
  19   2.0000     -10.202745      -277.6308
  20   2.0000     -10.202123      -277.6139
  21   2.0000     -10.201525      -277.5976
  22   2.0000     -10.200153      -277.5603
  23   2.0000     -10.199080      -277.5311
  24   2.0000     -10.199012      -277.5292
  25   2.0000     -10.197157      -277.4787
  26   2.0000     -10.195538      -277.4347
  27   2.0000     -10.193743      -277.3858
  28   2.0000     -10.192764      -277.3592
  29   2.0000     -10.191261      -277.3183
  30   2.0000     -10.186008      -277.1754
  31   2.0000     -10.178106      -276.9603
  32   2.0000      -1.218243       -33.1501
  33   2.0000      -1.063630       -28.9428
  34   2.0000      -1.014604       -27.6088
  35   2.0000      -0.980442       -26.6792
  36   2.0000      -0.945546       -25.7296
  37   2.0000      -0.933690       -25.4070
  38   2.0000      -0.917310       -24.9613
  39   2.0000      -0.865688       -23.5566
  40   2.0000      -0.848724       -23.0949
  41   2.0000      -0.810560       -22.0565
  42   2.0000      -0.805974       -21.9317
  43   2.0000      -0.801510       -21.8102
  44   2.0000      -0.779023       -21.1983
  45   2.0000      -0.762909       -20.7598
  46   2.0000      -0.761583       -20.7237
  47   2.0000      -0.739991       -20.1362
  48   2.0000      -0.731761       -19.9122
  49   2.0000      -0.705190       -19.1892
  50   2.0000      -0.676821       -18.4172
  51   2.0000      -0.658390       -17.9157
  52   2.0000      -0.645120       -17.5546
  53   2.0000      -0.636481       -17.3195
  54   2.0000      -0.627000       -17.0615
  55   2.0000      -0.618527       -16.8310
  56   2.0000      -0.605123       -16.4662
  57   2.0000      -0.597015       -16.2456
  58   2.0000      -0.593086       -16.1387
  59   2.0000      -0.558696       -15.2029
  60   2.0000      -0.546945       -14.8831
  61   2.0000      -0.536547       -14.6002
  62   2.0000      -0.525017       -14.2864
  63   2.0000      -0.524094       -14.2613
  64   2.0000      -0.510407       -13.8889
  65   2.0000      -0.506966       -13.7953
  66   2.0000      -0.496151       -13.5010
  67   2.0000      -0.492295       -13.3960
  68   2.0000      -0.480961       -13.0876
  69   2.0000      -0.472697       -12.8627
  70   2.0000      -0.461445       -12.5566
  71   2.0000      -0.460693       -12.5361
  72   2.0000      -0.456621       -12.4253
  73   2.0000      -0.449764       -12.2387
  74   2.0000      -0.447909       -12.1882
  75   2.0000      -0.444084       -12.0841
  76   2.0000      -0.436494       -11.8776
  77   2.0000      -0.434016       -11.8102
  78   2.0000      -0.430215       -11.7067
  79   2.0000      -0.427541       -11.6340
  80   2.0000      -0.419789       -11.4230
  81   2.0000      -0.416784       -11.3413
  82   2.0000      -0.412320       -11.2198
  83   2.0000      -0.410825       -11.1791
  84   2.0000      -0.401404       -10.9227
  85   2.0000      -0.399966       -10.8836
  86   2.0000      -0.397125       -10.8063
  87   2.0000      -0.388611       -10.5746
  88   2.0000      -0.386126       -10.5070
  89   2.0000      -0.377813       -10.2808
  90   2.0000      -0.369973       -10.0675
  91   2.0000      -0.364456        -9.9173
  92   2.0000      -0.362886        -9.8746
  93   2.0000      -0.361881        -9.8473
  94   2.0000      -0.359650        -9.7866
  95   2.0000      -0.353218        -9.6116
  96   2.0000      -0.350030        -9.5248
  97   2.0000      -0.345330        -9.3969
  98   2.0000      -0.330921        -9.0048
  99   2.0000      -0.301491        -8.2040
 100   2.0000      -0.299939        -8.1618
 101   2.0000      -0.289680        -7.8826
 102   2.0000      -0.270874        -7.3709
 103   2.0000      -0.267523        -7.2797
 104   2.0000      -0.266037        -7.2392
 105   2.0000      -0.262290        -7.1373
 106   2.0000      -0.254667        -6.9298
 107   2.0000      -0.250567        -6.8183
 108   2.0000      -0.247280        -6.7288
 109   2.0000      -0.237843        -6.4720
 110   2.0000      -0.225852        -6.1457
 111   2.0000      -0.218120        -5.9353
 112   0.0000      -0.069592        -1.8937
 113   0.0000      -0.063513        -1.7283
 114   0.0000      -0.036891        -1.0039
 115   0.0000      -0.028375        -0.7721
 116   0.0000      -0.019555        -0.5321

MULLIKEN ATOMIC CHARGES
-----------------------
   0 C :   -0.435765
   1 C :   -0.062760
   2 C :    0.140877
   3 C :   -0.163080
   4 C :   -0.206943
   5 C :    0.412139
   6 F :   -0.317415
   7 C :   -0.215730
   8 C :   -0.169330
   9 N :   -0.420257
  10 C :   -0.225923
  11 C :    0.282945
  12 C :   -0.150875
  13 C :   -0.100640
  14 C :   -0.147703
  15 C :    0.194687
  16 C :    0.548691
  17 O :   -0.450693
  18 O :   -0.602329
  19 N :   -0.433577
  20 C :    0.459357
  21 O :   -0.452381
  22 C :    0.058393
  23 C :   -0.004499
  24 N :   -0.443292
  25 C :    0.215246
  26 C :   -0.146362
  27 C :   -0.128312
  28 C :   -0.132814
  29 C :   -0.197391
  30 C :    0.160440
  31 C :   -0.181695
  32 H :    0.160234
  33 H :    0.147539
  34 H :    0.146715
  35 H :    0.151557
  36 H :    0.153275
  37 H :    0.152009
  38 H :    0.145585
  39 H :    0.138617
  40 H :    0.146409
  41 H :    0.197879
  42 H :    0.140403
  43 H :    0.150456
  44 H :    0.170021
  45 H :    0.429352
  46 H :    0.167118
  47 H :    0.143608
  48 H :    0.137269
  49 H :    0.134721
  50 H :    0.138433
  51 H :    0.165792
Sum of atomic charges:    0.0000000

LOEWDIN ATOMIC CHARGES
----------------------
   0 C :   -0.361004
   1 C :   -0.050842
   2 C :   -0.030952
   3 C :   -0.117043
   4 C :   -0.151910
   5 C :    0.116050
   6 F :   -0.103711
   7 C :   -0.160817
   8 C :   -0.130003
   9 N :   -0.121310
  10 C :   -0.147649
  11 C :    0.022555
  12 C :   -0.124277
  13 C :   -0.102497
  14 C :   -0.106604
  15 C :   -0.008437
  16 C :    0.178070
  17 O :   -0.265262
  18 O :   -0.316579
  19 N :   -0.111610
  20 C :    0.151289
  21 O :   -0.255952
  22 C :   -0.073748
  23 C :   -0.049779
  24 N :   -0.135446
  25 C :    0.019676
  26 C :   -0.118138
  27 C :   -0.117837
  28 C :   -0.129962
  29 C :   -0.114030
  30 C :   -0.032572
  31 C :   -0.055674
  32 H :    0.134430
  33 H :    0.127931
  34 H :    0.124421
  35 H :    0.134043
  36 H :    0.142629
  37 H :    0.146730
  38 H :    0.143088
  39 H :    0.136183
  40 H :    0.127093
  41 H :    0.158358
  42 H :    0.138964
  43 H :    0.142426
  44 H :    0.155186
  45 H :    0.346776
  46 H :    0.143880
  47 H :    0.144121
  48 H :    0.136366
  49 H :    0.134828
  50 H :    0.136172
  51 H :    0.152382

  Mayer bond orders larger than 0.100000
B(  0-C ,  1-C ) :   0.9885 B(  0-C , 32-H ) :   0.9416 B(  0-C , 33-H ) :   0.9396
B(  0-C , 34-H ) :   0.9407 B(  1-C ,  2-C ) :   0.9731 B(  1-C ,  9-N ) :   0.9550
B(  1-C , 35-H ) :   0.9152 B(  2-C ,  3-C ) :   1.4218 B(  2-C ,  8-C ) :   1.4203
B(  3-C ,  4-C ) :   1.4238 B(  3-C , 36-H ) :   0.9156 B(  4-C ,  5-C ) :   1.3907
B(  4-C , 37-H ) :   0.9191 B(  5-C ,  6-F ) :   0.9185 B(  5-C ,  7-C ) :   1.3934
B(  7-C ,  8-C ) :   1.4115 B(  7-C , 38-H ) :   0.9206 B(  8-C , 39-H ) :   0.9192
B(  9-N , 10-C ) :   0.9629 B(  9-N , 20-C ) :   0.9862 B( 10-C , 11-C ) :   0.9525
B( 10-C , 40-H ) :   0.9251 B( 10-C , 41-H ) :   0.9051 B( 11-C , 12-C ) :   1.3954
B( 11-C , 19-N ) :   1.3901 B( 12-C , 13-C ) :   1.4376 B( 12-C , 42-H ) :   0.9146
B( 13-C , 14-C ) :   1.4316 B( 13-C , 43-H ) :   0.9274 B( 14-C , 15-C ) :   1.3932
B( 14-C , 44-H ) :   0.9106 B( 15-C , 16-C ) :   0.9847 B( 15-C , 19-N ) :   1.3463
B( 16-C , 17-O ) :   1.8596 B( 16-C , 18-O ) :   1.0454 B( 18-O , 45-H ) :   0.7455
B( 20-C , 21-O ) :   1.8467 B( 20-C , 22-C ) :   0.9807 B( 22-C , 23-C ) :   1.2666
B( 22-C , 31-C ) :   1.4336 B( 23-C , 24-N ) :   1.4935 B( 23-C , 46-H ) :   0.9046
B( 24-N , 25-C ) :   1.2526 B( 25-C , 26-C ) :   1.3116 B( 25-C , 30-C ) :   1.2489
B( 26-C , 27-C ) :   1.5124 B( 26-C , 29-C ) :   0.1071 B( 26-C , 47-H ) :   0.9175
B( 27-C , 28-C ) :   1.3462 B( 27-C , 48-H ) :   0.9294 B( 28-C , 29-C ) :   1.5152
B( 28-C , 49-H ) :   0.9298 B( 29-C , 30-C ) :   1.2762 B( 29-C , 50-H ) :   0.9239
B( 30-C , 31-C ) :   1.2692 B( 31-C , 51-H ) :   0.9110

FINAL SINGLE POINT ENERGY     -1453.592045201813

DIPOLE MOMENT
-------------

Method             : SCF
Type of density    : Electron Density
Multiplicity       :   1
Irrep              :   0
Energy             : -1453.5920452018126525 Eh
Relativity type    :
Basis              : AO
                                X                 Y                 Z
Electronic contribution:     -7.796458131      -0.376341673      11.204522271
Nuclear contribution   :      8.036890369      -0.299411988     -11.947529197
                        -----------------------------------------
Total Dipole Moment    :      0.240432237      -0.675753661      -0.743006927
                        -----------------------------------------
Magnitude (a.u.)       :      1.032719693
Magnitude (Debye)      :      2.624964850

Rotational constants in cm-1:             0.006592             0.003164             0.002741
Rotational constants in MHz :           197.616790            94.842042            82.173091

                             ****ORCA TERMINATED NORMALLY****
TOTAL RUN TIME: 0 days 0 hours 7 minutes 40 seconds 11 msec
