                         Program Version 6.0.0  -   RELEASE  -
|  1> ! B3LYP 6-31G* SP
|  2>
|  3> * xyz 0 1
|  4> C -6.0845 1.6158 -1.1716
|  5> O -4.6907 1.5366 -0.8915
|  6> C -4.0877 0.5042 -0.1575
|  7> C -4.8233 -0.5705 0.3767
|  8> C -4.1730 -1.5817 1.0876
|  9> C -2.7909 -1.5283 1.2802
| 10> C -2.0448 -0.4536 0.7750
| 11> N -0.6196 -0.4303 0.9682
| 12> C 0.1513 0.7800 1.0632
| 13> O -0.4058 1.8530 1.4198
| 14> C 1.6059 0.7932 0.8124
| 15> C 2.2457 -0.2042 0.1843
| 16> C 3.7066 -0.2115 -0.0773
| 17> C 4.3367 -1.4417 -0.3333
| 18> C 5.7091 -1.4980 -0.5940
| 19> C 6.4680 -0.3249 -0.6127
| 20> Cl 8.1893 -0.3972 -0.9425
| 21> C 5.8515 0.9067 -0.3765
| 22> C 4.4791 0.9681 -0.1144
| 23> C -2.7020 0.5519 0.0416
| 24> H -6.2834 2.5309 -1.7661
| 25> H -6.6616 1.6745 -0.2247
| 26> H -6.4063 0.7317 -1.7616
| 27> H -5.8941 -0.6373 0.2419
| 28> H -4.7418 -2.4104 1.4894
| 29> H -2.3011 -2.3206 1.8322
| 30> H -0.1407 -1.3364 1.1713
| 31> H 2.1495 1.6639 1.1515
| 32> H 1.6862 -1.0724 -0.1396
| 33> H 3.7666 -2.3629 -0.3229
| 34> H 6.1806 -2.4541 -0.7821
| 35> H 6.4335 1.8193 -0.4030
| 36> H 4.0316 1.9409 0.0319
| 37> H -2.1399 1.3654 -0.3980
| 38> *
| 39>
| 40>                          ****END OF INPUT****

CARTESIAN COORDINATES (ANGSTROEM)
---------------------------------
  C     -6.084500    1.615800   -1.171600
  O     -4.690700    1.536600   -0.891500
  C     -4.087700    0.504200   -0.157500
  C     -4.823300   -0.570500    0.376700
  C     -4.173000   -1.581700    1.087600
  C     -2.790900   -1.528300    1.280200
  C     -2.044800   -0.453600    0.775000
  N     -0.619600   -0.430300    0.968200
  C      0.151300    0.780000    1.063200
  O     -0.405800    1.853000    1.419800
  C      1.605900    0.793200    0.812400
  C      2.245700   -0.204200    0.184300
  C      3.706600   -0.211500   -0.077300
  C      4.336700   -1.441700   -0.333300
  C      5.709100   -1.498000   -0.594000
  C      6.468000   -0.324900   -0.612700
  Cl     8.189300   -0.397200   -0.942500
  C      5.851500    0.906700   -0.376500
  C      4.479100    0.968100   -0.114400
  C     -2.702000    0.551900    0.041600
  H     -6.283400    2.530900   -1.766100
  H     -6.661600    1.674500   -0.224700
  H     -6.406300    0.731700   -1.761600
  H     -5.894100   -0.637300    0.241900
  H     -4.741800   -2.410400    1.489400
  H     -2.301100   -2.320600    1.832200
  H     -0.140700   -1.336400    1.171300
  H      2.149500    1.663900    1.151500
  H      1.686200   -1.072400   -0.139600
  H      3.766600   -2.362900   -0.322900
  H      6.180600   -2.454100   -0.782100
  H      6.433500    1.819300   -0.403000
  H      4.031600    1.940900    0.031900
  H     -2.139900    1.365400   -0.398000

 Total Charge           Charge          ....    0
 Multiplicity           Mult            ....    1
 Number of Electrons    NEL             ....  150
 Basis Dimension        Dim             ....  312

ORBITAL ENERGIES
----------------

  NO   OCC          E(Eh)            E(eV)
   0   2.0000    -101.535176     -2762.9126
   1   2.0000     -19.156757      -521.2819
   2   2.0000     -19.109204      -519.9879
   3   2.0000     -14.365856      -390.9148
   4   2.0000     -10.292412      -280.0708
   5   2.0000     -10.256289      -279.0878
   6   2.0000     -10.240080      -278.6467
   7   2.0000     -10.231825      -278.4221
   8   2.0000     -10.228709      -278.3373
   9   2.0000     -10.215860      -277.9877
  10   2.0000     -10.213760      -277.9305
  11   2.0000     -10.207642      -277.7641
  12   2.0000     -10.207423      -277.7581
  13   2.0000     -10.206920      -277.7444
  14   2.0000     -10.206584      -277.7353
  15   2.0000     -10.199146      -277.5329
  16   2.0000     -10.182055      -277.0678
  17   2.0000     -10.174583      -276.8645
  18   2.0000     -10.172282      -276.8019
  19   2.0000     -10.170791      -276.7613
  20   2.0000      -9.467064      -257.6119
  21   2.0000      -7.230096      -196.7409
  22   2.0000      -7.220698      -196.4852
  23   2.0000      -7.220317      -196.4748
  24   2.0000      -1.035010       -28.1640
  25   2.0000      -1.011109       -27.5137
  26   2.0000      -0.913462       -24.8566
  27   2.0000      -0.898039       -24.4369
  28   2.0000      -0.854136       -23.2422
  29   2.0000      -0.834842       -22.7172
  30   2.0000      -0.803889       -21.8749
  31   2.0000      -0.767640       -20.8885
  32   2.0000      -0.747928       -20.3522
  33   2.0000      -0.744620       -20.2621
  34   2.0000      -0.724733       -19.7210
  35   2.0000      -0.684615       -18.6293
  36   2.0000      -0.650450       -17.6996
  37   2.0000      -0.633161       -17.2292
  38   2.0000      -0.612802       -16.6752
  39   2.0000      -0.594136       -16.1672
  40   2.0000      -0.587987       -16.0000
  41   2.0000      -0.559631       -15.2283
  42   2.0000      -0.533593       -14.5198
  43   2.0000      -0.523775       -14.2527
  44   2.0000      -0.508153       -13.8276
  45   2.0000      -0.483276       -13.1506
  46   2.0000      -0.479516       -13.0483
  47   2.0000      -0.473880       -12.8949
  48   2.0000      -0.464274       -12.6335
  49   2.0000      -0.459149       -12.4941
  50   2.0000      -0.453479       -12.3398
  51   2.0000      -0.447054       -12.1649
  52   2.0000      -0.441345       -12.0096
  53   2.0000      -0.425196       -11.5702
  54   2.0000      -0.415101       -11.2955
  55   2.0000      -0.407551       -11.0900
  56   2.0000      -0.404438       -11.0053
  57   2.0000      -0.397819       -10.8252
  58   2.0000      -0.388341       -10.5673
  59   2.0000      -0.371782       -10.1167
  60   2.0000      -0.370280       -10.0758
  61   2.0000      -0.368219       -10.0198
  62   2.0000      -0.364595        -9.9211
  63   2.0000      -0.361958        -9.8494
  64   2.0000      -0.349490        -9.5101
  65   2.0000      -0.319509        -8.6943
  66   2.0000      -0.318275        -8.6607
  67   2.0000      -0.308282        -8.3888
  68   2.0000      -0.296327        -8.0635
  69   2.0000      -0.281765        -7.6672
  70   2.0000      -0.271276        -7.3818
  71   2.0000      -0.248059        -6.7500
  72   2.0000      -0.236416        -6.4332
  73   2.0000      -0.217977        -5.9315
  74   2.0000      -0.207315        -5.6413
  75   0.0000      -0.069509        -1.8914
  76   0.0000      -0.022631        -0.6158
  77   0.0000      -0.003499        -0.0952
  78   0.0000       0.012220         0.3325
  79   0.0000       0.023223         0.6319

MULLIKEN ATOMIC CHARGES
-----------------------
   0 C :   -0.192810
   1 O :   -0.512348
   2 C :    0.365492
   3 C :   -0.208816
   4 C :   -0.126090
   5 C :   -0.196427
   6 C :    0.359295
   7 N :   -0.725054
   8 C :    0.545662
   9 O :   -0.466476
  10 C :   -0.181085
  11 C :   -0.160716
  12 C :    0.146094
  13 C :   -0.171596
  14 C :   -0.133880
  15 C :   -0.060462
  16 Cl:   -0.009328
  17 C :   -0.134276
  18 C :   -0.161240
  19 C :   -0.196928
  20 H :    0.168158
  21 H :    0.146963
  22 H :    0.143789
  23 H :    0.125829
  24 H :    0.130204
  25 H :    0.114460
  26 H :    0.325315
  27 H :    0.162375
  28 H :    0.141365
  29 H :    0.139867
  30 H :    0.156354
  31 H :    0.159027
  32 H :    0.151200
  33 H :    0.156084
Sum of atomic charges:   -0.0000000

LOEWDIN ATOMIC CHARGES
----------------------
   0 C :   -0.198465
   1 O :   -0.192849
   2 C :    0.094324
   3 C :   -0.186797
   4 C :   -0.119477
   5 C :   -0.173268
   6 C :    0.047761
   7 N :   -0.219713
   8 C :    0.135030
   9 O :   -0.262397
  10 C :   -0.150673
  11 C :   -0.100681
  12 C :   -0.022983
  13 C :   -0.116523
  14 C :   -0.130139
  15 C :   -0.082970
  16 Cl:    0.043125
  17 C :   -0.127782
  18 C :   -0.111713
  19 C :   -0.152417
  20 H :    0.134879
  21 H :    0.116218
  22 H :    0.114532
  23 H :    0.132601
  24 H :    0.133383
  25 H :    0.125892
  26 H :    0.255033
  27 H :    0.152409
  28 H :    0.135537
  29 H :    0.137901
  30 H :    0.146567
  31 H :    0.147787
  32 H :    0.143302
  33 H :    0.152569

  Mayer bond orders larger than 0.100000
B(  0-C ,  1-O ) :   0.9223 B(  0-C , 20-H ) :   0.9453 B(  0-C , 21-H ) :   0.9307
B(  0-C , 22-H ) :   0.9309 B(  1-O ,  2-C ) :   0.9155 B(  2-C ,  3-C ) :   1.3598
B(  2-C , 19-C ) :   1.3938 B(  3-C ,  4-C ) :   1.4415 B(  3-C , 23-H ) :   0.9198
B(  4-C ,  5-C ) :   1.4560 B(  4-C , 24-H ) :   0.9292 B(  5-C ,  6-C ) :   1.3945
B(  5-C , 25-H ) :   0.9252 B(  6-C ,  7-N ) :   0.8764 B(  6-C , 19-C ) :   1.4125
B(  7-N ,  8-C ) :   1.0015 B(  7-N , 26-H ) :   0.8253 B(  8-C ,  9-O ) :   1.7770
B(  8-C , 10-C ) :   1.0618 B( 10-C , 11-C ) :   1.7379 B( 10-C , 27-H ) :   0.9159
B( 11-C , 12-C ) :   1.0639 B( 11-C , 28-H ) :   0.9135 B( 12-C , 13-C ) :   1.3825
B( 12-C , 18-C ) :   1.3929 B( 13-C , 14-C ) :   1.4410 B( 13-C , 29-H ) :   0.9245
B( 14-C , 15-C ) :   1.4153 B( 14-C , 30-H ) :   0.9225 B( 15-C , 16-Cl) :   1.0207
B( 15-C , 17-C ) :   1.4027 B( 17-C , 18-C ) :   1.4526 B( 17-C , 31-H ) :   0.9219
B( 18-C , 32-H ) :   0.9160 B( 19-C , 33-H ) :   0.9034

FINAL SINGLE POINT ENERGY     -1282.925625288901

DIPOLE MOMENT
-------------

Method             : SCF
Type of density    : Electron Density
Multiplicity       :   1
Irrep              :   0
Energy             : -1282.9256252889010739 Eh
Relativity type    :
Basis              : AO
                                X                 Y                 Z
Electronic contribution:     32.245605806      -0.496510990      -1.098701488
Nuclear contribution   :    -32.425609034      -0.762970055       0.776489741
                        -----------------------------------------
Total Dipole Moment    :     -0.180003228      -1.259481045      -0.322211747
                        -----------------------------------------
Magnitude (a.u.)       :      1.312445837
Magnitude (Debye)      :      3.335972205

Rotational constants in cm-1:             0.034176             0.002648             0.002575
Rotational constants in MHz :          1024.570987            79.394325            77.189941

                             ****ORCA TERMINATED NORMALLY****
TOTAL RUN TIME: 0 days 0 hours 1 minutes 58 seconds 203 msec
