                         Program Version 6.0.0  -   RELEASE  -
|  1> ! B3LYP 6-31G* SP
|  2>
|  3> * xyz 0 1
|  4> C 1.5292 1.9705 -1.5246
|  5> C 0.9234 2.3558 -0.2034
|  6> C 1.2352 3.6014 0.3622
|  7> C 0.6874 3.9734 1.5949
|  8> C 0.9956 5.2078 2.1875
|  9> C 0.4307 5.5516 3.4204
| 10> C -0.4400 4.6673 4.0668
| 11> F -0.9871 5.0073 5.2607
| 12> C -0.7498 3.4340 3.4829
| 13> C -0.1890 3.0829 2.2495
| 14> N -0.4903 1.8879 1.6787
| 15> C 0.0237 1.5062 0.4778
| 16> N -0.3413 0.2262 -0.0543
| 17> C 0.0653 -0.9918 0.6476
| 18> C 1.4882 -1.3268 0.3020
| 19> C 1.7705 -2.1733 -0.7787
| 20> C 3.0931 -2.4371 -1.1443
| 21> C 4.1567 -1.8429 -0.4385
| 22> O 5.5034 -2.0659 -0.7690
| 23> C 5.9619 -2.9070 -1.8249
| 24> F 5.5504 -4.2112 -1.6071
| 25> F 7.3442 -2.8731 -1.8602
| 26> F 5.4755 -2.4575 -3.0411
| 27> C 3.8691 -0.9893 0.6328
| 28> C 2.5463 -0.7295 1.0012
| 29> S -1.3733 0.1285 -1.4493
| 30> O -0.5776 -0.3902 -2.6139
| 31> O -1.9056 1.4917 -1.7912
| 32> C -2.7352 -0.9336 -1.1087
| 33> C -3.5360 -0.6942 0.0142
| 34> C -4.6070 -1.5428 0.3102
| 35> C -4.8903 -2.6464 -0.5152
| 36> C -6.0118 -3.5573 -0.1996
| 37> O -6.7655 -3.3240 0.7843
| 38> O -6.2443 -4.6849 -0.9856
| 39> C -4.0832 -2.8793 -1.6427
| 40> C -3.0146 -2.0277 -1.9378
| 41> H 0.8166 2.2019 -2.3424
| 42> H 2.4742 2.5257 -1.7053
| 43> H 1.7726 0.8885 -1.5462
| 44> H 1.9100 4.2750 -0.1533
| 45> H 1.6692 5.9017 1.6997
| 46> H 0.6683 6.5050 3.8758
| 47> H -1.4258 2.7549 3.9883
| 48> H -0.5956 -1.8395 0.3680
| 49> H -0.0470 -0.8562 1.7453
| 50> H 0.9656 -2.6245 -1.3446
| 51> H 3.2726 -3.0981 -1.9795
| 52> H 4.6760 -0.5212 1.1800
| 53> H 2.3467 -0.0530 1.8233
| 54> H -3.3269 0.1462 0.6647
| 55> H -5.2049 -1.3425 1.1905
| 56> H -6.9974 -5.3251 -0.7673
| 57> H -4.2744 -3.7203 -2.2970
| 58> H -2.4078 -2.2252 -2.8111
| 59> *
| 60>
| 61>                          ****END OF INPUT****

CARTESIAN COORDINATES (ANGSTROEM)
---------------------------------
  C      1.529200    1.970500   -1.524600
  C      0.923400    2.355800   -0.203400
  C      1.235200    3.601400    0.362200
  C      0.687400    3.973400    1.594900
  C      0.995600    5.207800    2.187500
  C      0.430700    5.551600    3.420400
  C     -0.440000    4.667300    4.066800
  F     -0.987100    5.007300    5.260700
  C     -0.749800    3.434000    3.482900
  C     -0.189000    3.082900    2.249500
  N     -0.490300    1.887900    1.678700
  C      0.023700    1.506200    0.477800
  N     -0.341300    0.226200   -0.054300
  C      0.065300   -0.991800    0.647600
  C      1.488200   -1.326800    0.302000
  C      1.770500   -2.173300   -0.778700
  C      3.093100   -2.437100   -1.144300
  C      4.156700   -1.842900   -0.438500
  O      5.503400   -2.065900   -0.769000
  C      5.961900   -2.907000   -1.824900
  F      5.550400   -4.211200   -1.607100
  F      7.344200   -2.873100   -1.860200
  F      5.475500   -2.457500   -3.041100
  C      3.869100   -0.989300    0.632800
  C      2.546300   -0.729500    1.001200
  S     -1.373300    0.128500   -1.449300
  O     -0.577600   -0.390200   -2.613900
  O     -1.905600    1.491700   -1.791200
  C     -2.735200   -0.933600   -1.108700
  C     -3.536000   -0.694200    0.014200
  C     -4.607000   -1.542800    0.310200
  C     -4.890300   -2.646400   -0.515200
  C     -6.011800   -3.557300   -0.199600
  O     -6.765500   -3.324000    0.784300
  O     -6.244300   -4.684900   -0.985600
  C     -4.083200   -2.879300   -1.642700
  C     -3.014600   -2.027700   -1.937800
  H      0.816600    2.201900   -2.342400
  H      2.474200    2.525700   -1.705300
  H      1.772600    0.888500   -1.546200
  H      1.910000    4.275000   -0.153300
  H      1.669200    5.901700    1.699700
  H      0.668300    6.505000    3.875800
  H     -1.425800    2.754900    3.988300
  H     -0.595600   -1.839500    0.368000
  H     -0.047000   -0.856200    1.745300
  H      0.965600   -2.624500   -1.344600
  H      3.272600   -3.098100   -1.979500
  H      4.676000   -0.521200    1.180000
  H      2.346700   -0.053000    1.823300
  H     -3.326900    0.146200    0.664700
  H     -5.204900   -1.342500    1.190500
  H     -6.997400   -5.325100   -0.767300
  H     -4.274400   -3.720300   -2.297000
  H     -2.407800   -2.225200   -2.811100

 Total Charge           Charge          ....    0
 Multiplicity           Mult            ....    1
 Number of Electrons    NEL             ....  274
 Basis Dimension        Dim             ....  558

ORBITAL ENERGIES
----------------

  NO   OCC          E(Eh)            E(eV)
   0   2.0000     -89.104543     -2424.6579
   1   2.0000     -24.741259      -673.2439
   2   2.0000     -24.738835      -673.1779
   3   2.0000     -24.738365      -673.1651
   4   2.0000     -24.706446      -672.2966
   5   2.0000     -19.213666      -522.8304
   6   2.0000     -19.199889      -522.4556
   7   2.0000     -19.142382      -520.8907
   8   2.0000     -19.131175      -520.5857
   9   2.0000     -19.130775      -520.5749
  10   2.0000     -14.377600      -391.2344
  11   2.0000     -14.335701      -390.0942
  12   2.0000     -10.504166      -285.8329
  13   2.0000     -10.339652      -281.3562
  14   2.0000     -10.280644      -279.7506
  15   2.0000     -10.271037      -279.4891
  16   2.0000     -10.269961      -279.4598
  17   2.0000     -10.249028      -278.8902
  18   2.0000     -10.239156      -278.6216
  19   2.0000     -10.237363      -278.5728
  20   2.0000     -10.231069      -278.4015
  21   2.0000     -10.226011      -278.2639
  22   2.0000     -10.225480      -278.2495
  23   2.0000     -10.222615      -278.1715
  24   2.0000     -10.222479      -278.1678
  25   2.0000     -10.207358      -277.7563
  26   2.0000     -10.204127      -277.6684
  27   2.0000     -10.203364      -277.6476
  28   2.0000     -10.202792      -277.6321
  29   2.0000     -10.201967      -277.6096
  30   2.0000     -10.198832      -277.5243
  31   2.0000     -10.198585      -277.5176
  32   2.0000     -10.198206      -277.5073
  33   2.0000     -10.196928      -277.4725
  34   2.0000     -10.196046      -277.4485
  35   2.0000     -10.194277      -277.4004
  36   2.0000     -10.170150      -276.7438
  37   2.0000      -8.140291      -221.5086
  38   2.0000      -6.105469      -166.1383
  39   2.0000      -6.103132      -166.0747
  40   2.0000      -6.102962      -166.0700
  41   2.0000      -1.303135       -35.4601
  42   2.0000      -1.224162       -33.3111
  43   2.0000      -1.223676       -33.2979
  44   2.0000      -1.219119       -33.1739
  45   2.0000      -1.089927       -29.6584
  46   2.0000      -1.084311       -29.5056
  47   2.0000      -1.083482       -29.4831
  48   2.0000      -0.999060       -27.1858
  49   2.0000      -0.970385       -26.4055
  50   2.0000      -0.967779       -26.3346
  51   2.0000      -0.924606       -25.1598
  52   2.0000      -0.895887       -24.3783
  53   2.0000      -0.867476       -23.6052
  54   2.0000      -0.856345       -23.3023
  55   2.0000      -0.821417       -22.3519
  56   2.0000      -0.812724       -22.1153
  57   2.0000      -0.789693       -21.4886
  58   2.0000      -0.781717       -21.2716
  59   2.0000      -0.768700       -20.9174
  60   2.0000      -0.760210       -20.6864
  61   2.0000      -0.755752       -20.5651
  62   2.0000      -0.730991       -19.8913
  63   2.0000      -0.714258       -19.4360
  64   2.0000      -0.689958       -18.7747
  65   2.0000      -0.684821       -18.6349
  66   2.0000      -0.667725       -18.1697
  67   2.0000      -0.646460       -17.5911
  68   2.0000      -0.636123       -17.3098
  69   2.0000      -0.629367       -17.1260
  70   2.0000      -0.624850       -17.0030
  71   2.0000      -0.617874       -16.8132
  72   2.0000      -0.613745       -16.7009
  73   2.0000      -0.600004       -16.3269
  74   2.0000      -0.595519       -16.2049
  75   2.0000      -0.591775       -16.1030
  76   2.0000      -0.575443       -15.6586
  77   2.0000      -0.567832       -15.4515
  78   2.0000      -0.553230       -15.0542
  79   2.0000      -0.543825       -14.7982
  80   2.0000      -0.528028       -14.3684
  81   2.0000      -0.512775       -13.9533
  82   2.0000      -0.504014       -13.7149
  83   2.0000      -0.499385       -13.5890
  84   2.0000      -0.494278       -13.4500
  85   2.0000      -0.492318       -13.3966
  86   2.0000      -0.482467       -13.1286
  87   2.0000      -0.476624       -12.9696
  88   2.0000      -0.474551       -12.9132
  89   2.0000      -0.470800       -12.8111
  90   2.0000      -0.469493       -12.7756
  91   2.0000      -0.464304       -12.6344
  92   2.0000      -0.462548       -12.5866
  93   2.0000      -0.460211       -12.5230
  94   2.0000      -0.453483       -12.3399
  95   2.0000      -0.451589       -12.2884
  96   2.0000      -0.449002       -12.2180
  97   2.0000      -0.446745       -12.1566
  98   2.0000      -0.445130       -12.1126
  99   2.0000      -0.441994       -12.0273
 100   2.0000      -0.436107       -11.8671
 101   2.0000      -0.431681       -11.7466
 102   2.0000      -0.429280       -11.6813
 103   2.0000      -0.424548       -11.5525
 104   2.0000      -0.422303       -11.4915
 105   2.0000      -0.419382       -11.4120
 106   2.0000      -0.416136       -11.3236
 107   2.0000      -0.411434       -11.1957
 108   2.0000      -0.407525       -11.0893
 109   2.0000      -0.400597       -10.9008
 110   2.0000      -0.398204       -10.8357
 111   2.0000      -0.396789       -10.7972
 112   2.0000      -0.390476       -10.6254
 113   2.0000      -0.389222       -10.5913
 114   2.0000      -0.387701       -10.5499
 115   2.0000      -0.377240       -10.2652
 116   2.0000      -0.372813       -10.1447
 117   2.0000      -0.364216        -9.9108
 118   2.0000      -0.357655        -9.7323
 119   2.0000      -0.350273        -9.5314
 120   2.0000      -0.348511        -9.4835
 121   2.0000      -0.342522        -9.3205
 122   2.0000      -0.327631        -8.9153
 123   2.0000      -0.325385        -8.8542
 124   2.0000      -0.310979        -8.4622
 125   2.0000      -0.307837        -8.3767
 126   2.0000      -0.301793        -8.2122
 127   2.0000      -0.289897        -7.8885
 128   2.0000      -0.285186        -7.7603
 129   2.0000      -0.279722        -7.6116
 130   2.0000      -0.278272        -7.5722
 131   2.0000      -0.265544        -7.2258
 132   2.0000      -0.263056        -7.1581
 133   2.0000      -0.259613        -7.0644
 134   2.0000      -0.250454        -6.8152
 135   2.0000      -0.237833        -6.4718
 136   2.0000      -0.228824        -6.2266
 137   0.0000      -0.090550        -2.4640
 138   0.0000      -0.069418        -1.8889
 139   0.0000      -0.035923        -0.9775
 140   0.0000      -0.022675        -0.6170
 141   0.0000      -0.014995        -0.4080

MULLIKEN ATOMIC CHARGES
-----------------------
   0 C :   -0.540398
   1 C :    0.161101
   2 C :   -0.209382
   3 C :    0.168630
   4 C :   -0.191252
   5 C :   -0.207986
   6 C :    0.415207
   7 F :   -0.315126
   8 C :   -0.243843
   9 C :    0.227708
  10 N :   -0.471312
  11 C :    0.346356
  12 N :   -0.616174
  13 C :   -0.267957
  14 C :    0.175393
  15 C :   -0.155435
  16 C :   -0.190019
  17 C :    0.353384
  18 O :   -0.545397
  19 C :    1.087024
  20 F :   -0.292109
  21 F :   -0.279596
  22 F :   -0.290663
  23 C :   -0.171686
  24 C :   -0.170315
  25 S :    1.224787
  26 O :   -0.547383
  27 O :   -0.538544
  28 C :   -0.138862
  29 C :   -0.145234
  30 C :   -0.140230
  31 C :    0.083648
  32 C :    0.529590
  33 O :   -0.441878
  34 O :   -0.624147
  35 C :   -0.145730
  36 C :   -0.146294
  37 H :    0.202747
  38 H :    0.144067
  39 H :    0.187251
  40 H :    0.143362
  41 H :    0.145633
  42 H :    0.150991
  43 H :    0.153913
  44 H :    0.165426
  45 H :    0.184516
  46 H :    0.146712
  47 H :    0.155681
  48 H :    0.148911
  49 H :    0.146011
  50 H :    0.193302
  51 H :    0.184005
  52 H :    0.435573
  53 H :    0.175667
  54 H :    0.190355
Sum of atomic charges:   -0.0000000

LOEWDIN ATOMIC CHARGES
----------------------
   0 C :   -0.361717
   1 C :   -0.019276
   2 C :   -0.093868
   3 C :   -0.029451
   4 C :   -0.111396
   5 C :   -0.150039
   6 C :    0.120555
   7 F :   -0.100031
   8 C :   -0.150766
   9 C :    0.018121
  10 N :   -0.134982
  11 C :    0.056756
  12 N :   -0.278884
  13 C :   -0.148475
  14 C :   -0.041831
  15 C :   -0.112605
  16 C :   -0.156164
  17 C :    0.087489
  18 O :   -0.159696
  19 C :    0.361585
  20 F :   -0.106015
  21 F :   -0.088509
  22 F :   -0.104829
  23 C :   -0.140977
  24 C :   -0.123690
  25 S :    1.262725
  26 O :   -0.575381
  27 O :   -0.568035
  28 C :   -0.175454
  29 C :   -0.101628
  30 C :   -0.084555
  31 C :   -0.037025
  32 C :    0.180808
  33 O :   -0.258065
  34 O :   -0.335041
  35 C :   -0.098548
  36 C :   -0.103268
  37 H :    0.157381
  38 H :    0.127709
  39 H :    0.150144
  40 H :    0.140400
  41 H :    0.140026
  42 H :    0.146613
  43 H :    0.152925
  44 H :    0.137994
  45 H :    0.143859
  46 H :    0.141102
  47 H :    0.143752
  48 H :    0.145349
  49 H :    0.140476
  50 H :    0.162609
  51 H :    0.161982
  52 H :    0.350644
  53 H :    0.156207
  54 H :    0.162990

  Mayer bond orders larger than 0.100000
B(  0-C ,  1-C ) :   1.0026 B(  0-C , 37-H ) :   0.9108 B(  0-C , 38-H ) :   0.9408
B(  0-C , 39-H ) :   0.9207 B(  1-C ,  2-C ) :   1.4712 B(  1-C , 11-C ) :   1.3020
B(  2-C ,  3-C ) :   1.2927 B(  2-C , 40-H ) :   0.9175 B(  3-C ,  4-C ) :   1.2780
B(  3-C ,  9-C ) :   1.2480 B(  4-C ,  5-C ) :   1.4959 B(  4-C ,  8-C ) :   0.1072
B(  4-C , 41-H ) :   0.9235 B(  5-C ,  6-C ) :   1.2971 B(  5-C , 42-H ) :   0.9202
B(  6-C ,  7-F ) :   0.9103 B(  6-C ,  8-C ) :   1.4446 B(  8-C ,  9-C ) :   1.2721
B(  8-C , 43-H ) :   0.9119 B(  9-C , 10-N ) :   1.2470 B( 10-N , 11-C ) :   1.4402
B( 11-C , 12-N ) :   0.8967 B( 12-N , 13-C ) :   0.9285 B( 12-N , 25-S ) :   0.7936
B( 13-C , 14-C ) :   0.9413 B( 13-C , 44-H ) :   0.9229 B( 13-C , 45-H ) :   0.9173
B( 14-C , 15-C ) :   1.4299 B( 14-C , 24-C ) :   1.4315 B( 15-C , 16-C ) :   1.4368
B( 15-C , 46-H ) :   0.9172 B( 16-C , 17-C ) :   1.3898 B( 16-C , 47-H ) :   0.9086
B( 17-C , 18-O ) :   0.8244 B( 17-C , 23-C ) :   1.4201 B( 18-O , 19-C ) :   0.9906
B( 19-C , 20-F ) :   0.9679 B( 19-C , 21-F ) :   1.0070 B( 19-C , 22-F ) :   0.9679
B( 23-C , 24-C ) :   1.4349 B( 23-C , 48-H ) :   0.9182 B( 24-C , 49-H ) :   0.9202
B( 25-S , 26-O ) :   1.6248 B( 25-S , 27-O ) :   1.6512 B( 25-S , 28-C ) :   0.8101
B( 28-C , 29-C ) :   1.3713 B( 28-C , 36-C ) :   1.4026 B( 29-C , 30-C ) :   1.4321
B( 29-C , 50-H ) :   0.9063 B( 30-C , 31-C ) :   1.3987 B( 30-C , 51-H ) :   0.9088
B( 31-C , 32-C ) :   1.0074 B( 31-C , 35-C ) :   1.3867 B( 32-C , 33-O ) :   1.8637
B( 32-C , 34-O ) :   1.0252 B( 34-O , 52-H ) :   0.7409 B( 35-C , 36-C ) :   1.4113
B( 35-C , 53-H ) :   0.9142 B( 36-C , 54-H ) :   0.9074

FINAL SINGLE POINT ENERGY     -2245.524151334878

DIPOLE MOMENT
-------------

Method             : SCF
Type of density    : Electron Density
Multiplicity       :   1
Irrep              :   0
Energy             : -2245.5241513348782973 Eh
Relativity type    :
Basis              : AO
                                X                 Y                 Z
Electronic contribution:     22.046561024     -10.649666745      -2.565160395
Nuclear contribution   :    -22.005995655       9.929530776       3.077071606
                        -----------------------------------------
Total Dipole Moment    :      0.040565370      -0.720135969       0.511911211
                        -----------------------------------------
Magnitude (a.u.)       :      0.884474110
Magnitude (Debye)      :      2.248154523

Rotational constants in cm-1:             0.002695             0.002125             0.001329
Rotational constants in MHz :            80.787022            63.708768            39.832728

                             ****ORCA TERMINATED NORMALLY****
TOTAL RUN TIME: 0 days 0 hours 7 minutes 12 seconds 205 msec
