                         Program Version 6.0.0  -   RELEASE  -
|  1> ! B3LYP 6-31G* SP
|  2>
|  3> * xyz 0 1
|  4> C 0.6790 2.9805 0.7706
|  5> C -0.7846 2.7439 0.5152
|  6> C -1.6998 3.7721 0.7995
|  7> C -3.0594 3.6161 0.4946
|  8> C -3.9882 4.6308 0.7627
|  9> C -5.3331 4.4519 0.4199
| 10> C -5.7629 3.2637 -0.1908
| 11> C -4.8454 2.2464 -0.4528
| 12> C -3.4920 2.4184 -0.1097
| 13> N -2.5990 1.4256 -0.3458
| 14> C -1.2698 1.5336 -0.0448
| 15> N -0.4115 0.3965 -0.2846
| 16> C 0.2357 -0.2664 0.8583
| 17> C 1.7502 -0.2362 0.8099
| 18> C 2.4740 0.2653 -0.2886
| 19> C 3.8700 0.2945 -0.2642
| 20> C 4.5788 -0.1756 0.8555
| 21> C 6.0918 -0.1555 0.8685
| 22> F 6.5377 0.2202 2.1238
| 23> F 6.5704 0.7866 -0.0340
| 24> C 6.6236 -1.5705 0.5643
| 25> C 8.0222 -1.6497 -0.0345
| 26> C 6.8025 -1.9256 -0.9061
| 27> C 3.8567 -0.7244 1.9321
| 28> F 4.5032 -1.2487 3.0013
| 29> C 2.4595 -0.7478 1.9085
| 30> S -0.6998 -0.5530 -1.7214
| 31> O -0.9607 0.3612 -2.8854
| 32> O 0.5072 -1.3854 -2.0432
| 33> C -2.0869 -1.6128 -1.4687
| 34> C -1.9178 -2.8405 -0.8179
| 35> C -3.0221 -3.6460 -0.5312
| 36> C -4.3179 -3.2346 -0.8974
| 37> C -5.4891 -4.0679 -0.5531
| 38> O -6.6499 -3.6871 -0.8444
| 39> O -5.3211 -5.2775 0.1102
| 40> C -4.4814 -2.0108 -1.5752
| 41> C -3.3723 -1.2121 -1.8639
| 42> H 0.8887 4.0495 0.9938
| 43> H 1.0217 2.3810 1.6369
| 44> H 1.2611 2.7228 -0.1310
| 45> H -1.3559 4.6997 1.2439
| 46> H -3.6713 5.5584 1.2315
| 47> H -6.0454 5.2364 0.6222
| 48> H -6.8097 3.1344 -0.4590
| 49> H -5.1846 1.3270 -0.9223
| 50> H -0.0918 -1.3251 0.9033
| 51> H -0.1026 0.2015 1.8111
| 52> H 1.9694 0.6484 -1.1678
| 53> H 4.3943 0.6883 -1.1266
| 54> H 6.3489 -2.4215 1.2274
| 55> H 8.5268 -0.6853 -0.2737
| 56> H 8.5916 -2.5630 0.2394
| 57> H 6.5780 -1.1241 -1.6465
| 58> H 6.6607 -3.0021 -1.1418
| 59> H 1.9244 -1.1675 2.7516
| 60> H -0.9313 -3.1679 -0.5198
| 61> H -2.8622 -4.5820 -0.0063
| 62> H -6.1229 -5.8507 0.3469
| 63> H -5.4651 -1.6642 -1.8711
| 64> H -3.5203 -0.2727 -2.3791
| 65> *
| 66>
| 67>                          ****END OF INPUT****

CARTESIAN COORDINATES (ANGSTROEM)
---------------------------------
  C      0.679000    2.980500    0.770600
  C     -0.784600    2.743900    0.515200
  C     -1.699800    3.772100    0.799500
  C     -3.059400    3.616100    0.494600
  C     -3.988200    4.630800    0.762700
  C     -5.333100    4.451900    0.419900
  C     -5.762900    3.263700   -0.190800
  C     -4.845400    2.246400   -0.452800
  C     -3.492000    2.418400   -0.109700
  N     -2.599000    1.425600   -0.345800
  C     -1.269800    1.533600   -0.044800
  N     -0.411500    0.396500   -0.284600
  C      0.235700   -0.266400    0.858300
  C      1.750200   -0.236200    0.809900
  C      2.474000    0.265300   -0.288600
  C      3.870000    0.294500   -0.264200
  C      4.578800   -0.175600    0.855500
  C      6.091800   -0.155500    0.868500
  F      6.537700    0.220200    2.123800
  F      6.570400    0.786600   -0.034000
  C      6.623600   -1.570500    0.564300
  C      8.022200   -1.649700   -0.034500
  C      6.802500   -1.925600   -0.906100
  C      3.856700   -0.724400    1.932100
  F      4.503200   -1.248700    3.001300
  C      2.459500   -0.747800    1.908500
  S     -0.699800   -0.553000   -1.721400
  O     -0.960700    0.361200   -2.885400
  O      0.507200   -1.385400   -2.043200
  C     -2.086900   -1.612800   -1.468700
  C     -1.917800   -2.840500   -0.817900
  C     -3.022100   -3.646000   -0.531200
  C     -4.317900   -3.234600   -0.897400
  C     -5.489100   -4.067900   -0.553100
  O     -6.649900   -3.687100   -0.844400
  O     -5.321100   -5.277500    0.110200
  C     -4.481400   -2.010800   -1.575200
  C     -3.372300   -1.212100   -1.863900
  H      0.888700    4.049500    0.993800
  H      1.021700    2.381000    1.636900
  H      1.261100    2.722800   -0.131000
  H     -1.355900    4.699700    1.243900
  H     -3.671300    5.558400    1.231500
  H     -6.045400    5.236400    0.622200
  H     -6.809700    3.134400   -0.459000
  H     -5.184600    1.327000   -0.922300
  H     -0.091800   -1.325100    0.903300
  H     -0.102600    0.201500    1.811100
  H      1.969400    0.648400   -1.167800
  H      4.394300    0.688300   -1.126600
  H      6.348900   -2.421500    1.227400
  H      8.526800   -0.685300   -0.273700
  H      8.591600   -2.563000    0.239400
  H      6.578000   -1.124100   -1.646500
  H      6.660700   -3.002100   -1.141800
  H      1.924400   -1.167500    2.751600
  H     -0.931300   -3.167900   -0.519800
  H     -2.862200   -4.582000   -0.006300
  H     -6.122900   -5.850700    0.346900
  H     -5.465100   -1.664200   -1.871100
  H     -3.520300   -0.272700   -2.379100

 Total Charge           Charge          ....    0
 Multiplicity           Mult            ....    1
 Number of Electrons    NEL             ....  280
 Basis Dimension        Dim             ....  582

ORBITAL ENERGIES
----------------

  NO   OCC          E(Eh)            E(eV)
   0   2.0000     -89.102367     -2424.5987
   1   2.0000     -24.704855      -672.2533
   2   2.0000     -24.699204      -672.0995
   3   2.0000     -24.679438      -671.5616
   4   2.0000     -19.195775      -522.3436
   5   2.0000     -19.137099      -520.7469
   6   2.0000     -19.133783      -520.6567
   7   2.0000     -19.127715      -520.4916
   8   2.0000     -14.391174      -391.6038
   9   2.0000     -14.335344      -390.0846
  10   2.0000     -10.347416      -281.5675
  11   2.0000     -10.333894      -281.1995
  12   2.0000     -10.278727      -279.6984
  13   2.0000     -10.277847      -279.6744
  14   2.0000     -10.251963      -278.9701
  15   2.0000     -10.240310      -278.6530
  16   2.0000     -10.230577      -278.3882
  17   2.0000     -10.227395      -278.3016
  18   2.0000     -10.220011      -278.1006
  19   2.0000     -10.216376      -278.0017
  20   2.0000     -10.215766      -277.9851
  21   2.0000     -10.215378      -277.9746
  22   2.0000     -10.214489      -277.9504
  23   2.0000     -10.208864      -277.7973
  24   2.0000     -10.207692      -277.7654
  25   2.0000     -10.202748      -277.6309
  26   2.0000     -10.200136      -277.5598
  27   2.0000     -10.197868      -277.4981
  28   2.0000     -10.196785      -277.4686
  29   2.0000     -10.196425      -277.4588
  30   2.0000     -10.195840      -277.4429
  31   2.0000     -10.194756      -277.4134
  32   2.0000     -10.194550      -277.4078
  33   2.0000     -10.192264      -277.3456
  34   2.0000     -10.187076      -277.2044
  35   2.0000     -10.185634      -277.1652
  36   2.0000     -10.185245      -277.1546
  37   2.0000     -10.183141      -277.0974
  38   2.0000      -8.138230      -221.4525
  39   2.0000      -6.103420      -166.0825
  40   2.0000      -6.101207      -166.0223
  41   2.0000      -6.100705      -166.0086
  42   2.0000      -1.229918       -33.4678
  43   2.0000      -1.218144       -33.1474
  44   2.0000      -1.173374       -31.9291
  45   2.0000      -1.089336       -29.6424
  46   2.0000      -1.082346       -29.4521
  47   2.0000      -0.996092       -27.1051
  48   2.0000      -0.973451       -26.4890
  49   2.0000      -0.966544       -26.3010
  50   2.0000      -0.925863       -25.1940
  51   2.0000      -0.887984       -24.1633
  52   2.0000      -0.869217       -23.6526
  53   2.0000      -0.854374       -23.2487
  54   2.0000      -0.850440       -23.1417
  55   2.0000      -0.824479       -22.4352
  56   2.0000      -0.805744       -21.9254
  57   2.0000      -0.794343       -21.6152
  58   2.0000      -0.774701       -21.0807
  59   2.0000      -0.771773       -21.0010
  60   2.0000      -0.752910       -20.4877
  61   2.0000      -0.748422       -20.3656
  62   2.0000      -0.732291       -19.9266
  63   2.0000      -0.708987       -19.2925
  64   2.0000      -0.696906       -18.9638
  65   2.0000      -0.676307       -18.4032
  66   2.0000      -0.667061       -18.1516
  67   2.0000      -0.639189       -17.3932
  68   2.0000      -0.627396       -17.0723
  69   2.0000      -0.622360       -16.9353
  70   2.0000      -0.618872       -16.8404
  71   2.0000      -0.610050       -16.6003
  72   2.0000      -0.607722       -16.5369
  73   2.0000      -0.594047       -16.1648
  74   2.0000      -0.586220       -15.9518
  75   2.0000      -0.583368       -15.8742
  76   2.0000      -0.563688       -15.3387
  77   2.0000      -0.547600       -14.9009
  78   2.0000      -0.542553       -14.7636
  79   2.0000      -0.541037       -14.7224
  80   2.0000      -0.531981       -14.4759
  81   2.0000      -0.522775       -14.2254
  82   2.0000      -0.517175       -14.0731
  83   2.0000      -0.506891       -13.7932
  84   2.0000      -0.498931       -13.5766
  85   2.0000      -0.493019       -13.4157
  86   2.0000      -0.486537       -13.2394
  87   2.0000      -0.480285       -13.0692
  88   2.0000      -0.475054       -12.9269
  89   2.0000      -0.472053       -12.8452
  90   2.0000      -0.467832       -12.7304
  91   2.0000      -0.465568       -12.6687
  92   2.0000      -0.460690       -12.5360
  93   2.0000      -0.456993       -12.4354
  94   2.0000      -0.453148       -12.3308
  95   2.0000      -0.450008       -12.2453
  96   2.0000      -0.446950       -12.1621
  97   2.0000      -0.445140       -12.1129
  98   2.0000      -0.442323       -12.0362
  99   2.0000      -0.442006       -12.0276
 100   2.0000      -0.430031       -11.7018
 101   2.0000      -0.427055       -11.6207
 102   2.0000      -0.421352       -11.4656
 103   2.0000      -0.418245       -11.3810
 104   2.0000      -0.416412       -11.3311
 105   2.0000      -0.409798       -11.1512
 106   2.0000      -0.408892       -11.1265
 107   2.0000      -0.405544       -11.0354
 108   2.0000      -0.400063       -10.8863
 109   2.0000      -0.396824       -10.7981
 110   2.0000      -0.390463       -10.6250
 111   2.0000      -0.389614       -10.6019
 112   2.0000      -0.385420       -10.4878
 113   2.0000      -0.383682       -10.4405
 114   2.0000      -0.372638       -10.1400
 115   2.0000      -0.367676       -10.0050
 116   2.0000      -0.367038        -9.9876
 117   2.0000      -0.364933        -9.9303
 118   2.0000      -0.361550        -9.8383
 119   2.0000      -0.358305        -9.7500
 120   2.0000      -0.350740        -9.5441
 121   2.0000      -0.345658        -9.4058
 122   2.0000      -0.331136        -9.0107
 123   2.0000      -0.327530        -8.9125
 124   2.0000      -0.321329        -8.7438
 125   2.0000      -0.309423        -8.4198
 126   2.0000      -0.306808        -8.3487
 127   2.0000      -0.297188        -8.0869
 128   2.0000      -0.296560        -8.0698
 129   2.0000      -0.292795        -7.9674
 130   2.0000      -0.283854        -7.7240
 131   2.0000      -0.282229        -7.6799
 132   2.0000      -0.277517        -7.5516
 133   2.0000      -0.274638        -7.4733
 134   2.0000      -0.272862        -7.4249
 135   2.0000      -0.256965        -6.9924
 136   2.0000      -0.255964        -6.9651
 137   2.0000      -0.244782        -6.6609
 138   2.0000      -0.240387        -6.5413
 139   2.0000      -0.229516        -6.2455
 140   0.0000      -0.081615        -2.2209
 141   0.0000      -0.066052        -1.7974
 142   0.0000      -0.029391        -0.7998
 143   0.0000      -0.021662        -0.5894
 144   0.0000      -0.020509        -0.5581

MULLIKEN ATOMIC CHARGES
-----------------------
   0 C :   -0.530109
   1 C :    0.129194
   2 C :   -0.211243
   3 C :    0.175492
   4 C :   -0.207177
   5 C :   -0.130699
   6 C :   -0.131049
   7 C :   -0.147295
   8 C :    0.221119
   9 N :   -0.489243
  10 C :    0.371258
  11 N :   -0.617431
  12 C :   -0.236162
  13 C :    0.169772
  14 C :   -0.146797
  15 C :   -0.165732
  16 C :   -0.061592
  17 C :    0.695070
  18 F :   -0.332454
  19 F :   -0.338426
  20 C :   -0.180405
  21 C :   -0.314745
  22 C :   -0.308495
  23 C :    0.379259
  24 F :   -0.309612
  25 C :   -0.262769
  26 S :    1.235177
  27 O :   -0.540017
  28 O :   -0.544886
  29 C :   -0.123283
  30 C :   -0.158574
  31 C :   -0.147750
  32 C :    0.081042
  33 C :    0.525643
  34 O :   -0.443066
  35 O :   -0.623092
  36 C :   -0.147632
  37 C :   -0.108963
  38 H :    0.157555
  39 H :    0.165086
  40 H :    0.183288
  41 H :    0.144022
  42 H :    0.134882
  43 H :    0.135113
  44 H :    0.140033
  45 H :    0.139503
  46 H :    0.179170
  47 H :    0.183205
  48 H :    0.169015
  49 H :    0.155918
  50 H :    0.169794
  51 H :    0.168097
  52 H :    0.151694
  53 H :    0.163969
  54 H :    0.152634
  55 H :    0.134802
  56 H :    0.174878
  57 H :    0.170594
  58 H :    0.433050
  59 H :    0.176908
  60 H :    0.192457
Sum of atomic charges:   -0.0000000

LOEWDIN ATOMIC CHARGES
----------------------
   0 C :   -0.354539
   1 C :   -0.037229
   2 C :   -0.094677
   3 C :   -0.028206
   4 C :   -0.120342
   5 C :   -0.127027
   6 C :   -0.120693
   7 C :   -0.118992
   8 C :    0.018106
   9 N :   -0.137666
  10 C :    0.064884
  11 N :   -0.272089
  12 C :   -0.147709
  13 C :   -0.021487
  14 C :   -0.125805
  15 C :   -0.111760
  16 C :   -0.074721
  17 C :    0.242077
  18 F :   -0.132802
  19 F :   -0.129291
  20 C :   -0.161785
  21 C :   -0.252246
  22 C :   -0.251962
  23 C :    0.123049
  24 F :   -0.097799
  25 C :   -0.166144
  26 S :    1.269306
  27 O :   -0.564106
  28 O :   -0.562107
  29 C :   -0.168830
  30 C :   -0.113769
  31 C :   -0.103144
  32 C :   -0.038336
  33 C :    0.175725
  34 O :   -0.258531
  35 O :   -0.333745
  36 C :   -0.091392
  37 C :   -0.084362
  38 H :    0.133344
  39 H :    0.138739
  40 H :    0.148642
  41 H :    0.140448
  42 H :    0.134213
  43 H :    0.135352
  44 H :    0.137467
  45 H :    0.140743
  46 H :    0.143119
  47 H :    0.148309
  48 H :    0.149313
  49 H :    0.145776
  50 H :    0.147997
  51 H :    0.141278
  52 H :    0.133855
  53 H :    0.138359
  54 H :    0.134781
  55 H :    0.139804
  56 H :    0.152836
  57 H :    0.153587
  58 H :    0.349177
  59 H :    0.158241
  60 H :    0.164770

  Mayer bond orders larger than 0.100000
B(  0-C ,  1-C ) :   0.9869 B(  0-C , 38-H ) :   0.9424 B(  0-C , 39-H ) :   0.9255
B(  0-C , 40-H ) :   0.9243 B(  1-C ,  2-C ) :   1.4881 B(  1-C , 10-C ) :   1.2900
B(  2-C ,  3-C ) :   1.2852 B(  2-C , 41-H ) :   0.9156 B(  3-C ,  4-C ) :   1.2843
B(  3-C ,  8-C ) :   1.2561 B(  4-C ,  5-C ) :   1.5161 B(  4-C ,  7-C ) :   0.1063
B(  4-C , 42-H ) :   0.9242 B(  5-C ,  6-C ) :   1.3426 B(  5-C , 43-H ) :   0.9298
B(  6-C ,  7-C ) :   1.5233 B(  6-C , 44-H ) :   0.9285 B(  7-C ,  8-C ) :   1.2932
B(  7-C , 45-H ) :   0.9175 B(  8-C ,  9-N ) :   1.2345 B(  9-N , 10-C ) :   1.4346
B( 10-C , 11-N ) :   0.8984 B( 11-N , 12-C ) :   0.9214 B( 11-N , 26-S ) :   0.7681
B( 12-C , 13-C ) :   0.9475 B( 12-C , 46-H ) :   0.9071 B( 12-C , 47-H ) :   0.9180
B( 13-C , 14-C ) :   1.4459 B( 13-C , 25-C ) :   1.3831 B( 14-C , 15-C ) :   1.4190
B( 14-C , 48-H ) :   0.9036 B( 15-C , 16-C ) :   1.4029 B( 15-C , 49-H ) :   0.9189
B( 16-C , 17-C ) :   0.9580 B( 16-C , 23-C ) :   1.3295 B( 17-C , 18-F ) :   0.9078
B( 17-C , 19-F ) :   0.8683 B( 17-C , 20-C ) :   0.9978 B( 20-C , 21-C ) :   0.9399
B( 20-C , 22-C ) :   0.9295 B( 20-C , 50-H ) :   0.9212 B( 21-C , 22-C ) :   0.9594
B( 21-C , 51-H ) :   0.9376 B( 21-C , 52-H ) :   0.9451 B( 22-C , 53-H ) :   0.9388
B( 22-C , 54-H ) :   0.9435 B( 23-C , 24-F ) :   0.9305 B( 23-C , 25-C ) :   1.3850
B( 25-C , 55-H ) :   0.9172 B( 26-S , 27-O ) :   1.6514 B( 26-S , 28-O ) :   1.6278
B( 26-S , 29-C ) :   0.8105 B( 29-C , 30-C ) :   1.3928 B( 29-C , 37-C ) :   1.3894
B( 30-C , 31-C ) :   1.4125 B( 30-C , 56-H ) :   0.9110 B( 31-C , 32-C ) :   1.3900
B( 31-C , 57-H ) :   0.9152 B( 32-C , 33-C ) :   1.0088 B( 32-C , 36-C ) :   1.3939
B( 33-C , 34-O ) :   1.8668 B( 33-C , 35-O ) :   1.0262 B( 35-O , 58-H ) :   0.7426
B( 36-C , 37-C ) :   1.4188 B( 36-C , 59-H ) :   0.9108 B( 37-C , 60-H ) :   0.9037

FINAL SINGLE POINT ENERGY     -2187.738844980735

DIPOLE MOMENT
-------------

Method             : SCF
Type of density    : Electron Density
Multiplicity       :   1
Irrep              :   0
Energy             : -2187.7388449807353936 Eh
Relativity type    :
Basis              : AO
                                X                 Y                 Z
Electronic contribution:      9.131552420      -5.665829134       3.761885991
Nuclear contribution   :    -10.427689121       5.537946784      -2.159107714
                        -----------------------------------------
Total Dipole Moment    :     -1.296136700      -0.127882350       1.602778277
                        -----------------------------------------
Magnitude (a.u.)       :      2.065241499
Magnitude (Debye)      :      5.249426711

Rotational constants in cm-1:             0.004395             0.001609             0.001302
Rotational constants in MHz :           131.761049            48.246220            39.039909

                             ****ORCA TERMINATED NORMALLY****
TOTAL RUN TIME: 0 days 0 hours 12 minutes 3 seconds 865 msec
