                         Program Version 6.0.0  -   RELEASE  -
|  1> ! B3LYP 6-31G* SP
|  2>
|  3> * xyz 0 1
|  4> O 6.1856 -2.1220 -1.2090
|  5> C 5.6663 -2.4080 -0.0957
|  6> O 6.1816 -3.4694 0.6448
|  7> C 4.5212 -1.6258 0.4199
|  8> C 3.9495 -1.9404 1.6652
|  9> C 2.8642 -1.2058 2.1528
| 10> C 2.3351 -0.1477 1.4026
| 11> S 0.9559 0.7733 1.9914
| 12> O 0.3680 0.1279 3.2152
| 13> O 1.4163 2.1602 2.3447
| 14> N -0.2583 0.8379 0.7502
| 15> C -0.7616 -0.4083 0.1699
| 16> C -2.2652 -0.5402 0.4207
| 17> C -2.7835 -1.8352 -0.1430
| 18> C -2.7883 -2.9992 0.6432
| 19> C -3.2366 -4.2099 0.1061
| 20> C -3.6732 -4.2688 -1.2199
| 21> C -3.6570 -3.1182 -2.0126
| 22> C -3.2091 -1.9055 -1.4794
| 23> C -0.5885 2.0932 0.1420
| 24> N -0.2491 2.3153 -1.1564
| 25> C -0.5391 3.4816 -1.7902
| 26> C -1.2017 4.5129 -1.1068
| 27> C -1.5775 5.7898 -1.8143
| 28> F -1.6047 6.8496 -0.9237
| 29> F -2.8302 5.6443 -2.3809
| 30> F -0.6627 6.0850 -2.8107
| 31> C -1.5986 4.2866 0.2201
| 32> C -1.2901 3.0800 0.8538
| 33> Cl -1.8499 2.8052 2.4981
| 34> C 2.9012 0.1727 0.1632
| 35> C 3.9861 -0.5597 -0.3265
| 36> H 6.9643 -4.0123 0.3001
| 37> H 4.3383 -2.7553 2.2630
| 38> H 2.4387 -1.4665 3.1133
| 39> H -0.5524 -0.4234 -0.9220
| 40> H -0.2405 -1.2792 0.6247
| 41> H -2.8012 0.3142 -0.0473
| 42> H -2.4627 -0.4951 1.5142
| 43> H -2.4430 -2.9691 1.6689
| 44> H -3.2416 -5.1035 0.7166
| 45> H -4.0180 -5.2071 -1.6346
| 46> H -3.9872 -3.1668 -3.0416
| 47> H -3.1914 -1.0233 -2.1069
| 48> H -0.2547 3.5997 -2.8276
| 49> H -2.1576 5.0412 0.7597
| 50> H 2.4995 0.9882 -0.4256
| 51> H 4.4034 -0.2929 -1.2897
| 52> *
| 53>
| 54>                          ****END OF INPUT****

CARTESIAN COORDINATES (ANGSTROEM)
---------------------------------
  O      6.185600   -2.122000   -1.209000
  C      5.666300   -2.408000   -0.095700
  O      6.181600   -3.469400    0.644800
  C      4.521200   -1.625800    0.419900
  C      3.949500   -1.940400    1.665200
  C      2.864200   -1.205800    2.152800
  C      2.335100   -0.147700    1.402600
  S      0.955900    0.773300    1.991400
  O      0.368000    0.127900    3.215200
  O      1.416300    2.160200    2.344700
  N     -0.258300    0.837900    0.750200
  C     -0.761600   -0.408300    0.169900
  C     -2.265200   -0.540200    0.420700
  C     -2.783500   -1.835200   -0.143000
  C     -2.788300   -2.999200    0.643200
  C     -3.236600   -4.209900    0.106100
  C     -3.673200   -4.268800   -1.219900
  C     -3.657000   -3.118200   -2.012600
  C     -3.209100   -1.905500   -1.479400
  C     -0.588500    2.093200    0.142000
  N     -0.249100    2.315300   -1.156400
  C     -0.539100    3.481600   -1.790200
  C     -1.201700    4.512900   -1.106800
  C     -1.577500    5.789800   -1.814300
  F     -1.604700    6.849600   -0.923700
  F     -2.830200    5.644300   -2.380900
  F     -0.662700    6.085000   -2.810700
  C     -1.598600    4.286600    0.220100
  C     -1.290100    3.080000    0.853800
  Cl    -1.849900    2.805200    2.498100
  C      2.901200    0.172700    0.163200
  C      3.986100   -0.559700   -0.326500
  H      6.964300   -4.012300    0.300100
  H      4.338300   -2.755300    2.263000
  H      2.438700   -1.466500    3.113300
  H     -0.552400   -0.423400   -0.922000
  H     -0.240500   -1.279200    0.624700
  H     -2.801200    0.314200   -0.047300
  H     -2.462700   -0.495100    1.514200
  H     -2.443000   -2.969100    1.668900
  H     -3.241600   -5.103500    0.716600
  H     -4.018000   -5.207100   -1.634600
  H     -3.987200   -3.166800   -3.041600
  H     -3.191400   -1.023300   -2.106900
  H     -0.254700    3.599700   -2.827600
  H     -2.157600    5.041200    0.759700
  H      2.499500    0.988200   -0.425600
  H      4.403400   -0.292900   -1.289700

 Total Charge           Charge          ....    0
 Multiplicity           Mult            ....    1
 Number of Electrons    NEL             ....  248
 Basis Dimension        Dim             ....  488

ORBITAL ENERGIES
----------------

  NO   OCC          E(Eh)            E(eV)
   0   2.0000    -101.540715     -2763.0633
   1   2.0000     -89.105945     -2424.6960
   2   2.0000     -24.735795      -673.0952
   3   2.0000     -24.734348      -673.0558
   4   2.0000     -24.731940      -672.9903
   5   2.0000     -19.199108      -522.4343
   6   2.0000     -19.141279      -520.8607
   7   2.0000     -19.132743      -520.6284
   8   2.0000     -19.131843      -520.6039
   9   2.0000     -14.385036      -391.4367
  10   2.0000     -14.367207      -390.9516
  11   2.0000     -10.453622      -284.4575
  12   2.0000     -10.338642      -281.3287
  13   2.0000     -10.298473      -280.2357
  14   2.0000     -10.278547      -279.6935
  15   2.0000     -10.257826      -279.1296
  16   2.0000     -10.248076      -278.8643
  17   2.0000     -10.241719      -278.6913
  18   2.0000     -10.239636      -278.6347
  19   2.0000     -10.237746      -278.5832
  20   2.0000     -10.236034      -278.5366
  21   2.0000     -10.225267      -278.2437
  22   2.0000     -10.224155      -278.2134
  23   2.0000     -10.221618      -278.1444
  24   2.0000     -10.221226      -278.1337
  25   2.0000     -10.193689      -277.3844
  26   2.0000     -10.190277      -277.2915
  27   2.0000     -10.184626      -277.1378
  28   2.0000     -10.184414      -277.1320
  29   2.0000     -10.184056      -277.1223
  30   2.0000     -10.183526      -277.1078
  31   2.0000     -10.182830      -277.0889
  32   2.0000      -9.471797      -257.7407
  33   2.0000      -8.141646      -221.5455
  34   2.0000      -7.235292      -196.8823
  35   2.0000      -7.225328      -196.6112
  36   2.0000      -7.224781      -196.5963
  37   2.0000      -6.106974      -166.1792
  38   2.0000      -6.104441      -166.1103
  39   2.0000      -6.104210      -166.1040
  40   2.0000      -1.294801       -35.2333
  41   2.0000      -1.220173       -33.2026
  42   2.0000      -1.218970       -33.1699
  43   2.0000      -1.090898       -29.6848
  44   2.0000      -1.083601       -29.4863
  45   2.0000      -0.997990       -27.1567
  46   2.0000      -0.989467       -26.9248
  47   2.0000      -0.968976       -26.3672
  48   2.0000      -0.933289       -25.3961
  49   2.0000      -0.894834       -24.3497
  50   2.0000      -0.885922       -24.1072
  51   2.0000      -0.856156       -23.2972
  52   2.0000      -0.838665       -22.8212
  53   2.0000      -0.812261       -22.1027
  54   2.0000      -0.793371       -21.5887
  55   2.0000      -0.780615       -21.2416
  56   2.0000      -0.775592       -21.1049
  57   2.0000      -0.744342       -20.2546
  58   2.0000      -0.732865       -19.9423
  59   2.0000      -0.730665       -19.8824
  60   2.0000      -0.702459       -19.1149
  61   2.0000      -0.670462       -18.2442
  62   2.0000      -0.659703       -17.9514
  63   2.0000      -0.647825       -17.6282
  64   2.0000      -0.644749       -17.5445
  65   2.0000      -0.624116       -16.9831
  66   2.0000      -0.606768       -16.5110
  67   2.0000      -0.603304       -16.4167
  68   2.0000      -0.586543       -15.9606
  69   2.0000      -0.585737       -15.9387
  70   2.0000      -0.580493       -15.7960
  71   2.0000      -0.572835       -15.5876
  72   2.0000      -0.569162       -15.4877
  73   2.0000      -0.547328       -14.8935
  74   2.0000      -0.528281       -14.3753
  75   2.0000      -0.524405       -14.2698
  76   2.0000      -0.509838       -13.8734
  77   2.0000      -0.492583       -13.4039
  78   2.0000      -0.490211       -13.3393
  79   2.0000      -0.481186       -13.0937
  80   2.0000      -0.475479       -12.9384
  81   2.0000      -0.469824       -12.7846
  82   2.0000      -0.463908       -12.6236
  83   2.0000      -0.463508       -12.6127
  84   2.0000      -0.461898       -12.5689
  85   2.0000      -0.460483       -12.5304
  86   2.0000      -0.456433       -12.4202
  87   2.0000      -0.452050       -12.3009
  88   2.0000      -0.445515       -12.1231
  89   2.0000      -0.440651       -11.9907
  90   2.0000      -0.437777       -11.9125
  91   2.0000      -0.432919       -11.7803
  92   2.0000      -0.431215       -11.7340
  93   2.0000      -0.428494       -11.6599
  94   2.0000      -0.423405       -11.5214
  95   2.0000      -0.422195       -11.4885
  96   2.0000      -0.419937       -11.4271
  97   2.0000      -0.414813       -11.2876
  98   2.0000      -0.412412       -11.2223
  99   2.0000      -0.402613       -10.9557
 100   2.0000      -0.395904       -10.7731
 101   2.0000      -0.393702       -10.7132
 102   2.0000      -0.389372       -10.5953
 103   2.0000      -0.372038       -10.1237
 104   2.0000      -0.366261        -9.9665
 105   2.0000      -0.362013        -9.8509
 106   2.0000      -0.357616        -9.7312
 107   2.0000      -0.346242        -9.4217
 108   2.0000      -0.340004        -9.2520
 109   2.0000      -0.332587        -9.0502
 110   2.0000      -0.331043        -9.0081
 111   2.0000      -0.324714        -8.8359
 112   2.0000      -0.316489        -8.6121
 113   2.0000      -0.309412        -8.4195
 114   2.0000      -0.302525        -8.2321
 115   2.0000      -0.290011        -7.8916
 116   2.0000      -0.286787        -7.8039
 117   2.0000      -0.284203        -7.7336
 118   2.0000      -0.282150        -7.6777
 119   2.0000      -0.277566        -7.5529
 120   2.0000      -0.270643        -7.3646
 121   2.0000      -0.260913        -7.0998
 122   2.0000      -0.250419        -6.8143
 123   2.0000      -0.241292        -6.5659
 124   0.0000      -0.089600        -2.4381
 125   0.0000      -0.067859        -1.8465
 126   0.0000      -0.053031        -1.4430
 127   0.0000      -0.034623        -0.9421
 128   0.0000      -0.005209        -0.1417

MULLIKEN ATOMIC CHARGES
-----------------------
   0 O :   -0.443218
   1 C :    0.529655
   2 O :   -0.623369
   3 C :    0.083396
   4 C :   -0.145791
   5 C :   -0.145322
   6 C :   -0.127638
   7 S :    1.214268
   8 O :   -0.537668
   9 O :   -0.536307
  10 N :   -0.617739
  11 C :   -0.142810
  12 C :   -0.350309
  13 C :    0.153336
  14 C :   -0.176709
  15 C :   -0.126637
  16 C :   -0.125534
  17 C :   -0.126636
  18 C :   -0.173202
  19 C :    0.405718
  20 N :   -0.392589
  21 C :   -0.008960
  22 C :   -0.025452
  23 C :    0.903996
  24 F :   -0.299322
  25 F :   -0.291431
  26 F :   -0.300750
  27 C :   -0.131535
  28 C :   -0.075077
  29 Cl:    0.056394
  30 C :   -0.146945
  31 C :   -0.139695
  32 H :    0.435224
  33 H :    0.175723
  34 H :    0.191184
  35 H :    0.176378
  36 H :    0.172819
  37 H :    0.149002
  38 H :    0.176903
  39 H :    0.133690
  40 H :    0.130127
  41 H :    0.128488
  42 H :    0.129230
  43 H :    0.124243
  44 H :    0.181140
  45 H :    0.191400
  46 H :    0.185852
  47 H :    0.182481
Sum of atomic charges:   -0.0000000

LOEWDIN ATOMIC CHARGES
----------------------
   0 O :   -0.259403
   1 C :    0.180607
   2 O :   -0.334184
   3 C :   -0.037461
   4 C :   -0.097773
   5 C :   -0.101230
   6 C :   -0.174627
   7 S :    1.263194
   8 O :   -0.568657
   9 O :   -0.564655
  10 N :   -0.283118
  11 C :   -0.150308
  12 C :   -0.227687
  13 C :   -0.021494
  14 C :   -0.135390
  15 C :   -0.126085
  16 C :   -0.132065
  17 C :   -0.126493
  18 C :   -0.136425
  19 C :    0.059113
  20 N :   -0.124327
  21 C :   -0.052700
  22 C :   -0.075742
  23 C :    0.313333
  24 F :   -0.108529
  25 F :   -0.109136
  26 F :   -0.108424
  27 C :   -0.087092
  28 C :   -0.083023
  29 Cl:    0.084744
  30 C :   -0.104304
  31 C :   -0.084351
  32 H :    0.350545
  33 H :    0.156281
  34 H :    0.163609
  35 H :    0.135096
  36 H :    0.142006
  37 H :    0.128725
  38 H :    0.143000
  39 H :    0.133524
  40 H :    0.132144
  41 H :    0.131565
  42 H :    0.131733
  43 H :    0.129556
  44 H :    0.151074
  45 H :    0.164391
  46 H :    0.159088
  47 H :    0.161354

  Mayer bond orders larger than 0.100000
B(  0-O ,  1-C ) :   1.8631 B(  1-C ,  2-O ) :   1.0260 B(  1-C ,  3-C ) :   1.0074
B(  2-O , 32-H ) :   0.7412 B(  3-C ,  4-C ) :   1.3868 B(  3-C , 31-C ) :   1.3990
B(  4-C ,  5-C ) :   1.4112 B(  4-C , 33-H ) :   0.9141 B(  5-C ,  6-C ) :   1.4054
B(  5-C , 34-H ) :   0.9076 B(  6-C ,  7-S ) :   0.8095 B(  6-C , 30-C ) :   1.3709
B(  7-S ,  8-O ) :   1.6474 B(  7-S ,  9-O ) :   1.6563 B(  7-S , 10-N ) :   0.7848
B( 10-N , 11-C ) :   0.8965 B( 10-N , 19-C ) :   0.9450 B( 11-C , 12-C ) :   0.9780
B( 11-C , 35-H ) :   0.9208 B( 11-C , 36-H ) :   0.9195 B( 12-C , 13-C ) :   0.9733
B( 12-C , 37-H ) :   0.9309 B( 12-C , 38-H ) :   0.9254 B( 13-C , 14-C ) :   1.4319
B( 13-C , 18-C ) :   1.4291 B( 14-C , 15-C ) :   1.4406 B( 14-C , 39-H ) :   0.9244
B( 15-C , 16-C ) :   1.4537 B( 15-C , 40-H ) :   0.9294 B( 16-C , 17-C ) :   1.4546
B( 16-C , 41-H ) :   0.9303 B( 17-C , 18-C ) :   1.4409 B( 17-C , 42-H ) :   0.9296
B( 18-C , 43-H ) :   0.9262 B( 19-C , 20-N ) :   1.3780 B( 19-C , 28-C ) :   1.3363
B( 20-N , 21-C ) :   1.4081 B( 21-C , 22-C ) :   1.3642 B( 21-C , 44-H ) :   0.9181
B( 22-C , 23-C ) :   0.9727 B( 22-C , 27-C ) :   1.4069 B( 23-C , 24-F ) :   0.9534
B( 23-C , 25-F ) :   0.9897 B( 23-C , 26-F ) :   0.9498 B( 27-C , 28-C ) :   1.3908
B( 27-C , 45-H ) :   0.9076 B( 28-C , 29-Cl) :   1.0821 B( 30-C , 31-C ) :   1.4353
B( 30-C , 46-H ) :   0.9059 B( 31-C , 47-H ) :   0.9090

FINAL SINGLE POINT ENERGY     -2377.123585880222

DIPOLE MOMENT
-------------

Method             : SCF
Type of density    : Electron Density
Multiplicity       :   1
Irrep              :   0
Energy             : -2377.1235858802215262 Eh
Relativity type    :
Basis              : AO
                                X                 Y                 Z
Electronic contribution:     -1.875152181      45.817020431       0.015141313
Nuclear contribution   :      1.901502655     -47.285836860      -0.944048451
                        -----------------------------------------
Total Dipole Moment    :      0.026350474      -1.468816429      -0.928907138
                        -----------------------------------------
Magnitude (a.u.)       :      1.738097961
Magnitude (Debye)      :      4.417893920

Rotational constants in cm-1:             0.004017             0.002388             0.001883
Rotational constants in MHz :           120.436736            71.592379            56.436825

                             ****ORCA TERMINATED NORMALLY****
TOTAL RUN TIME: 0 days 0 hours 5 minutes 54 seconds 813 msec
