                         Program Version 6.0.0  -   RELEASE  -
|  1> ! B3LYP 6-31G* SP
|  2>
|  3> * xyz 0 1
|  4> C 5.1842 1.2312 0.3161
|  5> C 4.4158 1.1741 -0.9991
|  6> O 3.0424 0.8670 -0.7668
|  7> C 2.5809 -0.4152 -0.4455
|  8> O 3.3832 -1.3856 -0.4075
|  9> C 1.1441 -0.6083 -0.1756
| 10> S 0.0017 0.6171 -0.3364
| 11> C -1.3014 -0.3553 0.1016
| 12> C -2.7158 0.0753 0.1864
| 13> C -3.7121 -0.8425 0.5681
| 14> C -5.0497 -0.4432 0.6503
| 15> C -5.4076 0.8735 0.3533
| 16> C -4.4284 1.7938 -0.0267
| 17> C -3.0891 1.4001 -0.1106
| 18> N -0.8859 -1.6126 0.3756
| 19> C 0.4589 -1.7659 0.2284
| 20> N 1.0761 -3.0280 0.4946
| 21> H 5.1790 0.2380 0.8116
| 22> H 6.2366 1.5265 0.1210
| 23> H 4.7201 1.9787 0.9937
| 24> H 4.4771 2.1677 -1.4909
| 25> H 4.8713 0.4234 -1.6809
| 26> H -3.4589 -1.8687 0.8032
| 27> H -5.8094 -1.1557 0.9447
| 28> H -6.4434 1.1807 0.4175
| 29> H -4.7070 2.8141 -0.2567
| 30> H -2.3512 2.1337 -0.4075
| 31> H 0.4820 -3.8421 0.7676
| 32> H 2.1066 -3.1717 0.4675
| 33> *
| 34>
| 35>                          ****END OF INPUT****

CARTESIAN COORDINATES (ANGSTROEM)
---------------------------------
  C      5.184200    1.231200    0.316100
  C      4.415800    1.174100   -0.999100
  O      3.042400    0.867000   -0.766800
  C      2.580900   -0.415200   -0.445500
  O      3.383200   -1.385600   -0.407500
  C      1.144100   -0.608300   -0.175600
  S      0.001700    0.617100   -0.336400
  C     -1.301400   -0.355300    0.101600
  C     -2.715800    0.075300    0.186400
  C     -3.712100   -0.842500    0.568100
  C     -5.049700   -0.443200    0.650300
  C     -5.407600    0.873500    0.353300
  C     -4.428400    1.793800   -0.026700
  C     -3.089100    1.400100   -0.110600
  N     -0.885900   -1.612600    0.375600
  C      0.458900   -1.765900    0.228400
  N      1.076100   -3.028000    0.494600
  H      5.179000    0.238000    0.811600
  H      6.236600    1.526500    0.121000
  H      4.720100    1.978700    0.993700
  H      4.477100    2.167700   -1.490900
  H      4.871300    0.423400   -1.680900
  H     -3.458900   -1.868700    0.803200
  H     -5.809400   -1.155700    0.944700
  H     -6.443400    1.180700    0.417500
  H     -4.707000    2.814100   -0.256700
  H     -2.351200    2.133700   -0.407500
  H      0.482000   -3.842100    0.767600
  H      2.106600   -3.171700    0.467500

 Total Charge           Charge          ....    0
 Multiplicity           Mult            ....    1
 Number of Electrons    NEL             ....  130
 Basis Dimension        Dim             ....  266

ORBITAL ENERGIES
----------------

  NO   OCC          E(Eh)            E(eV)
   0   2.0000     -88.894697     -2418.9477
   1   2.0000     -19.174351      -521.7606
   2   2.0000     -19.120265      -520.2889
   3   2.0000     -14.339842      -390.2069
   4   2.0000     -14.328588      -389.9007
   5   2.0000     -10.319264      -280.8015
   6   2.0000     -10.270499      -279.4745
   7   2.0000     -10.258734      -279.1543
   8   2.0000     -10.235780      -278.5297
   9   2.0000     -10.212731      -277.9025
  10   2.0000     -10.211239      -277.8619
  11   2.0000     -10.195764      -277.4408
  12   2.0000     -10.191347      -277.3207
  13   2.0000     -10.190870      -277.3077
  14   2.0000     -10.190684      -277.3026
  15   2.0000     -10.189470      -277.2696
  16   2.0000     -10.169722      -276.7322
  17   2.0000      -7.971994      -216.9290
  18   2.0000      -5.934936      -161.4978
  19   2.0000      -5.930909      -161.3882
  20   2.0000      -5.929037      -161.3373
  21   2.0000      -1.070228       -29.1224
  22   2.0000      -0.986455       -26.8428
  23   2.0000      -0.973093       -26.4792
  24   2.0000      -0.879350       -23.9283
  25   2.0000      -0.858041       -23.3485
  26   2.0000      -0.813549       -22.1378
  27   2.0000      -0.777160       -21.1476
  28   2.0000      -0.757938       -20.6245
  29   2.0000      -0.750188       -20.4137
  30   2.0000      -0.718870       -19.5615
  31   2.0000      -0.660876       -17.9834
  32   2.0000      -0.629992       -17.1429
  33   2.0000      -0.615429       -16.7467
  34   2.0000      -0.593422       -16.1478
  35   2.0000      -0.566983       -15.4284
  36   2.0000      -0.549774       -14.9601
  37   2.0000      -0.520851       -14.1731
  38   2.0000      -0.508242       -13.8300
  39   2.0000      -0.486794       -13.2463
  40   2.0000      -0.478224       -13.0131
  41   2.0000      -0.468710       -12.7542
  42   2.0000      -0.459372       -12.5002
  43   2.0000      -0.448699       -12.2097
  44   2.0000      -0.442585       -12.0434
  45   2.0000      -0.432608       -11.7719
  46   2.0000      -0.426710       -11.6114
  47   2.0000      -0.424749       -11.5580
  48   2.0000      -0.420011       -11.4291
  49   2.0000      -0.390190       -10.6176
  50   2.0000      -0.376760       -10.2522
  51   2.0000      -0.369134       -10.0446
  52   2.0000      -0.366828        -9.9819
  53   2.0000      -0.359398        -9.7797
  54   2.0000      -0.356480        -9.7003
  55   2.0000      -0.350174        -9.5287
  56   2.0000      -0.325169        -8.8483
  57   2.0000      -0.319063        -8.6822
  58   2.0000      -0.286087        -7.7848
  59   2.0000      -0.282043        -7.6748
  60   2.0000      -0.271723        -7.3940
  61   2.0000      -0.261424        -7.1137
  62   2.0000      -0.256668        -6.9843
  63   2.0000      -0.246266        -6.7012
  64   2.0000      -0.202090        -5.4992
  65   0.0000      -0.064098        -1.7442
  66   0.0000      -0.007601        -0.2068
  67   0.0000      -0.000570        -0.0155
  68   0.0000       0.039767         1.0821
  69   0.0000       0.046265         1.2589

MULLIKEN ATOMIC CHARGES
-----------------------
   0 C :   -0.458977
   1 C :   -0.016051
   2 O :   -0.484726
   3 C :    0.588876
   4 O :   -0.492978
   5 C :   -0.276250
   6 S :    0.277180
   7 C :   -0.008814
   8 C :    0.135693
   9 C :   -0.151415
  10 C :   -0.128180
  11 C :   -0.116785
  12 C :   -0.133327
  13 C :   -0.185940
  14 N :   -0.434126
  15 C :    0.496578
  16 N :   -0.807492
  17 H :    0.176362
  18 H :    0.141132
  19 H :    0.151773
  20 H :    0.150889
  21 H :    0.155584
  22 H :    0.160254
  23 H :    0.136362
  24 H :    0.134075
  25 H :    0.136258
  26 H :    0.150594
  27 H :    0.338807
  28 H :    0.364643
Sum of atomic charges:   -0.0000000

LOEWDIN ATOMIC CHARGES
----------------------
   0 C :   -0.374897
   1 C :   -0.090251
   2 O :   -0.179990
   3 C :    0.180118
   4 O :   -0.292927
   5 C :   -0.291797
   6 S :    0.407499
   7 C :   -0.104859
   8 C :   -0.030318
   9 C :   -0.102833
  10 C :   -0.125868
  11 C :   -0.119597
  12 C :   -0.126465
  13 C :   -0.119601
  14 N :   -0.183685
  15 C :    0.083378
  16 N :   -0.398396
  17 H :    0.139202
  18 H :    0.128398
  19 H :    0.127940
  20 H :    0.127332
  21 H :    0.124986
  22 H :    0.149023
  23 H :    0.135540
  24 H :    0.134218
  25 H :    0.135426
  26 H :    0.141235
  27 H :    0.257888
  28 H :    0.269299

  Mayer bond orders larger than 0.100000
B(  0-C ,  1-C ) :   1.0116 B(  0-C , 17-H ) :   0.9405 B(  0-C , 18-H ) :   0.9426
B(  0-C , 19-H ) :   0.9482 B(  1-C ,  2-O ) :   0.8675 B(  1-C , 20-H ) :   0.9401
B(  1-C , 21-H ) :   0.9255 B(  2-O ,  3-C ) :   0.9908 B(  3-C ,  4-O ) :   1.7518
B(  3-C ,  5-C ) :   1.0676 B(  5-C ,  6-S ) :   1.0368 B(  5-C ,  7-C ) :   0.1053
B(  5-C , 15-C ) :   1.3672 B(  6-S ,  7-C ) :   1.1730 B(  7-C ,  8-C ) :   1.0203
B(  7-C , 14-N ) :   1.4351 B(  8-C ,  9-C ) :   1.4063 B(  8-C , 13-C ) :   1.3916
B(  9-C , 10-C ) :   1.4367 B(  9-C , 22-H ) :   0.9121 B( 10-C , 11-C ) :   1.4427
B( 10-C , 23-H ) :   0.9292 B( 11-C , 12-C ) :   1.4449 B( 11-C , 24-H ) :   0.9295
B( 12-C , 13-C ) :   1.4504 B( 12-C , 25-H ) :   0.9288 B( 13-C , 26-H ) :   0.9159
B( 14-N , 15-C ) :   1.2972 B( 15-C , 16-N ) :   1.0744 B( 16-N , 27-H ) :   0.8325
B( 16-N , 28-H ) :   0.7967

FINAL SINGLE POINT ENERGY     -1122.148637016995

DIPOLE MOMENT
-------------

Method             : SCF
Type of density    : Electron Density
Multiplicity       :   1
Irrep              :   0
Energy             : -1122.1486370169952806 Eh
Relativity type    :
Basis              : AO
                                X                 Y                 Z
Electronic contribution:     -7.091177101      -3.034836835      -1.613656313
Nuclear contribution   :      6.537306715       3.387138395       1.764048661
                        -----------------------------------------
Total Dipole Moment    :     -0.553870386       0.352301560       0.150392348
                        -----------------------------------------
Magnitude (a.u.)       :      0.673429025
Magnitude (Debye)      :      1.711720550

Rotational constants in cm-1:             0.035639             0.006503             0.005599
Rotational constants in MHz :          1068.419109           194.961069           167.868192

                             ****ORCA TERMINATED NORMALLY****
TOTAL RUN TIME: 0 days 0 hours 2 minutes 47 seconds 62 msec
