                         Program Version 6.0.0  -   RELEASE  -
|  1> ! B3LYP 6-31G* SP
|  2>
|  3> * xyz 0 1
|  4> O 2.3373 1.0617 1.8197
|  5> C 1.8772 0.3628 0.8758
|  6> N 2.7582 -0.1721 -0.1276
|  7> C 4.1871 -0.0148 -0.1126
|  8> C 4.9230 -0.0962 1.0819
|  9> C 6.3148 0.0351 1.0650
| 10> C 6.9996 0.2169 -0.1486
| 11> C 8.4954 0.4087 -0.1609
| 12> F 9.0870 -0.2934 0.8751
| 13> F 8.7827 1.7529 -0.0157
| 14> F 9.0367 -0.0420 -1.3526
| 15> C 6.2609 0.2999 -1.3411
| 16> C 4.8696 0.1671 -1.3232
| 17> N 0.4633 0.1097 0.8094
| 18> C -0.3053 -0.0183 2.0513
| 19> C -1.4286 -1.0456 1.8734
| 20> C -2.3022 -0.7354 0.6368
| 21> C -1.3970 -0.6361 -0.6178
| 22> C -0.2785 0.3927 -0.4242
| 23> C -3.3612 -1.8531 0.4717
| 24> C -4.3937 -1.5295 -0.6245
| 25> O -5.4681 -2.4278 -0.4964
| 26> C -4.8930 -0.1019 -0.5228
| 27> C -6.0553 0.2968 -1.2070
| 28> C -6.5019 1.6190 -1.1312
| 29> C -5.7870 2.5588 -0.3861
| 30> C -4.6153 2.1827 0.2753
| 31> F -3.9160 3.1050 0.9825
| 32> C -4.1557 0.8628 0.1964
| 33> O -2.9678 0.5134 0.8476
| 34> H 2.3391 -0.6627 -0.9484
| 35> H 4.4292 -0.2842 2.0256
| 36> H 6.8565 -0.0130 2.0014
| 37> H 6.7589 0.4675 -2.2878
| 38> H 4.3187 0.2228 -2.2538
| 39> H 0.3514 -0.3567 2.8829
| 40> H -0.7318 0.9707 2.3270
| 41> H -0.9734 -2.0557 1.7684
| 42> H -2.0577 -1.0500 2.7905
| 43> H -1.9922 -0.3343 -1.5054
| 44> H -0.9393 -1.6269 -0.8331
| 45> H 0.3847 0.3731 -1.3133
| 46> H -0.7149 1.4134 -0.3611
| 47> H -2.8677 -2.8222 0.2376
| 48> H -3.9029 -1.9795 1.4363
| 49> H -3.9020 -1.6570 -1.6176
| 50> H -5.7649 -2.6689 -1.4128
| 51> H -6.6186 -0.4134 -1.7985
| 52> H -7.4025 1.9158 -1.6530
| 53> H -6.1371 3.5814 -0.3291
| 54> *
| 55>
| 56>                          ****END OF INPUT****

CARTESIAN COORDINATES (ANGSTROEM)
---------------------------------
  O      2.337300    1.061700    1.819700
  C      1.877200    0.362800    0.875800
  N      2.758200   -0.172100   -0.127600
  C      4.187100   -0.014800   -0.112600
  C      4.923000   -0.096200    1.081900
  C      6.314800    0.035100    1.065000
  C      6.999600    0.216900   -0.148600
  C      8.495400    0.408700   -0.160900
  F      9.087000   -0.293400    0.875100
  F      8.782700    1.752900   -0.015700
  F      9.036700   -0.042000   -1.352600
  C      6.260900    0.299900   -1.341100
  C      4.869600    0.167100   -1.323200
  N      0.463300    0.109700    0.809400
  C     -0.305300   -0.018300    2.051300
  C     -1.428600   -1.045600    1.873400
  C     -2.302200   -0.735400    0.636800
  C     -1.397000   -0.636100   -0.617800
  C     -0.278500    0.392700   -0.424200
  C     -3.361200   -1.853100    0.471700
  C     -4.393700   -1.529500   -0.624500
  O     -5.468100   -2.427800   -0.496400
  C     -4.893000   -0.101900   -0.522800
  C     -6.055300    0.296800   -1.207000
  C     -6.501900    1.619000   -1.131200
  C     -5.787000    2.558800   -0.386100
  C     -4.615300    2.182700    0.275300
  F     -3.916000    3.105000    0.982500
  C     -4.155700    0.862800    0.196400
  O     -2.967800    0.513400    0.847600
  H      2.339100   -0.662700   -0.948400
  H      4.429200   -0.284200    2.025600
  H      6.856500   -0.013000    2.001400
  H      6.758900    0.467500   -2.287800
  H      4.318700    0.222800   -2.253800
  H      0.351400   -0.356700    2.882900
  H     -0.731800    0.970700    2.327000
  H     -0.973400   -2.055700    1.768400
  H     -2.057700   -1.050000    2.790500
  H     -1.992200   -0.334300   -1.505400
  H     -0.939300   -1.626900   -0.833100
  H      0.384700    0.373100   -1.313300
  H     -0.714900    1.413400   -0.361100
  H     -2.867700   -2.822200    0.237600
  H     -3.902900   -1.979500    1.436300
  H     -3.902000   -1.657000   -1.617600
  H     -5.764900   -2.668900   -1.412800
  H     -6.618600   -0.413400   -1.798500
  H     -7.402500    1.915800   -1.653000
  H     -6.137100    3.581400   -0.329100

 Total Charge           Charge          ....    0
 Multiplicity           Mult            ....    1
 Number of Electrons    NEL             ....  220
 Basis Dimension        Dim             ....  460

ORBITAL ENERGIES
----------------

  NO   OCC          E(Eh)            E(eV)
   0   2.0000     -24.712095      -672.4503
   1   2.0000     -24.711553      -672.4355
   2   2.0000     -24.706926      -672.3096
   3   2.0000     -24.697174      -672.0443
   4   2.0000     -19.173606      -521.7403
   5   2.0000     -19.152719      -521.1720
   6   2.0000     -19.107565      -519.9433
   7   2.0000     -14.375364      -391.1735
   8   2.0000     -14.348339      -390.4382
   9   2.0000     -10.425895      -283.7030
  10   2.0000     -10.319493      -280.8077
  11   2.0000     -10.269832      -279.4563
  12   2.0000     -10.260790      -279.2103
  13   2.0000     -10.256095      -279.0825
  14   2.0000     -10.249999      -278.9166
  15   2.0000     -10.241812      -278.6939
  16   2.0000     -10.227442      -278.3029
  17   2.0000     -10.214898      -277.9615
  18   2.0000     -10.203717      -277.6573
  19   2.0000     -10.198799      -277.5234
  20   2.0000     -10.196231      -277.4535
  21   2.0000     -10.196135      -277.4509
  22   2.0000     -10.195640      -277.4375
  23   2.0000     -10.195276      -277.4276
  24   2.0000     -10.192198      -277.3438
  25   2.0000     -10.191702      -277.3303
  26   2.0000     -10.189626      -277.2738
  27   2.0000     -10.189404      -277.2678
  28   2.0000     -10.188280      -277.2372
  29   2.0000     -10.187981      -277.2291
  30   2.0000      -1.271189       -34.5908
  31   2.0000      -1.209805       -32.9205
  32   2.0000      -1.197187       -32.5771
  33   2.0000      -1.195070       -32.5195
  34   2.0000      -1.060624       -28.8610
  35   2.0000      -1.033563       -28.1247
  36   2.0000      -1.022237       -27.8165
  37   2.0000      -0.925259       -25.1776
  38   2.0000      -0.921161       -25.0661
  39   2.0000      -0.860615       -23.4185
  40   2.0000      -0.856124       -23.2963
  41   2.0000      -0.820250       -22.3201
  42   2.0000      -0.781391       -21.2627
  43   2.0000      -0.771913       -21.0048
  44   2.0000      -0.769234       -20.9319
  45   2.0000      -0.754797       -20.5391
  46   2.0000      -0.745060       -20.2741
  47   2.0000      -0.732894       -19.9431
  48   2.0000      -0.689993       -18.7757
  49   2.0000      -0.663712       -18.0605
  50   2.0000      -0.647363       -17.6156
  51   2.0000      -0.644508       -17.5380
  52   2.0000      -0.628191       -17.0940
  53   2.0000      -0.621755       -16.9188
  54   2.0000      -0.609560       -16.5870
  55   2.0000      -0.597889       -16.2694
  56   2.0000      -0.571035       -15.5386
  57   2.0000      -0.563787       -15.3414
  58   2.0000      -0.561857       -15.2889
  59   2.0000      -0.557229       -15.1630
  60   2.0000      -0.553530       -15.0623
  61   2.0000      -0.543030       -14.7766
  62   2.0000      -0.540437       -14.7060
  63   2.0000      -0.528177       -14.3724
  64   2.0000      -0.518563       -14.1108
  65   2.0000      -0.499897       -13.6029
  66   2.0000      -0.487956       -13.2780
  67   2.0000      -0.477704       -12.9990
  68   2.0000      -0.469837       -12.7849
  69   2.0000      -0.465402       -12.6642
  70   2.0000      -0.459658       -12.5079
  71   2.0000      -0.458247       -12.4695
  72   2.0000      -0.457523       -12.4498
  73   2.0000      -0.455334       -12.3903
  74   2.0000      -0.450599       -12.2614
  75   2.0000      -0.441135       -12.0039
  76   2.0000      -0.438046       -11.9198
  77   2.0000      -0.435810       -11.8590
  78   2.0000      -0.431335       -11.7372
  79   2.0000      -0.426263       -11.5992
  80   2.0000      -0.418481       -11.3874
  81   2.0000      -0.413609       -11.2549
  82   2.0000      -0.411985       -11.2107
  83   2.0000      -0.405917       -11.0456
  84   2.0000      -0.402373       -10.9491
  85   2.0000      -0.398105       -10.8330
  86   2.0000      -0.396127       -10.7792
  87   2.0000      -0.390040       -10.6135
  88   2.0000      -0.388661       -10.5760
  89   2.0000      -0.384499       -10.4627
  90   2.0000      -0.381753       -10.3880
  91   2.0000      -0.375870       -10.2280
  92   2.0000      -0.364526        -9.9193
  93   2.0000      -0.361834        -9.8460
  94   2.0000      -0.358659        -9.7596
  95   2.0000      -0.358251        -9.7485
  96   2.0000      -0.356815        -9.7094
  97   2.0000      -0.354981        -9.6595
  98   2.0000      -0.345737        -9.4080
  99   2.0000      -0.334707        -9.1078
 100   2.0000      -0.312569        -8.5054
 101   2.0000      -0.308467        -8.3938
 102   2.0000      -0.294252        -8.0070
 103   2.0000      -0.281615        -7.6631
 104   2.0000      -0.265951        -7.2369
 105   2.0000      -0.254705        -6.9309
 106   2.0000      -0.243445        -6.6245
 107   2.0000      -0.230193        -6.2639
 108   2.0000      -0.223845        -6.0911
 109   2.0000      -0.220976        -6.0131
 110   0.0000      -0.025044        -0.6815
 111   0.0000      -0.012067        -0.3283
 112   0.0000      -0.009110        -0.2479
 113   0.0000       0.004540         0.1235
 114   0.0000       0.028382         0.7723

MULLIKEN ATOMIC CHARGES
-----------------------
   0 O :   -0.474535
   1 C :    0.663290
   2 N :   -0.707386
   3 C :    0.341199
   4 C :   -0.128478
   5 C :   -0.173068
   6 C :   -0.016228
   7 C :    0.892221
   8 F :   -0.306875
   9 F :   -0.297012
  10 F :   -0.308186
  11 C :   -0.163871
  12 C :   -0.179923
  13 N :   -0.444576
  14 C :   -0.120118
  15 C :   -0.284733
  16 C :    0.309124
  17 C :   -0.278520
  18 C :   -0.139615
  19 C :   -0.303426
  20 C :    0.058929
  21 O :   -0.618919
  22 C :    0.110074
  23 C :   -0.182967
  24 C :   -0.121302
  25 C :   -0.210615
  26 C :    0.353596
  27 F :   -0.310748
  28 C :    0.242624
  29 O :   -0.547293
  30 H :    0.328576
  31 H :    0.162659
  32 H :    0.154932
  33 H :    0.150730
  34 H :    0.129315
  35 H :    0.165616
  36 H :    0.164638
  37 H :    0.142040
  38 H :    0.152453
  39 H :    0.142010
  40 H :    0.133088
  41 H :    0.135093
  42 H :    0.166340
  43 H :    0.138258
  44 H :    0.160204
  45 H :    0.126509
  46 H :    0.401252
  47 H :    0.113190
  48 H :    0.133010
  49 H :    0.147424
Sum of atomic charges:   -0.0000000

LOEWDIN ATOMIC CHARGES
----------------------
   0 O :   -0.294837
   1 C :    0.165169
   2 N :   -0.221985
   3 C :    0.047773
   4 C :   -0.120281
   5 C :   -0.109597
   6 C :   -0.079308
   7 C :    0.308869
   8 F :   -0.115045
   9 F :   -0.114795
  10 F :   -0.116161
  11 C :   -0.111881
  12 C :   -0.146359
  13 N :   -0.142180
  14 C :   -0.142839
  15 C :   -0.226919
  16 C :    0.075075
  17 C :   -0.240191
  18 C :   -0.150352
  19 C :   -0.231922
  20 C :   -0.014971
  21 O :   -0.383084
  22 C :   -0.060912
  23 C :   -0.129533
  24 C :   -0.137705
  25 C :   -0.153073
  26 C :    0.098276
  27 F :   -0.099004
  28 C :    0.055576
  29 O :   -0.170225
  30 H :    0.254606
  31 H :    0.152484
  32 H :    0.145311
  33 H :    0.143361
  34 H :    0.133127
  35 H :    0.141071
  36 H :    0.127104
  37 H :    0.129166
  38 H :    0.135262
  39 H :    0.126912
  40 H :    0.123542
  41 H :    0.122275
  42 H :    0.126198
  43 H :    0.129421
  44 H :    0.137217
  45 H :    0.109904
  46 H :    0.318003
  47 H :    0.126902
  48 H :    0.134635
  49 H :    0.145917

  Mayer bond orders larger than 0.100000
B(  0-O ,  1-C ) :   1.8152 B(  1-C ,  2-N ) :   1.0081 B(  1-C , 13-N ) :   1.0383
B(  2-N ,  3-C ) :   0.8750 B(  2-N , 30-H ) :   0.8231 B(  3-C ,  4-C ) :   1.4193
B(  3-C , 12-C ) :   1.4035 B(  4-C ,  5-C ) :   1.4316 B(  4-C , 31-H ) :   0.9095
B(  5-C ,  6-C ) :   1.3986 B(  5-C , 32-H ) :   0.9198 B(  6-C ,  7-C ) :   0.9829
B(  6-C , 11-C ) :   1.4120 B(  7-C ,  8-F ) :   0.9469 B(  7-C ,  9-F ) :   0.9864
B(  7-C , 10-F ) :   0.9454 B( 11-C , 12-C ) :   1.4383 B( 11-C , 33-H ) :   0.9195
B( 12-C , 34-H ) :   0.9248 B( 13-N , 14-C ) :   0.9388 B( 13-N , 18-C ) :   0.9569
B( 14-C , 15-C ) :   0.9826 B( 14-C , 35-H ) :   0.9308 B( 14-C , 36-H ) :   0.9211
B( 15-C , 16-C ) :   0.9977 B( 15-C , 37-H ) :   0.9274 B( 15-C , 38-H ) :   0.9246
B( 16-C , 17-C ) :   0.9806 B( 16-C , 19-C ) :   0.9691 B( 16-C , 29-O ) :   0.8290
B( 17-C , 18-C ) :   0.9854 B( 17-C , 39-H ) :   0.9232 B( 17-C , 40-H ) :   0.9281
B( 18-C , 41-H ) :   0.9334 B( 18-C , 42-H ) :   0.9164 B( 19-C , 20-C ) :   0.9860
B( 19-C , 43-H ) :   0.9264 B( 19-C , 44-H ) :   0.9223 B( 20-C , 21-O ) :   0.9568
B( 20-C , 22-C ) :   0.9308 B( 20-C , 45-H ) :   0.9203 B( 21-O , 46-H ) :   0.7843
B( 22-C , 23-C ) :   1.4026 B( 22-C , 28-C ) :   1.3589 B( 23-C , 24-C ) :   1.4502
B( 23-C , 47-H ) :   0.9254 B( 24-C , 25-C ) :   1.4207 B( 24-C , 48-H ) :   0.9302
B( 25-C , 26-C ) :   1.4103 B( 25-C , 49-H ) :   0.9195 B( 26-C , 27-F ) :   0.9356
B( 26-C , 28-C ) :   1.2915 B( 28-C , 29-O ) :   0.9068

FINAL SINGLE POINT ENERGY     -1545.958074189856

DIPOLE MOMENT
-------------

Method             : SCF
Type of density    : Electron Density
Multiplicity       :   1
Irrep              :   0
Energy             : -1545.9580741898562337 Eh
Relativity type    :
Basis              : AO
                                X                 Y                 Z
Electronic contribution:     49.187305136      12.989774869       1.446912292
Nuclear contribution   :    -51.150184778     -14.486016560      -3.312783552
                        -----------------------------------------
Total Dipole Moment    :     -1.962879642      -1.496241691      -1.865871260
                        -----------------------------------------
Magnitude (a.u.)       :      3.094044480
Magnitude (Debye)      :      7.864436071

Rotational constants in cm-1:             0.015401             0.001403             0.001376
Rotational constants in MHz :           461.701107            42.075805            41.245575

                             ****ORCA TERMINATED NORMALLY****
TOTAL RUN TIME: 0 days 0 hours 7 minutes 10 seconds 609 msec
