                         Program Version 6.0.0  -   RELEASE  -
|  1> ! B3LYP 6-31G* SP
|  2>
|  3> * xyz 0 1
|  4> O -2.1908 1.0264 0.8469
|  5> C -1.6147 0.7470 -0.2397
|  6> N -2.1156 -0.3194 -1.0649
|  7> C -3.0173 -1.3337 -0.5919
|  8> C -2.9433 -1.8233 0.7259
|  9> C -3.8097 -2.8350 1.1514
| 10> C -4.7460 -3.3749 0.2656
| 11> F -5.5850 -4.3559 0.6804
| 12> C -4.8110 -2.9095 -1.0506
| 13> C -3.9454 -1.8988 -1.4801
| 14> N -0.4405 1.4864 -0.6252
| 15> C -0.1786 1.7638 -2.0431
| 16> C 0.4258 3.1539 -2.2083
| 17> C 1.6130 3.3291 -1.3090
| 18> C 2.6400 4.2164 -1.6513
| 19> N 3.6761 4.4202 -0.7983
| 20> C 3.7285 3.7825 0.3986
| 21> N 2.7356 2.9301 0.7595
| 22> C 1.6799 2.6822 -0.0635
| 23> C 0.5933 1.7329 0.4004
| 24> C 1.1898 0.4119 0.8450
| 25> C 2.0083 -0.3343 -0.0203
| 26> C 2.5120 -1.5759 0.3759
| 27> C 2.1837 -2.1098 1.6336
| 28> C 2.7606 -3.4296 2.0803
| 29> F 1.8885 -4.0764 2.9384
| 30> F 3.9552 -3.2047 2.7376
| 31> F 2.9920 -4.2567 0.9950
| 32> C 1.3798 -1.3557 2.5046
| 33> C 0.8781 -0.1127 2.1096
| 34> H -1.8123 -0.3749 -2.0623
| 35> H -2.2017 -1.4458 1.4177
| 36> H -3.7481 -3.2060 2.1665
| 37> H -5.5308 -3.3322 -1.7396
| 38> H -4.0026 -1.5487 -2.5031
| 39> H -1.1228 1.7362 -2.6289
| 40> H 0.5122 0.9958 -2.4517
| 41> H -0.3349 3.9219 -1.9500
| 42> H 0.7197 3.2941 -3.2716
| 43> H 2.6150 4.7500 -2.5928
| 44> H 4.5588 3.9590 1.0686
| 45> H 0.1085 2.2370 1.2659
| 46> H 2.2620 0.0481 -1.0007
| 47> H 3.1555 -2.1202 -0.3034
| 48> H 1.1364 -1.7293 3.4912
| 49> H 0.2429 0.4385 2.7917
| 50> *
| 51>
| 52>                          ****END OF INPUT****

CARTESIAN COORDINATES (ANGSTROEM)
---------------------------------
  O     -2.190800    1.026400    0.846900
  C     -1.614700    0.747000   -0.239700
  N     -2.115600   -0.319400   -1.064900
  C     -3.017300   -1.333700   -0.591900
  C     -2.943300   -1.823300    0.725900
  C     -3.809700   -2.835000    1.151400
  C     -4.746000   -3.374900    0.265600
  F     -5.585000   -4.355900    0.680400
  C     -4.811000   -2.909500   -1.050600
  C     -3.945400   -1.898800   -1.480100
  N     -0.440500    1.486400   -0.625200
  C     -0.178600    1.763800   -2.043100
  C      0.425800    3.153900   -2.208300
  C      1.613000    3.329100   -1.309000
  C      2.640000    4.216400   -1.651300
  N      3.676100    4.420200   -0.798300
  C      3.728500    3.782500    0.398600
  N      2.735600    2.930100    0.759500
  C      1.679900    2.682200   -0.063500
  C      0.593300    1.732900    0.400400
  C      1.189800    0.411900    0.845000
  C      2.008300   -0.334300   -0.020300
  C      2.512000   -1.575900    0.375900
  C      2.183700   -2.109800    1.633600
  C      2.760600   -3.429600    2.080300
  F      1.888500   -4.076400    2.938400
  F      3.955200   -3.204700    2.737600
  F      2.992000   -4.256700    0.995000
  C      1.379800   -1.355700    2.504600
  C      0.878100   -0.112700    2.109600
  H     -1.812300   -0.374900   -2.062300
  H     -2.201700   -1.445800    1.417700
  H     -3.748100   -3.206000    2.166500
  H     -5.530800   -3.332200   -1.739600
  H     -4.002600   -1.548700   -2.503100
  H     -1.122800    1.736200   -2.628900
  H      0.512200    0.995800   -2.451700
  H     -0.334900    3.921900   -1.950000
  H      0.719700    3.294100   -3.271600
  H      2.615000    4.750000   -2.592800
  H      4.558800    3.959000    1.068600
  H      0.108500    2.237000    1.265900
  H      2.262000    0.048100   -1.000700
  H      3.155500   -2.120200   -0.303400
  H      1.136400   -1.729300    3.491200
  H      0.242900    0.438500    2.791700

 Total Charge           Charge          ....    0
 Multiplicity           Mult            ....    1
 Number of Electrons    NEL             ....  214
 Basis Dimension        Dim             ....  452

ORBITAL ENERGIES
----------------

  NO   OCC          E(Eh)            E(eV)
   0   2.0000     -24.716994      -672.5836
   1   2.0000     -24.716192      -672.5618
   2   2.0000     -24.712318      -672.4564
   3   2.0000     -24.694986      -671.9847
   4   2.0000     -19.117239      -520.2065
   5   2.0000     -14.376837      -391.2136
   6   2.0000     -14.363915      -390.8620
   7   2.0000     -14.342128      -390.2691
   8   2.0000     -14.339612      -390.2007
   9   2.0000     -10.431396      -283.8527
  10   2.0000     -10.328182      -281.0441
  11   2.0000     -10.265249      -279.3316
  12   2.0000     -10.261804      -279.2379
  13   2.0000     -10.255742      -279.0729
  14   2.0000     -10.249207      -278.8951
  15   2.0000     -10.245101      -278.7834
  16   2.0000     -10.243082      -278.7284
  17   2.0000     -10.236136      -278.5394
  18   2.0000     -10.217851      -278.0419
  19   2.0000     -10.213650      -277.9275
  20   2.0000     -10.211863      -277.8789
  21   2.0000     -10.208505      -277.7875
  22   2.0000     -10.202775      -277.6316
  23   2.0000     -10.200900      -277.5806
  24   2.0000     -10.199465      -277.5416
  25   2.0000     -10.196059      -277.4489
  26   2.0000     -10.195373      -277.4302
  27   2.0000     -10.191979      -277.3378
  28   2.0000     -10.189800      -277.2785
  29   2.0000     -10.189083      -277.2590
  30   2.0000      -1.276329       -34.7307
  31   2.0000      -1.208057       -32.8729
  32   2.0000      -1.202032       -32.7090
  33   2.0000      -1.200276       -32.6612
  34   2.0000      -1.031438       -28.0669
  35   2.0000      -0.979746       -26.6602
  36   2.0000      -0.942150       -25.6372
  37   2.0000      -0.924082       -25.1456
  38   2.0000      -0.881330       -23.9822
  39   2.0000      -0.870132       -23.6775
  40   2.0000      -0.849062       -23.1042
  41   2.0000      -0.830164       -22.5899
  42   2.0000      -0.806302       -21.9406
  43   2.0000      -0.767275       -20.8786
  44   2.0000      -0.759593       -20.6696
  45   2.0000      -0.755215       -20.5505
  46   2.0000      -0.743397       -20.2289
  47   2.0000      -0.718206       -19.5434
  48   2.0000      -0.685733       -18.6597
  49   2.0000      -0.677936       -18.4476
  50   2.0000      -0.646940       -17.6041
  51   2.0000      -0.633829       -17.2474
  52   2.0000      -0.626112       -17.0374
  53   2.0000      -0.623789       -16.9741
  54   2.0000      -0.612073       -16.6554
  55   2.0000      -0.599656       -16.3175
  56   2.0000      -0.570528       -15.5249
  57   2.0000      -0.566982       -15.4284
  58   2.0000      -0.564795       -15.3689
  59   2.0000      -0.559422       -15.2227
  60   2.0000      -0.552694       -15.0396
  61   2.0000      -0.539258       -14.6740
  62   2.0000      -0.533447       -14.5158
  63   2.0000      -0.522409       -14.2155
  64   2.0000      -0.512323       -13.9410
  65   2.0000      -0.500618       -13.6225
  66   2.0000      -0.490925       -13.3587
  67   2.0000      -0.481099       -13.0914
  68   2.0000      -0.473743       -12.8912
  69   2.0000      -0.463298       -12.6070
  70   2.0000      -0.458841       -12.4857
  71   2.0000      -0.450959       -12.2712
  72   2.0000      -0.449013       -12.2183
  73   2.0000      -0.445371       -12.1192
  74   2.0000      -0.443595       -12.0708
  75   2.0000      -0.440575       -11.9886
  76   2.0000      -0.439091       -11.9483
  77   2.0000      -0.436199       -11.8696
  78   2.0000      -0.431791       -11.7496
  79   2.0000      -0.429241       -11.6802
  80   2.0000      -0.417854       -11.3704
  81   2.0000      -0.417332       -11.3562
  82   2.0000      -0.415253       -11.2996
  83   2.0000      -0.406709       -11.0671
  84   2.0000      -0.402910       -10.9637
  85   2.0000      -0.401710       -10.9311
  86   2.0000      -0.394913       -10.7461
  87   2.0000      -0.394586       -10.7372
  88   2.0000      -0.392637       -10.6842
  89   2.0000      -0.387377       -10.5411
  90   2.0000      -0.379662       -10.3311
  91   2.0000      -0.369376       -10.0512
  92   2.0000      -0.358764        -9.7625
  93   2.0000      -0.357560        -9.7297
  94   2.0000      -0.355018        -9.6605
  95   2.0000      -0.345098        -9.3906
  96   2.0000      -0.311371        -8.4728
  97   2.0000      -0.297176        -8.0866
  98   2.0000      -0.291651        -7.9362
  99   2.0000      -0.280575        -7.6348
 100   2.0000      -0.268948        -7.3185
 101   2.0000      -0.264600        -7.2001
 102   2.0000      -0.263026        -7.1573
 103   2.0000      -0.255278        -6.9465
 104   2.0000      -0.242353        -6.5948
 105   2.0000      -0.235528        -6.4091
 106   2.0000      -0.217497        -5.9184
 107   0.0000      -0.052393        -1.4257
 108   0.0000      -0.038378        -1.0443
 109   0.0000      -0.028599        -0.7782
 110   0.0000      -0.015948        -0.4340
 111   0.0000      -0.012714        -0.3460

MULLIKEN ATOMIC CHARGES
-----------------------
   0 O :   -0.477440
   1 C :    0.680361
   2 N :   -0.713878
   3 C :    0.331136
   4 C :   -0.118108
   5 C :   -0.220568
   6 C :    0.410475
   7 F :   -0.319985
   8 C :   -0.212515
   9 C :   -0.168413
  10 N :   -0.451669
  11 C :   -0.154835
  12 C :   -0.342183
  13 C :    0.103330
  14 C :   -0.014102
  15 N :   -0.352605
  16 C :    0.133112
  17 N :   -0.391604
  18 C :    0.208260
  19 C :   -0.090365
  20 C :    0.204792
  21 C :   -0.177028
  22 C :   -0.159066
  23 C :   -0.014995
  24 C :    0.894859
  25 F :   -0.305471
  26 F :   -0.296083
  27 F :   -0.306560
  28 C :   -0.161066
  29 C :   -0.181251
  30 H :    0.330657
  31 H :    0.160933
  32 H :    0.149457
  33 H :    0.144963
  34 H :    0.129057
  35 H :    0.154367
  36 H :    0.140455
  37 H :    0.178721
  38 H :    0.151913
  39 H :    0.155870
  40 H :    0.176801
  41 H :    0.197930
  42 H :    0.131116
  43 H :    0.150871
  44 H :    0.154033
  45 H :    0.156320
Sum of atomic charges:    0.0000000

LOEWDIN ATOMIC CHARGES
----------------------
   0 O :   -0.290323
   1 C :    0.170844
   2 N :   -0.223229
   3 C :    0.029499
   4 C :   -0.114951
   5 C :   -0.151968
   6 C :    0.109601
   7 F :   -0.106139
   8 C :   -0.155764
   9 C :   -0.141492
  10 N :   -0.131677
  11 C :   -0.154286
  12 C :   -0.227170
  13 C :   -0.055328
  14 C :   -0.049716
  15 N :   -0.141277
  16 C :   -0.024417
  17 N :   -0.135449
  18 C :    0.043044
  19 C :   -0.039228
  20 C :   -0.000714
  21 C :   -0.124998
  22 C :   -0.111726
  23 C :   -0.069763
  24 C :    0.309485
  25 F :   -0.113741
  26 F :   -0.113509
  27 F :   -0.114378
  28 C :   -0.110242
  29 C :   -0.123130
  30 H :    0.254789
  31 H :    0.150588
  32 H :    0.146047
  33 H :    0.144017
  34 H :    0.132937
  35 H :    0.131100
  36 H :    0.109359
  37 H :    0.146034
  38 H :    0.134593
  39 H :    0.138782
  40 H :    0.146951
  41 H :    0.161804
  42 H :    0.132432
  43 H :    0.142953
  44 H :    0.144461
  45 H :    0.145292

  Mayer bond orders larger than 0.100000
B(  0-O ,  1-C ) :   1.8027 B(  1-C ,  2-N ) :   1.0219 B(  1-C , 10-N ) :   1.0133
B(  2-N ,  3-C ) :   0.8581 B(  2-N , 30-H ) :   0.8194 B(  3-C ,  4-C ) :   1.4208
B(  3-C ,  9-C ) :   1.4114 B(  4-C ,  5-C ) :   1.4292 B(  4-C , 31-H ) :   0.9075
B(  5-C ,  6-C ) :   1.3832 B(  5-C , 32-H ) :   0.9203 B(  6-C ,  7-F ) :   0.9152
B(  6-C ,  8-C ) :   1.3977 B(  8-C ,  9-C ) :   1.4256 B(  8-C , 33-H ) :   0.9204
B(  9-C , 34-H ) :   0.9253 B( 10-N , 11-C ) :   0.9478 B( 10-N , 19-C ) :   0.9313
B( 11-C , 12-C ) :   0.9905 B( 11-C , 35-H ) :   0.9293 B( 11-C , 36-H ) :   0.9151
B( 12-C , 13-C ) :   0.9878 B( 12-C , 37-H ) :   0.9157 B( 12-C , 38-H ) :   0.9270
B( 13-C , 14-C ) :   1.3642 B( 13-C , 18-C ) :   1.3851 B( 14-C , 15-N ) :   1.4459
B( 14-C , 39-H ) :   0.9278 B( 15-N , 16-C ) :   1.4220 B( 16-C , 17-N ) :   1.4324
B( 16-C , 40-H ) :   0.9236 B( 17-N , 18-C ) :   1.3713 B( 18-C , 19-C ) :   0.9717
B( 19-C , 20-C ) :   0.9495 B( 19-C , 41-H ) :   0.8882 B( 20-C , 21-C ) :   1.4056
B( 20-C , 29-C ) :   1.4254 B( 21-C , 22-C ) :   1.4375 B( 21-C , 42-H ) :   0.9201
B( 22-C , 23-C ) :   1.4062 B( 22-C , 43-H ) :   0.9201 B( 23-C , 24-C ) :   0.9799
B( 23-C , 28-C ) :   1.4151 B( 24-C , 25-F ) :   0.9487 B( 24-C , 26-F ) :   0.9872
B( 24-C , 27-F ) :   0.9466 B( 28-C , 29-C ) :   1.4117 B( 28-C , 44-H ) :   0.9197
B( 29-C , 45-H ) :   0.9183

FINAL SINGLE POINT ENERGY     -1502.627396962914

DIPOLE MOMENT
-------------

Method             : SCF
Type of density    : Electron Density
Multiplicity       :   1
Irrep              :   0
Energy             : -1502.6273969629141902 Eh
Relativity type    :
Basis              : AO
                                X                 Y                 Z
Electronic contribution:      7.867682059     -25.859065465      16.426414768
Nuclear contribution   :     -7.874419291      26.675370460     -18.482909117
                        -----------------------------------------
Total Dipole Moment    :     -0.006737233       0.816304995      -2.056494349
                        -----------------------------------------
Magnitude (a.u.)       :      2.212593104
Magnitude (Debye)      :      5.623964726

Rotational constants in cm-1:             0.005502             0.003521             0.002339
Rotational constants in MHz :           164.950192           105.558657            70.118027

                             ****ORCA TERMINATED NORMALLY****
TOTAL RUN TIME: 0 days 0 hours 6 minutes 21 seconds 558 msec
