                         Program Version 6.0.0  -   RELEASE  -
|  1> ! B3LYP 6-31G* SP
|  2>
|  3> * xyz -1 1
|  4> C 1.0860 1.9850 -2.4393
|  5> C 1.5925 0.8913 -1.5236
|  6> C 0.7793 0.3974 -0.4819
|  7> N -0.5512 0.8852 -0.2802
|  8> C -1.6489 0.3980 -1.1182
|  9> C -2.3505 -0.7518 -0.4483
| 10> C -3.6038 -0.5680 0.1546
| 11> C -4.2382 -1.6338 0.7991
| 12> C -3.6343 -2.8954 0.8555
| 13> O -4.3191 -3.9299 1.5138
| 14> C -3.8403 -5.2632 1.6752
| 15> F -2.6588 -5.2586 2.3951
| 16> F -4.7825 -5.9974 2.3700
| 17> F -3.6388 -5.8518 0.4396
| 18> C -2.3737 -3.0785 0.2542
| 19> C -1.7405 -2.0143 -0.3939
| 20> S -0.8791 1.9029 1.0867
| 21> O 0.4064 2.2566 1.7833
| 22> O -1.7644 1.1778 2.0620
| 23> C -1.6490 3.3827 0.5277
| 24> C -0.8795 4.3751 -0.0928
| 25> C -1.4856 5.5399 -0.5732
| 26> C -2.8736 5.7254 -0.4438
| 27> C -3.5133 6.9566 -0.9582
| 28> O -4.7574 7.1266 -0.8473
| 29> O -2.7499 7.9434 -1.5738
| 30> C -3.6418 4.7216 0.1758
| 31> C -3.0329 3.5583 0.6567
| 32> N 1.2471 -0.5644 0.3503
| 33> C 2.4837 -1.1085 0.2362
| 34> C 2.8326 -2.2035 1.1660
| 35> C 2.7413 -2.0011 2.5529
| 36> C 3.0290 -3.0460 3.4371
| 37> C 3.3930 -4.3019 2.9432
| 38> C 3.4622 -4.5180 1.5639
| 39> C 3.1750 -3.4763 0.6764
| 40> C 3.3598 -0.6406 -0.7713
| 41> C 4.6852 -1.1133 -0.8831
| 42> C 5.5242 -0.6451 -1.8935
| 43> C 5.0649 0.3051 -2.8001
| 44> C 3.7686 0.8082 -2.6935
| 45> C 2.8996 0.3593 -1.6729
| 46> H 1.0232 1.6008 -3.4792
| 47> H 0.0822 2.3610 -2.1567
| 48> H 1.7758 2.8545 -2.4031
| 49> H -2.3575 1.2296 -1.3230
| 50> H -1.2603 0.0649 -2.1059
| 51> H -4.0893 0.3998 0.1286
| 52> H -5.2053 -1.4779 1.2592
| 53> H -1.8737 -4.0362 0.2783
| 54> H -0.7727 -2.1748 -0.8534
| 55> H 0.1896 4.2433 -0.2108
| 56> H -0.8683 6.2925 -1.0495
| 57> H -4.7136 4.8336 0.2861
| 58> H -3.6433 2.7947 1.1229
| 59> H 2.4550 -1.0344 2.9489
| 60> H 2.9660 -2.8836 4.5055
| 61> H 3.6136 -5.1098 3.6290
| 62> H 3.7322 -5.4945 1.1824
| 63> H 3.2142 -3.6625 -0.3904
| 64> H 5.0906 -1.8317 -0.1839
| 65> H 6.5370 -1.0190 -1.9712
| 66> H 5.7201 0.6634 -3.5836
| 67> H 3.4613 1.5512 -3.4163
| 68> *
| 69>
| 70>                          ****END OF INPUT****

CARTESIAN COORDINATES (ANGSTROEM)
---------------------------------
  C      1.086000    1.985000   -2.439300
  C      1.592500    0.891300   -1.523600
  C      0.779300    0.397400   -0.481900
  N     -0.551200    0.885200   -0.280200
  C     -1.648900    0.398000   -1.118200
  C     -2.350500   -0.751800   -0.448300
  C     -3.603800   -0.568000    0.154600
  C     -4.238200   -1.633800    0.799100
  C     -3.634300   -2.895400    0.855500
  O     -4.319100   -3.929900    1.513800
  C     -3.840300   -5.263200    1.675200
  F     -2.658800   -5.258600    2.395100
  F     -4.782500   -5.997400    2.370000
  F     -3.638800   -5.851800    0.439600
  C     -2.373700   -3.078500    0.254200
  C     -1.740500   -2.014300   -0.393900
  S     -0.879100    1.902900    1.086700
  O      0.406400    2.256600    1.783300
  O     -1.764400    1.177800    2.062000
  C     -1.649000    3.382700    0.527700
  C     -0.879500    4.375100   -0.092800
  C     -1.485600    5.539900   -0.573200
  C     -2.873600    5.725400   -0.443800
  C     -3.513300    6.956600   -0.958200
  O     -4.757400    7.126600   -0.847300
  O     -2.749900    7.943400   -1.573800
  C     -3.641800    4.721600    0.175800
  C     -3.032900    3.558300    0.656700
  N      1.247100   -0.564400    0.350300
  C      2.483700   -1.108500    0.236200
  C      2.832600   -2.203500    1.166000
  C      2.741300   -2.001100    2.552900
  C      3.029000   -3.046000    3.437100
  C      3.393000   -4.301900    2.943200
  C      3.462200   -4.518000    1.563900
  C      3.175000   -3.476300    0.676400
  C      3.359800   -0.640600   -0.771300
  C      4.685200   -1.113300   -0.883100
  C      5.524200   -0.645100   -1.893500
  C      5.064900    0.305100   -2.800100
  C      3.768600    0.808200   -2.693500
  C      2.899600    0.359300   -1.672900
  H      1.023200    1.600800   -3.479200
  H      0.082200    2.361000   -2.156700
  H      1.775800    2.854500   -2.403100
  H     -2.357500    1.229600   -1.323000
  H     -1.260300    0.064900   -2.105900
  H     -4.089300    0.399800    0.128600
  H     -5.205300   -1.477900    1.259200
  H     -1.873700   -4.036200    0.278300
  H     -0.772700   -2.174800   -0.853400
  H      0.189600    4.243300   -0.210800
  H     -0.868300    6.292500   -1.049500
  H     -4.713600    4.833600    0.286100
  H     -3.643300    2.794700    1.122900
  H      2.455000   -1.034400    2.948900
  H      2.966000   -2.883600    4.505500
  H      3.613600   -5.109800    3.629000
  H      3.732200   -5.494500    1.182400
  H      3.214200   -3.662500   -0.390400
  H      5.090600   -1.831700   -0.183900
  H      6.537000   -1.019000   -1.971200
  H      5.720100    0.663400   -3.583600
  H      3.461300    1.551200   -3.416300

 Total Charge           Charge          ....   -1
 Multiplicity           Mult            ....    1
 Number of Electrons    NEL             ....  306
 Basis Dimension        Dim             ....  636

ORBITAL ENERGIES
----------------

  NO   OCC          E(Eh)            E(eV)
   0   2.0000     -89.001292     -2421.8483
   1   2.0000     -24.684613      -671.7025
   2   2.0000     -24.681176      -671.6090
   3   2.0000     -24.678465      -671.5352
   4   2.0000     -19.146917      -521.0141
   5   2.0000     -19.030620      -517.8495
   6   2.0000     -19.027623      -517.7679
   7   2.0000     -18.909861      -514.5635
   8   2.0000     -18.887373      -513.9515
   9   2.0000     -14.283577      -388.6759
  10   2.0000     -14.260128      -388.0378
  11   2.0000     -10.443749      -284.1889
  12   2.0000     -10.195291      -277.4280
  13   2.0000     -10.190859      -277.3074
  14   2.0000     -10.168781      -276.7066
  15   2.0000     -10.160437      -276.4795
  16   2.0000     -10.144185      -276.0373
  17   2.0000     -10.141687      -275.9693
  18   2.0000     -10.141067      -275.9525
  19   2.0000     -10.137943      -275.8675
  20   2.0000     -10.137442      -275.8538
  21   2.0000     -10.136085      -275.8169
  22   2.0000     -10.135279      -275.7950
  23   2.0000     -10.135227      -275.7935
  24   2.0000     -10.132293      -275.7137
  25   2.0000     -10.131404      -275.6895
  26   2.0000     -10.130466      -275.6640
  27   2.0000     -10.127781      -275.5909
  28   2.0000     -10.125338      -275.5244
  29   2.0000     -10.122788      -275.4551
  30   2.0000     -10.122193      -275.4389
  31   2.0000     -10.121595      -275.4226
  32   2.0000     -10.119813      -275.3741
  33   2.0000     -10.119444      -275.3641
  34   2.0000     -10.119164      -275.3565
  35   2.0000     -10.118420      -275.3362
  36   2.0000     -10.099446      -274.8199
  37   2.0000     -10.098188      -274.7857
  38   2.0000     -10.096114      -274.7292
  39   2.0000     -10.078767      -274.2572
  40   2.0000     -10.078003      -274.2364
  41   2.0000     -10.077106      -274.2120
  42   2.0000      -8.036863      -218.6942
  43   2.0000      -6.002344      -163.3321
  44   2.0000      -5.999943      -163.2668
  45   2.0000      -5.999002      -163.2411
  46   2.0000      -1.245695       -33.8971
  47   2.0000      -1.167621       -31.7726
  48   2.0000      -1.165423       -31.7128
  49   2.0000      -1.016752       -27.6672
  50   2.0000      -0.987622       -26.8746
  51   2.0000      -0.890387       -24.2287
  52   2.0000      -0.866108       -23.5680
  53   2.0000      -0.844033       -22.9673
  54   2.0000      -0.818814       -22.2811
  55   2.0000      -0.803130       -21.8543
  56   2.0000      -0.796711       -21.6796
  57   2.0000      -0.787946       -21.4411
  58   2.0000      -0.760950       -20.7065
  59   2.0000      -0.746083       -20.3019
  60   2.0000      -0.721615       -19.6361
  61   2.0000      -0.710087       -19.3225
  62   2.0000      -0.699523       -19.0350
  63   2.0000      -0.692920       -18.8553
  64   2.0000      -0.688302       -18.7296
  65   2.0000      -0.683585       -18.6013
  66   2.0000      -0.679151       -18.4806
  67   2.0000      -0.669825       -18.2269
  68   2.0000      -0.655396       -17.8342
  69   2.0000      -0.647803       -17.6276
  70   2.0000      -0.629919       -17.1410
  71   2.0000      -0.611614       -16.6429
  72   2.0000      -0.589434       -16.0393
  73   2.0000      -0.584003       -15.8915
  74   2.0000      -0.565394       -15.3851
  75   2.0000      -0.557512       -15.1707
  76   2.0000      -0.553196       -15.0532
  77   2.0000      -0.549116       -14.9422
  78   2.0000      -0.541517       -14.7354
  79   2.0000      -0.537320       -14.6212
  80   2.0000      -0.530025       -14.4227
  81   2.0000      -0.515991       -14.0408
  82   2.0000      -0.506137       -13.7727
  83   2.0000      -0.502445       -13.6722
  84   2.0000      -0.498389       -13.5618
  85   2.0000      -0.473162       -12.8754
  86   2.0000      -0.464122       -12.6294
  87   2.0000      -0.455307       -12.3895
  88   2.0000      -0.440900       -11.9975
  89   2.0000      -0.434770       -11.8307
  90   2.0000      -0.425885       -11.5889
  91   2.0000      -0.422854       -11.5064
  92   2.0000      -0.416321       -11.3287
  93   2.0000      -0.413256       -11.2453
  94   2.0000      -0.411655       -11.2017
  95   2.0000      -0.403548       -10.9811
  96   2.0000      -0.400609       -10.9011
  97   2.0000      -0.397051       -10.8043
  98   2.0000      -0.393673       -10.7124
  99   2.0000      -0.385698       -10.4954
 100   2.0000      -0.385508       -10.4902
 101   2.0000      -0.383530       -10.4364
 102   2.0000      -0.379677       -10.3315
 103   2.0000      -0.376587       -10.2475
 104   2.0000      -0.371491       -10.1088
 105   2.0000      -0.367424        -9.9981
 106   2.0000      -0.364339        -9.9142
 107   2.0000      -0.362938        -9.8760
 108   2.0000      -0.358965        -9.7679
 109   2.0000      -0.358647        -9.7593
 110   2.0000      -0.356927        -9.7125
 111   2.0000      -0.343103        -9.3363
 112   2.0000      -0.339937        -9.2502
 113   2.0000      -0.339433        -9.2364
 114   2.0000      -0.338102        -9.2002
 115   2.0000      -0.331270        -9.0143
 116   2.0000      -0.326534        -8.8854
 117   2.0000      -0.322481        -8.7752
 118   2.0000      -0.320268        -8.7149
 119   2.0000      -0.312924        -8.5151
 120   2.0000      -0.308300        -8.3893
 121   2.0000      -0.307156        -8.3581
 122   2.0000      -0.304901        -8.2968
 123   2.0000      -0.300121        -8.1667
 124   2.0000      -0.294322        -8.0089
 125   2.0000      -0.293373        -7.9831
 126   2.0000      -0.287207        -7.8153
 127   2.0000      -0.280819        -7.6415
 128   2.0000      -0.277762        -7.5583
 129   2.0000      -0.273447        -7.4409
 130   2.0000      -0.273031        -7.4295
 131   2.0000      -0.248649        -6.7661
 132   2.0000      -0.235275        -6.4021
 133   2.0000      -0.232080        -6.3152
 134   2.0000      -0.227579        -6.1927
 135   2.0000      -0.214948        -5.8490
 136   2.0000      -0.212338        -5.7780
 137   2.0000      -0.202910        -5.5214
 138   2.0000      -0.197424        -5.3722
 139   2.0000      -0.195475        -5.3191
 140   2.0000      -0.193630        -5.2689
 141   2.0000      -0.188986        -5.1426
 142   2.0000      -0.186859        -5.0847
 143   2.0000      -0.183167        -4.9842
 144   2.0000      -0.179862        -4.8943
 145   2.0000      -0.166472        -4.5299
 146   2.0000      -0.163713        -4.4549
 147   2.0000      -0.154658        -4.2085
 148   2.0000      -0.151657        -4.1268
 149   2.0000      -0.133360        -3.6289
 150   2.0000      -0.063670        -1.7325
 151   2.0000      -0.041709        -1.1350
 152   2.0000      -0.025121        -0.6836
 153   0.0000      -0.001059        -0.0288
 154   0.0000       0.032025         0.8715
 155   0.0000       0.047520         1.2931
 156   0.0000       0.054529         1.4838
 157   0.0000       0.060687         1.6514

MULLIKEN ATOMIC CHARGES
-----------------------
   0 C :   -0.548362
   1 C :    0.104226
   2 C :    0.312946
   3 N :   -0.605252
   4 C :   -0.276894
   5 C :    0.191709
   6 C :   -0.137216
   7 C :   -0.173824
   8 C :    0.347397
   9 O :   -0.548935
  10 C :    1.081618
  11 F :   -0.291248
  12 F :   -0.286655
  13 F :   -0.296047
  14 C :   -0.192955
  15 C :   -0.143179
  16 S :    1.191119
  17 O :   -0.559062
  18 O :   -0.548697
  19 C :   -0.150135
  20 C :   -0.154854
  21 C :   -0.152164
  22 C :    0.105083
  23 C :    0.412381
  24 O :   -0.551265
  25 O :   -0.656326
  26 C :   -0.157492
  27 C :   -0.161918
  28 N :   -0.386316
  29 C :    0.076159
  30 C :    0.091889
  31 C :   -0.140022
  32 C :   -0.134760
  33 C :   -0.120133
  34 C :   -0.134837
  35 C :   -0.157517
  36 C :    0.118371
  37 C :   -0.211838
  38 C :   -0.127514
  39 C :   -0.120286
  40 C :   -0.202034
  41 C :    0.116810
  42 H :    0.148805
  43 H :    0.194698
  44 H :    0.167529
  45 H :    0.175232
  46 H :    0.159311
  47 H :    0.144067
  48 H :    0.137262
  49 H :    0.138184
  50 H :    0.131016
  51 H :    0.141154
  52 H :    0.152862
  53 H :    0.147662
  54 H :    0.150110
  55 H :    0.168940
  56 H :    0.129259
  57 H :    0.118147
  58 H :    0.118448
  59 H :    0.129008
  60 H :    0.145718
  61 H :    0.120921
  62 H :    0.123910
  63 H :    0.135787
Sum of atomic charges:   -1.0000000

LOEWDIN ATOMIC CHARGES
----------------------
   0 C :   -0.361934
   1 C :   -0.017651
   2 C :    0.040042
   3 N :   -0.288340
   4 C :   -0.148561
   5 C :   -0.030138
   6 C :   -0.106036
   7 C :   -0.142109
   8 C :    0.080411
   9 O :   -0.163127
  10 C :    0.356994
  11 F :   -0.105331
  12 F :   -0.094342
  13 F :   -0.109243
  14 C :   -0.162755
  15 C :   -0.109763
  16 S :    1.263573
  17 O :   -0.586852
  18 O :   -0.582042
  19 C :   -0.216424
  20 C :   -0.127199
  21 C :   -0.107302
  22 C :   -0.002202
  23 C :    0.072200
  24 O :   -0.376898
  25 O :   -0.504632
  26 C :   -0.114995
  27 C :   -0.129784
  28 N :   -0.107628
  29 C :    0.035799
  30 C :   -0.015990
  31 C :   -0.102018
  32 C :   -0.128175
  33 C :   -0.131555
  34 C :   -0.137067
  35 C :   -0.128488
  36 C :   -0.024767
  37 C :   -0.117874
  38 C :   -0.137083
  39 C :   -0.124884
  40 C :   -0.126079
  41 C :   -0.005738
  42 H :    0.130452
  43 H :    0.149720
  44 H :    0.139967
  45 H :    0.138150
  46 H :    0.135119
  47 H :    0.139766
  48 H :    0.140347
  49 H :    0.135533
  50 H :    0.135322
  51 H :    0.136965
  52 H :    0.150498
  53 H :    0.146917
  54 H :    0.139797
  55 H :    0.152150
  56 H :    0.131987
  57 H :    0.126705
  58 H :    0.126775
  59 H :    0.131800
  60 H :    0.141818
  61 H :    0.128533
  62 H :    0.130029
  63 H :    0.137639

  Mayer bond orders larger than 0.100000
B(  0-C ,  1-C ) :   0.9950 B(  0-C , 42-H ) :   0.9291 B(  0-C , 43-H ) :   0.9215
B(  0-C , 44-H ) :   0.9276 B(  1-C ,  2-C ) :   1.4348 B(  1-C , 41-C ) :   1.2625
B(  2-C ,  3-N ) :   0.9093 B(  2-C , 28-N ) :   1.2812 B(  3-N ,  4-C ) :   0.9419
B(  3-N , 16-S ) :   0.7723 B(  4-C ,  5-C ) :   0.9420 B(  4-C , 45-H ) :   0.9189
B(  4-C , 46-H ) :   0.9257 B(  5-C ,  6-C ) :   1.4415 B(  5-C , 15-C ) :   1.4291
B(  6-C ,  7-C ) :   1.4358 B(  6-C , 47-H ) :   0.9152 B(  7-C ,  8-C ) :   1.4237
B(  7-C , 48-H ) :   0.9201 B(  8-C ,  9-O ) :   0.8063 B(  8-C , 14-C ) :   1.3903
B(  9-O , 10-C ) :   1.0067 B( 10-C , 11-F ) :   0.9703 B( 10-C , 12-F ) :   0.9998
B( 10-C , 13-F ) :   0.9631 B( 14-C , 15-C ) :   1.4396 B( 14-C , 49-H ) :   0.9126
B( 15-C , 50-H ) :   0.9185 B( 16-S , 17-O ) :   1.6315 B( 16-S , 18-O ) :   1.6418
B( 16-S , 19-C ) :   0.8406 B( 19-C , 20-C ) :   1.3549 B( 19-C , 27-C ) :   1.3691
B( 20-C , 21-C ) :   1.4113 B( 20-C , 51-H ) :   0.9205 B( 21-C , 22-C ) :   1.3960
B( 21-C , 52-H ) :   0.9011 B( 22-C , 23-C ) :   0.9273 B( 22-C , 26-C ) :   1.3920
B( 23-C , 24-O ) :   1.7073 B( 23-C , 25-O ) :   1.5471 B( 24-O , 25-O ) :   0.1491
B( 26-C , 27-C ) :   1.4034 B( 26-C , 53-H ) :   0.9073 B( 27-C , 54-H ) :   0.9160
B( 28-N , 29-C ) :   1.4501 B( 29-C , 30-C ) :   0.9806 B( 29-C , 36-C ) :   1.2159
B( 30-C , 31-C ) :   1.4286 B( 30-C , 35-C ) :   1.4106 B( 31-C , 32-C ) :   1.4297
B( 31-C , 55-H ) :   0.9160 B( 32-C , 33-C ) :   1.4483 B( 32-C , 56-H ) :   0.9300
B( 33-C , 34-C ) :   1.4534 B( 33-C , 57-H ) :   0.9321 B( 34-C , 35-C ) :   1.4354
B( 34-C , 58-H ) :   0.9311 B( 35-C , 59-H ) :   0.9249 B( 36-C , 37-C ) :   1.2977
B( 36-C , 41-C ) :   1.2794 B( 37-C , 38-C ) :   1.5057 B( 37-C , 40-C ) :   0.1054
B( 37-C , 60-H ) :   0.9094 B( 38-C , 39-C ) :   1.3552 B( 38-C , 61-H ) :   0.9316
B( 39-C , 40-C ) :   1.5108 B( 39-C , 62-H ) :   0.9310 B( 40-C , 41-C ) :   1.2894
B( 40-C , 63-H ) :   0.9162

FINAL SINGLE POINT ENERGY     -2376.661956214869

DIPOLE MOMENT
-------------

Method             : SCF
Type of density    : Electron Density
Multiplicity       :   1
Irrep              :   0
Energy             : -2376.6619562148694058 Eh
Relativity type    :
Basis              : AO
                                X                 Y                 Z
Electronic contribution:    -28.391468717     -27.708521666      16.528553464
Nuclear contribution   :     33.697814006      16.907854760     -16.829630360
                        -----------------------------------------
Total Dipole Moment    :      5.306345289     -10.800666906      -0.301076895
                        -----------------------------------------
Magnitude (a.u.)       :     12.037539335
Magnitude (Debye)      :     30.596993406

Rotational constants in cm-1:             0.002666             0.001778             0.001197
Rotational constants in MHz :            79.937376            53.311193            35.873991

                             ****ORCA TERMINATED NORMALLY****
TOTAL RUN TIME: 0 days 0 hours 13 minutes 52 seconds 850 msec
