                         Program Version 6.0.0  -   RELEASE  -
|  1> ! B3LYP 6-31G* SP
|  2>
|  3> * xyz 0 1
|  4> N -3.8505 -0.3853 0.5028
|  5> C -2.5041 0.1755 0.4604
|  6> C -1.7692 -0.3140 -0.7883
|  7> C -0.3916 0.2741 -0.8549
|  8> C -0.0175 1.4370 -1.5217
|  9> N 1.2910 1.7042 -1.3061
| 10> C 1.7419 0.7277 -0.4993
| 11> C 3.0294 0.5840 0.0156
| 12> C 3.2800 -0.5100 0.8642
| 13> C 2.2488 -1.4236 1.1790
| 14> F 2.5039 -2.4708 2.0013
| 15> C 0.9579 -1.2517 0.6458
| 16> C 0.7421 -0.1610 -0.1969
| 17> H -4.3434 0.0333 1.3246
| 18> H -3.7715 -1.4106 0.6957
| 19> H -2.5727 1.2857 0.4350
| 20> H -1.9429 -0.1228 1.3748
| 21> H -1.6965 -1.4228 -0.7737
| 22> H -2.3404 -0.0196 -1.6954
| 23> H -0.6698 2.0581 -2.1217
| 24> H 1.8334 2.5142 -1.6804
| 25> H 3.8114 1.2921 -0.2262
| 26> H 4.2692 -0.6497 1.2805
| 27> H 0.1612 -1.9440 0.8848
| 28> *
| 29>
| 30>                          ****END OF INPUT****

CARTESIAN COORDINATES (ANGSTROEM)
---------------------------------
  N     -3.850500   -0.385300    0.502800
  C     -2.504100    0.175500    0.460400
  C     -1.769200   -0.314000   -0.788300
  C     -0.391600    0.274100   -0.854900
  C     -0.017500    1.437000   -1.521700
  N      1.291000    1.704200   -1.306100
  C      1.741900    0.727700   -0.499300
  C      3.029400    0.584000    0.015600
  C      3.280000   -0.510000    0.864200
  C      2.248800   -1.423600    1.179000
  F      2.503900   -2.470800    2.001300
  C      0.957900   -1.251700    0.645800
  C      0.742100   -0.161000   -0.196900
  H     -4.343400    0.033300    1.324600
  H     -3.771500   -1.410600    0.695700
  H     -2.572700    1.285700    0.435000
  H     -1.942900   -0.122800    1.374800
  H     -1.696500   -1.422800   -0.773700
  H     -2.340400   -0.019600   -1.695400
  H     -0.669800    2.058100   -2.121700
  H      1.833400    2.514200   -1.680400
  H      3.811400    1.292100   -0.226200
  H      4.269200   -0.649700    1.280500
  H      0.161200   -1.944000    0.884800

 Total Charge           Charge          ....    0
 Multiplicity           Mult            ....    1
 Number of Electrons    NEL             ....   94
 Basis Dimension        Dim             ....  204

ORBITAL ENERGIES
----------------

  NO   OCC          E(Eh)            E(eV)
   0   2.0000     -24.681873      -671.6279
   1   2.0000     -14.375150      -391.1677
   2   2.0000     -14.300422      -389.1343
   3   2.0000     -10.251178      -278.9487
   4   2.0000     -10.203599      -277.6540
   5   2.0000     -10.200444      -277.5682
   6   2.0000     -10.193505      -277.3794
   7   2.0000     -10.182278      -277.0739
   8   2.0000     -10.176390      -276.9136
   9   2.0000     -10.173178      -276.8263
  10   2.0000     -10.172755      -276.8147
  11   2.0000     -10.164486      -276.5897
  12   2.0000     -10.161392      -276.5055
  13   2.0000      -1.195028       -32.5184
  14   2.0000      -0.993498       -27.0345
  15   2.0000      -0.869523       -23.6609
  16   2.0000      -0.838644       -22.8207
  17   2.0000      -0.796859       -21.6836
  18   2.0000      -0.732048       -19.9200
  19   2.0000      -0.729878       -19.8610
  20   2.0000      -0.699410       -19.0319
  21   2.0000      -0.625355       -17.0168
  22   2.0000      -0.605588       -16.4789
  23   2.0000      -0.592908       -16.1338
  24   2.0000      -0.556234       -15.1359
  25   2.0000      -0.542337       -14.7578
  26   2.0000      -0.509565       -13.8660
  27   2.0000      -0.484473       -13.1832
  28   2.0000      -0.472737       -12.8638
  29   2.0000      -0.461042       -12.5456
  30   2.0000      -0.446054       -12.1377
  31   2.0000      -0.440911       -11.9978
  32   2.0000      -0.430248       -11.7076
  33   2.0000      -0.426297       -11.6001
  34   2.0000      -0.414777       -11.2866
  35   2.0000      -0.397863       -10.8264
  36   2.0000      -0.389239       -10.5917
  37   2.0000      -0.381687       -10.3862
  38   2.0000      -0.359874        -9.7927
  39   2.0000      -0.351929        -9.5765
  40   2.0000      -0.339068        -9.2265
  41   2.0000      -0.322985        -8.7889
  42   2.0000      -0.318051        -8.6546
  43   2.0000      -0.269653        -7.3376
  44   2.0000      -0.225608        -6.1391
  45   2.0000      -0.212111        -5.7718
  46   2.0000      -0.191171        -5.2020
  47   0.0000      -0.008522        -0.2319
  48   0.0000       0.041080         1.1178
  49   0.0000       0.064849         1.7646
  50   0.0000       0.073123         1.9898
  51   0.0000       0.079698         2.1687

MULLIKEN ATOMIC CHARGES
-----------------------
   0 N :   -0.703127
   1 C :   -0.124408
   2 C :   -0.329853
   3 C :    0.046925
   4 C :   -0.024468
   5 N :   -0.631292
   6 C :    0.285405
   7 C :   -0.167598
   8 C :   -0.227783
   9 C :    0.393853
  10 F :   -0.326881
  11 C :   -0.298291
  12 C :    0.140829
  13 H :    0.288594
  14 H :    0.285965
  15 H :    0.135083
  16 H :    0.118519
  17 H :    0.131873
  18 H :    0.147090
  19 H :    0.141238
  20 H :    0.334143
  21 H :    0.122264
  22 H :    0.132727
  23 H :    0.129193
Sum of atomic charges:   -0.0000000

LOEWDIN ATOMIC CHARGES
----------------------
   0 N :   -0.479103
   1 C :   -0.170895
   2 C :   -0.222323
   3 C :   -0.073283
   4 C :   -0.114478
   5 N :   -0.114028
   6 C :   -0.003381
   7 C :   -0.144212
   8 C :   -0.173895
   9 C :    0.102916
  10 F :   -0.112398
  11 C :   -0.170207
  12 C :   -0.039448
  13 H :    0.220933
  14 H :    0.218623
  15 H :    0.117802
  16 H :    0.097382
  17 H :    0.121327
  18 H :    0.132127
  19 H :    0.132717
  20 H :    0.267090
  21 H :    0.130073
  22 H :    0.138628
  23 H :    0.138031

  Mayer bond orders larger than 0.100000
B(  0-N ,  1-C ) :   0.9880 B(  0-N , 13-H ) :   0.8670 B(  0-N , 14-H ) :   0.8669
B(  1-C ,  2-C ) :   0.9913 B(  1-C , 15-H ) :   0.9406 B(  1-C , 16-H ) :   0.9367
B(  2-C ,  3-C ) :   0.9902 B(  2-C , 17-H ) :   0.9294 B(  2-C , 18-H ) :   0.9328
B(  3-C ,  4-C ) :   1.5356 B(  3-C , 12-C ) :   1.3223 B(  4-C ,  5-N ) :   1.0924
B(  4-C , 19-H ) :   0.9282 B(  5-N ,  6-C ) :   1.0139 B(  5-N , 20-H ) :   0.8371
B(  6-C ,  7-C ) :   1.3535 B(  6-C , 12-C ) :   1.3071 B(  7-C ,  8-C ) :   1.4553
B(  7-C , 11-C ) :   0.1045 B(  7-C , 21-H ) :   0.9246 B(  8-C ,  9-C ) :   1.3306
B(  8-C , 22-H ) :   0.9235 B(  9-C , 10-F ) :   0.8948 B(  9-C , 11-C ) :   1.4148
B( 11-C , 12-C ) :   1.2821 B( 11-C , 23-H ) :   0.9186

FINAL SINGLE POINT ENERGY      -596.647288440604

DIPOLE MOMENT
-------------

Method             : SCF
Type of density    : Electron Density
Multiplicity       :   1
Irrep              :   0
Energy             :  -596.6472884406039157 Eh
Relativity type    :
Basis              : AO
                                X                 Y                 Z
Electronic contribution:     14.182121815      -4.399073141       2.939376944
Nuclear contribution   :    -14.017418242       5.519867436      -3.274376676
                        -----------------------------------------
Total Dipole Moment    :      0.164703574       1.120794295      -0.334999732
                        -----------------------------------------
Magnitude (a.u.)       :      1.181326347
Magnitude (Debye)      :      3.002692947

Rotational constants in cm-1:             0.039612             0.018289             0.013038
Rotational constants in MHz :          1187.540107           548.300197           390.860870

                             ****ORCA TERMINATED NORMALLY****
TOTAL RUN TIME: 0 days 0 hours 1 minutes 10 seconds 895 msec
