                         Program Version 6.0.0  -   RELEASE  -
|  1> ! B3LYP 6-31G* SP
|  2>
|  3> * xyz 0 1
|  4> O -2.3682 1.4598 1.4337
|  5> C -1.8100 1.3111 0.3120
|  6> N -2.5165 0.6303 -0.7420
|  7> C -3.5903 -0.3066 -0.5198
|  8> C -4.5430 -0.5094 -1.5294
|  9> C -5.5794 -1.4367 -1.3553
| 10> C -5.6670 -2.1956 -0.1758
| 11> C -6.8122 -3.1552 0.0258
| 12> F -7.9015 -2.4636 0.5237
| 13> F -7.1658 -3.7507 -1.1756
| 14> F -6.4648 -4.1559 0.9189
| 15> C -4.7178 -1.9900 0.8393
| 16> C -3.6787 -1.0681 0.6626
| 17> N -0.4861 1.8507 0.0922
| 18> C 0.0742 1.9048 -1.2680
| 19> C 1.5390 2.3678 -1.2662
| 20> C 2.3292 1.6404 -0.1601
| 21> C 3.8211 2.0587 -0.2340
| 22> C 4.6899 1.2185 0.7159
| 23> C 4.4075 -0.2567 0.5781
| 24> C 5.3416 -1.1993 1.0356
| 25> C 5.0641 -2.5666 0.9435
| 26> C 3.8499 -3.0016 0.4045
| 27> C 2.9059 -2.0705 -0.0427
| 28> Cl 1.3769 -2.6306 -0.7029
| 29> C 3.1774 -0.6977 0.0510
| 30> O 2.2285 0.2283 -0.3983
| 31> C 1.7205 1.9645 1.2422
| 32> C 0.2638 2.4653 1.2007
| 33> H -2.2975 0.8828 -1.7329
| 34> H -4.4864 0.0578 -2.4529
| 35> H -6.3122 -1.5575 -2.1437
| 36> H -4.7721 -2.5474 1.7678
| 37> H -2.9357 -0.9731 1.4429
| 38> H -0.5295 2.5973 -1.8938
| 39> H 0.0342 0.8904 -1.7226
| 40> H 1.5827 3.4683 -1.1058
| 41> H 1.9841 2.1531 -2.2630
| 42> H 3.9360 3.1369 0.0122
| 43> H 4.1974 1.9099 -1.2709
| 44> H 5.7611 1.4207 0.4913
| 45> H 4.4993 1.5222 1.7679
| 46> H 6.2829 -0.8747 1.4630
| 47> H 5.7891 -3.2896 1.2941
| 48> H 3.6408 -4.0623 0.3396
| 49> H 1.7662 1.0534 1.8812
| 50> H 2.3206 2.7426 1.7645
| 51> H -0.2058 2.2544 2.1858
| 52> H 0.2563 3.5694 1.0638
| 53> *
| 54>
| 55>                          ****END OF INPUT****

CARTESIAN COORDINATES (ANGSTROEM)
---------------------------------
  O     -2.368200    1.459800    1.433700
  C     -1.810000    1.311100    0.312000
  N     -2.516500    0.630300   -0.742000
  C     -3.590300   -0.306600   -0.519800
  C     -4.543000   -0.509400   -1.529400
  C     -5.579400   -1.436700   -1.355300
  C     -5.667000   -2.195600   -0.175800
  C     -6.812200   -3.155200    0.025800
  F     -7.901500   -2.463600    0.523700
  F     -7.165800   -3.750700   -1.175600
  F     -6.464800   -4.155900    0.918900
  C     -4.717800   -1.990000    0.839300
  C     -3.678700   -1.068100    0.662600
  N     -0.486100    1.850700    0.092200
  C      0.074200    1.904800   -1.268000
  C      1.539000    2.367800   -1.266200
  C      2.329200    1.640400   -0.160100
  C      3.821100    2.058700   -0.234000
  C      4.689900    1.218500    0.715900
  C      4.407500   -0.256700    0.578100
  C      5.341600   -1.199300    1.035600
  C      5.064100   -2.566600    0.943500
  C      3.849900   -3.001600    0.404500
  C      2.905900   -2.070500   -0.042700
  Cl     1.376900   -2.630600   -0.702900
  C      3.177400   -0.697700    0.051000
  O      2.228500    0.228300   -0.398300
  C      1.720500    1.964500    1.242200
  C      0.263800    2.465300    1.200700
  H     -2.297500    0.882800   -1.732900
  H     -4.486400    0.057800   -2.452900
  H     -6.312200   -1.557500   -2.143700
  H     -4.772100   -2.547400    1.767800
  H     -2.935700   -0.973100    1.442900
  H     -0.529500    2.597300   -1.893800
  H      0.034200    0.890400   -1.722600
  H      1.582700    3.468300   -1.105800
  H      1.984100    2.153100   -2.263000
  H      3.936000    3.136900    0.012200
  H      4.197400    1.909900   -1.270900
  H      5.761100    1.420700    0.491300
  H      4.499300    1.522200    1.767900
  H      6.282900   -0.874700    1.463000
  H      5.789100   -3.289600    1.294100
  H      3.640800   -4.062300    0.339600
  H      1.766200    1.053400    1.881200
  H      2.320600    2.742600    1.764500
  H     -0.205800    2.254400    2.185800
  H      0.256300    3.569400    1.063800

 Total Charge           Charge          ....    0
 Multiplicity           Mult            ....    1
 Number of Electrons    NEL             ....  220
 Basis Dimension        Dim             ....  450

ORBITAL ENERGIES
----------------

  NO   OCC          E(Eh)            E(eV)
   0   2.0000    -101.523956     -2762.6073
   1   2.0000     -24.706682      -672.3030
   2   2.0000     -24.705943      -672.2829
   3   2.0000     -24.701777      -672.1695
   4   2.0000     -19.174356      -521.7608
   5   2.0000     -19.100058      -519.7390
   6   2.0000     -14.369826      -391.0228
   7   2.0000     -14.358161      -390.7054
   8   2.0000     -10.420401      -283.5535
   9   2.0000     -10.316855      -280.7359
  10   2.0000     -10.264131      -279.3012
  11   2.0000     -10.259843      -279.1845
  12   2.0000     -10.245218      -278.7866
  13   2.0000     -10.238991      -278.6171
  14   2.0000     -10.229339      -278.3545
  15   2.0000     -10.221388      -278.1381
  16   2.0000     -10.204665      -277.6831
  17   2.0000     -10.201040      -277.5844
  18   2.0000     -10.199614      -277.5456
  19   2.0000     -10.197108      -277.4774
  20   2.0000     -10.195973      -277.4465
  21   2.0000     -10.195684      -277.4387
  22   2.0000     -10.193290      -277.3735
  23   2.0000     -10.193161      -277.3700
  24   2.0000     -10.191073      -277.3132
  25   2.0000     -10.189752      -277.2773
  26   2.0000     -10.189509      -277.2706
  27   2.0000     -10.188307      -277.2379
  28   2.0000     -10.181708      -277.0584
  29   2.0000      -9.455359      -257.2934
  30   2.0000      -7.218548      -196.4267
  31   2.0000      -7.208996      -196.1667
  32   2.0000      -7.208563      -196.1550
  33   2.0000      -1.265019       -34.4229
  34   2.0000      -1.191316       -32.4173
  35   2.0000      -1.189596       -32.3705
  36   2.0000      -1.060805       -28.8660
  37   2.0000      -1.017086       -27.6763
  38   2.0000      -0.924083       -25.1456
  39   2.0000      -0.915132       -24.9020
  40   2.0000      -0.883915       -24.0526
  41   2.0000      -0.849379       -23.1128
  42   2.0000      -0.840384       -22.8680
  43   2.0000      -0.821714       -22.3600
  44   2.0000      -0.788033       -21.4435
  45   2.0000      -0.772658       -21.0251
  46   2.0000      -0.763036       -20.7633
  47   2.0000      -0.747595       -20.3431
  48   2.0000      -0.735673       -20.0187
  49   2.0000      -0.729949       -19.8629
  50   2.0000      -0.684927       -18.6378
  51   2.0000      -0.667724       -18.1697
  52   2.0000      -0.652402       -17.7528
  53   2.0000      -0.643890       -17.5211
  54   2.0000      -0.623283       -16.9604
  55   2.0000      -0.614870       -16.7315
  56   2.0000      -0.601967       -16.3803
  57   2.0000      -0.596044       -16.2192
  58   2.0000      -0.568617       -15.4729
  59   2.0000      -0.557406       -15.1678
  60   2.0000      -0.556203       -15.1351
  61   2.0000      -0.548596       -14.9280
  62   2.0000      -0.546999       -14.8846
  63   2.0000      -0.539515       -14.6810
  64   2.0000      -0.518803       -14.1173
  65   2.0000      -0.509672       -13.8689
  66   2.0000      -0.496567       -13.5123
  67   2.0000      -0.490655       -13.3514
  68   2.0000      -0.475352       -12.9350
  69   2.0000      -0.466917       -12.7055
  70   2.0000      -0.455959       -12.4073
  71   2.0000      -0.451920       -12.2974
  72   2.0000      -0.449607       -12.2344
  73   2.0000      -0.448721       -12.2103
  74   2.0000      -0.443915       -12.0795
  75   2.0000      -0.436542       -11.8789
  76   2.0000      -0.434553       -11.8248
  77   2.0000      -0.432155       -11.7595
  78   2.0000      -0.425215       -11.5707
  79   2.0000      -0.419457       -11.4140
  80   2.0000      -0.413647       -11.2559
  81   2.0000      -0.411934       -11.2093
  82   2.0000      -0.409502       -11.1431
  83   2.0000      -0.407510       -11.0889
  84   2.0000      -0.405374       -11.0308
  85   2.0000      -0.398875       -10.8539
  86   2.0000      -0.395761       -10.7692
  87   2.0000      -0.389781       -10.6065
  88   2.0000      -0.385001       -10.4764
  89   2.0000      -0.384730       -10.4690
  90   2.0000      -0.379830       -10.3357
  91   2.0000      -0.376588       -10.2475
  92   2.0000      -0.368517       -10.0279
  93   2.0000      -0.367178        -9.9914
  94   2.0000      -0.356448        -9.6994
  95   2.0000      -0.351702        -9.5703
  96   2.0000      -0.349784        -9.5181
  97   2.0000      -0.346139        -9.4189
  98   2.0000      -0.339291        -9.2326
  99   2.0000      -0.322505        -8.7758
 100   2.0000      -0.315667        -8.5897
 101   2.0000      -0.307974        -8.3804
 102   2.0000      -0.301645        -8.2082
 103   2.0000      -0.297523        -8.0960
 104   2.0000      -0.256875        -6.9899
 105   2.0000      -0.245904        -6.6914
 106   2.0000      -0.242987        -6.6120
 107   2.0000      -0.228910        -6.2290
 108   2.0000      -0.224405        -6.1064
 109   2.0000      -0.217610        -5.9215
 110   0.0000      -0.015773        -0.4292
 111   0.0000      -0.014478        -0.3940
 112   0.0000      -0.003227        -0.0878
 113   0.0000       0.000574         0.0156
 114   0.0000       0.029917         0.8141

MULLIKEN ATOMIC CHARGES
-----------------------
   0 O :   -0.493575
   1 C :    0.693629
   2 N :   -0.730943
   3 C :    0.366944
   4 C :   -0.191099
   5 C :   -0.161923
   6 C :   -0.017766
   7 C :    0.890015
   8 F :   -0.298752
   9 F :   -0.309659
  10 F :   -0.308131
  11 C :   -0.172171
  12 C :   -0.139924
  13 N :   -0.439613
  14 C :   -0.131832
  15 C :   -0.322450
  16 C :    0.350241
  17 C :   -0.302088
  18 C :   -0.348164
  19 C :    0.114443
  20 C :   -0.183951
  21 C :   -0.123781
  22 C :   -0.133672
  23 C :   -0.142164
  24 Cl:   -0.007609
  25 C :    0.329939
  26 O :   -0.541028
  27 C :   -0.302975
  28 C :   -0.131303
  29 H :    0.330885
  30 H :    0.127293
  31 H :    0.148771
  32 H :    0.153290
  33 H :    0.162646
  34 H :    0.134285
  35 H :    0.174703
  36 H :    0.151334
  37 H :    0.156833
  38 H :    0.137989
  39 H :    0.145557
  40 H :    0.154055
  41 H :    0.161161
  42 H :    0.129435
  43 H :    0.133758
  44 H :    0.152665
  45 H :    0.166693
  46 H :    0.137003
  47 H :    0.194269
  48 H :    0.136738
Sum of atomic charges:    0.0000000

LOEWDIN ATOMIC CHARGES
----------------------
   0 O :   -0.309980
   1 C :    0.169047
   2 N :   -0.226475
   3 C :    0.059792
   4 C :   -0.152479
   5 C :   -0.109995
   6 C :   -0.085475
   7 C :    0.310200
   8 F :   -0.116709
   9 F :   -0.118952
  10 F :   -0.116154
  11 C :   -0.109173
  12 C :   -0.127458
  13 N :   -0.122940
  14 C :   -0.159306
  15 C :   -0.226248
  16 C :    0.081940
  17 C :   -0.229624
  18 C :   -0.223518
  19 C :   -0.049988
  20 C :   -0.127660
  21 C :   -0.139205
  22 C :   -0.130750
  23 C :   -0.109324
  24 Cl:    0.040031
  25 C :    0.074065
  26 O :   -0.168392
  27 C :   -0.239523
  28 C :   -0.146150
  29 H :    0.255895
  30 H :    0.131662
  31 H :    0.142522
  32 H :    0.144636
  33 H :    0.151856
  34 H :    0.111704
  35 H :    0.133979
  36 H :    0.131827
  37 H :    0.138050
  38 H :    0.126698
  39 H :    0.126024
  40 H :    0.135180
  41 H :    0.133221
  42 H :    0.133191
  43 H :    0.135481
  44 H :    0.146217
  45 H :    0.138469
  46 H :    0.125639
  47 H :    0.156362
  48 H :    0.111786

  Mayer bond orders larger than 0.100000
B(  0-O ,  1-C ) :   1.7827 B(  1-C ,  2-N ) :   0.9816 B(  1-C , 13-N ) :   1.0622
B(  2-N ,  3-C ) :   0.8907 B(  2-N , 29-H ) :   0.8171 B(  3-C ,  4-C ) :   1.3949
B(  3-C , 12-C ) :   1.4103 B(  4-C ,  5-C ) :   1.4429 B(  4-C , 30-H ) :   0.9238
B(  5-C ,  6-C ) :   1.4102 B(  5-C , 31-H ) :   0.9203 B(  6-C ,  7-C ) :   0.9853
B(  6-C , 11-C ) :   1.3967 B(  7-C ,  8-F ) :   0.9839 B(  7-C ,  9-F ) :   0.9449
B(  7-C , 10-F ) :   0.9443 B( 11-C , 12-C ) :   1.4384 B( 11-C , 32-H ) :   0.9199
B( 12-C , 33-H ) :   0.9081 B( 13-N , 14-C ) :   0.9402 B( 13-N , 28-C ) :   0.9417
B( 14-C , 15-C ) :   1.0046 B( 14-C , 34-H ) :   0.9233 B( 14-C , 35-H ) :   0.9124
B( 15-C , 16-C ) :   0.9987 B( 15-C , 36-H ) :   0.9273 B( 15-C , 37-H ) :   0.9280
B( 16-C , 17-C ) :   0.9886 B( 16-C , 26-O ) :   0.8319 B( 16-C , 27-C ) :   0.9541
B( 17-C , 18-C ) :   0.9954 B( 17-C , 38-H ) :   0.9292 B( 17-C , 39-H ) :   0.9314
B( 18-C , 19-C ) :   0.9807 B( 18-C , 40-H ) :   0.9327 B( 18-C , 41-H ) :   0.9197
B( 19-C , 20-C ) :   1.4193 B( 19-C , 25-C ) :   1.3648 B( 20-C , 21-C ) :   1.4371
B( 20-C , 42-H ) :   0.9266 B( 21-C , 22-C ) :   1.4443 B( 21-C , 43-H ) :   0.9284
B( 22-C , 23-C ) :   1.4255 B( 22-C , 44-H ) :   0.9228 B( 23-C , 24-Cl) :   1.0267
B( 23-C , 25-C ) :   1.3235 B( 25-C , 26-O ) :   0.9404 B( 27-C , 28-C ) :   0.9859
B( 27-C , 45-H ) :   0.9309 B( 27-C , 46-H ) :   0.9261 B( 28-C , 47-H ) :   0.9171
B( 28-C , 48-H ) :   0.9341

FINAL SINGLE POINT ENERGY     -1831.114665778793

DIPOLE MOMENT
-------------

Method             : SCF
Type of density    : Electron Density
Multiplicity       :   1
Irrep              :   0
Energy             : -1831.1146657787930963 Eh
Relativity type    :
Basis              : AO
                                X                 Y                 Z
Electronic contribution:    -46.595801105     -34.753638413      -2.186488244
Nuclear contribution   :     49.436671975      36.334614707       1.332392926
                        -----------------------------------------
Total Dipole Moment    :      2.840870870       1.580976294      -0.854095318
                        -----------------------------------------
Magnitude (a.u.)       :      3.361474699
Magnitude (Debye)      :      8.544189668

Rotational constants in cm-1:             0.009325             0.002097             0.001835
Rotational constants in MHz :           279.565010            62.854484            55.016466

                             ****ORCA TERMINATED NORMALLY****
TOTAL RUN TIME: 0 days 0 hours 6 minutes 9 seconds 816 msec
