                         Program Version 6.0.0  -   RELEASE  -
|  1> ! B3LYP 6-31G* SP
|  2>
|  3> * xyz 0 1
|  4> C -2.4268 -0.9114 1.6590
|  5> C -2.6157 -1.6827 0.3763
|  6> C -3.2645 -2.9253 0.4866
|  7> C -3.5241 -3.7021 -0.6411
|  8> C -3.1440 -3.2499 -1.9005
|  9> C -2.4997 -2.0202 -2.0381
| 10> C -2.2231 -1.2104 -0.9148
| 11> C -1.4947 0.1148 -1.1574
| 12> N -0.1835 0.0943 -0.4944
| 13> C 0.9456 -0.5956 -1.0678
| 14> O 0.7981 -1.2235 -2.1533
| 15> C 2.2760 -0.6174 -0.3973
| 16> C 3.2250 -1.5905 -0.7792
| 17> C 4.4733 -1.6588 -0.1559
| 18> C 4.7997 -0.7498 0.8596
| 19> C 6.0363 -0.8058 1.5142
| 20> C 6.3284 0.1142 2.5245
| 21> C 5.3799 1.0811 2.8716
| 22> N 4.1831 1.1237 2.2288
| 23> C 3.8687 0.2409 1.2402
| 24> C 2.6219 0.3095 0.6088
| 25> C -2.3124 1.3448 -0.7715
| 26> N -3.5918 1.1545 -0.3278
| 27> C -4.4087 2.1742 0.0319
| 28> C -3.9525 3.4846 -0.0387
| 29> C -2.6687 3.7354 -0.5072
| 30> C -1.8312 2.6813 -0.9234
| 31> C -0.4520 3.0273 -1.4617
| 32> F -0.4227 4.3237 -1.9522
| 33> F 0.4808 2.9280 -0.4460
| 34> F -0.0892 2.1930 -2.5022
| 35> H -3.4217 -0.6449 2.0746
| 36> H -1.8866 -1.5464 2.3988
| 37> H -1.8555 0.0248 1.5400
| 38> H -3.5764 -3.2940 1.4568
| 39> H -4.0262 -4.6563 -0.5373
| 40> H -3.3473 -3.8564 -2.7736
| 41> H -2.2133 -1.7027 -3.0335
| 42> H -1.3292 0.2180 -2.2513
| 43> H -0.0824 0.5765 0.4226
| 44> H 2.9959 -2.3144 -1.5524
| 45> H 5.1777 -2.4253 -0.4607
| 46> H 6.7703 -1.5565 1.2479
| 47> H 7.2806 0.0758 3.0364
| 48> H 5.5955 1.7961 3.6558
| 49> H 1.9451 1.0958 0.9089
| 50> H -5.4098 1.9635 0.3803
| 51> H -4.5927 4.3013 0.2690
| 52> H -2.3354 4.7633 -0.5529
| 53> *
| 54>
| 55>                          ****END OF INPUT****

CARTESIAN COORDINATES (ANGSTROEM)
---------------------------------
  C     -2.426800   -0.911400    1.659000
  C     -2.615700   -1.682700    0.376300
  C     -3.264500   -2.925300    0.486600
  C     -3.524100   -3.702100   -0.641100
  C     -3.144000   -3.249900   -1.900500
  C     -2.499700   -2.020200   -2.038100
  C     -2.223100   -1.210400   -0.914800
  C     -1.494700    0.114800   -1.157400
  N     -0.183500    0.094300   -0.494400
  C      0.945600   -0.595600   -1.067800
  O      0.798100   -1.223500   -2.153300
  C      2.276000   -0.617400   -0.397300
  C      3.225000   -1.590500   -0.779200
  C      4.473300   -1.658800   -0.155900
  C      4.799700   -0.749800    0.859600
  C      6.036300   -0.805800    1.514200
  C      6.328400    0.114200    2.524500
  C      5.379900    1.081100    2.871600
  N      4.183100    1.123700    2.228800
  C      3.868700    0.240900    1.240200
  C      2.621900    0.309500    0.608800
  C     -2.312400    1.344800   -0.771500
  N     -3.591800    1.154500   -0.327800
  C     -4.408700    2.174200    0.031900
  C     -3.952500    3.484600   -0.038700
  C     -2.668700    3.735400   -0.507200
  C     -1.831200    2.681300   -0.923400
  C     -0.452000    3.027300   -1.461700
  F     -0.422700    4.323700   -1.952200
  F      0.480800    2.928000   -0.446000
  F     -0.089200    2.193000   -2.502200
  H     -3.421700   -0.644900    2.074600
  H     -1.886600   -1.546400    2.398800
  H     -1.855500    0.024800    1.540000
  H     -3.576400   -3.294000    1.456800
  H     -4.026200   -4.656300   -0.537300
  H     -3.347300   -3.856400   -2.773600
  H     -2.213300   -1.702700   -3.033500
  H     -1.329200    0.218000   -2.251300
  H     -0.082400    0.576500    0.422600
  H      2.995900   -2.314400   -1.552400
  H      5.177700   -2.425300   -0.460700
  H      6.770300   -1.556500    1.247900
  H      7.280600    0.075800    3.036400
  H      5.595500    1.796100    3.655800
  H      1.945100    1.095800    0.908900
  H     -5.409800    1.963500    0.380300
  H     -4.592700    4.301300    0.269000
  H     -2.335400    4.763300   -0.552900

 Total Charge           Charge          ....    0
 Multiplicity           Mult            ....    1
 Number of Electrons    NEL             ....  218
 Basis Dimension        Dim             ....  470

ORBITAL ENERGIES
----------------

  NO   OCC          E(Eh)            E(eV)
   0   2.0000     -24.726621      -672.8456
   1   2.0000     -24.726460      -672.8412
   2   2.0000     -24.725131      -672.8050
   3   2.0000     -19.107270      -519.9352
   4   2.0000     -14.354842      -390.6151
   5   2.0000     -14.342674      -390.2840
   6   2.0000     -14.325828      -389.8256
   7   2.0000     -10.445417      -284.2343
   8   2.0000     -10.288839      -279.9735
   9   2.0000     -10.256156      -279.0842
  10   2.0000     -10.237215      -278.5688
  11   2.0000     -10.234313      -278.4898
  12   2.0000     -10.230660      -278.3904
  13   2.0000     -10.223329      -278.1909
  14   2.0000     -10.222419      -278.1662
  15   2.0000     -10.221205      -278.1331
  16   2.0000     -10.207465      -277.7592
  17   2.0000     -10.207187      -277.7517
  18   2.0000     -10.202976      -277.6371
  19   2.0000     -10.197670      -277.4927
  20   2.0000     -10.194987      -277.4197
  21   2.0000     -10.194765      -277.4136
  22   2.0000     -10.191354      -277.3209
  23   2.0000     -10.190620      -277.3009
  24   2.0000     -10.181305      -277.0474
  25   2.0000     -10.179329      -276.9936
  26   2.0000     -10.170015      -276.7402
  27   2.0000     -10.165643      -276.6212
  28   2.0000     -10.165314      -276.6123
  29   2.0000     -10.164025      -276.5772
  30   2.0000     -10.162207      -276.5277
  31   2.0000      -1.287719       -35.0406
  32   2.0000      -1.213036       -33.0084
  33   2.0000      -1.210345       -32.9352
  34   2.0000      -1.006828       -27.3972
  35   2.0000      -0.950292       -25.8588
  36   2.0000      -0.935502       -25.4563
  37   2.0000      -0.904106       -24.6020
  38   2.0000      -0.851548       -23.1718
  39   2.0000      -0.836013       -22.7491
  40   2.0000      -0.827476       -22.5168
  41   2.0000      -0.809402       -22.0249
  42   2.0000      -0.799150       -21.7460
  43   2.0000      -0.765066       -20.8185
  44   2.0000      -0.754673       -20.5357
  45   2.0000      -0.748469       -20.3669
  46   2.0000      -0.739082       -20.1114
  47   2.0000      -0.713542       -19.4165
  48   2.0000      -0.691982       -18.8298
  49   2.0000      -0.667559       -18.1652
  50   2.0000      -0.659815       -17.9545
  51   2.0000      -0.641902       -17.4670
  52   2.0000      -0.636512       -17.3204
  53   2.0000      -0.622066       -16.9273
  54   2.0000      -0.608936       -16.5700
  55   2.0000      -0.583830       -15.8868
  56   2.0000      -0.583044       -15.8654
  57   2.0000      -0.578864       -15.7517
  58   2.0000      -0.573964       -15.6184
  59   2.0000      -0.566869       -15.4253
  60   2.0000      -0.557234       -15.1631
  61   2.0000      -0.541825       -14.7438
  62   2.0000      -0.518720       -14.1151
  63   2.0000      -0.514999       -14.0138
  64   2.0000      -0.514389       -13.9972
  65   2.0000      -0.504199       -13.7199
  66   2.0000      -0.484506       -13.1841
  67   2.0000      -0.479385       -13.0447
  68   2.0000      -0.467785       -12.7291
  69   2.0000      -0.457662       -12.4536
  70   2.0000      -0.455945       -12.4069
  71   2.0000      -0.451073       -12.2743
  72   2.0000      -0.447461       -12.1760
  73   2.0000      -0.443736       -12.0747
  74   2.0000      -0.440610       -11.9896
  75   2.0000      -0.431844       -11.7511
  76   2.0000      -0.430406       -11.7119
  77   2.0000      -0.425452       -11.5771
  78   2.0000      -0.420997       -11.4559
  79   2.0000      -0.415414       -11.3040
  80   2.0000      -0.414740       -11.2856
  81   2.0000      -0.412394       -11.2218
  82   2.0000      -0.407103       -11.0778
  83   2.0000      -0.405524       -11.0349
  84   2.0000      -0.404008       -10.9936
  85   2.0000      -0.402146       -10.9429
  86   2.0000      -0.396434       -10.7875
  87   2.0000      -0.394246       -10.7280
  88   2.0000      -0.387263       -10.5380
  89   2.0000      -0.378319       -10.2946
  90   2.0000      -0.374645       -10.1946
  91   2.0000      -0.368705       -10.0330
  92   2.0000      -0.361392        -9.8340
  93   2.0000      -0.352904        -9.6030
  94   2.0000      -0.335975        -9.1423
  95   2.0000      -0.331202        -9.0125
  96   2.0000      -0.325554        -8.8588
  97   2.0000      -0.322794        -8.7837
  98   2.0000      -0.304620        -8.2891
  99   2.0000      -0.299000        -8.1362
 100   2.0000      -0.280431        -7.6309
 101   2.0000      -0.261253        -7.1091
 102   2.0000      -0.256152        -6.9703
 103   2.0000      -0.251881        -6.8540
 104   2.0000      -0.247029        -6.7220
 105   2.0000      -0.240746        -6.5510
 106   2.0000      -0.229599        -6.2477
 107   2.0000      -0.226116        -6.1529
 108   2.0000      -0.216724        -5.8973
 109   0.0000      -0.067262        -1.8303
 110   0.0000      -0.048298        -1.3143
 111   0.0000      -0.040349        -1.0980
 112   0.0000      -0.030124        -0.8197
 113   0.0000       0.011456         0.3117

MULLIKEN ATOMIC CHARGES
-----------------------
   0 C :   -0.510782
   1 C :    0.144435
   2 C :   -0.173333
   3 C :   -0.121002
   4 C :   -0.127410
   5 C :   -0.176179
   6 C :    0.162205
   7 C :   -0.116194
   8 N :   -0.639341
   9 C :    0.528437
  10 O :   -0.482195
  11 C :    0.073082
  12 C :   -0.156255
  13 C :   -0.206845
  14 C :    0.169716
  15 C :   -0.152829
  16 C :   -0.145691
  17 C :    0.014894
  18 N :   -0.434180
  19 C :    0.209513
  20 C :   -0.195967
  21 C :    0.187994
  22 N :   -0.387533
  23 C :    0.025778
  24 C :   -0.133727
  25 C :   -0.130035
  26 C :   -0.067325
  27 C :    0.928311
  28 F :   -0.304241
  29 F :   -0.297354
  30 F :   -0.291753
  31 H :    0.163431
  32 H :    0.151834
  33 H :    0.122720
  34 H :    0.115210
  35 H :    0.119167
  36 H :    0.120672
  37 H :    0.133122
  38 H :    0.196680
  39 H :    0.333195
  40 H :    0.165098
  41 H :    0.138736
  42 H :    0.143817
  43 H :    0.135439
  44 H :    0.150751
  45 H :    0.141554
  46 H :    0.161019
  47 H :    0.145848
  48 H :    0.167514
Sum of atomic charges:    0.0000000

LOEWDIN ATOMIC CHARGES
----------------------
   0 C :   -0.350598
   1 C :   -0.005384
   2 C :   -0.137146
   3 C :   -0.129299
   4 C :   -0.138968
   5 C :   -0.119488
   6 C :   -0.013406
   7 C :   -0.056110
   8 N :   -0.233972
   9 C :    0.150963
  10 O :   -0.284244
  11 C :   -0.041025
  12 C :   -0.098646
  13 C :   -0.120317
  14 C :   -0.022267
  15 C :   -0.093437
  16 C :   -0.146689
  17 C :   -0.064105
  18 N :   -0.131180
  19 C :    0.013432
  20 C :   -0.107442
  21 C :    0.042192
  22 N :   -0.116049
  23 C :   -0.054142
  24 C :   -0.143286
  25 C :   -0.088694
  26 C :   -0.084336
  27 C :    0.313413
  28 F :   -0.111236
  29 F :   -0.112294
  30 F :   -0.099569
  31 H :    0.138076
  32 H :    0.131267
  33 H :    0.115322
  34 H :    0.126316
  35 H :    0.127289
  36 H :    0.128574
  37 H :    0.133625
  38 H :    0.160333
  39 H :    0.246442
  40 H :    0.153406
  41 H :    0.136418
  42 H :    0.139016
  43 H :    0.136421
  44 H :    0.136048
  45 H :    0.142310
  46 H :    0.140833
  47 H :    0.141550
  48 H :    0.150080

  Mayer bond orders larger than 0.100000
B(  0-C ,  1-C ) :   0.9873 B(  0-C , 31-H ) :   0.9355 B(  0-C , 32-H ) :   0.9388
B(  0-C , 33-H ) :   0.9393 B(  1-C ,  2-C ) :   1.4184 B(  1-C ,  6-C ) :   1.4198
B(  2-C ,  3-C ) :   1.4431 B(  2-C , 34-H ) :   0.9289 B(  3-C ,  4-C ) :   1.4555
B(  3-C , 35-H ) :   0.9305 B(  4-C ,  5-C ) :   1.4371 B(  4-C , 36-H ) :   0.9305
B(  5-C ,  6-C ) :   1.4168 B(  5-C , 37-H ) :   0.9199 B(  6-C ,  7-C ) :   0.9316
B(  7-C ,  8-N ) :   0.9070 B(  7-C , 21-C ) :   0.9433 B(  7-C , 38-H ) :   0.8910
B(  8-N ,  9-C ) :   1.0339 B(  8-N , 39-H ) :   0.8024 B(  9-C , 10-O ) :   1.7890
B(  9-C , 11-C ) :   0.9912 B( 11-C , 12-C ) :   1.3122 B( 11-C , 20-C ) :   1.4353
B( 12-C , 13-C ) :   1.4967 B( 12-C , 40-H ) :   0.9126 B( 13-C , 14-C ) :   1.2713
B( 13-C , 41-H ) :   0.9246 B( 14-C , 15-C ) :   1.3060 B( 14-C , 19-C ) :   1.2551
B( 15-C , 16-C ) :   1.5108 B( 15-C , 42-H ) :   0.9239 B( 16-C , 17-C ) :   1.3249
B( 16-C , 43-H ) :   0.9249 B( 17-C , 18-N ) :   1.5134 B( 17-C , 44-H ) :   0.9300
B( 18-N , 19-C ) :   1.2516 B( 19-C , 20-C ) :   1.2943 B( 20-C , 45-H ) :   0.9009
B( 21-C , 22-N ) :   1.3985 B( 21-C , 26-C ) :   1.3426 B( 22-N , 23-C ) :   1.4189
B( 23-C , 24-C ) :   1.4162 B( 23-C , 46-H ) :   0.9266 B( 24-C , 25-C ) :   1.4391
B( 24-C , 47-H ) :   0.9237 B( 25-C , 26-C ) :   1.4061 B( 25-C , 48-H ) :   0.9165
B( 26-C , 27-C ) :   0.9670 B( 27-C , 28-F ) :   0.9434 B( 27-C , 29-F ) :   0.9538
B( 27-C , 30-F ) :   0.9357

FINAL SINGLE POINT ENERGY     -1463.562341881864

DIPOLE MOMENT
-------------

Method             : SCF
Type of density    : Electron Density
Multiplicity       :   1
Irrep              :   0
Energy             : -1463.5623418818640857 Eh
Relativity type    :
Basis              : AO
                                X                 Y                 Z
Electronic contribution:      5.672315034      21.032165232     -12.796139552
Nuclear contribution   :     -5.720409454     -20.354069561      14.002666666
                        -----------------------------------------
Total Dipole Moment    :     -0.048094420       0.678095671       1.206527114
                        -----------------------------------------
Magnitude (a.u.)       :      1.384859014
Magnitude (Debye)      :      3.520031872

Rotational constants in cm-1:             0.006667             0.003269             0.002604
Rotational constants in MHz :           199.879988            97.989494            78.052567

                             ****ORCA TERMINATED NORMALLY****
TOTAL RUN TIME: 0 days 0 hours 8 minutes 45 seconds 394 msec
