                         Program Version 6.0.0  -   RELEASE  -
|  1> ! B3LYP 6-31G* SP
|  2>
|  3> * xyz 0 1
|  4> O -5.4910 -2.4315 -2.9139
|  5> C -4.8970 -2.9791 -1.9452
|  6> O -4.8827 -4.3688 -1.8506
|  7> C -4.2252 -2.1563 -0.9160
|  8> C -3.5757 -2.7694 0.1697
|  9> C -2.9401 -1.9952 1.1440
| 10> C -2.9367 -0.5987 1.0458
| 11> S -2.1159 0.3656 2.2705
| 12> O -2.6455 1.7735 2.2554
| 13> O -2.3927 -0.2144 3.6297
| 14> N -0.3981 0.3745 1.9768
| 15> C 0.4165 -0.7340 2.4875
| 16> C 1.3113 -1.2809 1.4039
| 17> C 2.7040 -1.1337 1.4874
| 18> C 3.5290 -1.6145 0.4661
| 19> C 2.9696 -2.2455 -0.6613
| 20> O 3.7478 -2.7410 -1.7200
| 21> C 5.1732 -2.7326 -1.7693
| 22> F 5.5840 -3.3186 -2.9510
| 23> F 5.6463 -1.4328 -1.7275
| 24> F 5.6895 -3.4564 -0.7095
| 25> C 1.5796 -2.3863 -0.7419
| 26> C 0.7555 -1.9100 0.2808
| 27> C 0.2384 1.5179 1.3753
| 28> C -0.3429 2.1710 0.2775
| 29> C 0.3211 3.2509 -0.3168
| 30> C -0.2347 3.9187 -1.4188
| 31> C 0.4450 4.9923 -2.0028
| 32> C 1.6800 5.4046 -1.4936
| 33> C 2.2444 4.7449 -0.3977
| 34> C 1.5714 3.6657 0.1945
| 35> C 2.1195 2.9807 1.2853
| 36> N 1.4505 1.9353 1.8375
| 37> C -3.5873 0.0188 -0.0306
| 38> C -4.2266 -0.7529 -1.0047
| 39> H -5.3366 -4.9424 -2.5515
| 40> H -3.5578 -3.8475 0.2679
| 41> H -2.4434 -2.4868 1.9713
| 42> H 1.0147 -0.3768 3.3541
| 43> H -0.2312 -1.5565 2.8593
| 44> H 3.1532 -0.6415 2.3405
| 45> H 4.5964 -1.4839 0.5631
| 46> H 1.1354 -2.8676 -1.6041
| 47> H -0.3155 -2.0240 0.1914
| 48> H -1.2830 1.8238 -0.1274
| 49> H -1.1904 3.6118 -1.8268
| 50> H 0.0145 5.5041 -2.8535
| 51> H 2.2024 6.2348 -1.9509
| 52> H 3.2045 5.0730 -0.0174
| 53> H 3.0784 3.2709 1.6956
| 54> H -3.6045 1.0970 -0.1191
| 55> H -4.7212 -0.2501 -1.8265
| 56> *
| 57>
| 58>                          ****END OF INPUT****

CARTESIAN COORDINATES (ANGSTROEM)
---------------------------------
  O     -5.491000   -2.431500   -2.913900
  C     -4.897000   -2.979100   -1.945200
  O     -4.882700   -4.368800   -1.850600
  C     -4.225200   -2.156300   -0.916000
  C     -3.575700   -2.769400    0.169700
  C     -2.940100   -1.995200    1.144000
  C     -2.936700   -0.598700    1.045800
  S     -2.115900    0.365600    2.270500
  O     -2.645500    1.773500    2.255400
  O     -2.392700   -0.214400    3.629700
  N     -0.398100    0.374500    1.976800
  C      0.416500   -0.734000    2.487500
  C      1.311300   -1.280900    1.403900
  C      2.704000   -1.133700    1.487400
  C      3.529000   -1.614500    0.466100
  C      2.969600   -2.245500   -0.661300
  O      3.747800   -2.741000   -1.720000
  C      5.173200   -2.732600   -1.769300
  F      5.584000   -3.318600   -2.951000
  F      5.646300   -1.432800   -1.727500
  F      5.689500   -3.456400   -0.709500
  C      1.579600   -2.386300   -0.741900
  C      0.755500   -1.910000    0.280800
  C      0.238400    1.517900    1.375300
  C     -0.342900    2.171000    0.277500
  C      0.321100    3.250900   -0.316800
  C     -0.234700    3.918700   -1.418800
  C      0.445000    4.992300   -2.002800
  C      1.680000    5.404600   -1.493600
  C      2.244400    4.744900   -0.397700
  C      1.571400    3.665700    0.194500
  C      2.119500    2.980700    1.285300
  N      1.450500    1.935300    1.837500
  C     -3.587300    0.018800   -0.030600
  C     -4.226600   -0.752900   -1.004700
  H     -5.336600   -4.942400   -2.551500
  H     -3.557800   -3.847500    0.267900
  H     -2.443400   -2.486800    1.971300
  H      1.014700   -0.376800    3.354100
  H     -0.231200   -1.556500    2.859300
  H      3.153200   -0.641500    2.340500
  H      4.596400   -1.483900    0.563100
  H      1.135400   -2.867600   -1.604100
  H     -0.315500   -2.024000    0.191400
  H     -1.283000    1.823800   -0.127400
  H     -1.190400    3.611800   -1.826800
  H      0.014500    5.504100   -2.853500
  H      2.202400    6.234800   -1.950900
  H      3.204500    5.073000   -0.017400
  H      3.078400    3.270900    1.695600
  H     -3.604500    1.097000   -0.119100
  H     -4.721200   -0.250100   -1.826500

 Total Charge           Charge          ....    0
 Multiplicity           Mult            ....    1
 Number of Electrons    NEL             ....  258
 Basis Dimension        Dim             ....  528

ORBITAL ENERGIES
----------------

  NO   OCC          E(Eh)            E(eV)
   0   2.0000     -89.107081     -2424.7269
   1   2.0000     -24.742349      -673.2735
   2   2.0000     -24.740108      -673.2126
   3   2.0000     -24.739612      -673.1991
   4   2.0000     -19.213868      -522.8359
   5   2.0000     -19.202931      -522.5383
   6   2.0000     -19.145196      -520.9673
   7   2.0000     -19.134653      -520.6804
   8   2.0000     -19.133064      -520.6372
   9   2.0000     -14.384507      -391.4223
  10   2.0000     -14.335047      -390.0765
  11   2.0000     -10.505035      -285.8565
  12   2.0000     -10.342764      -281.4409
  13   2.0000     -10.269695      -279.4526
  14   2.0000     -10.268871      -279.4302
  15   2.0000     -10.253394      -279.0090
  16   2.0000     -10.241156      -278.6760
  17   2.0000     -10.234540      -278.4960
  18   2.0000     -10.231279      -278.4073
  19   2.0000     -10.229996      -278.3723
  20   2.0000     -10.229568      -278.3607
  21   2.0000     -10.227509      -278.3047
  22   2.0000     -10.226970      -278.2900
  23   2.0000     -10.204373      -277.6751
  24   2.0000     -10.199349      -277.5384
  25   2.0000     -10.198954      -277.5277
  26   2.0000     -10.198090      -277.5041
  27   2.0000     -10.197629      -277.4916
  28   2.0000     -10.196336      -277.4564
  29   2.0000     -10.196144      -277.4512
  30   2.0000     -10.196055      -277.4488
  31   2.0000     -10.195619      -277.4369
  32   2.0000     -10.194049      -277.3942
  33   2.0000     -10.193387      -277.3762
  34   2.0000     -10.193217      -277.3715
  35   2.0000      -8.142808      -221.5771
  36   2.0000      -6.107928      -166.2052
  37   2.0000      -6.105765      -166.1463
  38   2.0000      -6.105429      -166.1372
  39   2.0000      -1.305017       -35.5113
  40   2.0000      -1.225703       -33.3531
  41   2.0000      -1.225395       -33.3447
  42   2.0000      -1.091563       -29.7029
  43   2.0000      -1.087447       -29.5909
  44   2.0000      -1.083674       -29.4883
  45   2.0000      -1.001877       -27.2625
  46   2.0000      -0.969972       -26.3943
  47   2.0000      -0.965936       -26.2844
  48   2.0000      -0.917306       -24.9612
  49   2.0000      -0.900453       -24.5026
  50   2.0000      -0.866346       -23.5745
  51   2.0000      -0.862623       -23.4732
  52   2.0000      -0.816867       -22.2281
  53   2.0000      -0.797343       -21.6968
  54   2.0000      -0.787082       -21.4176
  55   2.0000      -0.784366       -21.3437
  56   2.0000      -0.774085       -21.0639
  57   2.0000      -0.759818       -20.6757
  58   2.0000      -0.739301       -20.1174
  59   2.0000      -0.732353       -19.9283
  60   2.0000      -0.709355       -19.3025
  61   2.0000      -0.680637       -18.5211
  62   2.0000      -0.664833       -18.0910
  63   2.0000      -0.653809       -17.7911
  64   2.0000      -0.643872       -17.5206
  65   2.0000      -0.636320       -17.3151
  66   2.0000      -0.625929       -17.0324
  67   2.0000      -0.620143       -16.8750
  68   2.0000      -0.614575       -16.7234
  69   2.0000      -0.599538       -16.3143
  70   2.0000      -0.597111       -16.2482
  71   2.0000      -0.592554       -16.1242
  72   2.0000      -0.575154       -15.6507
  73   2.0000      -0.568801       -15.4779
  74   2.0000      -0.548775       -14.9329
  75   2.0000      -0.534636       -14.5482
  76   2.0000      -0.519400       -14.1336
  77   2.0000      -0.505167       -13.7463
  78   2.0000      -0.499332       -13.5875
  79   2.0000      -0.497415       -13.5353
  80   2.0000      -0.489118       -13.3096
  81   2.0000      -0.484644       -13.1878
  82   2.0000      -0.482013       -13.1163
  83   2.0000      -0.476512       -12.9666
  84   2.0000      -0.471073       -12.8186
  85   2.0000      -0.469776       -12.7832
  86   2.0000      -0.468368       -12.7449
  87   2.0000      -0.465965       -12.6796
  88   2.0000      -0.460430       -12.5289
  89   2.0000      -0.457945       -12.4613
  90   2.0000      -0.452285       -12.3073
  91   2.0000      -0.448790       -12.2122
  92   2.0000      -0.446340       -12.1455
  93   2.0000      -0.440578       -11.9887
  94   2.0000      -0.436362       -11.8740
  95   2.0000      -0.432090       -11.7578
  96   2.0000      -0.430350       -11.7104
  97   2.0000      -0.429178       -11.6785
  98   2.0000      -0.423645       -11.5280
  99   2.0000      -0.418853       -11.3976
 100   2.0000      -0.417313       -11.3557
 101   2.0000      -0.413875       -11.2621
 102   2.0000      -0.411829       -11.2064
 103   2.0000      -0.406837       -11.0706
 104   2.0000      -0.400076       -10.8866
 105   2.0000      -0.393357       -10.7038
 106   2.0000      -0.388482       -10.5711
 107   2.0000      -0.378514       -10.2999
 108   2.0000      -0.374642       -10.1945
 109   2.0000      -0.368724       -10.0335
 110   2.0000      -0.358355        -9.7513
 111   2.0000      -0.355618        -9.6769
 112   2.0000      -0.350483        -9.5371
 113   2.0000      -0.345344        -9.3973
 114   2.0000      -0.333388        -9.0719
 115   2.0000      -0.328319        -8.9340
 116   2.0000      -0.314095        -8.5470
 117   2.0000      -0.310281        -8.4432
 118   2.0000      -0.299809        -8.1582
 119   2.0000      -0.295092        -8.0299
 120   2.0000      -0.289567        -7.8795
 121   2.0000      -0.281901        -7.6709
 122   2.0000      -0.281287        -7.6542
 123   2.0000      -0.275901        -7.5076
 124   2.0000      -0.265013        -7.2114
 125   2.0000      -0.259946        -7.0735
 126   2.0000      -0.251386        -6.8405
 127   2.0000      -0.240003        -6.5308
 128   2.0000      -0.213331        -5.8050
 129   0.0000      -0.091607        -2.4928
 130   0.0000      -0.059302        -1.6137
 131   0.0000      -0.042376        -1.1531
 132   0.0000      -0.024144        -0.6570
 133   0.0000      -0.018867        -0.5134

MULLIKEN ATOMIC CHARGES
-----------------------
   0 O :   -0.441665
   1 C :    0.530600
   2 O :   -0.623363
   3 C :    0.082944
   4 C :   -0.146286
   5 C :   -0.155714
   6 C :   -0.121035
   7 S :    1.220139
   8 O :   -0.542757
   9 O :   -0.532249
  10 N :   -0.631597
  11 C :   -0.234095
  12 C :    0.146542
  13 C :   -0.157606
  14 C :   -0.190447
  15 C :    0.353674
  16 O :   -0.546212
  17 C :    1.085990
  18 F :   -0.279199
  19 F :   -0.291066
  20 F :   -0.291297
  21 C :   -0.172935
  22 C :   -0.163045
  23 C :    0.453525
  24 C :   -0.213104
  25 C :    0.177596
  26 C :   -0.194098
  27 C :   -0.125457
  28 C :   -0.129616
  29 C :   -0.200862
  30 C :    0.131381
  31 C :   -0.040296
  32 N :   -0.424831
  33 C :   -0.148099
  34 C :   -0.138230
  35 H :    0.436507
  36 H :    0.177610
  37 H :    0.180573
  38 H :    0.187702
  39 H :    0.182103
  40 H :    0.150391
  41 H :    0.152306
  42 H :    0.146623
  43 H :    0.133517
  44 H :    0.132936
  45 H :    0.133554
  46 H :    0.137067
  47 H :    0.135000
  48 H :    0.137276
  49 H :    0.154485
  50 H :    0.190791
  51 H :    0.184330
Sum of atomic charges:   -0.0000000

LOEWDIN ATOMIC CHARGES
----------------------
   0 O :   -0.257832
   1 C :    0.180473
   2 O :   -0.333914
   3 C :   -0.037498
   4 C :   -0.098463
   5 C :   -0.110353
   6 C :   -0.173619
   7 S :    1.265509
   8 O :   -0.563653
   9 O :   -0.560427
  10 N :   -0.271715
  11 C :   -0.145340
  12 C :   -0.039919
  13 C :   -0.111298
  14 C :   -0.159820
  15 C :    0.087040
  16 O :   -0.160466
  17 C :    0.359757
  18 F :   -0.087675
  19 F :   -0.104987
  20 F :   -0.104880
  21 C :   -0.141087
  22 C :   -0.122221
  23 C :    0.063392
  24 C :   -0.134552
  25 C :    0.000922
  26 C :   -0.121128
  27 C :   -0.117174
  28 C :   -0.130885
  29 C :   -0.111750
  30 C :   -0.035678
  31 C :   -0.048735
  32 N :   -0.144401
  33 C :   -0.106691
  34 C :   -0.082712
  35 H :    0.351421
  36 H :    0.156982
  37 H :    0.155298
  38 H :    0.144598
  39 H :    0.146767
  40 H :    0.143482
  41 H :    0.142199
  42 H :    0.144113
  43 H :    0.135830
  44 H :    0.136039
  45 H :    0.135104
  46 H :    0.136302
  47 H :    0.135185
  48 H :    0.136257
  49 H :    0.138474
  50 H :    0.161388
  51 H :    0.162340

  Mayer bond orders larger than 0.100000
B(  0-O ,  1-C ) :   1.8639 B(  1-C ,  2-O ) :   1.0269 B(  1-C ,  3-C ) :   1.0070
B(  2-O , 35-H ) :   0.7404 B(  3-C ,  4-C ) :   1.3838 B(  3-C , 34-C ) :   1.4044
B(  4-C ,  5-C ) :   1.4161 B(  4-C , 36-H ) :   0.9133 B(  5-C ,  6-C ) :   1.3832
B(  5-C , 37-H ) :   0.9113 B(  6-C ,  7-S ) :   0.8112 B(  6-C , 33-C ) :   1.3902
B(  7-S ,  8-O ) :   1.6200 B(  7-S ,  9-O ) :   1.6467 B(  7-S , 10-N ) :   0.8037
B( 10-N , 11-C ) :   0.9110 B( 10-N , 23-C ) :   0.8700 B( 11-C , 12-C ) :   0.9512
B( 11-C , 38-H ) :   0.9168 B( 11-C , 39-H ) :   0.9154 B( 12-C , 13-C ) :   1.4438
B( 12-C , 22-C ) :   1.4176 B( 13-C , 14-C ) :   1.4236 B( 13-C , 40-H ) :   0.9169
B( 14-C , 15-C ) :   1.3970 B( 14-C , 41-H ) :   0.9097 B( 15-C , 16-O ) :   0.8236
B( 15-C , 21-C ) :   1.4135 B( 16-O , 17-C ) :   0.9907 B( 17-C , 18-F ) :   1.0078
B( 17-C , 19-F ) :   0.9673 B( 17-C , 20-F ) :   0.9705 B( 21-C , 22-C ) :   1.4485
B( 21-C , 42-H ) :   0.9188 B( 22-C , 43-H ) :   0.9143 B( 23-C , 24-C ) :   1.4308
B( 23-C , 32-N ) :   1.3106 B( 24-C , 25-C ) :   1.3142 B( 24-C , 31-C ) :   0.1076
B( 24-C , 44-H ) :   0.8995 B( 25-C , 26-C ) :   1.2838 B( 25-C , 30-C ) :   1.2901
B( 26-C , 27-C ) :   1.5164 B( 26-C , 29-C ) :   0.1068 B( 26-C , 45-H ) :   0.9245
B( 27-C , 28-C ) :   1.3443 B( 27-C , 46-H ) :   0.9290 B( 28-C , 29-C ) :   1.5179
B( 28-C , 47-H ) :   0.9297 B( 29-C , 30-C ) :   1.2834 B( 29-C , 48-H ) :   0.9237
B( 30-C , 31-C ) :   1.2522 B( 31-C , 32-N ) :   1.4738 B( 31-C , 49-H ) :   0.9258
B( 33-C , 34-C ) :   1.4156 B( 33-C , 50-H ) :   0.9052 B( 34-C , 51-H ) :   0.9081

FINAL SINGLE POINT ENERGY     -2107.031696930312

DIPOLE MOMENT
-------------

Method             : SCF
Type of density    : Electron Density
Multiplicity       :   1
Irrep              :   0
Energy             : -2107.0316969303121368 Eh
Relativity type    :
Basis              : AO
                                X                 Y                 Z
Electronic contribution:     22.336679140     -17.735100735      -6.630023352
Nuclear contribution   :    -21.868302183      17.058451500       5.238402341
                        -----------------------------------------
Total Dipole Moment    :      0.468376957      -0.676649236      -1.391621010
                        -----------------------------------------
Magnitude (a.u.)       :      1.616737517
Magnitude (Debye)      :      4.109420187

Rotational constants in cm-1:             0.003423             0.002435             0.001822
Rotational constants in MHz :           102.613824            73.013435            54.634692

                             ****ORCA TERMINATED NORMALLY****
TOTAL RUN TIME: 0 days 0 hours 8 minutes 52 seconds 755 msec
