                         Program Version 6.0.0  -   RELEASE  -
|  1> ! B3LYP 6-31G* SP
|  2>
|  3> * xyz 0 1
|  4> C 5.4998 0.3242 0.2512
|  5> C 4.8248 -0.1022 -1.0472
|  6> O 3.4638 -0.4588 -0.8129
|  7> C 2.4466 0.4755 -0.5945
|  8> O 2.6953 1.7097 -0.6716
|  9> C 1.0682 0.0385 -0.3052
| 10> S -0.2541 1.0809 -0.2793
| 11> C -1.3719 -0.1305 0.0656
| 12> C -2.8306 0.0583 0.2395
| 13> C -3.6558 -1.0444 0.5277
| 14> C -5.0334 -0.8744 0.6933
| 15> C -5.6030 0.3947 0.5736
| 16> C -4.7953 1.4988 0.2876
| 17> Cl -5.5124 3.0929 0.1374
| 18> C -3.4155 1.3335 0.1209
| 19> N -0.7567 -1.3303 0.1686
| 20> C 0.5871 -1.2508 -0.0290
| 21> O 1.3763 -2.3960 0.0663
| 22> H 5.0166 1.2370 0.6576
| 23> H 5.4267 -0.4914 1.0014
| 24> H 6.5715 0.5431 0.0604
| 25> H 4.8885 0.7117 -1.8018
| 26> H 5.3574 -0.9887 -1.4511
| 27> H -3.2376 -2.0384 0.6254
| 28> H -5.6603 -1.7286 0.9149
| 29> H -6.6706 0.5188 0.7031
| 30> H -2.8086 2.2019 -0.1001
| 31> H 2.3831 -2.3850 -0.0018
| 32> *
| 33>
| 34>                          ****END OF INPUT****

CARTESIAN COORDINATES (ANGSTROEM)
---------------------------------
  C      5.499800    0.324200    0.251200
  C      4.824800   -0.102200   -1.047200
  O      3.463800   -0.458800   -0.812900
  C      2.446600    0.475500   -0.594500
  O      2.695300    1.709700   -0.671600
  C      1.068200    0.038500   -0.305200
  S     -0.254100    1.080900   -0.279300
  C     -1.371900   -0.130500    0.065600
  C     -2.830600    0.058300    0.239500
  C     -3.655800   -1.044400    0.527700
  C     -5.033400   -0.874400    0.693300
  C     -5.603000    0.394700    0.573600
  C     -4.795300    1.498800    0.287600
  Cl    -5.512400    3.092900    0.137400
  C     -3.415500    1.333500    0.120900
  N     -0.756700   -1.330300    0.168600
  C      0.587100   -1.250800   -0.029000
  O      1.376300   -2.396000    0.066300
  H      5.016600    1.237000    0.657600
  H      5.426700   -0.491400    1.001400
  H      6.571500    0.543100    0.060400
  H      4.888500    0.711700   -1.801800
  H      5.357400   -0.988700   -1.451100
  H     -3.237600   -2.038400    0.625400
  H     -5.660300   -1.728600    0.914900
  H     -6.670600    0.518800    0.703100
  H     -2.808600    2.201900   -0.100100
  H      2.383100   -2.385000   -0.001800

 Total Charge           Charge          ....    0
 Multiplicity           Mult            ....    1
 Number of Electrons    NEL             ....  146
 Basis Dimension        Dim             ....  280

ORBITAL ENERGIES
----------------

  NO   OCC          E(Eh)            E(eV)
   0   2.0000    -101.535156     -2762.9121
   1   2.0000     -88.911789     -2419.4128
   2   2.0000     -19.195380      -522.3328
   3   2.0000     -19.182046      -521.9700
   4   2.0000     -19.131562      -520.5963
   5   2.0000     -14.343240      -390.2994
   6   2.0000     -10.334128      -281.2059
   7   2.0000     -10.301436      -280.3163
   8   2.0000     -10.273139      -279.5463
   9   2.0000     -10.258221      -279.1404
  10   2.0000     -10.250200      -278.9221
  11   2.0000     -10.230121      -278.3757
  12   2.0000     -10.227401      -278.3017
  13   2.0000     -10.212604      -277.8991
  14   2.0000     -10.207576      -277.7623
  15   2.0000     -10.204347      -277.6744
  16   2.0000     -10.202229      -277.6168
  17   2.0000     -10.181212      -277.0449
  18   2.0000      -9.466986      -257.6098
  19   2.0000      -7.988416      -217.3759
  20   2.0000      -7.230072      -196.7403
  21   2.0000      -7.220547      -196.4811
  22   2.0000      -7.220270      -196.4735
  23   2.0000      -5.951410      -161.9461
  24   2.0000      -5.947353      -161.8357
  25   2.0000      -5.945446      -161.7838
  26   2.0000      -1.088551       -29.6210
  27   2.0000      -1.050587       -28.5879
  28   2.0000      -0.999155       -27.1884
  29   2.0000      -0.972102       -26.4522
  30   2.0000      -0.898670       -24.4540
  31   2.0000      -0.848842       -23.0982
  32   2.0000      -0.826029       -22.4774
  33   2.0000      -0.794304       -21.6141
  34   2.0000      -0.774087       -21.0640
  35   2.0000      -0.749009       -20.3816
  36   2.0000      -0.736348       -20.0371
  37   2.0000      -0.678313       -18.4578
  38   2.0000      -0.641710       -17.4618
  39   2.0000      -0.631510       -17.1843
  40   2.0000      -0.613897       -16.7050
  41   2.0000      -0.578599       -15.7445
  42   2.0000      -0.570081       -15.5127
  43   2.0000      -0.546649       -14.8751
  44   2.0000      -0.524022       -14.2594
  45   2.0000      -0.503982       -13.7141
  46   2.0000      -0.484912       -13.1951
  47   2.0000      -0.477902       -13.0044
  48   2.0000      -0.467923       -12.7328
  49   2.0000      -0.458099       -12.4655
  50   2.0000      -0.449768       -12.2388
  51   2.0000      -0.443744       -12.0749
  52   2.0000      -0.439505       -11.9595
  53   2.0000      -0.438305       -11.9269
  54   2.0000      -0.411571       -11.1994
  55   2.0000      -0.406842       -11.0707
  56   2.0000      -0.400392       -10.8952
  57   2.0000      -0.383744       -10.4422
  58   2.0000      -0.377659       -10.2766
  59   2.0000      -0.375400       -10.2152
  60   2.0000      -0.373824       -10.1723
  61   2.0000      -0.368438       -10.0257
  62   2.0000      -0.352669        -9.5966
  63   2.0000      -0.338209        -9.2031
  64   2.0000      -0.334315        -9.0972
  65   2.0000      -0.318906        -8.6779
  66   2.0000      -0.302786        -8.2392
  67   2.0000      -0.291809        -7.9405
  68   2.0000      -0.290471        -7.9041
  69   2.0000      -0.275455        -7.4955
  70   2.0000      -0.263868        -7.1802
  71   2.0000      -0.255182        -6.9439
  72   2.0000      -0.228660        -6.2222
  73   0.0000      -0.079600        -2.1660
  74   0.0000      -0.022625        -0.6157
  75   0.0000      -0.016828        -0.4579
  76   0.0000       0.020024         0.5449
  77   0.0000       0.028839         0.7847

MULLIKEN ATOMIC CHARGES
-----------------------
   0 C :   -0.459886
   1 C :   -0.026152
   2 O :   -0.501602
   3 C :    0.594616
   4 O :   -0.468554
   5 C :   -0.279469
   6 S :    0.319164
   7 C :   -0.011110
   8 C :    0.147402
   9 C :   -0.152244
  10 C :   -0.119889
  11 C :   -0.122808
  12 C :   -0.073277
  13 Cl:   -0.006288
  14 C :   -0.191967
  15 N :   -0.403189
  16 C :    0.507226
  17 O :   -0.644043
  18 H :    0.183771
  19 H :    0.147172
  20 H :    0.148574
  21 H :    0.165953
  22 H :    0.153547
  23 H :    0.173700
  24 H :    0.149704
  25 H :    0.157448
  26 H :    0.172713
  27 H :    0.439490
Sum of atomic charges:    0.0000000

LOEWDIN ATOMIC CHARGES
----------------------
   0 C :   -0.375014
   1 C :   -0.092038
   2 O :   -0.185625
   3 C :    0.179668
   4 O :   -0.272197
   5 C :   -0.287166
   6 S :    0.442340
   7 C :   -0.104448
   8 C :   -0.024373
   9 C :   -0.101167
  10 C :   -0.117906
  11 C :   -0.122908
  12 C :   -0.084644
  13 Cl:    0.044171
  14 C :   -0.125481
  15 N :   -0.163032
  16 C :    0.113508
  17 O :   -0.329249
  18 H :    0.142995
  19 H :    0.125814
  20 H :    0.132492
  21 H :    0.130617
  22 H :    0.128511
  23 H :    0.155401
  24 H :    0.142918
  25 H :    0.147251
  26 H :    0.152948
  27 H :    0.346612

  Mayer bond orders larger than 0.100000
B(  0-C ,  1-C ) :   1.0121 B(  0-C , 18-H ) :   0.9385 B(  0-C , 19-H ) :   0.9484
B(  0-C , 20-H ) :   0.9414 B(  1-C ,  2-O ) :   0.8565 B(  1-C , 21-H ) :   0.9238
B(  1-C , 22-H ) :   0.9395 B(  2-O ,  3-C ) :   0.9818 B(  3-C ,  4-O ) :   1.7648
B(  3-C ,  5-C ) :   1.0613 B(  5-C ,  6-S ) :   1.0768 B(  5-C ,  7-C ) :   0.1127
B(  5-C , 16-C ) :   1.3459 B(  6-S ,  7-C ) :   1.1714 B(  7-C ,  8-C ) :   1.0237
B(  7-C , 15-N ) :   1.4221 B(  8-C ,  9-C ) :   1.4062 B(  8-C , 14-C ) :   1.3840
B(  9-C , 10-C ) :   1.4312 B(  9-C , 23-H ) :   0.9088 B( 10-C , 11-C ) :   1.4393
B( 10-C , 24-H ) :   0.9265 B( 11-C , 12-C ) :   1.4109 B( 11-C , 25-H ) :   0.9228
B( 12-C , 13-Cl) :   1.0224 B( 12-C , 14-C ) :   1.4120 B( 14-C , 26-H ) :   0.9078
B( 15-N , 16-C ) :   1.3239 B( 16-C , 17-O ) :   1.0272 B( 17-O , 27-H ) :   0.7238

FINAL SINGLE POINT ENERGY     -1601.526273747733

DIPOLE MOMENT
-------------

Method             : SCF
Type of density    : Electron Density
Multiplicity       :   1
Irrep              :   0
Energy             : -1601.5262737477328301 Eh
Relativity type    :
Basis              : AO
                                X                 Y                 Z
Electronic contribution:    -24.133143400       8.923488775      -0.708016478
Nuclear contribution   :     24.610387246      -9.703457557       0.782776988
                        -----------------------------------------
Total Dipole Moment    :      0.477243847      -0.779968782       0.074760510
                        -----------------------------------------
Magnitude (a.u.)       :      0.917443254
Magnitude (Debye)      :      2.331955428

Rotational constants in cm-1:             0.030570             0.004490             0.003960
Rotational constants in MHz :           916.461409           134.600031           118.730204

                             ****ORCA TERMINATED NORMALLY****
TOTAL RUN TIME: 0 days 0 hours 3 minutes 1 seconds 577 msec
