                         Program Version 6.0.0  -   RELEASE  -
|  1> ! B3LYP 6-31G* SP
|  2>
|  3> * xyz 0 1
|  4> C 4.4734 4.1350 1.0831
|  5> O 3.8685 2.8831 1.3786
|  6> C 3.3485 2.0091 0.4105
|  7> C 3.3533 2.3158 -0.9642
|  8> C 2.8416 1.4035 -1.8880
|  9> C 2.3112 0.1850 -1.4559
| 10> C 2.2883 -0.1375 -0.0865
| 11> C 1.6256 -1.4349 0.3585
| 12> C 2.3158 -2.0926 1.5626
| 13> N 0.1836 -1.2467 0.6246
| 14> C -0.2663 -0.0556 1.3048
| 15> O 0.0782 0.1330 2.5020
| 16> C -1.0611 0.9828 0.6101
| 17> C -1.0356 1.0987 -0.7918
| 18> C -1.7815 2.0856 -1.4371
| 19> C -2.5518 2.9763 -0.6858
| 20> C -2.5785 2.8786 0.7100
| 21> C -1.8344 1.8916 1.3564
| 22> C -0.7396 -2.3861 0.4078
| 23> C -1.2546 -2.9810 1.7023
| 24> N -1.7552 -4.3182 1.7150
| 25> O -1.2888 -2.3022 2.7640
| 26> C -1.8618 -2.0158 -0.5400
| 27> C -3.0544 -1.4271 -0.0820
| 28> C -4.0504 -1.0478 -0.9879
| 29> C -3.8683 -1.2489 -2.3558
| 30> C -2.6822 -1.8182 -2.8233
| 31> C -1.6823 -2.1929 -1.9233
| 32> C 2.8092 0.7921 0.8411
| 33> H 5.3577 3.9866 0.4254
| 34> H 4.8106 4.6048 2.0272
| 35> H 3.7394 4.8096 0.5941
| 36> H 3.7549 3.2578 -1.3243
| 37> H 2.8520 1.6435 -2.9414
| 38> H 1.9020 -0.5010 -2.1902
| 39> H 1.7458 -2.1550 -0.4807
| 40> H 1.9566 -3.1374 1.6749
| 41> H 3.4158 -2.1212 1.4040
| 42> H 2.0929 -1.5521 2.5068
| 43> H -0.4470 0.4207 -1.3968
| 44> H -1.7617 2.1598 -2.5185
| 45> H -3.1292 3.7399 -1.1838
| 46> H -3.1734 3.5684 1.2891
| 47> H -1.8686 1.8362 2.4348
| 48> H -0.1739 -3.2161 -0.0703
| 49> H -1.7752 -4.8900 0.8402
| 50> H -2.1199 -4.7330 2.5996
| 51> H -3.2105 -1.2425 0.9706
| 52> H -4.9638 -0.5912 -0.6311
| 53> H -4.6429 -0.9620 -3.0551
| 54> H -2.5373 -1.9643 -3.8854
| 55> H -0.7628 -2.6137 -2.3061
| 56> H 2.7880 0.5875 1.9073
| 57> *
| 58>
| 59>                          ****END OF INPUT****

CARTESIAN COORDINATES (ANGSTROEM)
---------------------------------
  C      4.473400    4.135000    1.083100
  O      3.868500    2.883100    1.378600
  C      3.348500    2.009100    0.410500
  C      3.353300    2.315800   -0.964200
  C      2.841600    1.403500   -1.888000
  C      2.311200    0.185000   -1.455900
  C      2.288300   -0.137500   -0.086500
  C      1.625600   -1.434900    0.358500
  C      2.315800   -2.092600    1.562600
  N      0.183600   -1.246700    0.624600
  C     -0.266300   -0.055600    1.304800
  O      0.078200    0.133000    2.502000
  C     -1.061100    0.982800    0.610100
  C     -1.035600    1.098700   -0.791800
  C     -1.781500    2.085600   -1.437100
  C     -2.551800    2.976300   -0.685800
  C     -2.578500    2.878600    0.710000
  C     -1.834400    1.891600    1.356400
  C     -0.739600   -2.386100    0.407800
  C     -1.254600   -2.981000    1.702300
  N     -1.755200   -4.318200    1.715000
  O     -1.288800   -2.302200    2.764000
  C     -1.861800   -2.015800   -0.540000
  C     -3.054400   -1.427100   -0.082000
  C     -4.050400   -1.047800   -0.987900
  C     -3.868300   -1.248900   -2.355800
  C     -2.682200   -1.818200   -2.823300
  C     -1.682300   -2.192900   -1.923300
  C      2.809200    0.792100    0.841100
  H      5.357700    3.986600    0.425400
  H      4.810600    4.604800    2.027200
  H      3.739400    4.809600    0.594100
  H      3.754900    3.257800   -1.324300
  H      2.852000    1.643500   -2.941400
  H      1.902000   -0.501000   -2.190200
  H      1.745800   -2.155000   -0.480700
  H      1.956600   -3.137400    1.674900
  H      3.415800   -2.121200    1.404000
  H      2.092900   -1.552100    2.506800
  H     -0.447000    0.420700   -1.396800
  H     -1.761700    2.159800   -2.518500
  H     -3.129200    3.739900   -1.183800
  H     -3.173400    3.568400    1.289100
  H     -1.868600    1.836200    2.434800
  H     -0.173900   -3.216100   -0.070300
  H     -1.775200   -4.890000    0.840200
  H     -2.119900   -4.733000    2.599600
  H     -3.210500   -1.242500    0.970600
  H     -4.963800   -0.591200   -0.631100
  H     -4.642900   -0.962000   -3.055100
  H     -2.537300   -1.964300   -3.885400
  H     -0.762800   -2.613700   -2.306100
  H      2.788000    0.587500    1.907300

 Total Charge           Charge          ....    0
 Multiplicity           Mult            ....    1
 Number of Electrons    NEL             ....  206
 Basis Dimension        Dim             ....  454

ORBITAL ENERGIES
----------------

  NO   OCC          E(Eh)            E(eV)
   0   2.0000     -19.155370      -521.2441
   1   2.0000     -19.108331      -519.9641
   2   2.0000     -19.101590      -519.7807
   3   2.0000     -14.350147      -390.4874
   4   2.0000     -14.321672      -389.7125
   5   2.0000     -10.283631      -279.8318
   6   2.0000     -10.276446      -279.6363
   7   2.0000     -10.237747      -278.5833
   8   2.0000     -10.236296      -278.5438
   9   2.0000     -10.229402      -278.3562
  10   2.0000     -10.218344      -278.0553
  11   2.0000     -10.194899      -277.4173
  12   2.0000     -10.185633      -277.1652
  13   2.0000     -10.185129      -277.1515
  14   2.0000     -10.184207      -277.1264
  15   2.0000     -10.182831      -277.0889
  16   2.0000     -10.182231      -277.0726
  17   2.0000     -10.181286      -277.0469
  18   2.0000     -10.180472      -277.0247
  19   2.0000     -10.180093      -277.0144
  20   2.0000     -10.177518      -276.9443
  21   2.0000     -10.176332      -276.9121
  22   2.0000     -10.176046      -276.9043
  23   2.0000     -10.175271      -276.8832
  24   2.0000     -10.175256      -276.8828
  25   2.0000     -10.174329      -276.8576
  26   2.0000     -10.170765      -276.7606
  27   2.0000     -10.169990      -276.7395
  28   2.0000     -10.152558      -276.2651
  29   2.0000      -1.033579       -28.1251
  30   2.0000      -1.007454       -27.4142
  31   2.0000      -0.995602       -27.0917
  32   2.0000      -0.906915       -24.6784
  33   2.0000      -0.874225       -23.7889
  34   2.0000      -0.852531       -23.1985
  35   2.0000      -0.843671       -22.9575
  36   2.0000      -0.839656       -22.8482
  37   2.0000      -0.783757       -21.3271
  38   2.0000      -0.756229       -20.5780
  39   2.0000      -0.745059       -20.2741
  40   2.0000      -0.744030       -20.2461
  41   2.0000      -0.743069       -20.2199
  42   2.0000      -0.735986       -20.0272
  43   2.0000      -0.709085       -19.2952
  44   2.0000      -0.696662       -18.9572
  45   2.0000      -0.680757       -18.5243
  46   2.0000      -0.633529       -17.2392
  47   2.0000      -0.616834       -16.7849
  48   2.0000      -0.607957       -16.5434
  49   2.0000      -0.598333       -16.2815
  50   2.0000      -0.594283       -16.1713
  51   2.0000      -0.585614       -15.9354
  52   2.0000      -0.576410       -15.6849
  53   2.0000      -0.564273       -15.3546
  54   2.0000      -0.536310       -14.5937
  55   2.0000      -0.523193       -14.2368
  56   2.0000      -0.519662       -14.1407
  57   2.0000      -0.511011       -13.9053
  58   2.0000      -0.490433       -13.3454
  59   2.0000      -0.482554       -13.1310
  60   2.0000      -0.476351       -12.9622
  61   2.0000      -0.473267       -12.8782
  62   2.0000      -0.468192       -12.7401
  63   2.0000      -0.461199       -12.5499
  64   2.0000      -0.452528       -12.3139
  65   2.0000      -0.451099       -12.2750
  66   2.0000      -0.441213       -12.0060
  67   2.0000      -0.434317       -11.8184
  68   2.0000      -0.432356       -11.7650
  69   2.0000      -0.423828       -11.5330
  70   2.0000      -0.422499       -11.4968
  71   2.0000      -0.421010       -11.4563
  72   2.0000      -0.417361       -11.3570
  73   2.0000      -0.412227       -11.2173
  74   2.0000      -0.407647       -11.0926
  75   2.0000      -0.396238       -10.7822
  76   2.0000      -0.391166       -10.6442
  77   2.0000      -0.378895       -10.3103
  78   2.0000      -0.374883       -10.2011
  79   2.0000      -0.366879        -9.9833
  80   2.0000      -0.364670        -9.9232
  81   2.0000      -0.360748        -9.8164
  82   2.0000      -0.359027        -9.7696
  83   2.0000      -0.356287        -9.6951
  84   2.0000      -0.347655        -9.4602
  85   2.0000      -0.343282        -9.3412
  86   2.0000      -0.341688        -9.2978
  87   2.0000      -0.336854        -9.1663
  88   2.0000      -0.334407        -9.0997
  89   2.0000      -0.328724        -8.9450
  90   2.0000      -0.322545        -8.7769
  91   2.0000      -0.305184        -8.3045
  92   2.0000      -0.301493        -8.2040
  93   2.0000      -0.260365        -7.0849
  94   2.0000      -0.253135        -6.8882
  95   2.0000      -0.250635        -6.8201
  96   2.0000      -0.244103        -6.6424
  97   2.0000      -0.241818        -6.5802
  98   2.0000      -0.237188        -6.4542
  99   2.0000      -0.236623        -6.4388
 100   2.0000      -0.225403        -6.1335
 101   2.0000      -0.211592        -5.7577
 102   2.0000      -0.198863        -5.4113
 103   0.0000      -0.042998        -1.1700
 104   0.0000      -0.010615        -0.2889
 105   0.0000      -0.000867        -0.0236
 106   0.0000       0.003710         0.1010
 107   0.0000       0.009370         0.2550

MULLIKEN ATOMIC CHARGES
-----------------------
   0 C :   -0.192442
   1 O :   -0.509060
   2 C :    0.369626
   3 C :   -0.201254
   4 C :   -0.123090
   5 C :   -0.184565
   6 C :    0.128833
   7 C :   -0.031984
   8 C :   -0.443297
   9 N :   -0.436801
  10 C :    0.462618
  11 O :   -0.417581
  12 C :    0.103233
  13 C :   -0.136478
  14 C :   -0.130254
  15 C :   -0.119143
  16 C :   -0.135408
  17 C :   -0.150015
  18 C :   -0.153804
  19 C :    0.573888
  20 N :   -0.767385
  21 O :   -0.462684
  22 C :    0.159682
  23 C :   -0.169765
  24 C :   -0.120904
  25 C :   -0.122898
  26 C :   -0.128678
  27 C :   -0.184372
  28 C :   -0.211309
  29 H :    0.142076
  30 H :    0.168209
  31 H :    0.145287
  32 H :    0.127300
  33 H :    0.125309
  34 H :    0.113858
  35 H :    0.127092
  36 H :    0.129476
  37 H :    0.133334
  38 H :    0.191440
  39 H :    0.141916
  40 H :    0.125452
  41 H :    0.126318
  42 H :    0.129647
  43 H :    0.158470
  44 H :    0.141906
  45 H :    0.328534
  46 H :    0.350203
  47 H :    0.158907
  48 H :    0.133500
  49 H :    0.127537
  50 H :    0.127030
  51 H :    0.120835
  52 H :    0.161657
Sum of atomic charges:    0.0000000

LOEWDIN ATOMIC CHARGES
----------------------
   0 C :   -0.199255
   1 O :   -0.192180
   2 C :    0.091068
   3 C :   -0.173456
   4 C :   -0.125378
   5 C :   -0.152841
   6 C :   -0.019153
   7 C :   -0.040921
   8 C :   -0.368916
   9 N :   -0.133450
  10 C :    0.162494
  11 O :   -0.213456
  12 C :   -0.050478
  13 C :   -0.096431
  14 C :   -0.133365
  15 C :   -0.116516
  16 C :   -0.135922
  17 C :   -0.094913
  18 C :   -0.064488
  19 C :    0.132037
  20 N :   -0.406459
  21 O :   -0.271891
  22 C :   -0.024309
  23 C :   -0.122760
  24 C :   -0.121220
  25 C :   -0.128149
  26 C :   -0.131665
  27 C :   -0.136873
  28 C :   -0.141768
  29 H :    0.113731
  30 H :    0.134760
  31 H :    0.115157
  32 H :    0.132729
  33 H :    0.130532
  34 H :    0.124306
  35 H :    0.118935
  36 H :    0.119033
  37 H :    0.120417
  38 H :    0.146623
  39 H :    0.141862
  40 H :    0.130349
  41 H :    0.130306
  42 H :    0.132197
  43 H :    0.148695
  44 H :    0.136250
  45 H :    0.248745
  46 H :    0.264601
  47 H :    0.145361
  48 H :    0.134180
  49 H :    0.131158
  50 H :    0.130770
  51 H :    0.127011
  52 H :    0.152905

  Mayer bond orders larger than 0.100000
B(  0-C ,  1-O ) :   0.9250 B(  0-C , 29-H ) :   0.9308 B(  0-C , 30-H ) :   0.9453
B(  0-C , 31-H ) :   0.9306 B(  1-O ,  2-C ) :   0.9173 B(  2-C ,  3-C ) :   1.3689
B(  2-C , 28-C ) :   1.3760 B(  3-C ,  4-C ) :   1.4416 B(  3-C , 32-H ) :   0.9194
B(  4-C ,  5-C ) :   1.4403 B(  4-C , 33-H ) :   0.9298 B(  5-C ,  6-C ) :   1.4125
B(  5-C , 34-H ) :   0.9245 B(  6-C ,  7-C ) :   0.9882 B(  6-C , 28-C ) :   1.4266
B(  7-C ,  8-C ) :   0.9815 B(  7-C ,  9-N ) :   0.9494 B(  7-C , 35-H ) :   0.9220
B(  8-C , 36-H ) :   0.9461 B(  8-C , 37-H ) :   0.9404 B(  8-C , 38-H ) :   0.9261
B(  9-N , 10-C ) :   0.9197 B(  9-N , 18-C ) :   0.9952 B( 10-C , 11-O ) :   1.8536
B( 10-C , 12-C ) :   1.0033 B( 12-C , 13-C ) :   1.3907 B( 12-C , 17-C ) :   1.3838
B( 13-C , 14-C ) :   1.4359 B( 13-C , 39-H ) :   0.9038 B( 14-C , 15-C ) :   1.4485
B( 14-C , 40-H ) :   0.9306 B( 15-C , 16-C ) :   1.4343 B( 15-C , 41-H ) :   0.9311
B( 16-C , 17-C ) :   1.4400 B( 16-C , 42-H ) :   0.9309 B( 17-C , 43-H ) :   0.9151
B( 18-C , 19-C ) :   0.8966 B( 18-C , 22-C ) :   0.9539 B( 18-C , 44-H ) :   0.9041
B( 19-C , 20-N ) :   1.0628 B( 19-C , 21-O ) :   1.8432 B( 20-N , 45-H ) :   0.8325
B( 20-N , 46-H ) :   0.8228 B( 22-C , 23-C ) :   1.4277 B( 22-C , 27-C ) :   1.4188
B( 23-C , 24-C ) :   1.4324 B( 23-C , 47-H ) :   0.9095 B( 24-C , 25-C ) :   1.4557
B( 24-C , 48-H ) :   0.9292 B( 25-C , 26-C ) :   1.4486 B( 25-C , 49-H ) :   0.9304
B( 26-C , 27-C ) :   1.4447 B( 26-C , 50-H ) :   0.9295 B( 27-C , 51-H ) :   0.9259
B( 28-C , 52-H ) :   0.9044

FINAL SINGLE POINT ENERGY     -1263.350721877206

DIPOLE MOMENT
-------------

Method             : SCF
Type of density    : Electron Density
Multiplicity       :   1
Irrep              :   0
Energy             : -1263.3507218772062970 Eh
Relativity type    :
Basis              : AO
                                X                 Y                 Z
Electronic contribution:     -6.071027142      -2.366359725       4.873187737
Nuclear contribution   :      5.669683474       1.935319576      -6.920989030
                        -----------------------------------------
Total Dipole Moment    :     -0.401343668      -0.431040149      -2.047801293
                        -----------------------------------------
Magnitude (a.u.)       :      2.130812635
Magnitude (Debye)      :      5.416095295

Rotational constants in cm-1:             0.008208             0.004492             0.003850
Rotational constants in MHz :           246.062265           134.675555           115.407774

                             ****ORCA TERMINATED NORMALLY****
TOTAL RUN TIME: 0 days 0 hours 6 minutes 0 seconds 486 msec
