                         Program Version 6.0.0  -   RELEASE  -
|  1> ! B3LYP 6-31G* SP
|  2>
|  3> * xyz 0 1
|  4> O 1.6968 -1.5830 -1.3882
|  5> C 1.9112 -0.5036 -0.7711
|  6> N 0.9212 0.5385 -0.7988
|  7> C -0.4384 0.3022 -1.3033
|  8> C -1.2140 -0.6623 -0.4244
|  9> C -2.2622 -1.4088 -0.9854
| 10> C -3.0150 -2.2839 -0.1982
| 11> C -2.7377 -2.4286 1.1728
| 12> C -3.5460 -3.3619 2.0420
| 13> F -2.7006 -4.2566 2.6731
| 14> F -4.2224 -2.6277 2.9991
| 15> F -4.4698 -4.0806 1.3027
| 16> C -1.7005 -1.6675 1.7412
| 17> F -1.4177 -1.7685 3.0651
| 18> C -0.9494 -0.7921 0.9515
| 19> C -1.1996 1.6001 -1.4631
| 20> N -1.7169 1.9091 -2.6858
| 21> C -2.4278 3.0468 -2.9054
| 22> C -2.6529 3.9427 -1.8599
| 23> C -2.1416 3.6558 -0.5943
| 24> C -1.4132 2.4826 -0.3850
| 25> F -0.9214 2.2192 0.8510
| 26> C 3.1845 -0.3281 -0.0339
| 27> C 4.3139 -1.0873 -0.3789
| 28> C 5.5093 -0.9266 0.3221
| 29> C 5.5689 -0.0114 1.3750
| 30> O 6.6436 0.1413 2.0146
| 31> N 4.4657 0.7122 1.7119
| 32> C 3.2892 0.5727 1.0408
| 33> H 1.2027 1.5041 -0.5167
| 34> H -0.3395 -0.1557 -2.3139
| 35> H -2.4998 -1.3103 -2.0377
| 36> H -3.8149 -2.8424 -0.6668
| 37> H -0.1602 -0.2183 1.4197
| 38> H -2.8195 3.2545 -3.8921
| 39> H -3.2186 4.8498 -2.0289
| 40> H -2.3106 4.3431 0.2247
| 41> H 4.2755 -1.7966 -1.1964
| 42> H 6.3803 -1.5094 0.0483
| 43> H 4.5153 1.3881 2.5076
| 44> H 2.4320 1.1485 1.3649
| 45> *
| 46>
| 47>                          ****END OF INPUT****

CARTESIAN COORDINATES (ANGSTROEM)
---------------------------------
  O      1.696800   -1.583000   -1.388200
  C      1.911200   -0.503600   -0.771100
  N      0.921200    0.538500   -0.798800
  C     -0.438400    0.302200   -1.303300
  C     -1.214000   -0.662300   -0.424400
  C     -2.262200   -1.408800   -0.985400
  C     -3.015000   -2.283900   -0.198200
  C     -2.737700   -2.428600    1.172800
  C     -3.546000   -3.361900    2.042000
  F     -2.700600   -4.256600    2.673100
  F     -4.222400   -2.627700    2.999100
  F     -4.469800   -4.080600    1.302700
  C     -1.700500   -1.667500    1.741200
  F     -1.417700   -1.768500    3.065100
  C     -0.949400   -0.792100    0.951500
  C     -1.199600    1.600100   -1.463100
  N     -1.716900    1.909100   -2.685800
  C     -2.427800    3.046800   -2.905400
  C     -2.652900    3.942700   -1.859900
  C     -2.141600    3.655800   -0.594300
  C     -1.413200    2.482600   -0.385000
  F     -0.921400    2.219200    0.851000
  C      3.184500   -0.328100   -0.033900
  C      4.313900   -1.087300   -0.378900
  C      5.509300   -0.926600    0.322100
  C      5.568900   -0.011400    1.375000
  O      6.643600    0.141300    2.014600
  N      4.465700    0.712200    1.711900
  C      3.289200    0.572700    1.040800
  H      1.202700    1.504100   -0.516700
  H     -0.339500   -0.155700   -2.313900
  H     -2.499800   -1.310300   -2.037700
  H     -3.814900   -2.842400   -0.666800
  H     -0.160200   -0.218300    1.419700
  H     -2.819500    3.254500   -3.892100
  H     -3.218600    4.849800   -2.028900
  H     -2.310600    4.343100    0.224700
  H      4.275500   -1.796600   -1.196400
  H      6.380300   -1.509400    0.048300
  H      4.515300    1.388100    2.507600
  H      2.432000    1.148500    1.364900

 Total Charge           Charge          ....    0
 Multiplicity           Mult            ....    1
 Number of Electrons    NEL             ....  208
 Basis Dimension        Dim             ....  430

ORBITAL ENERGIES
----------------

  NO   OCC          E(Eh)            E(eV)
   0   2.0000     -24.737805      -673.1499
   1   2.0000     -24.719574      -672.6538
   2   2.0000     -24.712037      -672.4487
   3   2.0000     -24.711235      -672.4269
   4   2.0000     -24.710862      -672.4167
   5   2.0000     -19.122625      -520.3531
   6   2.0000     -19.089550      -519.4531
   7   2.0000     -14.414857      -392.2482
   8   2.0000     -14.372654      -391.0998
   9   2.0000     -14.357789      -390.6953
  10   2.0000     -10.434216      -283.9295
  11   2.0000     -10.305599      -280.4296
  12   2.0000     -10.303760      -280.3796
  13   2.0000     -10.287965      -279.9498
  14   2.0000     -10.280446      -279.7452
  15   2.0000     -10.272169      -279.5199
  16   2.0000     -10.261052      -279.2174
  17   2.0000     -10.252643      -278.9886
  18   2.0000     -10.243412      -278.7374
  19   2.0000     -10.229827      -278.3677
  20   2.0000     -10.221617      -278.1443
  21   2.0000     -10.219598      -278.0894
  22   2.0000     -10.217707      -278.0379
  23   2.0000     -10.217346      -278.0281
  24   2.0000     -10.213842      -277.9328
  25   2.0000     -10.208491      -277.7872
  26   2.0000     -10.202052      -277.6119
  27   2.0000     -10.197666      -277.4926
  28   2.0000     -10.195451      -277.4323
  29   2.0000      -1.275685       -34.7131
  30   2.0000      -1.250728       -34.0340
  31   2.0000      -1.223877       -33.3034
  32   2.0000      -1.201934       -32.7063
  33   2.0000      -1.197848       -32.5951
  34   2.0000      -1.033589       -28.1254
  35   2.0000      -1.023237       -27.8437
  36   2.0000      -0.962170       -26.1820
  37   2.0000      -0.958750       -26.0889
  38   2.0000      -0.923180       -25.1210
  39   2.0000      -0.875633       -23.8272
  40   2.0000      -0.838211       -22.8089
  41   2.0000      -0.826940       -22.5022
  42   2.0000      -0.811415       -22.0797
  43   2.0000      -0.787344       -21.4247
  44   2.0000      -0.774343       -21.0710
  45   2.0000      -0.761569       -20.7233
  46   2.0000      -0.729851       -19.8603
  47   2.0000      -0.687121       -18.6975
  48   2.0000      -0.679557       -18.4917
  49   2.0000      -0.662780       -18.0352
  50   2.0000      -0.658004       -17.9052
  51   2.0000      -0.644989       -17.5510
  52   2.0000      -0.632626       -17.2146
  53   2.0000      -0.619890       -16.8681
  54   2.0000      -0.599983       -16.3264
  55   2.0000      -0.572039       -15.5660
  56   2.0000      -0.568707       -15.4753
  57   2.0000      -0.566370       -15.4117
  58   2.0000      -0.565092       -15.3769
  59   2.0000      -0.563684       -15.3386
  60   2.0000      -0.539986       -14.6938
  61   2.0000      -0.539436       -14.6788
  62   2.0000      -0.526887       -14.3373
  63   2.0000      -0.522294       -14.2123
  64   2.0000      -0.510064       -13.8796
  65   2.0000      -0.502924       -13.6852
  66   2.0000      -0.495073       -13.4716
  67   2.0000      -0.487582       -13.2678
  68   2.0000      -0.481622       -13.1056
  69   2.0000      -0.469545       -12.7770
  70   2.0000      -0.467826       -12.7302
  71   2.0000      -0.458846       -12.4858
  72   2.0000      -0.455743       -12.4014
  73   2.0000      -0.449796       -12.2396
  74   2.0000      -0.445053       -12.1105
  75   2.0000      -0.443136       -12.0584
  76   2.0000      -0.442916       -12.0524
  77   2.0000      -0.435939       -11.8625
  78   2.0000      -0.424478       -11.5506
  79   2.0000      -0.423941       -11.5360
  80   2.0000      -0.413218       -11.2442
  81   2.0000      -0.412352       -11.2207
  82   2.0000      -0.409201       -11.1349
  83   2.0000      -0.402847       -10.9620
  84   2.0000      -0.401168       -10.9163
  85   2.0000      -0.397667       -10.8211
  86   2.0000      -0.393036       -10.6951
  87   2.0000      -0.390936       -10.6379
  88   2.0000      -0.383551       -10.4370
  89   2.0000      -0.378510       -10.2998
  90   2.0000      -0.375036       -10.2052
  91   2.0000      -0.361448        -9.8355
  92   2.0000      -0.354905        -9.6575
  93   2.0000      -0.334598        -9.1049
  94   2.0000      -0.315287        -8.5794
  95   2.0000      -0.306953        -8.3526
  96   2.0000      -0.283959        -7.7269
  97   2.0000      -0.278203        -7.5703
  98   2.0000      -0.265993        -7.2380
  99   2.0000      -0.264682        -7.2024
 100   2.0000      -0.259149        -7.0518
 101   2.0000      -0.252619        -6.8741
 102   2.0000      -0.238484        -6.4895
 103   2.0000      -0.221061        -6.0154
 104   0.0000      -0.063276        -1.7218
 105   0.0000      -0.057635        -1.5683
 106   0.0000      -0.038810        -1.0561
 107   0.0000      -0.034762        -0.9459
 108   0.0000      -0.023876        -0.6497

MULLIKEN ATOMIC CHARGES
-----------------------
   0 O :   -0.475560
   1 C :    0.509566
   2 N :   -0.664360
   3 C :   -0.032395
   4 C :    0.173481
   5 C :   -0.173995
   6 C :   -0.152304
   7 C :   -0.114600
   8 C :    0.918282
   9 F :   -0.298461
  10 F :   -0.299527
  11 F :   -0.306273
  12 C :    0.388663
  13 F :   -0.302596
  14 C :   -0.241921
  15 C :    0.151872
  16 N :   -0.400910
  17 C :    0.013295
  18 C :   -0.123655
  19 C :   -0.168765
  20 C :    0.374194
  21 F :   -0.310620
  22 C :    0.027066
  23 C :   -0.104969
  24 C :   -0.205885
  25 C :    0.553121
  26 O :   -0.518967
  27 N :   -0.578789
  28 C :    0.031854
  29 H :    0.323788
  30 H :    0.200343
  31 H :    0.150013
  32 H :    0.162207
  33 H :    0.139862
  34 H :    0.162756
  35 H :    0.152298
  36 H :    0.164653
  37 H :    0.177196
  38 H :    0.168636
  39 H :    0.356694
  40 H :    0.174714
Sum of atomic charges:    0.0000000

LOEWDIN ATOMIC CHARGES
----------------------
   0 O :   -0.280468
   1 C :    0.143558
   2 N :   -0.245189
   3 C :   -0.044003
   4 C :    0.003398
   5 C :   -0.130218
   6 C :   -0.105224
   7 C :   -0.098761
   8 C :    0.313891
   9 F :   -0.111246
  10 F :   -0.113265
  11 F :   -0.111561
  12 C :    0.135052
  13 F :   -0.094387
  14 C :   -0.153157
  15 C :    0.002703
  16 N :   -0.121164
  17 C :   -0.069825
  18 C :   -0.131556
  19 C :   -0.127061
  20 C :    0.098744
  21 F :   -0.097098
  22 C :   -0.098303
  23 C :   -0.069841
  24 C :   -0.144745
  25 C :    0.080497
  26 O :   -0.321713
  27 N :   -0.093218
  28 C :   -0.045334
  29 H :    0.247936
  30 H :    0.161911
  31 H :    0.142982
  32 H :    0.149315
  33 H :    0.142864
  34 H :    0.142339
  35 H :    0.144514
  36 H :    0.152519
  37 H :    0.158039
  38 H :    0.159625
  39 H :    0.281389
  40 H :    0.146062

  Mayer bond orders larger than 0.100000
B(  0-O ,  1-C ) :   1.8063 B(  1-C ,  2-N ) :   1.0185 B(  1-C , 22-C ) :   1.0091
B(  2-N ,  3-C ) :   0.8835 B(  2-N , 29-H ) :   0.8192 B(  3-C ,  4-C ) :   0.9558
B(  3-C , 15-C ) :   0.9422 B(  3-C , 30-H ) :   0.9002 B(  4-C ,  5-C ) :   1.4220
B(  4-C , 14-C ) :   1.3930 B(  5-C ,  6-C ) :   1.4271 B(  5-C , 31-H ) :   0.9193
B(  6-C ,  7-C ) :   1.4095 B(  6-C , 32-H ) :   0.9177 B(  7-C ,  8-C ) :   0.9668
B(  7-C , 12-C ) :   1.3247 B(  8-C ,  9-F ) :   0.9696 B(  8-C , 10-F ) :   0.9738
B(  8-C , 11-F ) :   0.9461 B( 12-C , 13-F ) :   0.9487 B( 12-C , 14-C ) :   1.3760
B( 14-C , 33-H ) :   0.9055 B( 15-C , 16-N ) :   1.3994 B( 15-C , 20-C ) :   1.3089
B( 16-N , 17-C ) :   1.4207 B( 17-C , 18-C ) :   1.4206 B( 17-C , 34-H ) :   0.9271
B( 18-C , 19-C ) :   1.4379 B( 18-C , 35-H ) :   0.9223 B( 19-C , 20-C ) :   1.3965
B( 19-C , 36-H ) :   0.9165 B( 20-C , 21-F ) :   0.9094 B( 22-C , 23-C ) :   1.2425
B( 22-C , 28-C ) :   1.5072 B( 23-C , 24-C ) :   1.5578 B( 23-C , 37-H ) :   0.9102
B( 24-C , 25-C ) :   1.1860 B( 24-C , 38-H ) :   0.9247 B( 25-C , 26-O ) :   1.7581
B( 25-C , 27-N ) :   0.9772 B( 27-N , 28-C ) :   1.1439 B( 27-N , 39-H ) :   0.8107
B( 28-C , 40-H ) :   0.9100

FINAL SINGLE POINT ENERGY     -1544.336892468094

DIPOLE MOMENT
-------------

Method             : SCF
Type of density    : Electron Density
Multiplicity       :   1
Irrep              :   0
Energy             : -1544.3368924680937653 Eh
Relativity type    :
Basis              : AO
                                X                 Y                 Z
Electronic contribution:    -19.238596851     -17.693759578      18.346199836
Nuclear contribution   :     17.839727579      20.598692783     -19.234892687
                        -----------------------------------------
Total Dipole Moment    :     -1.398869272       2.904933205      -0.888692851
                        -----------------------------------------
Magnitude (a.u.)       :      3.344435252
Magnitude (Debye)      :      8.500878834

Rotational constants in cm-1:             0.005725             0.003504             0.002528
Rotational constants in MHz :           171.629526           105.060386            75.784140

                             ****ORCA TERMINATED NORMALLY****
TOTAL RUN TIME: 0 days 0 hours 7 minutes 2 seconds 743 msec
