                         Program Version 6.0.0  -   RELEASE  -
|  1> ! B3LYP 6-31G* SP
|  2>
|  3> * xyz 0 1
|  4> O 7.6270 -1.9775 1.0638
|  5> C 6.5251 -1.9167 1.6738
|  6> O 6.4466 -2.3762 2.9861
|  7> C 5.3272 -1.3636 1.0043
|  8> C 5.3961 -0.8969 -0.3194
|  9> C 4.2618 -0.3749 -0.9476
| 10> C 3.0323 -0.3161 -0.2698
| 11> C 1.8386 0.2468 -0.9446
| 12> O 1.9922 1.0513 -1.9044
| 13> N 0.5111 -0.1173 -0.5293
| 14> C -0.6764 0.5965 -1.0171
| 15> C -1.9448 -0.1264 -0.6091
| 16> C -2.2402 -0.3499 0.7456
| 17> C -3.4157 -1.0068 1.1142
| 18> C -4.3240 -1.4533 0.1469
| 19> O -5.4821 -2.1056 0.6078
| 20> C -6.5353 -2.6411 -0.1896
| 21> F -7.4837 -3.1998 0.6450
| 22> F -7.1356 -1.6374 -0.9283
| 23> F -6.0486 -3.6291 -1.0265
| 24> C -4.0322 -1.2271 -1.2185
| 25> F -4.8659 -1.6291 -2.2076
| 26> C -2.8528 -0.5686 -1.5839
| 27> C -0.7030 2.0143 -0.4942
| 28> N -0.1360 2.3039 0.7118
| 29> C -0.1629 3.5562 1.2398
| 30> C -0.7942 4.5920 0.5496
| 31> C -1.3977 4.3244 -0.6798
| 32> C -1.3608 3.0318 -1.2075
| 33> F -1.9641 2.7741 -2.3955
| 34> C 2.9671 -0.7717 1.0585
| 35> C 4.1019 -1.2928 1.6871
| 36> H 7.2607 -2.7568 3.4536
| 37> H 6.3270 -0.9347 -0.8714
| 38> H 4.3446 -0.0268 -1.9699
| 39> H 0.3900 -0.9493 0.0910
| 40> H -0.6145 0.6281 -2.1281
| 41> H -1.5587 -0.0161 1.5181
| 42> H -3.6242 -1.1708 2.1640
| 43> H -2.6497 -0.4022 -2.6347
| 44> H 0.3033 3.7464 2.1971
| 45> H -0.8198 5.5908 0.9658
| 46> H -1.8973 5.1178 -1.2207
| 47> H 2.0482 -0.7058 1.6257
| 48> H 4.0193 -1.6340 2.7113
| 49> *
| 50>
| 51>                          ****END OF INPUT****

CARTESIAN COORDINATES (ANGSTROEM)
---------------------------------
  O      7.627000   -1.977500    1.063800
  C      6.525100   -1.916700    1.673800
  O      6.446600   -2.376200    2.986100
  C      5.327200   -1.363600    1.004300
  C      5.396100   -0.896900   -0.319400
  C      4.261800   -0.374900   -0.947600
  C      3.032300   -0.316100   -0.269800
  C      1.838600    0.246800   -0.944600
  O      1.992200    1.051300   -1.904400
  N      0.511100   -0.117300   -0.529300
  C     -0.676400    0.596500   -1.017100
  C     -1.944800   -0.126400   -0.609100
  C     -2.240200   -0.349900    0.745600
  C     -3.415700   -1.006800    1.114200
  C     -4.324000   -1.453300    0.146900
  O     -5.482100   -2.105600    0.607800
  C     -6.535300   -2.641100   -0.189600
  F     -7.483700   -3.199800    0.645000
  F     -7.135600   -1.637400   -0.928300
  F     -6.048600   -3.629100   -1.026500
  C     -4.032200   -1.227100   -1.218500
  F     -4.865900   -1.629100   -2.207600
  C     -2.852800   -0.568600   -1.583900
  C     -0.703000    2.014300   -0.494200
  N     -0.136000    2.303900    0.711800
  C     -0.162900    3.556200    1.239800
  C     -0.794200    4.592000    0.549600
  C     -1.397700    4.324400   -0.679800
  C     -1.360800    3.031800   -1.207500
  F     -1.964100    2.774100   -2.395500
  C      2.967100   -0.771700    1.058500
  C      4.101900   -1.292800    1.687100
  H      7.260700   -2.756800    3.453600
  H      6.327000   -0.934700   -0.871400
  H      4.344600   -0.026800   -1.969900
  H      0.390000   -0.949300    0.091000
  H     -0.614500    0.628100   -2.128100
  H     -1.558700   -0.016100    1.518100
  H     -3.624200   -1.170800    2.164000
  H     -2.649700   -0.402200   -2.634700
  H      0.303300    3.746400    2.197100
  H     -0.819800    5.590800    0.965800
  H     -1.897300    5.117800   -1.220700
  H      2.048200   -0.705800    1.625700
  H      4.019300   -1.634000    2.711300

 Total Charge           Charge          ....    0
 Multiplicity           Mult            ....    1
 Number of Electrons    NEL             ....  230
 Basis Dimension        Dim             ....  474

ORBITAL ENERGIES
----------------

  NO   OCC          E(Eh)            E(eV)
   0   2.0000     -24.740432      -673.2214
   1   2.0000     -24.734376      -673.0566
   2   2.0000     -24.734248      -673.0531
   3   2.0000     -24.719001      -672.6382
   4   2.0000     -24.716675      -672.5749
   5   2.0000     -19.220901      -523.0273
   6   2.0000     -19.188075      -522.1341
   7   2.0000     -19.128405      -520.5104
   8   2.0000     -19.114905      -520.1430
   9   2.0000     -14.361550      -390.7976
  10   2.0000     -14.340896      -390.2356
  11   2.0000     -10.504448      -285.8406
  12   2.0000     -10.326291      -280.9927
  13   2.0000     -10.295598      -280.1575
  14   2.0000     -10.293401      -280.0977
  15   2.0000     -10.285828      -279.8916
  16   2.0000     -10.284445      -279.8540
  17   2.0000     -10.247164      -278.8395
  18   2.0000     -10.242045      -278.7002
  19   2.0000     -10.228382      -278.3284
  20   2.0000     -10.219300      -278.0813
  21   2.0000     -10.218301      -278.0541
  22   2.0000     -10.214950      -277.9629
  23   2.0000     -10.213266      -277.9171
  24   2.0000     -10.212419      -277.8940
  25   2.0000     -10.210813      -277.8503
  26   2.0000     -10.206845      -277.7424
  27   2.0000     -10.205059      -277.6938
  28   2.0000     -10.204671      -277.6832
  29   2.0000     -10.204624      -277.6819
  30   2.0000     -10.202367      -277.6205
  31   2.0000     -10.199853      -277.5521
  32   2.0000      -1.301759       -35.4227
  33   2.0000      -1.233551       -33.5666
  34   2.0000      -1.228584       -33.4315
  35   2.0000      -1.221233       -33.2314
  36   2.0000      -1.220760       -33.2186
  37   2.0000      -1.089051       -29.6346
  38   2.0000      -1.072673       -29.1889
  39   2.0000      -1.015589       -27.6356
  40   2.0000      -0.986366       -26.8404
  41   2.0000      -0.947244       -25.7758
  42   2.0000      -0.912143       -24.8207
  43   2.0000      -0.878410       -23.9028
  44   2.0000      -0.872274       -23.7358
  45   2.0000      -0.809879       -22.0379
  46   2.0000      -0.805698       -21.9242
  47   2.0000      -0.784420       -21.3451
  48   2.0000      -0.777122       -21.1466
  49   2.0000      -0.768012       -20.8987
  50   2.0000      -0.761405       -20.7189
  51   2.0000      -0.727848       -19.8057
  52   2.0000      -0.695051       -18.9133
  53   2.0000      -0.677132       -18.4257
  54   2.0000      -0.649177       -17.6650
  55   2.0000      -0.644223       -17.5302
  56   2.0000      -0.639752       -17.4085
  57   2.0000      -0.630405       -17.1542
  58   2.0000      -0.614636       -16.7251
  59   2.0000      -0.606828       -16.5126
  60   2.0000      -0.596350       -16.2275
  61   2.0000      -0.593542       -16.1511
  62   2.0000      -0.592598       -16.1254
  63   2.0000      -0.575047       -15.6478
  64   2.0000      -0.554883       -15.0991
  65   2.0000      -0.549508       -14.9529
  66   2.0000      -0.537269       -14.6198
  67   2.0000      -0.524805       -14.2807
  68   2.0000      -0.520241       -14.1565
  69   2.0000      -0.514576       -14.0023
  70   2.0000      -0.508259       -13.8304
  71   2.0000      -0.486400       -13.2356
  72   2.0000      -0.484160       -13.1747
  73   2.0000      -0.475615       -12.9421
  74   2.0000      -0.473040       -12.8721
  75   2.0000      -0.467648       -12.7254
  76   2.0000      -0.465685       -12.6719
  77   2.0000      -0.460680       -12.5357
  78   2.0000      -0.459630       -12.5072
  79   2.0000      -0.455710       -12.4005
  80   2.0000      -0.452757       -12.3202
  81   2.0000      -0.449902       -12.2425
  82   2.0000      -0.445031       -12.1099
  83   2.0000      -0.440440       -11.9850
  84   2.0000      -0.434829       -11.8323
  85   2.0000      -0.433767       -11.8034
  86   2.0000      -0.432767       -11.7762
  87   2.0000      -0.427873       -11.6430
  88   2.0000      -0.421610       -11.4726
  89   2.0000      -0.413891       -11.2626
  90   2.0000      -0.412461       -11.2236
  91   2.0000      -0.409746       -11.1498
  92   2.0000      -0.406773       -11.0688
  93   2.0000      -0.401612       -10.9284
  94   2.0000      -0.395453       -10.7608
  95   2.0000      -0.393266       -10.7013
  96   2.0000      -0.387663       -10.5488
  97   2.0000      -0.381357       -10.3773
  98   2.0000      -0.380890       -10.3645
  99   2.0000      -0.368922       -10.0389
 100   2.0000      -0.360518        -9.8102
 101   2.0000      -0.359090        -9.7713
 102   2.0000      -0.354044        -9.6340
 103   2.0000      -0.352256        -9.5854
 104   2.0000      -0.308920        -8.4061
 105   2.0000      -0.289765        -7.8849
 106   2.0000      -0.272315        -7.4101
 107   2.0000      -0.269675        -7.3382
 108   2.0000      -0.266738        -7.2583
 109   2.0000      -0.265701        -7.2301
 110   2.0000      -0.263691        -7.1754
 111   2.0000      -0.260563        -7.0903
 112   2.0000      -0.254465        -6.9244
 113   2.0000      -0.247958        -6.7473
 114   2.0000      -0.245644        -6.6843
 115   0.0000      -0.073331        -1.9954
 116   0.0000      -0.042435        -1.1547
 117   0.0000      -0.026883        -0.7315
 118   0.0000      -0.020101        -0.5470
 119   0.0000      -0.017236        -0.4690

MULLIKEN ATOMIC CHARGES
-----------------------
   0 O :   -0.448900
   1 C :    0.522730
   2 O :   -0.626032
   3 C :    0.092634
   4 C :   -0.158156
   5 C :   -0.154608
   6 C :    0.086399
   7 C :    0.524947
   8 O :   -0.483574
   9 N :   -0.633092
  10 C :   -0.055601
  11 C :    0.135602
  12 C :   -0.181185
  13 C :   -0.168429
  14 C :    0.293362
  15 O :   -0.548378
  16 C :    1.085295
  17 F :   -0.280130
  18 F :   -0.288326
  19 F :   -0.288662
  20 C :    0.375995
  21 F :   -0.306063
  22 C :   -0.266129
  23 C :    0.201881
  24 N :   -0.413726
  25 C :    0.011025
  26 C :   -0.124116
  27 C :   -0.173090
  28 C :    0.383991
  29 F :   -0.310822
  30 C :   -0.175393
  31 C :   -0.164404
  32 H :    0.430522
  33 H :    0.172890
  34 H :    0.169578
  35 H :    0.326871
  36 H :    0.182967
  37 H :    0.163531
  38 H :    0.162859
  39 H :    0.165289
  40 H :    0.152343
  41 H :    0.144238
  42 H :    0.159519
  43 H :    0.143496
  44 H :    0.160852
Sum of atomic charges:   -0.0000000

LOEWDIN ATOMIC CHARGES
----------------------
   0 O :   -0.265798
   1 C :    0.178836
   2 O :   -0.337774
   3 C :   -0.047457
   4 C :   -0.089344
   5 C :   -0.095356
   6 C :   -0.031276
   7 C :    0.148918
   8 O :   -0.284066
   9 N :   -0.228413
  10 C :   -0.044734
  11 C :   -0.020296
  12 C :   -0.132200
  13 C :   -0.131129
  14 C :    0.064175
  15 O :   -0.157699
  16 C :    0.355031
  17 F :   -0.088327
  18 F :   -0.103066
  19 F :   -0.103296
  20 C :    0.095026
  21 F :   -0.089454
  22 C :   -0.143812
  23 C :    0.010022
  24 N :   -0.131623
  25 C :   -0.074106
  26 C :   -0.137297
  27 C :   -0.126881
  28 C :    0.107964
  29 F :   -0.099047
  30 C :   -0.123438
  31 C :   -0.104198
  32 H :    0.347243
  33 H :    0.156219
  34 H :    0.155090
  35 H :    0.252307
  36 H :    0.149768
  37 H :    0.148400
  38 H :    0.152448
  39 H :    0.154189
  40 H :    0.137034
  41 H :    0.140792
  42 H :    0.150248
  43 H :    0.138108
  44 H :    0.148270

  Mayer bond orders larger than 0.100000
B(  0-O ,  1-C ) :   1.8608 B(  1-C ,  2-O ) :   1.0198 B(  1-C ,  3-C ) :   1.0110
B(  2-O , 32-H ) :   0.7440 B(  3-C ,  4-C ) :   1.3914 B(  3-C , 31-C ) :   1.3885
B(  4-C ,  5-C ) :   1.4139 B(  4-C , 33-H ) :   0.9121 B(  5-C ,  6-C ) :   1.3913
B(  5-C , 34-H ) :   0.9130 B(  6-C ,  7-C ) :   0.9865 B(  6-C , 30-C ) :   1.3956
B(  7-C ,  8-O ) :   1.7954 B(  7-C ,  9-N ) :   1.0394 B(  9-N , 10-C ) :   0.9102
B(  9-N , 35-H ) :   0.8163 B( 10-C , 11-C ) :   0.9622 B( 10-C , 23-C ) :   0.9189
B( 10-C , 36-H ) :   0.9073 B( 11-C , 12-C ) :   1.4138 B( 11-C , 22-C ) :   1.4127
B( 12-C , 13-C ) :   1.4395 B( 12-C , 37-H ) :   0.9087 B( 13-C , 14-C ) :   1.4050
B( 13-C , 38-H ) :   0.9163 B( 14-C , 15-O ) :   0.8267 B( 14-C , 20-C ) :   1.3091
B( 15-O , 16-C ) :   0.9718 B( 16-C , 17-F ) :   1.0051 B( 16-C , 18-F ) :   0.9814
B( 16-C , 19-F ) :   0.9808 B( 20-C , 21-F ) :   0.9025 B( 20-C , 22-C ) :   1.3801
B( 22-C , 39-H ) :   0.9092 B( 23-C , 24-N ) :   1.3717 B( 23-C , 28-C ) :   1.3271
B( 24-N , 25-C ) :   1.4263 B( 25-C , 26-C ) :   1.4235 B( 25-C , 40-H ) :   0.9289
B( 26-C , 27-C ) :   1.4371 B( 26-C , 41-H ) :   0.9239 B( 27-C , 28-C ) :   1.3954
B( 27-C , 42-H ) :   0.9170 B( 28-C , 29-F ) :   0.9277 B( 30-C , 31-C ) :   1.4130
B( 30-C , 43-H ) :   0.9175 B( 31-C , 44-H ) :   0.9169

FINAL SINGLE POINT ENERGY     -1716.757991026532

DIPOLE MOMENT
-------------

Method             : SCF
Type of density    : Electron Density
Multiplicity       :   1
Irrep              :   0
Energy             : -1716.7579910265319540 Eh
Relativity type    :
Basis              : AO
                                X                 Y                 Z
Electronic contribution:    -43.717642029     -14.727493006     -10.572720607
Nuclear contribution   :     43.358515509      15.159186186      12.118959186
                        -----------------------------------------
Total Dipole Moment    :     -0.359126520       0.431693180       1.546238579
                        -----------------------------------------
Magnitude (a.u.)       :      1.645048511
Magnitude (Debye)      :      4.181381015

Rotational constants in cm-1:             0.006259             0.001811             0.001546
Rotational constants in MHz :           187.640085            54.285547            46.353562

                             ****ORCA TERMINATED NORMALLY****
TOTAL RUN TIME: 0 days 0 hours 5 minutes 35 seconds 531 msec
