                         Program Version 6.0.0  -   RELEASE  -
|  1> ! B3LYP 6-31G* SP
|  2>
|  3> * xyz 0 1
|  4> C 3.3867 0.2650 2.7307
|  5> O 4.2375 0.1732 1.5995
|  6> C 3.8874 -0.8340 0.6378
|  7> C 5.1364 -0.9030 -0.2692
|  8> C 2.7051 -0.3568 -0.2427
|  9> C 2.2690 -1.1178 -1.3488
| 10> C 1.1865 -0.7088 -2.1295
| 11> C 0.5348 0.4991 -1.8601
| 12> C -0.6772 0.9114 -2.6509
| 13> N -1.8623 0.9392 -1.7877
| 14> C -2.3142 2.1876 -1.2449
| 15> N -2.7815 3.1328 -2.1023
| 16> C -3.2672 4.3245 -1.6800
| 17> C -3.3149 4.6196 -0.3159
| 18> C -3.8384 5.8442 0.1259
| 19> C -3.8902 6.1346 1.4893
| 20> C -3.4210 5.2084 2.4202
| 21> C -2.8951 3.9859 1.9946
| 22> C -2.8319 3.6698 0.6186
| 23> C -2.3061 2.4376 0.1489
| 24> C -1.7324 1.4248 1.1131
| 25> S -2.9417 -0.4252 -1.7560
| 26> O -4.1861 -0.0693 -0.9896
| 27> O -3.3438 -0.7803 -3.1605
| 28> C -2.1687 -1.8095 -0.9867
| 29> C -2.3049 -2.0206 0.3915
| 30> C -1.6681 -3.1022 1.0070
| 31> C -0.8933 -3.9978 0.2490
| 32> C -0.2118 -5.1399 0.8965
| 33> O -0.2708 -5.2935 2.1467
| 34> O 0.5045 -6.0557 0.1306
| 35> C -0.7761 -3.7922 -1.1369
| 36> C -1.4137 -2.7084 -1.7492
| 37> C 1.0398 1.3316 -0.8557
| 38> C 2.1163 0.9181 -0.0675
| 39> C 3.6403 -2.2386 1.3571
| 40> F 4.6459 -2.4033 2.2982
| 41> F 2.4334 -2.2030 2.0373
| 42> C 3.6065 -3.5458 0.5239
| 43> F 4.6483 -3.6363 -0.3765
| 44> F 3.7129 -4.6212 1.3890
| 45> F 2.4021 -3.6851 -0.1371
| 46> H 2.3116 0.1329 2.4873
| 47> H 3.4946 1.2799 3.1655
| 48> H 3.6996 -0.4561 3.5139
| 49> H 4.9722 -1.4739 -1.2039
| 50> H 5.4324 0.1227 -0.5811
| 51> H 5.9939 -1.3475 0.2801
| 52> H 2.7881 -2.0112 -1.6522
| 53> H 0.8686 -1.3328 -2.9550
| 54> H -0.8464 0.2120 -3.4981
| 55> H -0.4991 1.9123 -3.1021
| 56> H -3.6251 5.0365 -2.4136
| 57> H -4.2093 6.5745 -0.5836
| 58> H -4.2974 7.0794 1.8248
| 59> H -3.4656 5.4376 3.4772
| 60> H -2.5490 3.2966 2.7525
| 61> H -0.9402 1.8995 1.7283
| 62> H -2.5349 1.0393 1.7746
| 63> H -1.2603 0.5655 0.6014
| 64> H -2.9017 -1.3482 0.9939
| 65> H -1.7843 -3.2367 2.0756
| 66> H 0.9898 -6.8308 0.5652
| 67> H -0.1878 -4.4649 -1.7481
| 68> H -1.3100 -2.5660 -2.8171
| 69> H 0.5948 2.3022 -0.6759
| 70> H 2.4833 1.6180 0.6684
| 71> *
| 72>
| 73>                          ****END OF INPUT****

CARTESIAN COORDINATES (ANGSTROEM)
---------------------------------
  C      3.386700    0.265000    2.730700
  O      4.237500    0.173200    1.599500
  C      3.887400   -0.834000    0.637800
  C      5.136400   -0.903000   -0.269200
  C      2.705100   -0.356800   -0.242700
  C      2.269000   -1.117800   -1.348800
  C      1.186500   -0.708800   -2.129500
  C      0.534800    0.499100   -1.860100
  C     -0.677200    0.911400   -2.650900
  N     -1.862300    0.939200   -1.787700
  C     -2.314200    2.187600   -1.244900
  N     -2.781500    3.132800   -2.102300
  C     -3.267200    4.324500   -1.680000
  C     -3.314900    4.619600   -0.315900
  C     -3.838400    5.844200    0.125900
  C     -3.890200    6.134600    1.489300
  C     -3.421000    5.208400    2.420200
  C     -2.895100    3.985900    1.994600
  C     -2.831900    3.669800    0.618600
  C     -2.306100    2.437600    0.148900
  C     -1.732400    1.424800    1.113100
  S     -2.941700   -0.425200   -1.756000
  O     -4.186100   -0.069300   -0.989600
  O     -3.343800   -0.780300   -3.160500
  C     -2.168700   -1.809500   -0.986700
  C     -2.304900   -2.020600    0.391500
  C     -1.668100   -3.102200    1.007000
  C     -0.893300   -3.997800    0.249000
  C     -0.211800   -5.139900    0.896500
  O     -0.270800   -5.293500    2.146700
  O      0.504500   -6.055700    0.130600
  C     -0.776100   -3.792200   -1.136900
  C     -1.413700   -2.708400   -1.749200
  C      1.039800    1.331600   -0.855700
  C      2.116300    0.918100   -0.067500
  C      3.640300   -2.238600    1.357100
  F      4.645900   -2.403300    2.298200
  F      2.433400   -2.203000    2.037300
  C      3.606500   -3.545800    0.523900
  F      4.648300   -3.636300   -0.376500
  F      3.712900   -4.621200    1.389000
  F      2.402100   -3.685100   -0.137100
  H      2.311600    0.132900    2.487300
  H      3.494600    1.279900    3.165500
  H      3.699600   -0.456100    3.513900
  H      4.972200   -1.473900   -1.203900
  H      5.432400    0.122700   -0.581100
  H      5.993900   -1.347500    0.280100
  H      2.788100   -2.011200   -1.652200
  H      0.868600   -1.332800   -2.955000
  H     -0.846400    0.212000   -3.498100
  H     -0.499100    1.912300   -3.102100
  H     -3.625100    5.036500   -2.413600
  H     -4.209300    6.574500   -0.583600
  H     -4.297400    7.079400    1.824800
  H     -3.465600    5.437600    3.477200
  H     -2.549000    3.296600    2.752500
  H     -0.940200    1.899500    1.728300
  H     -2.534900    1.039300    1.774600
  H     -1.260300    0.565500    0.601400
  H     -2.901700   -1.348200    0.993900
  H     -1.784300   -3.236700    2.075600
  H      0.989800   -6.830800    0.565200
  H     -0.187800   -4.464900   -1.748100
  H     -1.310000   -2.566000   -2.817100
  H      0.594800    2.302200   -0.675900
  H      2.483300    1.618000    0.668400

 Total Charge           Charge          ....    0
 Multiplicity           Mult            ....    1
 Number of Electrons    NEL             ....  314
 Basis Dimension        Dim             ....  642

ORBITAL ENERGIES
----------------

  NO   OCC          E(Eh)            E(eV)
   0   2.0000     -89.096294     -2424.4334
   1   2.0000     -24.753335      -673.5725
   2   2.0000     -24.750284      -673.4895
   3   2.0000     -24.738975      -673.1817
   4   2.0000     -24.726794      -672.8503
   5   2.0000     -24.726533      -672.8432
   6   2.0000     -19.193945      -522.2938
   7   2.0000     -19.166420      -521.5448
   8   2.0000     -19.136213      -520.7228
   9   2.0000     -19.125061      -520.4194
  10   2.0000     -19.122786      -520.3575
  11   2.0000     -14.370029      -391.0284
  12   2.0000     -14.329283      -389.9196
  13   2.0000     -10.465870      -284.7908
  14   2.0000     -10.389315      -282.7076
  15   2.0000     -10.333517      -281.1893
  16   2.0000     -10.283723      -279.8343
  17   2.0000     -10.259042      -279.1627
  18   2.0000     -10.242554      -278.7141
  19   2.0000     -10.231252      -278.4065
  20   2.0000     -10.231039      -278.4007
  21   2.0000     -10.226066      -278.2654
  22   2.0000     -10.223733      -278.2019
  23   2.0000     -10.220731      -278.1202
  24   2.0000     -10.219742      -278.0933
  25   2.0000     -10.216722      -278.0111
  26   2.0000     -10.216461      -278.0040
  27   2.0000     -10.210965      -277.8545
  28   2.0000     -10.208918      -277.7988
  29   2.0000     -10.205894      -277.7165
  30   2.0000     -10.199555      -277.5440
  31   2.0000     -10.199121      -277.5322
  32   2.0000     -10.197738      -277.4946
  33   2.0000     -10.197181      -277.4794
  34   2.0000     -10.196192      -277.4525
  35   2.0000     -10.195914      -277.4449
  36   2.0000     -10.195903      -277.4446
  37   2.0000     -10.195181      -277.4250
  38   2.0000     -10.194593      -277.4090
  39   2.0000     -10.192334      -277.3475
  40   2.0000     -10.187593      -277.2185
  41   2.0000     -10.184604      -277.1372
  42   2.0000      -8.132206      -221.2886
  43   2.0000      -6.097268      -165.9151
  44   2.0000      -6.095177      -165.8582
  45   2.0000      -6.094814      -165.8483
  46   2.0000      -1.312340       -35.7106
  47   2.0000      -1.264291       -34.4031
  48   2.0000      -1.238604       -33.7041
  49   2.0000      -1.226426       -33.3727
  50   2.0000      -1.210206       -32.9314
  51   2.0000      -1.081667       -29.4337
  52   2.0000      -1.078779       -29.3551
  53   2.0000      -1.050208       -28.5776
  54   2.0000      -0.993071       -27.0228
  55   2.0000      -0.961072       -26.1521
  56   2.0000      -0.959504       -26.1094
  57   2.0000      -0.912890       -24.8410
  58   2.0000      -0.889676       -24.2093
  59   2.0000      -0.868607       -23.6360
  60   2.0000      -0.862665       -23.4743
  61   2.0000      -0.822513       -22.3817
  62   2.0000      -0.808907       -22.0115
  63   2.0000      -0.805441       -21.9172
  64   2.0000      -0.782599       -21.2956
  65   2.0000      -0.776398       -21.1269
  66   2.0000      -0.773789       -21.0559
  67   2.0000      -0.758792       -20.6478
  68   2.0000      -0.755379       -20.5549
  69   2.0000      -0.741979       -20.1903
  70   2.0000      -0.716839       -19.5062
  71   2.0000      -0.703017       -19.1301
  72   2.0000      -0.686567       -18.6824
  73   2.0000      -0.683363       -18.5952
  74   2.0000      -0.682244       -18.5648
  75   2.0000      -0.654537       -17.8109
  76   2.0000      -0.644056       -17.5257
  77   2.0000      -0.637542       -17.3484
  78   2.0000      -0.636386       -17.3169
  79   2.0000      -0.621340       -16.9075
  80   2.0000      -0.617973       -16.8159
  81   2.0000      -0.607611       -16.5339
  82   2.0000      -0.603089       -16.4109
  83   2.0000      -0.598056       -16.2739
  84   2.0000      -0.596022       -16.2186
  85   2.0000      -0.590412       -16.0659
  86   2.0000      -0.576292       -15.6817
  87   2.0000      -0.559426       -15.2228
  88   2.0000      -0.557387       -15.1673
  89   2.0000      -0.541617       -14.7381
  90   2.0000      -0.538338       -14.6489
  91   2.0000      -0.532941       -14.5021
  92   2.0000      -0.521517       -14.1912
  93   2.0000      -0.511097       -13.9076
  94   2.0000      -0.502075       -13.6621
  95   2.0000      -0.492244       -13.3946
  96   2.0000      -0.487655       -13.2698
  97   2.0000      -0.483077       -13.1452
  98   2.0000      -0.482112       -13.1189
  99   2.0000      -0.477945       -13.0056
 100   2.0000      -0.476593       -12.9688
 101   2.0000      -0.474725       -12.9179
 102   2.0000      -0.473034       -12.8719
 103   2.0000      -0.469238       -12.7686
 104   2.0000      -0.460497       -12.5308
 105   2.0000      -0.458270       -12.4702
 106   2.0000      -0.454121       -12.3573
 107   2.0000      -0.452595       -12.3157
 108   2.0000      -0.450398       -12.2559
 109   2.0000      -0.447971       -12.1899
 110   2.0000      -0.444392       -12.0925
 111   2.0000      -0.443066       -12.0564
 112   2.0000      -0.438651       -11.9363
 113   2.0000      -0.438034       -11.9195
 114   2.0000      -0.434611       -11.8264
 115   2.0000      -0.430363       -11.7108
 116   2.0000      -0.428922       -11.6716
 117   2.0000      -0.426715       -11.6115
 118   2.0000      -0.423628       -11.5275
 119   2.0000      -0.420683       -11.4474
 120   2.0000      -0.419346       -11.4110
 121   2.0000      -0.414318       -11.2742
 122   2.0000      -0.413863       -11.2618
 123   2.0000      -0.406257       -11.0548
 124   2.0000      -0.404348       -11.0029
 125   2.0000      -0.400921       -10.9096
 126   2.0000      -0.396571       -10.7913
 127   2.0000      -0.393097       -10.6967
 128   2.0000      -0.389862       -10.6087
 129   2.0000      -0.384878       -10.4731
 130   2.0000      -0.382720       -10.4143
 131   2.0000      -0.382379       -10.4051
 132   2.0000      -0.381286       -10.3753
 133   2.0000      -0.368577       -10.0295
 134   2.0000      -0.367848       -10.0097
 135   2.0000      -0.364457        -9.9174
 136   2.0000      -0.356378        -9.6975
 137   2.0000      -0.354088        -9.6352
 138   2.0000      -0.350890        -9.5482
 139   2.0000      -0.345656        -9.4058
 140   2.0000      -0.326133        -8.8745
 141   2.0000      -0.322011        -8.7624
 142   2.0000      -0.318558        -8.6684
 143   2.0000      -0.305827        -8.3220
 144   2.0000      -0.294374        -8.0103
 145   2.0000      -0.292669        -7.9639
 146   2.0000      -0.284654        -7.7458
 147   2.0000      -0.280628        -7.6363
 148   2.0000      -0.277355        -7.5472
 149   2.0000      -0.272925        -7.4267
 150   2.0000      -0.271773        -7.3953
 151   2.0000      -0.269541        -7.3346
 152   2.0000      -0.258826        -7.0430
 153   2.0000      -0.255211        -6.9447
 154   2.0000      -0.249416        -6.7869
 155   2.0000      -0.245168        -6.6714
 156   2.0000      -0.219884        -5.9833
 157   0.0000      -0.082517        -2.2454
 158   0.0000      -0.060265        -1.6399
 159   0.0000      -0.033613        -0.9147
 160   0.0000      -0.033041        -0.8991
 161   0.0000      -0.021695        -0.5903

MULLIKEN ATOMIC CHARGES
-----------------------
   0 C :   -0.226290
   1 O :   -0.484857
   2 C :    0.187389
   3 C :   -0.473705
   4 C :    0.113066
   5 C :   -0.180977
   6 C :   -0.183451
   7 C :    0.186128
   8 C :   -0.262902
   9 N :   -0.606056
  10 C :    0.326171
  11 N :   -0.381894
  12 C :   -0.051291
  13 C :    0.136867
  14 C :   -0.202070
  15 C :   -0.126734
  16 C :   -0.120158
  17 C :   -0.198359
  18 C :    0.122634
  19 C :    0.110444
  20 C :   -0.550982
  21 S :    1.206303
  22 O :   -0.546350
  23 O :   -0.531503
  24 C :   -0.121449
  25 C :   -0.146837
  26 C :   -0.139274
  27 C :    0.086897
  28 C :    0.531058
  29 O :   -0.444782
  30 O :   -0.625498
  31 C :   -0.142155
  32 C :   -0.145486
  33 C :   -0.171119
  34 C :   -0.180492
  35 C :    0.605619
  36 F :   -0.314977
  37 F :   -0.317302
  38 C :    0.892474
  39 F :   -0.285404
  40 F :   -0.294847
  41 F :   -0.283305
  42 H :    0.152671
  43 H :    0.149902
  44 H :    0.156103
  45 H :    0.159809
  46 H :    0.173243
  47 H :    0.163329
  48 H :    0.134441
  49 H :    0.127783
  50 H :    0.179908
  51 H :    0.192567
  52 H :    0.154156
  53 H :    0.139903
  54 H :    0.136089
  55 H :    0.137285
  56 H :    0.137266
  57 H :    0.154372
  58 H :    0.169408
  59 H :    0.177948
  60 H :    0.186021
  61 H :    0.180022
  62 H :    0.434460
  63 H :    0.170970
  64 H :    0.177417
  65 H :    0.139598
  66 H :    0.150785
Sum of atomic charges:    0.0000000

LOEWDIN ATOMIC CHARGES
----------------------
   0 C :   -0.226853
   1 O :   -0.212739
   2 C :    0.063016
   3 C :   -0.356782
   4 C :   -0.028724
   5 C :   -0.134564
   6 C :   -0.133789
   7 C :   -0.032438
   8 C :   -0.147885
   9 N :   -0.278668
  10 C :    0.031593
  11 N :   -0.124759
  12 C :   -0.056548
  13 C :   -0.028613
  14 C :   -0.110596
  15 C :   -0.126722
  16 C :   -0.117122
  17 C :   -0.124136
  18 C :   -0.005653
  19 C :   -0.010353
  20 C :   -0.363491
  21 S :    1.264987
  22 O :   -0.570129
  23 O :   -0.566202
  24 C :   -0.173809
  25 C :   -0.102059
  26 C :   -0.085969
  27 C :   -0.035145
  28 C :    0.179313
  29 O :   -0.259776
  30 O :   -0.333926
  31 C :   -0.098552
  32 C :   -0.102035
  33 C :   -0.128449
  34 C :   -0.125221
  35 C :    0.195636
  36 F :   -0.109374
  37 F :   -0.108810
  38 C :    0.285925
  39 F :   -0.092063
  40 F :   -0.099541
  41 F :   -0.089024
  42 H :    0.117652
  43 H :    0.121684
  44 H :    0.117383
  45 H :    0.131686
  46 H :    0.143656
  47 H :    0.134121
  48 H :    0.131355
  49 H :    0.131183
  50 H :    0.141501
  51 H :    0.152706
  52 H :    0.138079
  53 H :    0.137524
  54 H :    0.135546
  55 H :    0.136362
  56 H :    0.138114
  57 H :    0.132452
  58 H :    0.138917
  59 H :    0.142107
  60 H :    0.159758
  61 H :    0.160340
  62 H :    0.349886
  63 H :    0.153846
  64 H :    0.154080
  65 H :    0.137477
  66 H :    0.142635

  Mayer bond orders larger than 0.100000
B(  0-C ,  1-O ) :   0.9151 B(  0-C , 42-H ) :   0.9214 B(  0-C , 43-H ) :   0.9458
B(  0-C , 44-H ) :   0.9301 B(  1-O ,  2-C ) :   0.9032 B(  2-C ,  3-C ) :   0.9867
B(  2-C ,  4-C ) :   0.9122 B(  2-C , 35-C ) :   0.8977 B(  3-C , 45-H ) :   0.9268
B(  3-C , 46-H ) :   0.9333 B(  3-C , 47-H ) :   0.9333 B(  4-C ,  5-C ) :   1.4032
B(  4-C , 34-C ) :   1.4160 B(  5-C ,  6-C ) :   1.4299 B(  5-C , 48-H ) :   0.9104
B(  6-C ,  7-C ) :   1.4403 B(  6-C , 49-H ) :   0.9194 B(  7-C ,  8-C ) :   0.9357
B(  7-C , 33-C ) :   1.4216 B(  8-C ,  9-N ) :   0.9187 B(  8-C , 50-H ) :   0.9168
B(  8-C , 51-H ) :   0.9138 B(  9-N , 10-C ) :   0.8886 B(  9-N , 21-S ) :   0.8042
B( 10-C , 11-N ) :   1.2916 B( 10-C , 19-C ) :   1.4293 B( 11-N , 12-C ) :   1.4965
B( 12-C , 13-C ) :   1.2361 B( 12-C , 52-H ) :   0.9261 B( 13-C , 14-C ) :   1.2845
B( 13-C , 18-C ) :   1.2919 B( 14-C , 15-C ) :   1.5118 B( 14-C , 17-C ) :   0.1058
B( 14-C , 53-H ) :   0.9230 B( 15-C , 16-C ) :   1.3540 B( 15-C , 54-H ) :   0.9292
B( 16-C , 17-C ) :   1.5081 B( 16-C , 55-H ) :   0.9291 B( 17-C , 18-C ) :   1.2947
B( 17-C , 56-H ) :   0.9167 B( 18-C , 19-C ) :   1.2664 B( 19-C , 20-C ) :   0.9993
B( 20-C , 57-H ) :   0.9285 B( 20-C , 58-H ) :   0.9216 B( 20-C , 59-H ) :   0.9193
B( 21-S , 22-O ) :   1.6231 B( 21-S , 23-O ) :   1.6532 B( 21-S , 24-C ) :   0.8118
B( 24-C , 25-C ) :   1.3854 B( 24-C , 32-C ) :   1.3934 B( 25-C , 26-C ) :   1.4191
B( 25-C , 60-H ) :   0.9062 B( 26-C , 27-C ) :   1.4018 B( 26-C , 61-H ) :   0.9093
B( 27-C , 28-C ) :   1.0065 B( 27-C , 31-C ) :   1.3896 B( 28-C , 29-O ) :   1.8628
B( 28-C , 30-O ) :   1.0198 B( 30-O , 62-H ) :   0.7415 B( 31-C , 32-C ) :   1.4118
B( 31-C , 63-H ) :   0.9144 B( 32-C , 64-H ) :   0.9100 B( 33-C , 34-C ) :   1.4268
B( 33-C , 65-H ) :   0.9181 B( 34-C , 66-H ) :   0.9149 B( 35-C , 36-F ) :   0.8900
B( 35-C , 37-F ) :   0.8847 B( 35-C , 38-C ) :   0.8841 B( 38-C , 39-F ) :   0.9557
B( 38-C , 40-F ) :   0.9652 B( 38-C , 41-F ) :   0.9464

FINAL SINGLE POINT ENERGY     -2501.824392882700

DIPOLE MOMENT
-------------

Method             : SCF
Type of density    : Electron Density
Multiplicity       :   1
Irrep              :   0
Energy             : -2501.8243928826996125 Eh
Relativity type    :
Basis              : AO
                                X                 Y                 Z
Electronic contribution:     15.472273096     -36.606241927       0.509681926
Nuclear contribution   :    -13.771933590      37.473956848       0.251794452
                        -----------------------------------------
Total Dipole Moment    :      1.700339506       0.867714922       0.761476377
                        -----------------------------------------
Magnitude (a.u.)       :      2.055220157
Magnitude (Debye)      :      5.223954485

Rotational constants in cm-1:             0.004216             0.001728             0.001478
Rotational constants in MHz :           126.398645            51.790277            44.309588

                             ****ORCA TERMINATED NORMALLY****
TOTAL RUN TIME: 0 days 0 hours 16 minutes 51 seconds 763 msec
