                         Program Version 6.0.0  -   RELEASE  -
|  1> ! B3LYP 6-31G* SP
|  2>
|  3> * xyz 0 1
|  4> C -0.5641 -1.3933 1.7711
|  5> C -1.1497 -1.6326 0.3971
|  6> C -1.5843 -0.5490 -0.4046
|  7> N -1.5034 0.8029 0.0640
|  8> C -0.5236 1.7191 -0.5203
|  9> C 0.8692 1.2364 -0.2220
| 10> C 1.4800 1.5546 0.9973
| 11> C 2.7261 1.0146 1.3268
| 12> C 3.3819 0.1247 0.4494
| 13> C 4.7521 -0.4812 0.7851
| 14> O 5.0317 -0.3028 2.1597
| 15> C 4.6501 -2.0268 0.5532
| 16> C 5.7822 -2.8543 1.1600
| 17> C 5.6296 -2.7823 -0.3473
| 18> C 5.8353 0.2410 -0.0800
| 19> F 7.1070 -0.1462 0.3044
| 20> F 5.6667 -0.0300 -1.4272
| 21> F 5.7406 1.6129 0.0908
| 22> C 2.7613 -0.1747 -0.7820
| 23> C 1.5183 0.3680 -1.1087
| 24> S -2.7179 1.4087 1.1451
| 25> O -3.6478 0.2999 1.5536
| 26> O -2.0551 1.9571 2.3781
| 27> C -3.6454 2.6617 0.3288
| 28> C -4.4405 2.3283 -0.7741
| 29> C -5.1702 3.3169 -1.4416
| 30> C -5.1104 4.6560 -1.0149
| 31> C -5.8791 5.7080 -1.7159
| 32> O -6.6104 5.4171 -2.7019
| 33> O -5.8008 7.0327 -1.2928
| 34> C -4.3058 4.9841 0.0901
| 35> C -3.5772 3.9944 0.7554
| 36> N -2.0506 -0.7734 -1.6612
| 37> C -2.1424 -2.0169 -2.1916
| 38> C -1.7441 -3.1300 -1.4469
| 39> C -1.8396 -4.4193 -1.9943
| 40> C -1.4415 -5.5293 -1.2482
| 41> C -0.9411 -5.3620 0.0430
| 42> C -0.8354 -4.0836 0.5982
| 43> C -1.2408 -2.9457 -0.1342
| 44> H -1.1806 -1.9116 2.5359
| 45> H -0.5288 -0.3241 2.0481
| 46> H 0.4773 -1.7770 1.8052
| 47> H -0.6591 2.7442 -0.1124
| 48> H -0.6860 1.7847 -1.6178
| 49> H 0.9830 2.2087 1.7027
| 50> H 3.1588 1.2885 2.2783
| 51> H 5.3714 0.6170 2.3103
| 52> H 3.6648 -2.5175 0.7173
| 53> H 5.4669 -3.8264 1.5944
| 54> H 6.6617 -2.2974 1.5464
| 55> H 5.2251 -3.7187 -0.7838
| 56> H 6.4731 -2.2487 -0.8261
| 57> H 3.2322 -0.8471 -1.4876
| 58> H 1.0513 0.0934 -2.0468
| 59> H -4.4916 1.3028 -1.1188
| 60> H -5.7767 3.0328 -2.2923
| 61> H -6.3195 7.7635 -1.7663
| 62> H -4.2361 6.0057 0.4409
| 63> H -2.9598 4.2717 1.5999
| 64> H -2.5246 -2.1324 -3.1984
| 65> H -2.2214 -4.5678 -2.9978
| 66> H -1.5175 -6.5208 -1.6741
| 67> H -0.6332 -6.2272 0.6173
| 68> H -0.4417 -4.0021 1.6021
| 69> *
| 70>
| 71>                          ****END OF INPUT****

CARTESIAN COORDINATES (ANGSTROEM)
---------------------------------
  C     -0.564100   -1.393300    1.771100
  C     -1.149700   -1.632600    0.397100
  C     -1.584300   -0.549000   -0.404600
  N     -1.503400    0.802900    0.064000
  C     -0.523600    1.719100   -0.520300
  C      0.869200    1.236400   -0.222000
  C      1.480000    1.554600    0.997300
  C      2.726100    1.014600    1.326800
  C      3.381900    0.124700    0.449400
  C      4.752100   -0.481200    0.785100
  O      5.031700   -0.302800    2.159700
  C      4.650100   -2.026800    0.553200
  C      5.782200   -2.854300    1.160000
  C      5.629600   -2.782300   -0.347300
  C      5.835300    0.241000   -0.080000
  F      7.107000   -0.146200    0.304400
  F      5.666700   -0.030000   -1.427200
  F      5.740600    1.612900    0.090800
  C      2.761300   -0.174700   -0.782000
  C      1.518300    0.368000   -1.108700
  S     -2.717900    1.408700    1.145100
  O     -3.647800    0.299900    1.553600
  O     -2.055100    1.957100    2.378100
  C     -3.645400    2.661700    0.328800
  C     -4.440500    2.328300   -0.774100
  C     -5.170200    3.316900   -1.441600
  C     -5.110400    4.656000   -1.014900
  C     -5.879100    5.708000   -1.715900
  O     -6.610400    5.417100   -2.701900
  O     -5.800800    7.032700   -1.292800
  C     -4.305800    4.984100    0.090100
  C     -3.577200    3.994400    0.755400
  N     -2.050600   -0.773400   -1.661200
  C     -2.142400   -2.016900   -2.191600
  C     -1.744100   -3.130000   -1.446900
  C     -1.839600   -4.419300   -1.994300
  C     -1.441500   -5.529300   -1.248200
  C     -0.941100   -5.362000    0.043000
  C     -0.835400   -4.083600    0.598200
  C     -1.240800   -2.945700   -0.134200
  H     -1.180600   -1.911600    2.535900
  H     -0.528800   -0.324100    2.048100
  H      0.477300   -1.777000    1.805200
  H     -0.659100    2.744200   -0.112400
  H     -0.686000    1.784700   -1.617800
  H      0.983000    2.208700    1.702700
  H      3.158800    1.288500    2.278300
  H      5.371400    0.617000    2.310300
  H      3.664800   -2.517500    0.717300
  H      5.466900   -3.826400    1.594400
  H      6.661700   -2.297400    1.546400
  H      5.225100   -3.718700   -0.783800
  H      6.473100   -2.248700   -0.826100
  H      3.232200   -0.847100   -1.487600
  H      1.051300    0.093400   -2.046800
  H     -4.491600    1.302800   -1.118800
  H     -5.776700    3.032800   -2.292300
  H     -6.319500    7.763500   -1.766300
  H     -4.236100    6.005700    0.440900
  H     -2.959800    4.271700    1.599900
  H     -2.524600   -2.132400   -3.198400
  H     -2.221400   -4.567800   -2.997800
  H     -1.517500   -6.520800   -1.674100
  H     -0.633200   -6.227200    0.617300
  H     -0.441700   -4.002100    1.602100

 Total Charge           Charge          ....    0
 Multiplicity           Mult            ....    1
 Number of Electrons    NEL             ....  296
 Basis Dimension        Dim             ....  614

ORBITAL ENERGIES
----------------

  NO   OCC          E(Eh)            E(eV)
   0   2.0000     -89.095802     -2424.4200
   1   2.0000     -24.731167      -672.9693
   2   2.0000     -24.730358      -672.9472
   3   2.0000     -24.728159      -672.8874
   4   2.0000     -19.194859      -522.3187
   5   2.0000     -19.160312      -521.3786
   6   2.0000     -19.136452      -520.7293
   7   2.0000     -19.125647      -520.4353
   8   2.0000     -19.124500      -520.4041
   9   2.0000     -14.368095      -390.9757
  10   2.0000     -14.331790      -389.9878
  11   2.0000     -10.440259      -284.0939
  12   2.0000     -10.333882      -281.1992
  13   2.0000     -10.275600      -279.6133
  14   2.0000     -10.255773      -279.0738
  15   2.0000     -10.239910      -278.6421
  16   2.0000     -10.230735      -278.3925
  17   2.0000     -10.229835      -278.3680
  18   2.0000     -10.223964      -278.2082
  19   2.0000     -10.217572      -278.0343
  20   2.0000     -10.217513      -278.0327
  21   2.0000     -10.215020      -277.9648
  22   2.0000     -10.214974      -277.9636
  23   2.0000     -10.206908      -277.7441
  24   2.0000     -10.204010      -277.6652
  25   2.0000     -10.202241      -277.6171
  26   2.0000     -10.199486      -277.5421
  27   2.0000     -10.198004      -277.5018
  28   2.0000     -10.197099      -277.4772
  29   2.0000     -10.196845      -277.4702
  30   2.0000     -10.195339      -277.4293
  31   2.0000     -10.194546      -277.4077
  32   2.0000     -10.192918      -277.3634
  33   2.0000     -10.186898      -277.1996
  34   2.0000     -10.186740      -277.1953
  35   2.0000     -10.185878      -277.1718
  36   2.0000     -10.185331      -277.1570
  37   2.0000     -10.184022      -277.1213
  38   2.0000     -10.178496      -276.9710
  39   2.0000     -10.169610      -276.7291
  40   2.0000      -8.131571      -221.2713
  41   2.0000      -6.096571      -165.8961
  42   2.0000      -6.094595      -165.8424
  43   2.0000      -6.094240      -165.8327
  44   2.0000      -1.290005       -35.1028
  45   2.0000      -1.215380       -33.0722
  46   2.0000      -1.213536       -33.0220
  47   2.0000      -1.082452       -29.4550
  48   2.0000      -1.079131       -29.3646
  49   2.0000      -1.042049       -28.3556
  50   2.0000      -0.993251       -27.0277
  51   2.0000      -0.962548       -26.1922
  52   2.0000      -0.959730       -26.1156
  53   2.0000      -0.912882       -24.8408
  54   2.0000      -0.887895       -24.1609
  55   2.0000      -0.863982       -23.5101
  56   2.0000      -0.860315       -23.4104
  57   2.0000      -0.850463       -23.1423
  58   2.0000      -0.807361       -21.9694
  59   2.0000      -0.802906       -21.8482
  60   2.0000      -0.788867       -21.4662
  61   2.0000      -0.774067       -21.0634
  62   2.0000      -0.773937       -21.0599
  63   2.0000      -0.750235       -20.4149
  64   2.0000      -0.746047       -20.3010
  65   2.0000      -0.738509       -20.0959
  66   2.0000      -0.711746       -19.3676
  67   2.0000      -0.698461       -19.0061
  68   2.0000      -0.685055       -18.6413
  69   2.0000      -0.661207       -17.9924
  70   2.0000      -0.651544       -17.7294
  71   2.0000      -0.642357       -17.4794
  72   2.0000      -0.636611       -17.3231
  73   2.0000      -0.616717       -16.7817
  74   2.0000      -0.609692       -16.5906
  75   2.0000      -0.601990       -16.3810
  76   2.0000      -0.595740       -16.2109
  77   2.0000      -0.592954       -16.1351
  78   2.0000      -0.587538       -15.9877
  79   2.0000      -0.584868       -15.9151
  80   2.0000      -0.577603       -15.7174
  81   2.0000      -0.574273       -15.6268
  82   2.0000      -0.558331       -15.1930
  83   2.0000      -0.550759       -14.9869
  84   2.0000      -0.538979       -14.6664
  85   2.0000      -0.532985       -14.5033
  86   2.0000      -0.522632       -14.2216
  87   2.0000      -0.509939       -13.8761
  88   2.0000      -0.500007       -13.6059
  89   2.0000      -0.494304       -13.4507
  90   2.0000      -0.486766       -13.2456
  91   2.0000      -0.483351       -13.1526
  92   2.0000      -0.476543       -12.9674
  93   2.0000      -0.474110       -12.9012
  94   2.0000      -0.468647       -12.7525
  95   2.0000      -0.464509       -12.6399
  96   2.0000      -0.459612       -12.5067
  97   2.0000      -0.458798       -12.4845
  98   2.0000      -0.457529       -12.4500
  99   2.0000      -0.450081       -12.2473
 100   2.0000      -0.446701       -12.1553
 101   2.0000      -0.445555       -12.1242
 102   2.0000      -0.443361       -12.0645
 103   2.0000      -0.440392       -11.9837
 104   2.0000      -0.440070       -11.9749
 105   2.0000      -0.431824       -11.7505
 106   2.0000      -0.428670       -11.6647
 107   2.0000      -0.425144       -11.5687
 108   2.0000      -0.422729       -11.5030
 109   2.0000      -0.421791       -11.4775
 110   2.0000      -0.419925       -11.4268
 111   2.0000      -0.415996       -11.3198
 112   2.0000      -0.411773       -11.2049
 113   2.0000      -0.408514       -11.1162
 114   2.0000      -0.399669       -10.8755
 115   2.0000      -0.396805       -10.7976
 116   2.0000      -0.392089       -10.6693
 117   2.0000      -0.389795       -10.6069
 118   2.0000      -0.386312       -10.5121
 119   2.0000      -0.383664       -10.4400
 120   2.0000      -0.376928       -10.2567
 121   2.0000      -0.369056       -10.0425
 122   2.0000      -0.366116        -9.9625
 123   2.0000      -0.364477        -9.9179
 124   2.0000      -0.363232        -9.8840
 125   2.0000      -0.355385        -9.6705
 126   2.0000      -0.353050        -9.6070
 127   2.0000      -0.348880        -9.4935
 128   2.0000      -0.343186        -9.3386
 129   2.0000      -0.341951        -9.3050
 130   2.0000      -0.324242        -8.8231
 131   2.0000      -0.319461        -8.6930
 132   2.0000      -0.305644        -8.3170
 133   2.0000      -0.300652        -8.1811
 134   2.0000      -0.300185        -8.1685
 135   2.0000      -0.287309        -7.8181
 136   2.0000      -0.285954        -7.7812
 137   2.0000      -0.282184        -7.6786
 138   2.0000      -0.279105        -7.5948
 139   2.0000      -0.277164        -7.5420
 140   2.0000      -0.276178        -7.5152
 141   2.0000      -0.272630        -7.4187
 142   2.0000      -0.265737        -7.2311
 143   2.0000      -0.254957        -6.9377
 144   2.0000      -0.252366        -6.8672
 145   2.0000      -0.250295        -6.8109
 146   2.0000      -0.239436        -6.5154
 147   2.0000      -0.220918        -6.0115
 148   0.0000      -0.081650        -2.2218
 149   0.0000      -0.059578        -1.6212
 150   0.0000      -0.032209        -0.8764
 151   0.0000      -0.027939        -0.7602
 152   0.0000      -0.016508        -0.4492

MULLIKEN ATOMIC CHARGES
-----------------------
   0 C :   -0.545776
   1 C :    0.132455
   2 C :    0.317083
   3 N :   -0.614111
   4 C :   -0.236100
   5 C :    0.162831
   6 C :   -0.170553
   7 C :   -0.172913
   8 C :    0.085523
   9 C :    0.176682
  10 O :   -0.638499
  11 C :   -0.139813
  12 C :   -0.297681
  13 C :   -0.315782
  14 C :    0.907149
  15 F :   -0.301067
  16 F :   -0.295030
  17 F :   -0.305754
  18 C :   -0.166739
  19 C :   -0.174411
  20 S :    1.219174
  21 O :   -0.541091
  22 O :   -0.555818
  23 C :   -0.129782
  24 C :   -0.140011
  25 C :   -0.141613
  26 C :    0.083021
  27 C :    0.528293
  28 O :   -0.445006
  29 O :   -0.624091
  30 C :   -0.146045
  31 C :   -0.150857
  32 N :   -0.406232
  33 C :   -0.058800
  34 C :    0.138997
  35 C :   -0.203777
  36 C :   -0.125781
  37 C :   -0.121643
  38 C :   -0.195998
  39 C :    0.117590
  40 H :    0.171038
  41 H :    0.201820
  42 H :    0.157548
  43 H :    0.168744
  44 H :    0.170910
  45 H :    0.152194
  46 H :    0.126292
  47 H :    0.400751
  48 H :    0.162044
  49 H :    0.146144
  50 H :    0.166326
  51 H :    0.147948
  52 H :    0.165670
  53 H :    0.146164
  54 H :    0.139499
  55 H :    0.191476
  56 H :    0.180879
  57 H :    0.433898
  58 H :    0.172163
  59 H :    0.185379
  60 H :    0.149864
  61 H :    0.137873
  62 H :    0.135687
  63 H :    0.137735
  64 H :    0.143927
Sum of atomic charges:    0.0000000

LOEWDIN ATOMIC CHARGES
----------------------
   0 C :   -0.362024
   1 C :    0.009935
   2 C :    0.027978
   3 N :   -0.280878
   4 C :   -0.145857
   5 C :   -0.030678
   6 C :   -0.122717
   7 C :   -0.127179
   8 C :   -0.030190
   9 C :    0.040364
  10 O :   -0.358174
  11 C :   -0.137067
  12 C :   -0.248661
  13 C :   -0.258541
  14 C :    0.298638
  15 F :   -0.109187
  16 F :   -0.103337
  17 F :   -0.112392
  18 C :   -0.128353
  19 C :   -0.129831
  20 S :    1.261811
  21 O :   -0.568108
  22 O :   -0.581194
  23 C :   -0.175800
  24 C :   -0.097251
  25 C :   -0.085522
  26 C :   -0.039471
  27 C :    0.180339
  28 O :   -0.261287
  29 O :   -0.335200
  30 C :   -0.100236
  31 C :   -0.107774
  32 N :   -0.139861
  33 C :   -0.065063
  34 C :   -0.027300
  35 C :   -0.113201
  36 C :   -0.125543
  37 C :   -0.118312
  38 C :   -0.119130
  39 C :   -0.006058
  40 H :    0.143355
  41 H :    0.153893
  42 H :    0.135314
  43 H :    0.141578
  44 H :    0.132778
  45 H :    0.142285
  46 H :    0.133148
  47 H :    0.316013
  48 H :    0.143797
  49 H :    0.129802
  50 H :    0.139175
  51 H :    0.132667
  52 H :    0.139108
  53 H :    0.139717
  54 H :    0.136619
  55 H :    0.162601
  56 H :    0.160615
  57 H :    0.349699
  58 H :    0.154433
  59 H :    0.160394
  60 H :    0.135634
  61 H :    0.136461
  62 H :    0.135340
  63 H :    0.136486
  64 H :    0.141403

  Mayer bond orders larger than 0.100000
B(  0-C ,  1-C ) :   1.0093 B(  0-C , 40-H ) :   0.9228 B(  0-C , 41-H ) :   0.9132
B(  0-C , 42-H ) :   0.9250 B(  1-C ,  2-C ) :   1.4324 B(  1-C , 33-C ) :   0.1002
B(  1-C , 39-C ) :   1.2623 B(  2-C ,  3-N ) :   0.8909 B(  2-C , 32-N ) :   1.2770
B(  3-N ,  4-C ) :   0.9183 B(  3-N , 20-S ) :   0.8068 B(  4-C ,  5-C ) :   0.9609
B(  4-C , 43-H ) :   0.9201 B(  4-C , 44-H ) :   0.9190 B(  5-C ,  6-C ) :   1.4316
B(  5-C , 19-C ) :   1.4335 B(  6-C ,  7-C ) :   1.4220 B(  6-C , 45-H ) :   0.9168
B(  7-C ,  8-C ) :   1.4166 B(  7-C , 46-H ) :   0.9173 B(  8-C ,  9-C ) :   0.9404
B(  8-C , 18-C ) :   1.4077 B(  9-C , 10-O ) :   0.8959 B(  9-C , 11-C ) :   0.9720
B(  9-C , 14-C ) :   0.9100 B( 10-O , 47-H ) :   0.7666 B( 11-C , 12-C ) :   0.9341
B( 11-C , 13-C ) :   0.9467 B( 11-C , 48-H ) :   0.9274 B( 12-C , 13-C ) :   0.9683
B( 12-C , 49-H ) :   0.9471 B( 12-C , 50-H ) :   0.9363 B( 13-C , 51-H ) :   0.9428
B( 13-C , 52-H ) :   0.9276 B( 14-C , 15-F ) :   0.9409 B( 14-C , 16-F ) :   0.9416
B( 14-C , 17-F ) :   0.9446 B( 18-C , 19-C ) :   1.4219 B( 18-C , 53-H ) :   0.9157
B( 19-C , 54-H ) :   0.9200 B( 20-S , 21-O ) :   1.6530 B( 20-S , 22-O ) :   1.6108
B( 20-S , 23-C ) :   0.8104 B( 23-C , 24-C ) :   1.3783 B( 23-C , 31-C ) :   1.4009
B( 24-C , 25-C ) :   1.4318 B( 24-C , 55-H ) :   0.9053 B( 25-C , 26-C ) :   1.3963
B( 25-C , 56-H ) :   0.9098 B( 26-C , 27-C ) :   1.0085 B( 26-C , 30-C ) :   1.3880
B( 27-C , 28-O ) :   1.8624 B( 27-C , 29-O ) :   1.0241 B( 29-O , 57-H ) :   0.7419
B( 30-C , 31-C ) :   1.4095 B( 30-C , 58-H ) :   0.9150 B( 31-C , 59-H ) :   0.9088
B( 32-N , 33-C ) :   1.4921 B( 33-C , 34-C ) :   1.2423 B( 33-C , 60-H ) :   0.9268
B( 34-C , 35-C ) :   1.2833 B( 34-C , 39-C ) :   1.2911 B( 35-C , 36-C ) :   1.5126
B( 35-C , 38-C ) :   0.1062 B( 35-C , 61-H ) :   0.9235 B( 36-C , 37-C ) :   1.3528
B( 36-C , 62-H ) :   0.9294 B( 37-C , 38-C ) :   1.5070 B( 37-C , 63-H ) :   0.9291
B( 38-C , 39-C ) :   1.2963 B( 38-C , 64-H ) :   0.9150

FINAL SINGLE POINT ENERGY     -2302.203430103567

DIPOLE MOMENT
-------------

Method             : SCF
Type of density    : Electron Density
Multiplicity       :   1
Irrep              :   0
Energy             : -2302.2034301035673707 Eh
Relativity type    :
Basis              : AO
                                X                 Y                 Z
Electronic contribution:      8.401699913      20.306185979      -4.297100533
Nuclear contribution   :     -7.701637033     -20.434292334       3.401113955
                        -----------------------------------------
Total Dipole Moment    :      0.700062880      -0.128106355      -0.895986578
                        -----------------------------------------
Magnitude (a.u.)       :      1.144242641
Magnitude (Debye)      :      2.908433656

Rotational constants in cm-1:             0.003987             0.001478             0.001205
Rotational constants in MHz :           119.512923            44.316295            36.129654

                             ****ORCA TERMINATED NORMALLY****
TOTAL RUN TIME: 0 days 0 hours 14 minutes 24 seconds 810 msec
