                         Program Version 6.0.0  -   RELEASE  -
|  1> ! B3LYP 6-31G* SP
|  2>
|  3> * xyz 0 1
|  4> C 0.2499 2.2674 -2.0610
|  5> C -0.2391 1.3801 -0.9038
|  6> C 0.2670 1.8491 0.4528
|  7> C -0.5871 1.7770 1.5691
|  8> C -0.1271 2.1302 2.8408
|  9> F -0.9594 2.0492 3.9080
| 10> C 1.1918 2.5534 3.0164
| 11> C 2.0530 2.6300 1.9189
| 12> Cl 3.7188 3.1300 2.1452
| 13> C 1.5944 2.2866 0.6430
| 14> N 0.0809 -0.0492 -1.1528
| 15> C 1.4739 -0.4362 -1.1336
| 16> O 2.1019 -0.5070 -2.2256
| 17> C 2.1752 -0.7629 0.1335
| 18> C 1.4581 -1.0058 1.3192
| 19> C 2.1312 -1.2742 2.5142
| 20> C 3.5264 -1.3128 2.5388
| 21> C 4.2508 -1.0855 1.3670
| 22> C 3.5816 -0.8149 0.1696
| 23> C -0.8506 -0.8367 -2.0027
| 24> C -0.4379 -2.2870 -2.1479
| 25> N -0.2812 -3.1357 -1.0094
| 26> O -0.2400 -2.7603 -3.2989
| 27> C -2.2863 -0.7827 -1.5095
| 28> C -3.3368 -0.6698 -2.4386
| 29> C -4.6661 -0.6417 -2.0064
| 30> C -4.9621 -0.7349 -0.6448
| 31> C -3.9295 -0.8618 0.2866
| 32> C -2.5992 -0.8926 -0.1411
| 33> H 0.0575 3.3375 -1.8312
| 34> H -0.3009 2.0120 -2.9907
| 35> H 1.3328 2.1294 -2.2561
| 36> H -1.3415 1.5182 -0.8949
| 37> H -1.6083 1.4355 1.4576
| 38> H 1.5463 2.8148 4.0052
| 39> H 2.2876 2.3279 -0.1857
| 40> H 0.3796 -0.9751 1.3302
| 41> H 1.5696 -1.4496 3.4228
| 42> H 4.0461 -1.5189 3.4655
| 43> H 5.3326 -1.1147 1.3868
| 44> H 4.1652 -0.6288 -0.7232
| 45> H -0.8147 -0.3843 -3.0193
| 46> H -0.4428 -2.7832 -0.0426
| 47> H 0.0035 -4.1323 -1.1349
| 48> H -3.1276 -0.6033 -3.4991
| 49> H -5.4674 -0.5497 -2.7282
| 50> H -5.9917 -0.7122 -0.3118
| 51> H -4.1596 -0.9368 1.3415
| 52> H -1.8186 -0.9877 0.5978
| 53> *
| 54>
| 55>                          ****END OF INPUT****

CARTESIAN COORDINATES (ANGSTROEM)
---------------------------------
  C      0.249900    2.267400   -2.061000
  C     -0.239100    1.380100   -0.903800
  C      0.267000    1.849100    0.452800
  C     -0.587100    1.777000    1.569100
  C     -0.127100    2.130200    2.840800
  F     -0.959400    2.049200    3.908000
  C      1.191800    2.553400    3.016400
  C      2.053000    2.630000    1.918900
  Cl     3.718800    3.130000    2.145200
  C      1.594400    2.286600    0.643000
  N      0.080900   -0.049200   -1.152800
  C      1.473900   -0.436200   -1.133600
  O      2.101900   -0.507000   -2.225600
  C      2.175200   -0.762900    0.133500
  C      1.458100   -1.005800    1.319200
  C      2.131200   -1.274200    2.514200
  C      3.526400   -1.312800    2.538800
  C      4.250800   -1.085500    1.367000
  C      3.581600   -0.814900    0.169600
  C     -0.850600   -0.836700   -2.002700
  C     -0.437900   -2.287000   -2.147900
  N     -0.281200   -3.135700   -1.009400
  O     -0.240000   -2.760300   -3.298900
  C     -2.286300   -0.782700   -1.509500
  C     -3.336800   -0.669800   -2.438600
  C     -4.666100   -0.641700   -2.006400
  C     -4.962100   -0.734900   -0.644800
  C     -3.929500   -0.861800    0.286600
  C     -2.599200   -0.892600   -0.141100
  H      0.057500    3.337500   -1.831200
  H     -0.300900    2.012000   -2.990700
  H      1.332800    2.129400   -2.256100
  H     -1.341500    1.518200   -0.894900
  H     -1.608300    1.435500    1.457600
  H      1.546300    2.814800    4.005200
  H      2.287600    2.327900   -0.185700
  H      0.379600   -0.975100    1.330200
  H      1.569600   -1.449600    3.422800
  H      4.046100   -1.518900    3.465500
  H      5.332600   -1.114700    1.386800
  H      4.165200   -0.628800   -0.723200
  H     -0.814700   -0.384300   -3.019300
  H     -0.442800   -2.783200   -0.042600
  H      0.003500   -4.132300   -1.134900
  H     -3.127600   -0.603300   -3.499100
  H     -5.467400   -0.549700   -2.728200
  H     -5.991700   -0.712200   -0.311800
  H     -4.159600   -0.936800    1.341500
  H     -1.818600   -0.987700    0.597800

 Total Charge           Charge          ....    0
 Multiplicity           Mult            ....    1
 Number of Electrons    NEL             ....  214
 Basis Dimension        Dim             ....  450

ORBITAL ENERGIES
----------------

  NO   OCC          E(Eh)            E(eV)
   0   2.0000    -101.534931     -2762.9059
   1   2.0000     -24.711772      -672.4415
   2   2.0000     -19.131558      -520.5961
   3   2.0000     -19.105698      -519.8925
   4   2.0000     -14.352055      -390.5393
   5   2.0000     -14.342285      -390.2734
   6   2.0000     -10.296997      -280.1955
   7   2.0000     -10.291518      -280.0464
   8   2.0000     -10.284674      -279.8602
   9   2.0000     -10.258439      -279.1463
  10   2.0000     -10.236819      -278.5580
  11   2.0000     -10.236661      -278.5537
  12   2.0000     -10.214495      -277.9506
  13   2.0000     -10.206157      -277.7237
  14   2.0000     -10.205738      -277.7123
  15   2.0000     -10.203293      -277.6457
  16   2.0000     -10.200915      -277.5810
  17   2.0000     -10.200341      -277.5654
  18   2.0000     -10.197734      -277.4944
  19   2.0000     -10.196885      -277.4713
  20   2.0000     -10.195557      -277.4352
  21   2.0000     -10.194389      -277.4034
  22   2.0000     -10.194255      -277.3998
  23   2.0000     -10.194012      -277.3932
  24   2.0000     -10.193305      -277.3739
  25   2.0000     -10.192527      -277.3528
  26   2.0000     -10.192431      -277.3502
  27   2.0000     -10.191848      -277.3343
  28   2.0000     -10.174547      -276.8635
  29   2.0000      -9.466730      -257.6028
  30   2.0000      -7.229852      -196.7343
  31   2.0000      -7.220276      -196.4737
  32   2.0000      -7.220005      -196.4663
  33   2.0000      -1.224898       -33.3312
  34   2.0000      -1.025366       -27.9016
  35   2.0000      -1.004012       -27.3206
  36   2.0000      -0.925298       -25.1786
  37   2.0000      -0.896648       -24.3990
  38   2.0000      -0.875203       -23.8155
  39   2.0000      -0.863327       -23.4923
  40   2.0000      -0.860612       -23.4185
  41   2.0000      -0.845437       -23.0055
  42   2.0000      -0.796189       -21.6654
  43   2.0000      -0.775448       -21.1010
  44   2.0000      -0.763158       -20.7666
  45   2.0000      -0.754157       -20.5217
  46   2.0000      -0.753654       -20.5080
  47   2.0000      -0.745323       -20.2813
  48   2.0000      -0.734411       -19.9844
  49   2.0000      -0.701578       -19.0909
  50   2.0000      -0.655719       -17.8430
  51   2.0000      -0.639360       -17.3979
  52   2.0000      -0.619642       -16.8613
  53   2.0000      -0.616001       -16.7622
  54   2.0000      -0.615214       -16.7408
  55   2.0000      -0.608531       -16.5590
  56   2.0000      -0.592513       -16.1231
  57   2.0000      -0.579020       -15.7559
  58   2.0000      -0.554718       -15.0946
  59   2.0000      -0.537798       -14.6342
  60   2.0000      -0.524049       -14.2601
  61   2.0000      -0.522400       -14.2152
  62   2.0000      -0.514829       -14.0092
  63   2.0000      -0.511171       -13.9097
  64   2.0000      -0.509193       -13.8558
  65   2.0000      -0.492729       -13.4078
  66   2.0000      -0.483782       -13.1644
  67   2.0000      -0.472651       -12.8615
  68   2.0000      -0.467676       -12.7261
  69   2.0000      -0.461449       -12.5567
  70   2.0000      -0.459128       -12.4935
  71   2.0000      -0.452218       -12.3055
  72   2.0000      -0.448290       -12.1986
  73   2.0000      -0.441721       -12.0198
  74   2.0000      -0.434561       -11.8250
  75   2.0000      -0.431074       -11.7301
  76   2.0000      -0.428343       -11.6558
  77   2.0000      -0.426545       -11.6069
  78   2.0000      -0.412542       -11.2258
  79   2.0000      -0.410768       -11.1776
  80   2.0000      -0.406619       -11.0647
  81   2.0000      -0.399528       -10.8717
  82   2.0000      -0.394417       -10.7326
  83   2.0000      -0.389891       -10.6095
  84   2.0000      -0.385834       -10.4991
  85   2.0000      -0.377767       -10.2796
  86   2.0000      -0.376355       -10.2412
  87   2.0000      -0.368614       -10.0305
  88   2.0000      -0.364265        -9.9122
  89   2.0000      -0.357390        -9.7251
  90   2.0000      -0.354815        -9.6550
  91   2.0000      -0.352537        -9.5930
  92   2.0000      -0.350869        -9.5476
  93   2.0000      -0.347635        -9.4596
  94   2.0000      -0.342059        -9.3079
  95   2.0000      -0.330220        -8.9857
  96   2.0000      -0.318061        -8.6549
  97   2.0000      -0.271820        -7.3966
  98   2.0000      -0.265250        -7.2178
  99   2.0000      -0.262082        -7.1316
 100   2.0000      -0.260277        -7.0825
 101   2.0000      -0.258673        -7.0389
 102   2.0000      -0.254546        -6.9265
 103   2.0000      -0.252377        -6.8675
 104   2.0000      -0.245366        -6.6768
 105   2.0000      -0.236556        -6.4370
 106   2.0000      -0.222268        -6.0482
 107   0.0000      -0.064408        -1.7526
 108   0.0000      -0.031065        -0.8453
 109   0.0000      -0.020484        -0.5574
 110   0.0000      -0.016272        -0.4428
 111   0.0000      -0.011197        -0.3047

MULLIKEN ATOMIC CHARGES
-----------------------
   0 C :   -0.449101
   1 C :   -0.060386
   2 C :    0.173916
   3 C :   -0.275582
   4 C :    0.425567
   5 F :   -0.315658
   6 C :   -0.213007
   7 C :   -0.048428
   8 Cl:   -0.005977
   9 C :   -0.182807
  10 N :   -0.480097
  11 C :    0.430842
  12 O :   -0.426443
  13 C :    0.117243
  14 C :   -0.169544
  15 C :   -0.135269
  16 C :   -0.113057
  17 C :   -0.126976
  18 C :   -0.153980
  19 C :   -0.071549
  20 C :    0.558957
  21 N :   -0.766538
  22 O :   -0.464356
  23 C :    0.102442
  24 C :   -0.168998
  25 C :   -0.124903
  26 C :   -0.122693
  27 C :   -0.130787
  28 C :   -0.171924
  29 H :    0.147702
  30 H :    0.153146
  31 H :    0.169081
  32 H :    0.162154
  33 H :    0.150216
  34 H :    0.163133
  35 H :    0.160656
  36 H :    0.143719
  37 H :    0.133727
  38 H :    0.137911
  39 H :    0.140202
  40 H :    0.162526
  41 H :    0.171513
  42 H :    0.332374
  43 H :    0.353609
  44 H :    0.147391
  45 H :    0.137425
  46 H :    0.134026
  47 H :    0.133751
  48 H :    0.134830
Sum of atomic charges:    0.0000000

LOEWDIN ATOMIC CHARGES
----------------------
   0 C :   -0.365486
   1 C :   -0.049184
   2 C :   -0.004918
   3 C :   -0.164189
   4 C :    0.119966
   5 F :   -0.100733
   6 C :   -0.163350
   7 C :   -0.075978
   8 Cl:    0.045905
   9 C :   -0.140941
  10 N :   -0.156861
  11 C :    0.150649
  12 O :   -0.225337
  13 C :   -0.052309
  14 C :   -0.112485
  15 C :   -0.132554
  16 C :   -0.109183
  17 C :   -0.125355
  18 C :   -0.092141
  19 C :   -0.053247
  20 C :    0.145358
  21 N :   -0.398259
  22 O :   -0.273915
  23 C :   -0.024804
  24 C :   -0.123510
  25 C :   -0.122188
  26 C :   -0.125852
  27 C :   -0.128972
  28 C :   -0.139021
  29 H :    0.128846
  30 H :    0.130394
  31 H :    0.134434
  32 H :    0.140247
  33 H :    0.145764
  34 H :    0.154013
  35 H :    0.148441
  36 H :    0.132297
  37 H :    0.133915
  38 H :    0.135857
  39 H :    0.137378
  40 H :    0.150554
  41 H :    0.141094
  42 H :    0.246804
  43 H :    0.267254
  44 H :    0.140472
  45 H :    0.135984
  46 H :    0.134145
  47 H :    0.133583
  48 H :    0.127420

  Mayer bond orders larger than 0.100000
B(  0-C ,  1-C ) :   0.9897 B(  0-C , 29-H ) :   0.9395 B(  0-C , 30-H ) :   0.9421
B(  0-C , 31-H ) :   0.9307 B(  1-C ,  2-C ) :   0.9703 B(  1-C , 10-N ) :   0.9456
B(  1-C , 32-H ) :   0.9097 B(  2-C ,  3-C ) :   1.4017 B(  2-C ,  9-C ) :   1.4130
B(  3-C ,  4-C ) :   1.3738 B(  3-C , 33-H ) :   0.9072 B(  4-C ,  5-F ) :   0.9116
B(  4-C ,  6-C ) :   1.3901 B(  6-C ,  7-C ) :   1.3950 B(  6-C , 34-H ) :   0.9148
B(  7-C ,  8-Cl) :   1.0219 B(  7-C ,  9-C ) :   1.4009 B(  9-C , 35-H ) :   0.9123
B( 10-N , 11-C ) :   0.9490 B( 10-N , 19-C ) :   0.9105 B( 11-C , 12-O ) :   1.8476
B( 11-C , 13-C ) :   1.0025 B( 13-C , 14-C ) :   1.3855 B( 13-C , 18-C ) :   1.3821
B( 14-C , 15-C ) :   1.4373 B( 14-C , 36-H ) :   0.9046 B( 15-C , 16-C ) :   1.4431
B( 15-C , 37-H ) :   0.9294 B( 16-C , 17-C ) :   1.4379 B( 16-C , 38-H ) :   0.9291
B( 17-C , 18-C ) :   1.4355 B( 17-C , 39-H ) :   0.9290 B( 18-C , 40-H ) :   0.9135
B( 19-C , 20-C ) :   0.9358 B( 19-C , 23-C ) :   0.9509 B( 19-C , 41-H ) :   0.9012
B( 20-C , 21-N ) :   1.0723 B( 20-C , 22-O ) :   1.8514 B( 21-N , 42-H ) :   0.8131
B( 21-N , 43-H ) :   0.8227 B( 23-C , 24-C ) :   1.4284 B( 23-C , 28-C ) :   1.4056
B( 24-C , 25-C ) :   1.4331 B( 24-C , 44-H ) :   0.9200 B( 25-C , 26-C ) :   1.4576
B( 25-C , 45-H ) :   0.9283 B( 26-C , 27-C ) :   1.4459 B( 26-C , 46-H ) :   0.9294
B( 27-C , 28-C ) :   1.4420 B( 27-C , 47-H ) :   0.9294 B( 28-C , 48-H ) :   0.9100

FINAL SINGLE POINT ENERGY     -1707.629736266630

DIPOLE MOMENT
-------------

Method             : SCF
Type of density    : Electron Density
Multiplicity       :   1
Irrep              :   0
Energy             : -1707.6297362666302888 Eh
Relativity type    :
Basis              : AO
                                X                 Y                 Z
Electronic contribution:     12.727817931      10.666674002      13.764234297
Nuclear contribution   :    -13.607899537     -10.573444031     -12.036976868
                        -----------------------------------------
Total Dipole Moment    :     -0.880081605       0.093229971       1.727257429
                        -----------------------------------------
Magnitude (a.u.)       :      1.940786873
Magnitude (Debye)      :      4.933088191

Rotational constants in cm-1:             0.007791             0.004144             0.003446
Rotational constants in MHz :           233.564642           124.226183           103.312742

                             ****ORCA TERMINATED NORMALLY****
TOTAL RUN TIME: 0 days 0 hours 9 minutes 34 seconds 731 msec
