                         Program Version 6.0.0  -   RELEASE  -
|  1> ! B3LYP 6-31G* SP
|  2>
|  3> * xyz 0 1
|  4> C -4.6561 -3.1387 0.6175
|  5> N -4.8774 -1.6879 0.4542
|  6> C -3.8514 -0.8174 0.7026
|  7> O -2.7283 -1.2814 1.0404
|  8> C -4.0383 0.5796 0.5583
|  9> C -3.0262 1.5530 0.8686
| 10> C -1.6664 1.2203 1.4646
| 11> C -0.6661 0.7667 0.4330
| 12> O -1.0397 0.5141 -0.7500
| 13> N 0.7086 0.6009 0.8241
| 14> C 1.7802 0.2256 -0.0548
| 15> N 3.0535 0.0963 0.3756
| 16> C 3.9097 -0.2501 -0.6267
| 17> C 5.3643 -0.4410 -0.3803
| 18> C 6.1470 -1.2142 -1.2586
| 19> C 7.5143 -1.3919 -1.0278
| 20> C 8.1293 -0.8192 0.0960
| 21> C 9.6167 -0.9584 0.3090
| 22> F 10.0737 -2.1643 -0.1954
| 23> F 9.9240 -0.9110 1.6573
| 24> F 10.2666 0.0759 -0.3385
| 25> C 7.3573 -0.0330 0.9652
| 26> C 5.9885 0.1471 0.7400
| 27> F 5.2878 0.9258 1.6037
| 28> C 3.3027 -0.3954 -1.8790
| 29> S 1.6602 -0.0793 -1.7060
| 30> C -3.2754 2.9107 0.6100
| 31> C -4.4960 3.3299 0.1070
| 32> C -5.5002 2.4075 -0.1517
| 33> C -5.3008 1.0216 0.0664
| 34> N -6.3006 0.1086 -0.2035
| 35> C -7.6196 0.5640 -0.6976
| 36> C -6.0776 -1.2338 -0.0200
| 37> O -6.9871 -2.0678 -0.2994
| 38> H -4.2214 -3.5560 -0.3165
| 39> H -3.9691 -3.3488 1.4677
| 40> H -5.6027 -3.6745 0.8512
| 41> H -1.7582 0.4709 2.2773
| 42> H -1.2432 2.1165 1.9696
| 43> H 0.9561 0.7794 1.8246
| 44> H 5.7062 -1.6961 -2.1219
| 45> H 8.0915 -1.9783 -1.7314
| 46> H 7.8159 0.4505 1.8192
| 47> H 3.7910 -0.6404 -2.8120
| 48> H -2.5173 3.6600 0.8088
| 49> H -4.6690 4.3836 -0.0781
| 50> H -6.4295 2.8022 -0.5368
| 51> H -7.5029 1.0551 -1.6879
| 52> H -8.3518 -0.2610 -0.8272
| 53> H -8.0727 1.2739 0.0281
| 54> *
| 55>
| 56>                          ****END OF INPUT****

CARTESIAN COORDINATES (ANGSTROEM)
---------------------------------
  C     -4.656100   -3.138700    0.617500
  N     -4.877400   -1.687900    0.454200
  C     -3.851400   -0.817400    0.702600
  O     -2.728300   -1.281400    1.040400
  C     -4.038300    0.579600    0.558300
  C     -3.026200    1.553000    0.868600
  C     -1.666400    1.220300    1.464600
  C     -0.666100    0.766700    0.433000
  O     -1.039700    0.514100   -0.750000
  N      0.708600    0.600900    0.824100
  C      1.780200    0.225600   -0.054800
  N      3.053500    0.096300    0.375600
  C      3.909700   -0.250100   -0.626700
  C      5.364300   -0.441000   -0.380300
  C      6.147000   -1.214200   -1.258600
  C      7.514300   -1.391900   -1.027800
  C      8.129300   -0.819200    0.096000
  C      9.616700   -0.958400    0.309000
  F     10.073700   -2.164300   -0.195400
  F      9.924000   -0.911000    1.657300
  F     10.266600    0.075900   -0.338500
  C      7.357300   -0.033000    0.965200
  C      5.988500    0.147100    0.740000
  F      5.287800    0.925800    1.603700
  C      3.302700   -0.395400   -1.879000
  S      1.660200   -0.079300   -1.706000
  C     -3.275400    2.910700    0.610000
  C     -4.496000    3.329900    0.107000
  C     -5.500200    2.407500   -0.151700
  C     -5.300800    1.021600    0.066400
  N     -6.300600    0.108600   -0.203500
  C     -7.619600    0.564000   -0.697600
  C     -6.077600   -1.233800   -0.020000
  O     -6.987100   -2.067800   -0.299400
  H     -4.221400   -3.556000   -0.316500
  H     -3.969100   -3.348800    1.467700
  H     -5.602700   -3.674500    0.851200
  H     -1.758200    0.470900    2.277300
  H     -1.243200    2.116500    1.969600
  H      0.956100    0.779400    1.824600
  H      5.706200   -1.696100   -2.121900
  H      8.091500   -1.978300   -1.731400
  H      7.815900    0.450500    1.819200
  H      3.791000   -0.640400   -2.812000
  H     -2.517300    3.660000    0.808800
  H     -4.669000    4.383600   -0.078100
  H     -6.429500    2.802200   -0.536800
  H     -7.502900    1.055100   -1.687900
  H     -8.351800   -0.261000   -0.827200
  H     -8.072700    1.273900    0.028100

 Total Charge           Charge          ....    0
 Multiplicity           Mult            ....    1
 Number of Electrons    NEL             ....  252
 Basis Dimension        Dim             ....  512

ORBITAL ENERGIES
----------------

  NO   OCC          E(Eh)            E(eV)
   0   2.0000     -88.900838     -2419.1148
   1   2.0000     -24.717432      -672.5955
   2   2.0000     -24.717265      -672.5910
   3   2.0000     -24.713402      -672.4859
   4   2.0000     -24.698677      -672.0852
   5   2.0000     -19.127994      -520.4992
   6   2.0000     -19.111807      -520.0587
   7   2.0000     -19.109016      -519.9828
   8   2.0000     -14.402644      -391.9159
   9   2.0000     -14.395251      -391.7147
  10   2.0000     -14.392264      -391.6334
  11   2.0000     -14.326263      -389.8374
  12   2.0000     -10.433418      -283.9077
  13   2.0000     -10.325077      -280.9596
  14   2.0000     -10.309842      -280.5451
  15   2.0000     -10.292987      -280.0864
  16   2.0000     -10.286939      -279.9218
  17   2.0000     -10.278913      -279.7034
  18   2.0000     -10.259507      -279.1754
  19   2.0000     -10.234101      -278.4840
  20   2.0000     -10.227439      -278.3028
  21   2.0000     -10.226525      -278.2779
  22   2.0000     -10.217780      -278.0399
  23   2.0000     -10.215153      -277.9684
  24   2.0000     -10.215082      -277.9665
  25   2.0000     -10.213637      -277.9272
  26   2.0000     -10.211367      -277.8654
  27   2.0000     -10.206325      -277.7282
  28   2.0000     -10.205175      -277.6969
  29   2.0000     -10.202753      -277.6310
  30   2.0000     -10.202492      -277.6239
  31   2.0000     -10.202459      -277.6230
  32   2.0000     -10.199963      -277.5551
  33   2.0000     -10.196094      -277.4498
  34   2.0000      -7.976733      -217.0579
  35   2.0000      -5.939829      -161.6310
  36   2.0000      -5.935611      -161.5162
  37   2.0000      -5.933782      -161.4664
  38   2.0000      -1.277002       -34.7490
  39   2.0000      -1.211075       -32.9550
  40   2.0000      -1.202577       -32.7238
  41   2.0000      -1.201148       -32.6849
  42   2.0000      -1.067209       -29.0402
  43   2.0000      -1.026243       -27.9255
  44   2.0000      -1.020251       -27.7624
  45   2.0000      -0.973711       -26.4960
  46   2.0000      -0.969889       -26.3920
  47   2.0000      -0.938445       -25.5364
  48   2.0000      -0.912807       -24.8387
  49   2.0000      -0.873862       -23.7790
  50   2.0000      -0.870164       -23.6784
  51   2.0000      -0.808434       -21.9986
  52   2.0000      -0.800128       -21.7726
  53   2.0000      -0.795702       -21.6521
  54   2.0000      -0.788190       -21.4477
  55   2.0000      -0.757838       -20.6218
  56   2.0000      -0.748855       -20.3774
  57   2.0000      -0.740595       -20.1526
  58   2.0000      -0.725554       -19.7433
  59   2.0000      -0.709762       -19.3136
  60   2.0000      -0.689360       -18.7584
  61   2.0000      -0.657575       -17.8935
  62   2.0000      -0.652858       -17.7652
  63   2.0000      -0.636526       -17.3207
  64   2.0000      -0.630012       -17.1435
  65   2.0000      -0.619307       -16.8522
  66   2.0000      -0.605317       -16.4715
  67   2.0000      -0.581770       -15.8308
  68   2.0000      -0.573773       -15.6132
  69   2.0000      -0.568179       -15.4609
  70   2.0000      -0.566170       -15.4063
  71   2.0000      -0.564089       -15.3496
  72   2.0000      -0.557264       -15.1639
  73   2.0000      -0.548211       -14.9176
  74   2.0000      -0.519086       -14.1250
  75   2.0000      -0.514456       -13.9991
  76   2.0000      -0.504806       -13.7365
  77   2.0000      -0.501663       -13.6509
  78   2.0000      -0.499971       -13.6049
  79   2.0000      -0.488012       -13.2795
  80   2.0000      -0.486333       -13.2338
  81   2.0000      -0.479527       -13.0486
  82   2.0000      -0.474613       -12.9149
  83   2.0000      -0.460810       -12.5393
  84   2.0000      -0.459496       -12.5035
  85   2.0000      -0.456832       -12.4310
  86   2.0000      -0.454920       -12.3790
  87   2.0000      -0.449134       -12.2216
  88   2.0000      -0.445527       -12.1234
  89   2.0000      -0.444193       -12.0871
  90   2.0000      -0.441557       -12.0154
  91   2.0000      -0.434972       -11.8362
  92   2.0000      -0.429179       -11.6786
  93   2.0000      -0.421302       -11.4642
  94   2.0000      -0.417730       -11.3670
  95   2.0000      -0.414764       -11.2863
  96   2.0000      -0.411402       -11.1948
  97   2.0000      -0.407550       -11.0900
  98   2.0000      -0.404483       -11.0066
  99   2.0000      -0.402548       -10.9539
 100   2.0000      -0.398218       -10.8361
 101   2.0000      -0.395947       -10.7743
 102   2.0000      -0.391869       -10.6633
 103   2.0000      -0.389995       -10.6123
 104   2.0000      -0.383825       -10.4444
 105   2.0000      -0.379762       -10.3339
 106   2.0000      -0.377390       -10.2693
 107   2.0000      -0.371867       -10.1190
 108   2.0000      -0.370060       -10.0698
 109   2.0000      -0.366854        -9.9826
 110   2.0000      -0.364250        -9.9117
 111   2.0000      -0.354815        -9.6550
 112   2.0000      -0.343613        -9.3502
 113   2.0000      -0.316139        -8.6026
 114   2.0000      -0.310180        -8.4404
 115   2.0000      -0.292772        -7.9667
 116   2.0000      -0.273245        -7.4354
 117   2.0000      -0.268322        -7.3014
 118   2.0000      -0.264923        -7.2089
 119   2.0000      -0.263910        -7.1813
 120   2.0000      -0.261949        -7.1280
 121   2.0000      -0.260062        -7.0766
 122   2.0000      -0.251500        -6.8437
 123   2.0000      -0.247425        -6.7328
 124   2.0000      -0.231135        -6.2895
 125   2.0000      -0.213013        -5.7964
 126   0.0000      -0.058399        -1.5891
 127   0.0000      -0.044488        -1.2106
 128   0.0000      -0.026314        -0.7160
 129   0.0000      -0.019377        -0.5273
 130   0.0000      -0.010112        -0.2752

MULLIKEN ATOMIC CHARGES
-----------------------
   0 C :   -0.312486
   1 N :   -0.464662
   2 C :    0.513144
   3 O :   -0.502403
   4 C :    0.021458
   5 C :    0.141489
   6 C :   -0.465171
   7 C :    0.607592
   8 O :   -0.453726
   9 N :   -0.648594
  10 C :    0.259156
  11 N :   -0.421902
  12 C :    0.217863
  13 C :    0.040999
  14 C :   -0.170453
  15 C :   -0.172210
  16 C :    0.001595
  17 C :    0.897220
  18 F :   -0.305321
  19 F :   -0.304166
  20 F :   -0.295719
  21 C :   -0.246829
  22 C :    0.373865
  23 F :   -0.298313
  24 C :   -0.400078
  25 S :    0.322891
  26 C :   -0.182654
  27 C :   -0.106080
  28 C :   -0.194939
  29 C :    0.313585
  30 N :   -0.511065
  31 C :   -0.335401
  32 C :    0.672564
  33 O :   -0.511244
  34 H :    0.181762
  35 H :    0.189322
  36 H :    0.194953
  37 H :    0.210580
  38 H :    0.159907
  39 H :    0.355537
  40 H :    0.145177
  41 H :    0.152365
  42 H :    0.163601
  43 H :    0.179639
  44 H :    0.134885
  45 H :    0.143903
  46 H :    0.141326
  47 H :    0.173711
  48 H :    0.223500
  49 H :    0.169827
Sum of atomic charges:    0.0000000

LOEWDIN ATOMIC CHARGES
----------------------
   0 C :   -0.257588
   1 N :   -0.020021
   2 C :    0.118600
   3 O :   -0.288370
   4 C :   -0.064258
   5 C :    0.046156
   6 C :   -0.248220
   7 C :    0.168007
   8 O :   -0.258101
   9 N :   -0.200481
  10 C :   -0.077609
  11 N :   -0.181148
  12 C :   -0.009941
  13 C :   -0.030104
  14 C :   -0.116511
  15 C :   -0.122619
  16 C :   -0.066974
  17 C :    0.311508
  18 F :   -0.113262
  19 F :   -0.112570
  20 F :   -0.113436
  21 C :   -0.139439
  22 C :    0.130896
  23 F :   -0.087485
  24 C :   -0.349804
  25 S :    0.430696
  26 C :   -0.140864
  27 C :   -0.099690
  28 C :   -0.163198
  29 C :    0.053571
  30 N :   -0.027670
  31 C :   -0.264918
  32 C :    0.138022
  33 O :   -0.320567
  34 H :    0.142862
  35 H :    0.149488
  36 H :    0.152443
  37 H :    0.167514
  38 H :    0.136817
  39 H :    0.275482
  40 H :    0.140920
  41 H :    0.144045
  42 H :    0.153704
  43 H :    0.160157
  44 H :    0.135502
  45 H :    0.140254
  46 H :    0.140368
  47 H :    0.135901
  48 H :    0.167755
  49 H :    0.134181

  Mayer bond orders larger than 0.100000
B(  0-C ,  1-N ) :   0.9174 B(  0-C , 34-H ) :   0.9396 B(  0-C , 35-H ) :   0.9266
B(  0-C , 36-H ) :   0.9247 B(  1-N ,  2-C ) :   1.0012 B(  1-N , 32-C ) :   1.0411
B(  2-C ,  3-O ) :   1.7369 B(  2-C ,  4-C ) :   1.0598 B(  4-C ,  5-C ) :   1.3695
B(  4-C , 29-C ) :   1.2874 B(  5-C ,  6-C ) :   0.9901 B(  5-C , 26-C ) :   1.4428
B(  6-C ,  7-C ) :   0.9427 B(  6-C , 37-H ) :   0.8889 B(  6-C , 38-H ) :   0.9151
B(  7-C ,  8-O ) :   1.8319 B(  7-C ,  9-N ) :   1.0105 B(  9-N , 10-C ) :   0.9519
B(  9-N , 39-H ) :   0.8100 B( 10-C , 11-N ) :   1.4811 B( 10-C , 24-C ) :   0.1072
B( 10-C , 25-S ) :   1.1796 B( 11-N , 12-C ) :   1.2910 B( 12-C , 13-C ) :   1.0300
B( 12-C , 24-C ) :   1.5175 B( 13-C , 14-C ) :   1.3985 B( 13-C , 22-C ) :   1.3046
B( 14-C , 15-C ) :   1.4334 B( 14-C , 40-H ) :   0.9202 B( 15-C , 16-C ) :   1.4058
B( 15-C , 41-H ) :   0.9195 B( 16-C , 17-C ) :   0.9807 B( 16-C , 21-C ) :   1.3828
B( 17-C , 18-F ) :   0.9480 B( 17-C , 19-F ) :   0.9489 B( 17-C , 20-F ) :   0.9877
B( 21-C , 22-C ) :   1.3756 B( 21-C , 42-H ) :   0.9097 B( 22-C , 23-F ) :   0.9382
B( 24-C , 25-S ) :   1.1110 B( 24-C , 43-H ) :   0.9036 B( 26-C , 27-C ) :   1.4060
B( 26-C , 44-H ) :   0.9219 B( 27-C , 28-C ) :   1.4726 B( 27-C , 45-H ) :   0.9259
B( 28-C , 29-C ) :   1.3417 B( 28-C , 46-H ) :   0.9145 B( 29-C , 30-N ) :   0.9692
B( 30-N , 31-C ) :   0.9349 B( 30-N , 32-C ) :   1.0446 B( 31-C , 47-H ) :   0.9319
B( 31-C , 48-H ) :   0.9142 B( 31-C , 49-H ) :   0.9319 B( 32-C , 33-O ) :   1.7836

FINAL SINGLE POINT ENERGY     -2089.270964186150

DIPOLE MOMENT
-------------

Method             : SCF
Type of density    : Electron Density
Multiplicity       :   1
Irrep              :   0
Energy             : -2089.2709641861497403 Eh
Relativity type    :
Basis              : AO
                                X                 Y                 Z
Electronic contribution:     69.888231927      -3.313761931       2.550310561
Nuclear contribution   :    -71.684790603       4.737070659      -2.411281305
                        -----------------------------------------
Total Dipole Moment    :     -1.796558676       1.423308728       0.139029257
                        -----------------------------------------
Magnitude (a.u.)       :      2.296249103
Magnitude (Debye)      :      5.836601378

Rotational constants in cm-1:             0.012695             0.001016             0.000988
Rotational constants in MHz :           380.586823            30.461696            29.606757

                             ****ORCA TERMINATED NORMALLY****
TOTAL RUN TIME: 0 days 0 hours 5 minutes 24 seconds 873 msec
