                         Program Version 6.0.0  -   RELEASE  -
|  1> ! B3LYP 6-31G* SP
|  2>
|  3> * xyz 0 1
|  4> C -2.9134 2.2383 0.8165
|  5> C -1.7498 2.7652 0.0051
|  6> C -0.8296 1.8748 -0.5959
|  7> N -0.9065 0.4612 -0.3747
|  8> C -0.4450 -0.0992 0.8984
|  9> C 1.0527 -0.2423 0.8915
| 10> C 1.8652 0.8553 1.2058
| 11> C 3.2550 0.7456 1.1400
| 12> C 3.8568 -0.4565 0.7397
| 13> C 3.0439 -1.5756 0.4404
| 14> C 1.6475 -1.4515 0.5044
| 15> C 3.6370 -2.8695 -0.0664
| 16> C 5.1252 -3.0082 0.2679
| 17> C 5.8765 -1.7283 -0.0974
| 18> C 5.3642 -0.5528 0.7391
| 19> S -1.1580 -0.5818 -1.7400
| 20> O -1.8788 0.1678 -2.8263
| 21> O 0.1701 -1.0426 -2.2726
| 22> C -2.1476 -1.9571 -1.2610
| 23> C -1.5978 -3.2438 -1.1833
| 24> C -2.3894 -4.3244 -0.7805
| 25> C -3.7437 -4.1322 -0.4493
| 26> C -4.5793 -5.2773 -0.0231
| 27> O -5.8009 -5.1115 0.2466
| 28> O -4.0237 -6.5508 0.0856
| 29> C -4.2885 -2.8364 -0.5276
| 30> C -3.4938 -1.7582 -0.9286
| 31> N 0.1629 2.3541 -1.3918
| 32> C 0.3345 3.6776 -1.6251
| 33> C -0.5151 4.6112 -1.0272
| 34> C -0.3260 5.9844 -1.2496
| 35> C -1.1721 6.9157 -0.6470
| 36> C -2.2083 6.4854 0.1821
| 37> C -2.4102 5.1206 0.4097
| 38> C -1.5704 4.1592 -0.1950
| 39> H -2.7931 2.5312 1.8818
| 40> H -3.8651 2.6547 0.4231
| 41> H -3.0098 1.1352 0.7653
| 42> H -0.7533 0.5581 1.7405
| 43> H -0.9282 -1.0831 1.0788
| 44> H 1.4213 1.7992 1.4981
| 45> H 3.8655 1.6025 1.3980
| 46> H 1.0224 -2.2951 0.2386
| 47> H 3.0921 -3.7331 0.3732
| 48> H 3.5062 -2.9078 -1.1696
| 49> H 5.5518 -3.8624 -0.3006
| 50> H 5.2485 -3.2208 1.3528
| 51> H 6.9626 -1.8682 0.0920
| 52> H 5.7413 -1.5084 -1.1793
| 53> H 5.7095 -0.6729 1.7888
| 54> H 5.8042 0.3864 0.3389
| 55> H -0.5575 -3.4142 -1.4308
| 56> H -1.9405 -5.3095 -0.7291
| 57> H -4.5881 -7.3406 0.3766
| 58> H -5.3276 -2.6549 -0.2771
| 59> H -3.9274 -0.7669 -0.9778
| 60> H 1.1447 3.9984 -2.2689
| 61> H 0.4771 6.3367 -1.8867
| 62> H -1.0218 7.9739 -0.8198
| 63> H -2.8578 7.2126 0.6528
| 64> H -3.2205 4.8331 1.0660
| 65> *
| 66>
| 67>                          ****END OF INPUT****

CARTESIAN COORDINATES (ANGSTROEM)
---------------------------------
  C     -2.913400    2.238300    0.816500
  C     -1.749800    2.765200    0.005100
  C     -0.829600    1.874800   -0.595900
  N     -0.906500    0.461200   -0.374700
  C     -0.445000   -0.099200    0.898400
  C      1.052700   -0.242300    0.891500
  C      1.865200    0.855300    1.205800
  C      3.255000    0.745600    1.140000
  C      3.856800   -0.456500    0.739700
  C      3.043900   -1.575600    0.440400
  C      1.647500   -1.451500    0.504400
  C      3.637000   -2.869500   -0.066400
  C      5.125200   -3.008200    0.267900
  C      5.876500   -1.728300   -0.097400
  C      5.364200   -0.552800    0.739100
  S     -1.158000   -0.581800   -1.740000
  O     -1.878800    0.167800   -2.826300
  O      0.170100   -1.042600   -2.272600
  C     -2.147600   -1.957100   -1.261000
  C     -1.597800   -3.243800   -1.183300
  C     -2.389400   -4.324400   -0.780500
  C     -3.743700   -4.132200   -0.449300
  C     -4.579300   -5.277300   -0.023100
  O     -5.800900   -5.111500    0.246600
  O     -4.023700   -6.550800    0.085600
  C     -4.288500   -2.836400   -0.527600
  C     -3.493800   -1.758200   -0.928600
  N      0.162900    2.354100   -1.391800
  C      0.334500    3.677600   -1.625100
  C     -0.515100    4.611200   -1.027200
  C     -0.326000    5.984400   -1.249600
  C     -1.172100    6.915700   -0.647000
  C     -2.208300    6.485400    0.182100
  C     -2.410200    5.120600    0.409700
  C     -1.570400    4.159200   -0.195000
  H     -2.793100    2.531200    1.881800
  H     -3.865100    2.654700    0.423100
  H     -3.009800    1.135200    0.765300
  H     -0.753300    0.558100    1.740500
  H     -0.928200   -1.083100    1.078800
  H      1.421300    1.799200    1.498100
  H      3.865500    1.602500    1.398000
  H      1.022400   -2.295100    0.238600
  H      3.092100   -3.733100    0.373200
  H      3.506200   -2.907800   -1.169600
  H      5.551800   -3.862400   -0.300600
  H      5.248500   -3.220800    1.352800
  H      6.962600   -1.868200    0.092000
  H      5.741300   -1.508400   -1.179300
  H      5.709500   -0.672900    1.788800
  H      5.804200    0.386400    0.338900
  H     -0.557500   -3.414200   -1.430800
  H     -1.940500   -5.309500   -0.729100
  H     -4.588100   -7.340600    0.376600
  H     -5.327600   -2.654900   -0.277100
  H     -3.927400   -0.766900   -0.977800
  H      1.144700    3.998400   -2.268900
  H      0.477100    6.336700   -1.886700
  H     -1.021800    7.973900   -0.819800
  H     -2.857800    7.212600    0.652800
  H     -3.220500    4.833100    1.066000

 Total Charge           Charge          ....    0
 Multiplicity           Mult            ....    1
 Number of Electrons    NEL             ....  256
 Basis Dimension        Dim             ....  546

ORBITAL ENERGIES
----------------

  NO   OCC          E(Eh)            E(eV)
   0   2.0000     -89.089517     -2424.2490
   1   2.0000     -19.198002      -522.4042
   2   2.0000     -19.140081      -520.8281
   3   2.0000     -19.115475      -520.1585
   4   2.0000     -19.110922      -520.0346
   5   2.0000     -14.363567      -390.8525
   6   2.0000     -14.321754      -389.7147
   7   2.0000     -10.337540      -281.2988
   8   2.0000     -10.255485      -279.0659
   9   2.0000     -10.243619      -278.7431
  10   2.0000     -10.234691      -278.5001
  11   2.0000     -10.228674      -278.3364
  12   2.0000     -10.223002      -278.1820
  13   2.0000     -10.221541      -278.1423
  14   2.0000     -10.219966      -278.0994
  15   2.0000     -10.219612      -278.0898
  16   2.0000     -10.217650      -278.0364
  17   2.0000     -10.206541      -277.7341
  18   2.0000     -10.203304      -277.6460
  19   2.0000     -10.195543      -277.4348
  20   2.0000     -10.195231      -277.4263
  21   2.0000     -10.194097      -277.3955
  22   2.0000     -10.193487      -277.3789
  23   2.0000     -10.192364      -277.3483
  24   2.0000     -10.187593      -277.2185
  25   2.0000     -10.175317      -276.8845
  26   2.0000     -10.174541      -276.8633
  27   2.0000     -10.174168      -276.8532
  28   2.0000     -10.170449      -276.7520
  29   2.0000     -10.169795      -276.7342
  30   2.0000     -10.168031      -276.6862
  31   2.0000     -10.167831      -276.6808
  32   2.0000     -10.167197      -276.6635
  33   2.0000     -10.167105      -276.6610
  34   2.0000     -10.165965      -276.6300
  35   2.0000      -8.125271      -221.0999
  36   2.0000      -6.090367      -165.7273
  37   2.0000      -6.088327      -165.6718
  38   2.0000      -6.087828      -165.6582
  39   2.0000      -1.082108       -29.4457
  40   2.0000      -1.072919       -29.1956
  41   2.0000      -0.996542       -27.1173
  42   2.0000      -0.955205       -25.9924
  43   2.0000      -0.950266       -25.8580
  44   2.0000      -0.907916       -24.7057
  45   2.0000      -0.891298       -24.2534
  46   2.0000      -0.860346       -23.4112
  47   2.0000      -0.848938       -23.1008
  48   2.0000      -0.808937       -22.0123
  49   2.0000      -0.806618       -21.9492
  50   2.0000      -0.799547       -21.7568
  51   2.0000      -0.778242       -21.1770
  52   2.0000      -0.772149       -21.0113
  53   2.0000      -0.758136       -20.6299
  54   2.0000      -0.745476       -20.2854
  55   2.0000      -0.738735       -20.1020
  56   2.0000      -0.712989       -19.4014
  57   2.0000      -0.709442       -19.3049
  58   2.0000      -0.694698       -18.9037
  59   2.0000      -0.675005       -18.3678
  60   2.0000      -0.651921       -17.7397
  61   2.0000      -0.640969       -17.4417
  62   2.0000      -0.639552       -17.4031
  63   2.0000      -0.619130       -16.8474
  64   2.0000      -0.612947       -16.6791
  65   2.0000      -0.596537       -16.2326
  66   2.0000      -0.592332       -16.1182
  67   2.0000      -0.587508       -15.9869
  68   2.0000      -0.582708       -15.8563
  69   2.0000      -0.557974       -15.1832
  70   2.0000      -0.540761       -14.7149
  71   2.0000      -0.530112       -14.4251
  72   2.0000      -0.525156       -14.2902
  73   2.0000      -0.510676       -13.8962
  74   2.0000      -0.498142       -13.5551
  75   2.0000      -0.490225       -13.3397
  76   2.0000      -0.483119       -13.1463
  77   2.0000      -0.479481       -13.0473
  78   2.0000      -0.475037       -12.9264
  79   2.0000      -0.470093       -12.7919
  80   2.0000      -0.463616       -12.6156
  81   2.0000      -0.458910       -12.4876
  82   2.0000      -0.454987       -12.3808
  83   2.0000      -0.450200       -12.2506
  84   2.0000      -0.446828       -12.1588
  85   2.0000      -0.443750       -12.0751
  86   2.0000      -0.440279       -11.9806
  87   2.0000      -0.434558       -11.8249
  88   2.0000      -0.429904       -11.6983
  89   2.0000      -0.427753       -11.6397
  90   2.0000      -0.420194       -11.4340
  91   2.0000      -0.420008       -11.4290
  92   2.0000      -0.416543       -11.3347
  93   2.0000      -0.413037       -11.2393
  94   2.0000      -0.403651       -10.9839
  95   2.0000      -0.396006       -10.7759
  96   2.0000      -0.395401       -10.7594
  97   2.0000      -0.394006       -10.7214
  98   2.0000      -0.391533       -10.6542
  99   2.0000      -0.388141       -10.5618
 100   2.0000      -0.384357       -10.4589
 101   2.0000      -0.376081       -10.2337
 102   2.0000      -0.369640       -10.0584
 103   2.0000      -0.367967       -10.0129
 104   2.0000      -0.365132        -9.9357
 105   2.0000      -0.361735        -9.8433
 106   2.0000      -0.349622        -9.5137
 107   2.0000      -0.347957        -9.4684
 108   2.0000      -0.338418        -9.2088
 109   2.0000      -0.327646        -8.9157
 110   2.0000      -0.323422        -8.8008
 111   2.0000      -0.321635        -8.7521
 112   2.0000      -0.311111        -8.4658
 113   2.0000      -0.302948        -8.2436
 114   2.0000      -0.301701        -8.2097
 115   2.0000      -0.298648        -8.1266
 116   2.0000      -0.293079        -7.9751
 117   2.0000      -0.285343        -7.7646
 118   2.0000      -0.280955        -7.6452
 119   2.0000      -0.278003        -7.5648
 120   2.0000      -0.276562        -7.5256
 121   2.0000      -0.266844        -7.2612
 122   2.0000      -0.262580        -7.1452
 123   2.0000      -0.242126        -6.5886
 124   2.0000      -0.238842        -6.4992
 125   2.0000      -0.226830        -6.1724
 126   2.0000      -0.221300        -6.0219
 127   2.0000      -0.213019        -5.7965
 128   0.0000      -0.086146        -2.3441
 129   0.0000      -0.056855        -1.5471
 130   0.0000      -0.033590        -0.9140
 131   0.0000      -0.025819        -0.7026
 132   0.0000       0.004949         0.1347

MULLIKEN ATOMIC CHARGES
-----------------------
   0 C :   -0.543667
   1 C :    0.096684
   2 C :    0.330533
   3 N :   -0.604089
   4 C :   -0.287843
   5 C :    0.201287
   6 C :   -0.157544
   7 C :   -0.182218
   8 C :    0.123163
   9 C :    0.112147
  10 C :   -0.195708
  11 C :   -0.335756
  12 C :   -0.259423
  13 C :   -0.259129
  14 C :   -0.334633
  15 S :    1.215084
  16 O :   -0.539326
  17 O :   -0.530617
  18 C :   -0.143120
  19 C :   -0.146279
  20 C :   -0.146231
  21 C :    0.082816
  22 C :    0.529361
  23 O :   -0.444147
  24 O :   -0.623432
  25 C :   -0.140506
  26 C :   -0.141835
  27 N :   -0.358811
  28 C :   -0.048404
  29 C :    0.134514
  30 C :   -0.201456
  31 C :   -0.127506
  32 C :   -0.120934
  33 C :   -0.200533
  34 C :    0.124046
  35 H :    0.159228
  36 H :    0.167327
  37 H :    0.169251
  38 H :    0.166530
  39 H :    0.160586
  40 H :    0.115981
  41 H :    0.116021
  42 H :    0.105225
  43 H :    0.131162
  44 H :    0.161090
  45 H :    0.127124
  46 H :    0.128649
  47 H :    0.125665
  48 H :    0.138366
  49 H :    0.144015
  50 H :    0.140283
  51 H :    0.193751
  52 H :    0.174530
  53 H :    0.434806
  54 H :    0.181000
  55 H :    0.182349
  56 H :    0.154922
  57 H :    0.140047
  58 H :    0.134802
  59 H :    0.135686
  60 H :    0.135116
Sum of atomic charges:   -0.0000000

LOEWDIN ATOMIC CHARGES
----------------------
   0 C :   -0.360986
   1 C :   -0.016975
   2 C :    0.038625
   3 N :   -0.279649
   4 C :   -0.150863
   5 C :   -0.036999
   6 C :   -0.129450
   7 C :   -0.129548
   8 C :   -0.021496
   9 C :   -0.021157
  10 C :   -0.120917
  11 C :   -0.224879
  12 C :   -0.227925
  13 C :   -0.227909
  14 C :   -0.224332
  15 S :    1.262485
  16 O :   -0.570431
  17 O :   -0.566114
  18 C :   -0.174096
  19 C :   -0.105718
  20 C :   -0.098726
  21 C :   -0.038013
  22 C :    0.181021
  23 O :   -0.260556
  24 O :   -0.334731
  25 C :   -0.086498
  26 C :   -0.101877
  27 N :   -0.107793
  28 C :   -0.054942
  29 C :   -0.029024
  30 C :   -0.110571
  31 C :   -0.128142
  32 C :   -0.118448
  33 C :   -0.126273
  34 C :   -0.006992
  35 H :    0.135182
  36 H :    0.139467
  37 H :    0.136855
  38 H :    0.136165
  39 H :    0.131801
  40 H :    0.126405
  41 H :    0.127233
  42 H :    0.122645
  43 H :    0.122584
  44 H :    0.135071
  45 H :    0.118467
  46 H :    0.115577
  47 H :    0.117781
  48 H :    0.120667
  49 H :    0.126705
  50 H :    0.126893
  51 H :    0.162639
  52 H :    0.155514
  53 H :    0.350282
  54 H :    0.160434
  55 H :    0.157727
  56 H :    0.138804
  57 H :    0.137594
  58 H :    0.134870
  59 H :    0.135577
  60 H :    0.136964

  Mayer bond orders larger than 0.100000
B(  0-C ,  1-C ) :   0.9964 B(  0-C , 35-H ) :   0.9275 B(  0-C , 36-H ) :   0.9288
B(  0-C , 37-H ) :   0.9303 B(  1-C ,  2-C ) :   1.4396 B(  1-C , 28-C ) :   0.1021
B(  1-C , 34-C ) :   1.2649 B(  2-C ,  3-N ) :   0.8935 B(  2-C , 27-N ) :   1.2838
B(  3-N ,  4-C ) :   0.9334 B(  3-N , 15-S ) :   0.8018 B(  4-C ,  5-C ) :   0.9325
B(  4-C , 38-H ) :   0.9233 B(  4-C , 39-H ) :   0.9258 B(  5-C ,  6-C ) :   1.4197
B(  5-C , 10-C ) :   1.4242 B(  6-C ,  7-C ) :   1.4367 B(  6-C , 40-H ) :   0.9240
B(  7-C ,  8-C ) :   1.4047 B(  7-C , 41-H ) :   0.9262 B(  8-C ,  9-C ) :   1.4457
B(  8-C , 14-C ) :   0.9812 B(  9-C , 10-C ) :   1.4018 B(  9-C , 11-C ) :   0.9817
B( 10-C , 42-H ) :   0.9144 B( 11-C , 12-C ) :   1.0062 B( 11-C , 43-H ) :   0.9354
B( 11-C , 44-H ) :   0.9234 B( 12-C , 13-C ) :   1.0072 B( 12-C , 45-H ) :   0.9412
B( 12-C , 46-H ) :   0.9413 B( 13-C , 14-C ) :   1.0072 B( 13-C , 47-H ) :   0.9409
B( 13-C , 48-H ) :   0.9397 B( 14-C , 49-H ) :   0.9267 B( 14-C , 50-H ) :   0.9345
B( 15-S , 16-O ) :   1.6438 B( 15-S , 17-O ) :   1.6472 B( 15-S , 18-C ) :   0.8065
B( 18-C , 19-C ) :   1.4016 B( 18-C , 26-C ) :   1.3758 B( 19-C , 20-C ) :   1.4071
B( 19-C , 51-H ) :   0.9032 B( 20-C , 21-C ) :   1.3872 B( 20-C , 52-H ) :   0.9146
B( 21-C , 22-C ) :   1.0078 B( 21-C , 25-C ) :   1.3971 B( 22-C , 23-O ) :   1.8619
B( 22-C , 24-O ) :   1.0255 B( 24-O , 53-H ) :   0.7414 B( 25-C , 26-C ) :   1.4292
B( 25-C , 54-H ) :   0.9095 B( 26-C , 55-H ) :   0.9103 B( 27-N , 28-C ) :   1.4981
B( 28-C , 29-C ) :   1.2292 B( 28-C , 56-H ) :   0.9264 B( 29-C , 30-C ) :   1.2845
B( 29-C , 34-C ) :   1.2905 B( 30-C , 31-C ) :   1.5124 B( 30-C , 33-C ) :   0.1063
B( 30-C , 57-H ) :   0.9231 B( 31-C , 32-C ) :   1.3533 B( 31-C , 58-H ) :   0.9295
B( 32-C , 33-C ) :   1.5089 B( 32-C , 59-H ) :   0.9294 B( 33-C , 34-C ) :   1.2936
B( 33-C , 60-H ) :   0.9172

FINAL SINGLE POINT ENERGY     -1890.165572364735

DIPOLE MOMENT
-------------

Method             : SCF
Type of density    : Electron Density
Multiplicity       :   1
Irrep              :   0
Energy             : -1890.1655723647345440 Eh
Relativity type    :
Basis              : AO
                                X                 Y                 Z
Electronic contribution:    -25.623936015      -3.092152856     -10.925108467
Nuclear contribution   :     25.406132475       3.233396026      12.873696947
                        -----------------------------------------
Total Dipole Moment    :     -0.217803540       0.141243170       1.948588481
                        -----------------------------------------
Magnitude (a.u.)       :      1.965803928
Magnitude (Debye)      :      4.996676492

Rotational constants in cm-1:             0.003720             0.002688             0.001712
Rotational constants in MHz :           111.526193            80.576074            51.327264

                             ****ORCA TERMINATED NORMALLY****
TOTAL RUN TIME: 0 days 0 hours 7 minutes 57 seconds 4 msec
