                         Program Version 6.0.0  -   RELEASE  -
|  1> ! B3LYP 6-31G* SP
|  2>
|  3> * xyz 0 1
|  4> C 7.7067 -1.2788 0.2169
|  5> C 6.2156 -1.5538 0.0237
|  6> C 5.4021 -0.2752 -0.2292
|  7> C 5.2576 0.5912 1.0337
|  8> C 4.4198 1.8533 0.7805
|  9> C 2.9700 1.5293 0.5224
| 10> C 2.4622 1.5295 -0.7852
| 11> C 1.1236 1.2059 -1.0252
| 12> C 0.2692 0.8633 0.0421
| 13> C -1.1618 0.5216 -0.1545
| 14> C -1.6712 0.0871 -1.3170
| 15> C -3.0974 -0.2494 -1.5042
| 16> O -3.5595 -0.2422 -2.6769
| 17> N -3.9530 -0.5907 -0.3978
| 18> C -5.3583 -0.8460 -0.5504
| 19> C -5.7882 -1.8047 -1.4846
| 20> C -7.1391 -2.1352 -1.5936
| 21> C -8.0761 -1.5241 -0.7627
| 22> C -7.6666 -0.5765 0.1770
| 23> C -6.3092 -0.2191 0.2950
| 24> C -5.9234 0.8281 1.2742
| 25> O -6.6905 1.1094 2.2346
| 26> O -4.7323 1.5347 1.1310
| 27> C 0.7814 0.8775 1.3499
| 28> C 2.1201 1.1998 1.5878
| 29> H 8.2547 -2.2429 0.2722
| 30> H 7.8868 -0.7262 1.1618
| 31> H 8.1085 -0.6936 -0.6375
| 32> H 6.0980 -2.2236 -0.8557
| 33> H 5.8172 -2.0923 0.9110
| 34> H 4.3921 -0.5830 -0.5752
| 35> H 5.8724 0.3165 -1.0449
| 36> H 6.2629 0.9175 1.3736
| 37> H 4.7990 -0.0051 1.8528
| 38> H 4.4869 2.5111 1.6745
| 39> H 4.8524 2.4270 -0.0686
| 40> H 3.1031 1.7823 -1.6209
| 41> H 0.7648 1.2496 -2.0436
| 42> H -1.8074 0.6255 0.7066
| 43> H -1.0367 -0.0107 -2.1866
| 44> H -3.5573 -0.6706 0.5641
| 45> H -5.0704 -2.3189 -2.1110
| 46> H -7.4583 -2.8764 -2.3150
| 47> H -9.1232 -1.7851 -0.8463
| 48> H -8.4176 -0.1098 0.8025
| 49> H -4.4704 2.2548 1.7936
| 50> H 0.1454 0.6272 2.1906
| 51> H 2.4954 1.1917 2.6037
| 52> *
| 53>
| 54>                          ****END OF INPUT****

CARTESIAN COORDINATES (ANGSTROEM)
---------------------------------
  C      7.706700   -1.278800    0.216900
  C      6.215600   -1.553800    0.023700
  C      5.402100   -0.275200   -0.229200
  C      5.257600    0.591200    1.033700
  C      4.419800    1.853300    0.780500
  C      2.970000    1.529300    0.522400
  C      2.462200    1.529500   -0.785200
  C      1.123600    1.205900   -1.025200
  C      0.269200    0.863300    0.042100
  C     -1.161800    0.521600   -0.154500
  C     -1.671200    0.087100   -1.317000
  C     -3.097400   -0.249400   -1.504200
  O     -3.559500   -0.242200   -2.676900
  N     -3.953000   -0.590700   -0.397800
  C     -5.358300   -0.846000   -0.550400
  C     -5.788200   -1.804700   -1.484600
  C     -7.139100   -2.135200   -1.593600
  C     -8.076100   -1.524100   -0.762700
  C     -7.666600   -0.576500    0.177000
  C     -6.309200   -0.219100    0.295000
  C     -5.923400    0.828100    1.274200
  O     -6.690500    1.109400    2.234600
  O     -4.732300    1.534700    1.131000
  C      0.781400    0.877500    1.349900
  C      2.120100    1.199800    1.587800
  H      8.254700   -2.242900    0.272200
  H      7.886800   -0.726200    1.161800
  H      8.108500   -0.693600   -0.637500
  H      6.098000   -2.223600   -0.855700
  H      5.817200   -2.092300    0.911000
  H      4.392100   -0.583000   -0.575200
  H      5.872400    0.316500   -1.044900
  H      6.262900    0.917500    1.373600
  H      4.799000   -0.005100    1.852800
  H      4.486900    2.511100    1.674500
  H      4.852400    2.427000   -0.068600
  H      3.103100    1.782300   -1.620900
  H      0.764800    1.249600   -2.043600
  H     -1.807400    0.625500    0.706600
  H     -1.036700   -0.010700   -2.186600
  H     -3.557300   -0.670600    0.564100
  H     -5.070400   -2.318900   -2.111000
  H     -7.458300   -2.876400   -2.315000
  H     -9.123200   -1.785100   -0.846300
  H     -8.417600   -0.109800    0.802500
  H     -4.470400    2.254800    1.793600
  H      0.145400    0.627200    2.190600
  H      2.495400    1.191700    2.603700

 Total Charge           Charge          ....    0
 Multiplicity           Mult            ....    1
 Number of Electrons    NEL             ....  180
 Basis Dimension        Dim             ....  396

ORBITAL ENERGIES
----------------

  NO   OCC          E(Eh)            E(eV)
   0   2.0000     -19.185710      -522.0697
   1   2.0000     -19.124140      -520.3943
   2   2.0000     -19.105040      -519.8746
   3   2.0000     -14.361063      -390.7844
   4   2.0000     -10.322980      -280.9026
   5   2.0000     -10.289258      -279.9850
   6   2.0000     -10.239942      -278.6430
   7   2.0000     -10.210090      -277.8307
   8   2.0000     -10.205627      -277.7092
   9   2.0000     -10.201821      -277.6057
  10   2.0000     -10.195965      -277.4463
  11   2.0000     -10.194359      -277.4026
  12   2.0000     -10.193019      -277.3662
  13   2.0000     -10.192339      -277.3476
  14   2.0000     -10.191689      -277.3300
  15   2.0000     -10.191347      -277.3207
  16   2.0000     -10.187847      -277.2254
  17   2.0000     -10.187460      -277.2149
  18   2.0000     -10.186915      -277.2000
  19   2.0000     -10.186571      -277.1907
  20   2.0000     -10.184120      -277.1240
  21   2.0000     -10.179311      -276.9931
  22   2.0000     -10.172985      -276.8210
  23   2.0000     -10.172377      -276.8045
  24   2.0000     -10.166652      -276.6487
  25   2.0000      -1.070418       -29.1276
  26   2.0000      -1.007391       -27.4125
  27   2.0000      -0.982852       -26.7448
  28   2.0000      -0.915073       -24.9004
  29   2.0000      -0.866433       -23.5768
  30   2.0000      -0.848874       -23.0990
  31   2.0000      -0.817680       -22.2502
  32   2.0000      -0.795982       -21.6598
  33   2.0000      -0.768635       -20.9156
  34   2.0000      -0.764917       -20.8144
  35   2.0000      -0.751280       -20.4434
  36   2.0000      -0.742012       -20.1912
  37   2.0000      -0.723485       -19.6870
  38   2.0000      -0.677366       -18.4321
  39   2.0000      -0.661341       -17.9960
  40   2.0000      -0.642942       -17.4954
  41   2.0000      -0.622501       -16.9391
  42   2.0000      -0.611418       -16.6375
  43   2.0000      -0.599787       -16.3210
  44   2.0000      -0.594965       -16.1898
  45   2.0000      -0.576468       -15.6865
  46   2.0000      -0.562176       -15.2976
  47   2.0000      -0.558141       -15.1878
  48   2.0000      -0.543020       -14.7763
  49   2.0000      -0.513124       -13.9628
  50   2.0000      -0.503206       -13.6929
  51   2.0000      -0.492151       -13.3921
  52   2.0000      -0.471921       -12.8416
  53   2.0000      -0.470757       -12.8099
  54   2.0000      -0.457258       -12.4426
  55   2.0000      -0.455748       -12.4015
  56   2.0000      -0.452117       -12.3027
  57   2.0000      -0.447957       -12.1895
  58   2.0000      -0.444590       -12.0979
  59   2.0000      -0.434620       -11.8266
  60   2.0000      -0.429526       -11.6880
  61   2.0000      -0.425734       -11.5848
  62   2.0000      -0.424366       -11.5476
  63   2.0000      -0.418055       -11.3759
  64   2.0000      -0.401049       -10.9131
  65   2.0000      -0.398208       -10.8358
  66   2.0000      -0.393220       -10.7001
  67   2.0000      -0.384748       -10.4695
  68   2.0000      -0.382017       -10.3952
  69   2.0000      -0.380316       -10.3489
  70   2.0000      -0.372102       -10.1254
  71   2.0000      -0.366927        -9.9846
  72   2.0000      -0.364138        -9.9087
  73   2.0000      -0.358606        -9.7582
  74   2.0000      -0.353222        -9.6117
  75   2.0000      -0.352085        -9.5807
  76   2.0000      -0.340473        -9.2648
  77   2.0000      -0.339080        -9.2268
  78   2.0000      -0.328103        -8.9281
  79   2.0000      -0.316279        -8.6064
  80   2.0000      -0.309847        -8.4314
  81   2.0000      -0.305932        -8.3248
  82   2.0000      -0.294309        -8.0085
  83   2.0000      -0.277745        -7.5578
  84   2.0000      -0.266079        -7.2404
  85   2.0000      -0.256433        -6.9779
  86   2.0000      -0.254725        -6.9314
  87   2.0000      -0.243785        -6.6337
  88   2.0000      -0.228192        -6.2094
  89   2.0000      -0.225561        -6.1378
  90   0.0000      -0.058013        -1.5786
  91   0.0000      -0.048093        -1.3087
  92   0.0000      -0.010091        -0.2746
  93   0.0000      -0.005907        -0.1607
  94   0.0000       0.018965         0.5161

MULLIKEN ATOMIC CHARGES
-----------------------
   0 C :   -0.434429
   1 C :   -0.241352
   2 C :   -0.246753
   3 C :   -0.247476
   4 C :   -0.348037
   5 C :    0.178232
   6 C :   -0.178723
   7 C :   -0.174132
   8 C :    0.150816
   9 C :   -0.161253
  10 C :   -0.182786
  11 C :    0.553612
  12 O :   -0.486390
  13 N :   -0.700136
  14 C :    0.268303
  15 C :   -0.120359
  16 C :   -0.127474
  17 C :   -0.124295
  18 C :   -0.166901
  19 C :    0.065783
  20 C :    0.496243
  21 O :   -0.450568
  22 O :   -0.618358
  23 C :   -0.185172
  24 C :   -0.176188
  25 H :    0.139735
  26 H :    0.141713
  27 H :    0.137872
  28 H :    0.127750
  29 H :    0.127733
  30 H :    0.138077
  31 H :    0.121308
  32 H :    0.134041
  33 H :    0.132055
  34 H :    0.139708
  35 H :    0.138854
  36 H :    0.131800
  37 H :    0.139226
  38 H :    0.135039
  39 H :    0.160998
  40 H :    0.332631
  41 H :    0.156856
  42 H :    0.140836
  43 H :    0.137081
  44 H :    0.165617
  45 H :    0.424947
  46 H :    0.125780
  47 H :    0.128137
Sum of atomic charges:   -0.0000000

LOEWDIN ATOMIC CHARGES
----------------------
   0 C :   -0.360350
   1 C :   -0.230924
   2 C :   -0.232431
   3 C :   -0.222739
   4 C :   -0.222755
   5 C :   -0.006316
   6 C :   -0.131795
   7 C :   -0.117636
   8 C :   -0.029797
   9 C :   -0.099706
  10 C :   -0.154069
  11 C :    0.143103
  12 O :   -0.281919
  13 N :   -0.213722
  14 C :    0.053629
  15 C :   -0.114840
  16 C :   -0.108954
  17 C :   -0.134032
  18 C :   -0.090769
  19 C :   -0.068254
  20 C :    0.176249
  21 O :   -0.270152
  22 O :   -0.336116
  23 C :   -0.122170
  24 C :   -0.132743
  25 H :    0.122695
  26 H :    0.119569
  27 H :    0.119922
  28 H :    0.116784
  29 H :    0.116137
  30 H :    0.122529
  31 H :    0.113517
  32 H :    0.118718
  33 H :    0.118168
  34 H :    0.126382
  35 H :    0.124019
  36 H :    0.133558
  37 H :    0.136764
  38 H :    0.132237
  39 H :    0.151984
  40 H :    0.255705
  41 H :    0.149526
  42 H :    0.137879
  43 H :    0.136482
  44 H :    0.152656
  45 H :    0.341820
  46 H :    0.130287
  47 H :    0.131871

  Mayer bond orders larger than 0.100000
B(  0-C ,  1-C ) :   1.0190 B(  0-C , 25-H ) :   0.9527 B(  0-C , 26-H ) :   0.9497
B(  0-C , 27-H ) :   0.9516 B(  1-C ,  2-C ) :   1.0086 B(  1-C , 28-H ) :   0.9456
B(  1-C , 29-H ) :   0.9414 B(  2-C ,  3-C ) :   1.0136 B(  2-C , 30-H ) :   0.9332
B(  2-C , 31-H ) :   0.9376 B(  3-C ,  4-C ) :   0.9863 B(  3-C , 32-H ) :   0.9333
B(  3-C , 33-H ) :   0.9364 B(  4-C ,  5-C ) :   0.9871 B(  4-C , 34-H ) :   0.9327
B(  4-C , 35-H ) :   0.9341 B(  5-C ,  6-C ) :   1.4181 B(  5-C , 24-C ) :   1.4235
B(  6-C ,  7-C ) :   1.4353 B(  6-C , 36-H ) :   0.9232 B(  7-C ,  8-C ) :   1.3966
B(  7-C , 37-H ) :   0.9177 B(  8-C ,  9-C ) :   1.0654 B(  8-C , 23-C ) :   1.3792
B(  9-C , 10-C ) :   1.7487 B(  9-C , 38-H ) :   0.9136 B( 10-C , 11-C ) :   1.0549
B( 10-C , 39-H ) :   0.9154 B( 11-C , 12-O ) :   1.7661 B( 11-C , 13-N ) :   1.0159
B( 13-N , 14-C ) :   0.8965 B( 13-N , 40-H ) :   0.8151 B( 14-C , 15-C ) :   1.4170
B( 14-C , 19-C ) :   1.3517 B( 15-C , 16-C ) :   1.4413 B( 15-C , 41-H ) :   0.9151
B( 16-C , 17-C ) :   1.4213 B( 16-C , 42-H ) :   0.9280 B( 17-C , 18-C ) :   1.4454
B( 17-C , 43-H ) :   0.9296 B( 18-C , 19-C ) :   1.3872 B( 18-C , 44-H ) :   0.9130
B( 19-C , 20-C ) :   0.9916 B( 20-C , 21-O ) :   1.8563 B( 20-C , 22-O ) :   1.0069
B( 22-O , 45-H ) :   0.7457 B( 23-C , 24-C ) :   1.4320 B( 23-C , 46-H ) :   0.9263
B( 24-C , 47-H ) :   0.9242

FINAL SINGLE POINT ENERGY     -1093.824431954524

DIPOLE MOMENT
-------------

Method             : SCF
Type of density    : Electron Density
Multiplicity       :   1
Irrep              :   0
Energy             : -1093.8244319545244707 Eh
Relativity type    :
Basis              : AO
                                X                 Y                 Z
Electronic contribution:    -55.848054171       4.257389232      -1.929121482
Nuclear contribution   :     57.337158830      -4.507934757       2.677443954
                        -----------------------------------------
Total Dipole Moment    :      1.489104659      -0.250545525       0.748322472
                        -----------------------------------------
Magnitude (a.u.)       :      1.685286998
Magnitude (Debye)      :      4.283659122

Rotational constants in cm-1:             0.018127             0.002050             0.001941
Rotational constants in MHz :           543.434598            61.446934            58.193135

                             ****ORCA TERMINATED NORMALLY****
TOTAL RUN TIME: 0 days 0 hours 5 minutes 51 seconds 173 msec
