                         Program Version 6.0.0  -   RELEASE  -
|  1> ! B3LYP 6-31G* SP
|  2>
|  3> * xyz 0 1
|  4> C -0.5984 1.0824 -2.7798
|  5> C -1.6537 0.4801 -1.8503
|  6> C -1.6024 0.9808 -0.3840
|  7> C -2.0246 2.4302 -0.1333
|  8> C -1.9269 2.9457 1.1754
|  9> C -2.3361 4.2497 1.4652
| 10> C -2.8702 5.0543 0.4595
| 11> F -3.2647 6.3187 0.7422
| 12> C -3.0093 4.5507 -0.8339
| 13> C -2.6030 3.2462 -1.1301
| 14> N -0.2935 0.6480 0.2397
| 15> C -0.2507 -0.3496 1.3325
| 16> C -0.9387 -1.6432 0.9587
| 17> C -0.2993 -2.5793 0.1354
| 18> C -0.9522 -3.7581 -0.2306
| 19> C -2.2466 -4.0171 0.2208
| 20> C -2.8983 -3.1018 1.0591
| 21> C -4.2668 -3.3797 1.5433
| 22> O -4.8436 -2.5727 2.3205
| 23> O -4.9318 -4.5361 1.1460
| 24> C -2.2337 -1.9171 1.4267
| 25> C 0.8743 1.4785 0.0020
| 26> O 0.7396 2.6798 -0.3507
| 27> C 2.2445 0.9566 0.1558
| 28> C 3.1869 1.6607 0.9202
| 29> N 4.4501 1.1806 1.0644
| 30> C 4.8495 0.0258 0.4639
| 31> C 6.1583 -0.4384 0.6348
| 32> C 6.5652 -1.6232 0.0154
| 33> C 5.6650 -2.3505 -0.7696
| 34> C 4.3537 -1.8988 -0.9429
| 35> C 3.9399 -0.7070 -0.3299
| 36> C 2.6359 -0.2229 -0.4876
| 37> H 0.3997 0.6711 -2.5440
| 38> H -0.8343 0.8122 -3.8292
| 39> H -0.5664 2.1851 -2.7058
| 40> H -1.5133 -0.6213 -1.8486
| 41> H -2.6643 0.6543 -2.2745
| 42> H -2.3999 0.4031 0.1245
| 43> H -1.5297 2.3388 1.9774
| 44> H -2.2421 4.6341 2.4728
| 45> H -3.4407 5.1686 -1.6102
| 46> H -2.7507 2.8952 -2.1391
| 47> H 0.7925 -0.5868 1.6273
| 48> H -0.7259 0.0872 2.2365
| 49> H 0.7055 -2.4063 -0.2168
| 50> H -0.4558 -4.4735 -0.8676
| 51> H -2.7319 -4.9372 -0.0806
| 52> H -5.8682 -4.7339 1.4701
| 53> H -2.7288 -1.1951 2.0630
| 54> H 2.9104 2.5780 1.4224
| 55> H 6.8594 0.1180 1.2434
| 56> H 7.5788 -1.9786 0.1449
| 57> H 5.9852 -3.2664 -1.2488
| 58> H 3.6658 -2.4759 -1.5494
| 59> H 1.9362 -0.7443 -1.1264
| 60> *
| 61>
| 62>                          ****END OF INPUT****

CARTESIAN COORDINATES (ANGSTROEM)
---------------------------------
  C     -0.598400    1.082400   -2.779800
  C     -1.653700    0.480100   -1.850300
  C     -1.602400    0.980800   -0.384000
  C     -2.024600    2.430200   -0.133300
  C     -1.926900    2.945700    1.175400
  C     -2.336100    4.249700    1.465200
  C     -2.870200    5.054300    0.459500
  F     -3.264700    6.318700    0.742200
  C     -3.009300    4.550700   -0.833900
  C     -2.603000    3.246200   -1.130100
  N     -0.293500    0.648000    0.239700
  C     -0.250700   -0.349600    1.332500
  C     -0.938700   -1.643200    0.958700
  C     -0.299300   -2.579300    0.135400
  C     -0.952200   -3.758100   -0.230600
  C     -2.246600   -4.017100    0.220800
  C     -2.898300   -3.101800    1.059100
  C     -4.266800   -3.379700    1.543300
  O     -4.843600   -2.572700    2.320500
  O     -4.931800   -4.536100    1.146000
  C     -2.233700   -1.917100    1.426700
  C      0.874300    1.478500    0.002000
  O      0.739600    2.679800   -0.350700
  C      2.244500    0.956600    0.155800
  C      3.186900    1.660700    0.920200
  N      4.450100    1.180600    1.064400
  C      4.849500    0.025800    0.463900
  C      6.158300   -0.438400    0.634800
  C      6.565200   -1.623200    0.015400
  C      5.665000   -2.350500   -0.769600
  C      4.353700   -1.898800   -0.942900
  C      3.939900   -0.707000   -0.329900
  C      2.635900   -0.222900   -0.487600
  H      0.399700    0.671100   -2.544000
  H     -0.834300    0.812200   -3.829200
  H     -0.566400    2.185100   -2.705800
  H     -1.513300   -0.621300   -1.848600
  H     -2.664300    0.654300   -2.274500
  H     -2.399900    0.403100    0.124500
  H     -1.529700    2.338800    1.977400
  H     -2.242100    4.634100    2.472800
  H     -3.440700    5.168600   -1.610200
  H     -2.750700    2.895200   -2.139100
  H      0.792500   -0.586800    1.627300
  H     -0.725900    0.087200    2.236500
  H      0.705500   -2.406300   -0.216800
  H     -0.455800   -4.473500   -0.867600
  H     -2.731900   -4.937200   -0.080600
  H     -5.868200   -4.733900    1.470100
  H     -2.728800   -1.195100    2.063000
  H      2.910400    2.578000    1.422400
  H      6.859400    0.118000    1.243400
  H      7.578800   -1.978600    0.144900
  H      5.985200   -3.266400   -1.248800
  H      3.665800   -2.475900   -1.549400
  H      1.936200   -0.744300   -1.126400

 Total Charge           Charge          ....    0
 Multiplicity           Mult            ....    1
 Number of Electrons    NEL             ....  232
 Basis Dimension        Dim             ....  508

ORBITAL ENERGIES
----------------

  NO   OCC          E(Eh)            E(eV)
   0   2.0000     -24.684554      -671.7009
   1   2.0000     -19.190337      -522.1956
   2   2.0000     -19.130430      -520.5655
   3   2.0000     -19.118070      -520.2291
   4   2.0000     -14.362211      -390.8156
   5   2.0000     -14.331264      -389.9735
   6   2.0000     -10.327910      -281.0367
   7   2.0000     -10.294275      -280.1215
   8   2.0000     -10.253453      -279.0106
   9   2.0000     -10.235172      -278.5132
  10   2.0000     -10.229775      -278.3663
  11   2.0000     -10.229198      -278.3506
  12   2.0000     -10.226001      -278.2636
  13   2.0000     -10.219008      -278.0733
  14   2.0000     -10.213384      -277.9203
  15   2.0000     -10.212056      -277.8842
  16   2.0000     -10.211039      -277.8565
  17   2.0000     -10.207450      -277.7588
  18   2.0000     -10.206824      -277.7418
  19   2.0000     -10.205897      -277.7166
  20   2.0000     -10.204430      -277.6767
  21   2.0000     -10.203375      -277.6479
  22   2.0000     -10.199686      -277.5476
  23   2.0000     -10.198597      -277.5179
  24   2.0000     -10.198126      -277.5051
  25   2.0000     -10.191876      -277.3350
  26   2.0000     -10.187896      -277.2268
  27   2.0000     -10.181545      -277.0539
  28   2.0000     -10.179363      -276.9946
  29   2.0000     -10.179132      -276.9883
  30   2.0000     -10.177399      -276.9411
  31   2.0000     -10.176770      -276.9240
  32   2.0000     -10.164383      -276.5869
  33   2.0000      -1.198800       -32.6210
  34   2.0000      -1.075357       -29.2619
  35   2.0000      -1.018825       -27.7236
  36   2.0000      -0.988964       -26.9111
  37   2.0000      -0.941760       -25.6266
  38   2.0000      -0.926591       -25.2138
  39   2.0000      -0.875884       -23.8340
  40   2.0000      -0.856097       -23.2956
  41   2.0000      -0.847109       -23.0510
  42   2.0000      -0.822179       -22.3726
  43   2.0000      -0.797885       -21.7116
  44   2.0000      -0.781644       -21.2696
  45   2.0000      -0.772691       -21.0260
  46   2.0000      -0.766509       -20.8578
  47   2.0000      -0.748194       -20.3594
  48   2.0000      -0.742432       -20.2026
  49   2.0000      -0.735956       -20.0264
  50   2.0000      -0.698923       -19.0186
  51   2.0000      -0.682180       -18.5631
  52   2.0000      -0.671639       -18.2762
  53   2.0000      -0.662981       -18.0406
  54   2.0000      -0.642998       -17.4969
  55   2.0000      -0.615179       -16.7399
  56   2.0000      -0.612431       -16.6651
  57   2.0000      -0.611264       -16.6333
  58   2.0000      -0.601894       -16.3784
  59   2.0000      -0.600059       -16.3284
  60   2.0000      -0.588359       -16.0101
  61   2.0000      -0.552528       -15.0351
  62   2.0000      -0.539456       -14.6793
  63   2.0000      -0.533884       -14.5277
  64   2.0000      -0.529304       -14.4031
  65   2.0000      -0.522753       -14.2248
  66   2.0000      -0.518797       -14.1172
  67   2.0000      -0.503895       -13.7117
  68   2.0000      -0.487919       -13.2770
  69   2.0000      -0.484623       -13.1872
  70   2.0000      -0.477853       -13.0030
  71   2.0000      -0.475019       -12.9259
  72   2.0000      -0.459641       -12.5075
  73   2.0000      -0.458359       -12.4726
  74   2.0000      -0.453749       -12.3471
  75   2.0000      -0.448615       -12.2074
  76   2.0000      -0.445857       -12.1324
  77   2.0000      -0.444234       -12.0882
  78   2.0000      -0.440962       -11.9992
  79   2.0000      -0.436804       -11.8860
  80   2.0000      -0.435456       -11.8494
  81   2.0000      -0.433467       -11.7952
  82   2.0000      -0.428219       -11.6524
  83   2.0000      -0.420071       -11.4307
  84   2.0000      -0.419547       -11.4165
  85   2.0000      -0.416355       -11.3296
  86   2.0000      -0.411859       -11.2073
  87   2.0000      -0.407226       -11.0812
  88   2.0000      -0.399435       -10.8692
  89   2.0000      -0.386833       -10.5263
  90   2.0000      -0.381572       -10.3831
  91   2.0000      -0.380189       -10.3455
  92   2.0000      -0.376723       -10.2512
  93   2.0000      -0.369804       -10.0629
  94   2.0000      -0.367562       -10.0019
  95   2.0000      -0.363993        -9.9047
  96   2.0000      -0.361154        -9.8275
  97   2.0000      -0.358626        -9.7587
  98   2.0000      -0.348875        -9.4934
  99   2.0000      -0.345297        -9.3960
 100   2.0000      -0.341897        -9.3035
 101   2.0000      -0.336731        -9.1629
 102   2.0000      -0.327368        -8.9081
 103   2.0000      -0.324581        -8.8323
 104   2.0000      -0.312048        -8.4913
 105   2.0000      -0.310685        -8.4542
 106   2.0000      -0.275316        -7.4917
 107   2.0000      -0.269901        -7.3444
 108   2.0000      -0.267782        -7.2867
 109   2.0000      -0.266024        -7.2389
 110   2.0000      -0.257147        -6.9973
 111   2.0000      -0.249756        -6.7962
 112   2.0000      -0.243748        -6.6327
 113   2.0000      -0.236834        -6.4446
 114   2.0000      -0.232107        -6.3160
 115   2.0000      -0.213689        -5.8148
 116   0.0000      -0.070974        -1.9313
 117   0.0000      -0.063419        -1.7257
 118   0.0000      -0.035171        -0.9571
 119   0.0000      -0.022199        -0.6041
 120   0.0000       0.002702         0.0735

MULLIKEN ATOMIC CHARGES
-----------------------
   0 C :   -0.450506
   1 C :   -0.260308
   2 C :   -0.058267
   3 C :    0.181125
   4 C :   -0.146797
   5 C :   -0.205705
   6 C :    0.409249
   7 F :   -0.322439
   8 C :   -0.211146
   9 C :   -0.170622
  10 N :   -0.428852
  11 C :   -0.244822
  12 C :    0.155357
  13 C :   -0.152804
  14 C :   -0.131338
  15 C :   -0.155997
  16 C :    0.083399
  17 C :    0.522571
  18 O :   -0.450700
  19 O :   -0.626149
  20 C :   -0.208111
  21 C :    0.450260
  22 O :   -0.452769
  23 C :    0.050206
  24 C :   -0.004049
  25 N :   -0.429927
  26 C :    0.214941
  27 C :   -0.141313
  28 C :   -0.129570
  29 C :   -0.129443
  30 C :   -0.202401
  31 C :    0.166431
  32 C :   -0.197532
  33 H :    0.140569
  34 H :    0.135253
  35 H :    0.179155
  36 H :    0.138798
  37 H :    0.137818
  38 H :    0.165833
  39 H :    0.122603
  40 H :    0.138246
  41 H :    0.137967
  42 H :    0.131723
  43 H :    0.174522
  44 H :    0.157411
  45 H :    0.135072
  46 H :    0.139342
  47 H :    0.161423
  48 H :    0.431159
  49 H :    0.167916
  50 H :    0.173164
  51 H :    0.149145
  52 H :    0.140010
  53 H :    0.135976
  54 H :    0.130988
  55 H :    0.153934
Sum of atomic charges:    0.0000000

LOEWDIN ATOMIC CHARGES
----------------------
   0 C :   -0.367396
   1 C :   -0.232277
   2 C :   -0.046394
   3 C :   -0.013052
   4 C :   -0.116710
   5 C :   -0.154805
   6 C :    0.110397
   7 F :   -0.107457
   8 C :   -0.157029
   9 C :   -0.130558
  10 N :   -0.110446
  11 C :   -0.147614
  12 C :   -0.030403
  13 C :   -0.110778
  14 C :   -0.127772
  15 C :   -0.101781
  16 C :   -0.054981
  17 C :    0.178271
  18 O :   -0.268067
  19 O :   -0.336926
  20 C :   -0.098126
  21 C :    0.140780
  22 O :   -0.249613
  23 C :   -0.063328
  24 C :   -0.043345
  25 N :   -0.123628
  26 C :    0.018426
  27 C :   -0.112583
  28 C :   -0.119143
  29 C :   -0.125377
  30 C :   -0.121917
  31 C :   -0.028888
  32 C :   -0.093812
  33 H :    0.119899
  34 H :    0.121832
  35 H :    0.138824
  36 H :    0.125428
  37 H :    0.122369
  38 H :    0.145943
  39 H :    0.129451
  40 H :    0.140481
  41 H :    0.140341
  42 H :    0.134811
  43 H :    0.144618
  44 H :    0.121473
  45 H :    0.134736
  46 H :    0.136982
  47 H :    0.148717
  48 H :    0.347368
  49 H :    0.152084
  50 H :    0.148885
  51 H :    0.146766
  52 H :    0.137847
  53 H :    0.135467
  54 H :    0.132257
  55 H :    0.139751

  Mayer bond orders larger than 0.100000
B(  0-C ,  1-C ) :   1.0202 B(  0-C , 33-H ) :   0.9436 B(  0-C , 34-H ) :   0.9482
B(  0-C , 35-H ) :   0.9359 B(  1-C ,  2-C ) :   0.9923 B(  1-C , 36-H ) :   0.9322
B(  1-C , 37-H ) :   0.9277 B(  2-C ,  3-C ) :   0.9655 B(  2-C , 10-N ) :   0.9007
B(  2-C , 38-H ) :   0.9088 B(  3-C ,  4-C ) :   1.4008 B(  3-C ,  9-C ) :   1.4350
B(  4-C ,  5-C ) :   1.4377 B(  4-C , 39-H ) :   0.9229 B(  5-C ,  6-C ) :   1.3883
B(  5-C , 40-H ) :   0.9215 B(  6-C ,  7-F ) :   0.9125 B(  6-C ,  8-C ) :   1.4044
B(  8-C ,  9-C ) :   1.4106 B(  8-C , 41-H ) :   0.9214 B(  9-C , 42-H ) :   0.9192
B( 10-N , 11-C ) :   0.9525 B( 10-N , 21-C ) :   1.0315 B( 11-C , 12-C ) :   0.9568
B( 11-C , 43-H ) :   0.9151 B( 11-C , 44-H ) :   0.9157 B( 12-C , 13-C ) :   1.4124
B( 12-C , 20-C ) :   1.4075 B( 13-C , 14-C ) :   1.4394 B( 13-C , 45-H ) :   0.9159
B( 14-C , 15-C ) :   1.4235 B( 14-C , 46-H ) :   0.9286 B( 15-C , 16-C ) :   1.3956
B( 15-C , 47-H ) :   0.9165 B( 16-C , 17-C ) :   1.0095 B( 16-C , 20-C ) :   1.3813
B( 17-C , 18-O ) :   1.8589 B( 17-C , 19-O ) :   1.0207 B( 19-O , 48-H ) :   0.7436
B( 20-C , 49-H ) :   0.9042 B( 21-C , 22-O ) :   1.7992 B( 21-C , 23-C ) :   0.9478
B( 23-C , 24-C ) :   1.2766 B( 23-C , 32-C ) :   1.4545 B( 24-C , 25-N ) :   1.5076
B( 24-C , 50-H ) :   0.9217 B( 25-N , 26-C ) :   1.2432 B( 26-C , 27-C ) :   1.3121
B( 26-C , 31-C ) :   1.2530 B( 27-C , 28-C ) :   1.5127 B( 27-C , 30-C ) :   0.1071
B( 27-C , 51-H ) :   0.9166 B( 28-C , 29-C ) :   1.3487 B( 28-C , 52-H ) :   0.9288
B( 29-C , 30-C ) :   1.5148 B( 29-C , 53-H ) :   0.9294 B( 30-C , 31-C ) :   1.2794
B( 30-C , 54-H ) :   0.9253 B( 31-C , 32-C ) :   1.2745 B( 32-C , 55-H ) :   0.9075

FINAL SINGLE POINT ENERGY     -1476.840061611045

DIPOLE MOMENT
-------------

Method             : SCF
Type of density    : Electron Density
Multiplicity       :   1
Irrep              :   0
Energy             : -1476.8400616110448027 Eh
Relativity type    :
Basis              : AO
                                X                 Y                 Z
Electronic contribution:     -5.487579245      11.606452742      11.466820865
Nuclear contribution   :      5.834006703     -14.401709825     -12.127879621
                        -----------------------------------------
Total Dipole Moment    :      0.346427459      -2.795257083      -0.661058757
                        -----------------------------------------
Magnitude (a.u.)       :      2.893176943
Magnitude (Debye)      :      7.353871368

Rotational constants in cm-1:             0.004192             0.003117             0.001993
Rotational constants in MHz :           125.663177            93.450642            59.734564

                             ****ORCA TERMINATED NORMALLY****
TOTAL RUN TIME: 0 days 0 hours 10 minutes 29 seconds 218 msec
