                         Program Version 6.0.0  -   RELEASE  -
|  1> ! B3LYP 6-31G* SP
|  2>
|  3> * xyz 0 1
|  4> C 5.6287 0.9491 1.5244
|  5> C 5.0136 0.0069 0.4619
|  6> C 5.3325 0.5621 -0.9481
|  7> C 3.4779 -0.0281 0.6523
|  8> C 2.7601 -1.2140 0.9411
|  9> C 1.3713 -1.1968 1.0936
| 10> C 0.6562 -0.0013 0.9665
| 11> C -0.8441 -0.0050 1.0521
| 12> N -1.4104 -0.4387 -0.2256
| 13> C -1.6613 -1.8310 -0.4584
| 14> N -2.5910 -2.4727 0.2996
| 15> C -2.8709 -3.7927 0.1384
| 16> C -2.2025 -4.5438 -0.8413
| 17> C -2.4630 -6.0204 -1.0010
| 18> F -3.7373 -6.3467 -0.5718
| 19> F -1.5421 -6.7287 -0.2528
| 20> F -2.3454 -6.3899 -2.3301
| 21> C -1.2100 -3.9108 -1.6053
| 22> C -0.9360 -2.5523 -1.4233
| 23> Cl 0.3580 -1.8098 -2.3558
| 24> S -1.8021 0.7356 -1.4461
| 25> O -0.5360 1.3343 -1.9919
| 26> O -2.5447 0.0762 -2.5758
| 27> C -2.8262 1.9897 -0.7564
| 28> C -4.1656 1.7098 -0.4618
| 29> C -4.9844 2.6950 0.0976
| 30> C -4.4728 3.9770 0.3699
| 31> C -5.3371 5.0268 0.9531
| 32> O -6.5408 4.7790 1.2360
| 33> O -4.8276 6.2999 1.1971
| 34> C -3.1244 4.2486 0.0785
| 35> C -2.3067 3.2605 -0.4779
| 36> C 1.3469 1.1810 0.6809
| 37> C 2.7350 1.1700 0.5324
| 38> C 5.7002 -1.3895 0.5968
| 39> F 5.2123 -2.2705 -0.3554
| 40> F 5.4919 -1.9206 1.8597
| 41> F 7.0691 -1.2814 0.4084
| 42> H 5.2537 1.9890 1.4165
| 43> H 6.7351 0.9903 1.4287
| 44> H 5.3787 0.5970 2.5490
| 45> H 4.9803 1.6078 -1.0680
| 46> H 6.4272 0.5674 -1.1390
| 47> H 4.8441 -0.0580 -1.7304
| 48> H 3.2455 -2.1705 1.0466
| 49> H 0.8502 -2.1242 1.2984
| 50> H -1.1773 -0.6799 1.8711
| 51> H -1.2181 1.0084 1.3119
| 52> H -3.6124 -4.2532 0.7787
| 53> H -0.6398 -4.4751 -2.3337
| 54> H -4.5744 0.7268 -0.6606
| 55> H -6.0181 2.4539 0.3124
| 56> H -5.4112 7.0276 1.5927
| 57> H -2.7002 5.2241 0.2775
| 58> H -1.2680 3.4879 -0.6853
| 59> H 0.8097 2.1143 0.5646
| 60> H 3.2238 2.1093 0.3149
| 61> *
| 62>
| 63>                          ****END OF INPUT****

CARTESIAN COORDINATES (ANGSTROEM)
---------------------------------
  C      5.628700    0.949100    1.524400
  C      5.013600    0.006900    0.461900
  C      5.332500    0.562100   -0.948100
  C      3.477900   -0.028100    0.652300
  C      2.760100   -1.214000    0.941100
  C      1.371300   -1.196800    1.093600
  C      0.656200   -0.001300    0.966500
  C     -0.844100   -0.005000    1.052100
  N     -1.410400   -0.438700   -0.225600
  C     -1.661300   -1.831000   -0.458400
  N     -2.591000   -2.472700    0.299600
  C     -2.870900   -3.792700    0.138400
  C     -2.202500   -4.543800   -0.841300
  C     -2.463000   -6.020400   -1.001000
  F     -3.737300   -6.346700   -0.571800
  F     -1.542100   -6.728700   -0.252800
  F     -2.345400   -6.389900   -2.330100
  C     -1.210000   -3.910800   -1.605300
  C     -0.936000   -2.552300   -1.423300
  Cl     0.358000   -1.809800   -2.355800
  S     -1.802100    0.735600   -1.446100
  O     -0.536000    1.334300   -1.991900
  O     -2.544700    0.076200   -2.575800
  C     -2.826200    1.989700   -0.756400
  C     -4.165600    1.709800   -0.461800
  C     -4.984400    2.695000    0.097600
  C     -4.472800    3.977000    0.369900
  C     -5.337100    5.026800    0.953100
  O     -6.540800    4.779000    1.236000
  O     -4.827600    6.299900    1.197100
  C     -3.124400    4.248600    0.078500
  C     -2.306700    3.260500   -0.477900
  C      1.346900    1.181000    0.680900
  C      2.735000    1.170000    0.532400
  C      5.700200   -1.389500    0.596800
  F      5.212300   -2.270500   -0.355400
  F      5.491900   -1.920600    1.859700
  F      7.069100   -1.281400    0.408400
  H      5.253700    1.989000    1.416500
  H      6.735100    0.990300    1.428700
  H      5.378700    0.597000    2.549000
  H      4.980300    1.607800   -1.068000
  H      6.427200    0.567400   -1.139000
  H      4.844100   -0.058000   -1.730400
  H      3.245500   -2.170500    1.046600
  H      0.850200   -2.124200    1.298400
  H     -1.177300   -0.679900    1.871100
  H     -1.218100    1.008400    1.311900
  H     -3.612400   -4.253200    0.778700
  H     -0.639800   -4.475100   -2.333700
  H     -4.574400    0.726800   -0.660600
  H     -6.018100    2.453900    0.312400
  H     -5.411200    7.027600    1.592700
  H     -2.700200    5.224100    0.277500
  H     -1.268000    3.487900   -0.685300
  H      0.809700    2.114300    0.564600
  H      3.223800    2.109300    0.314900

 Total Charge           Charge          ....    0
 Multiplicity           Mult            ....    1
 Number of Electrons    NEL             ....  296
 Basis Dimension        Dim             ....  578

ORBITAL ENERGIES
----------------

  NO   OCC          E(Eh)            E(eV)
   0   2.0000    -101.535823     -2762.9302
   1   2.0000     -89.107204     -2424.7303
   2   2.0000     -24.734342      -673.0557
   3   2.0000     -24.731755      -672.9853
   4   2.0000     -24.729982      -672.9370
   5   2.0000     -24.719688      -672.6569
   6   2.0000     -24.718885      -672.6351
   7   2.0000     -24.718710      -672.6303
   8   2.0000     -19.202319      -522.5217
   9   2.0000     -19.144713      -520.9541
  10   2.0000     -19.133464      -520.6480
  11   2.0000     -19.130736      -520.5738
  12   2.0000     -14.384957      -391.4346
  13   2.0000     -14.363477      -390.8501
  14   2.0000     -10.451429      -284.3978
  15   2.0000     -10.430664      -283.8328
  16   2.0000     -10.342025      -281.4208
  17   2.0000     -10.296643      -280.1859
  18   2.0000     -10.275805      -279.6189
  19   2.0000     -10.254782      -279.0468
  20   2.0000     -10.251810      -278.9659
  21   2.0000     -10.241640      -278.6892
  22   2.0000     -10.240452      -278.6569
  23   2.0000     -10.239120      -278.6206
  24   2.0000     -10.236728      -278.5555
  25   2.0000     -10.229263      -278.3524
  26   2.0000     -10.228929      -278.3433
  27   2.0000     -10.227148      -278.2948
  28   2.0000     -10.225439      -278.2483
  29   2.0000     -10.225130      -278.2399
  30   2.0000     -10.204218      -277.6709
  31   2.0000     -10.193208      -277.3713
  32   2.0000     -10.188659      -277.2475
  33   2.0000     -10.187449      -277.2146
  34   2.0000     -10.186621      -277.1920
  35   2.0000     -10.185436      -277.1598
  36   2.0000     -10.183473      -277.1064
  37   2.0000     -10.181345      -277.0485
  38   2.0000      -9.466884      -257.6070
  39   2.0000      -8.142930      -221.5804
  40   2.0000      -7.230445      -196.7504
  41   2.0000      -7.220362      -196.4760
  42   2.0000      -7.219839      -196.4618
  43   2.0000      -6.108223      -166.2132
  44   2.0000      -6.105783      -166.1468
  45   2.0000      -6.105471      -166.1383
  46   2.0000      -1.293123       -35.1877
  47   2.0000      -1.278823       -34.7985
  48   2.0000      -1.218558       -33.1587
  49   2.0000      -1.216879       -33.1130
  50   2.0000      -1.204643       -32.7800
  51   2.0000      -1.202869       -32.7317
  52   2.0000      -1.091422       -29.6991
  53   2.0000      -1.086901       -29.5761
  54   2.0000      -1.001324       -27.2474
  55   2.0000      -0.986991       -26.8574
  56   2.0000      -0.968868       -26.3642
  57   2.0000      -0.933243       -25.3948
  58   2.0000      -0.898801       -24.4576
  59   2.0000      -0.881974       -23.9997
  60   2.0000      -0.864757       -23.5312
  61   2.0000      -0.837033       -22.7768
  62   2.0000      -0.826708       -22.4959
  63   2.0000      -0.814707       -22.1693
  64   2.0000      -0.784711       -21.3531
  65   2.0000      -0.778668       -21.1886
  66   2.0000      -0.762936       -20.7605
  67   2.0000      -0.748957       -20.3802
  68   2.0000      -0.731123       -19.8949
  69   2.0000      -0.713143       -19.4056
  70   2.0000      -0.695197       -18.9173
  71   2.0000      -0.692475       -18.8432
  72   2.0000      -0.691603       -18.8195
  73   2.0000      -0.667125       -18.1534
  74   2.0000      -0.653758       -17.7897
  75   2.0000      -0.647069       -17.6076
  76   2.0000      -0.630825       -17.1656
  77   2.0000      -0.621130       -16.9018
  78   2.0000      -0.608793       -16.5661
  79   2.0000      -0.604782       -16.4570
  80   2.0000      -0.585519       -15.9328
  81   2.0000      -0.583799       -15.8860
  82   2.0000      -0.581865       -15.8333
  83   2.0000      -0.570834       -15.5332
  84   2.0000      -0.569268       -15.4906
  85   2.0000      -0.568154       -15.4603
  86   2.0000      -0.567938       -15.4544
  87   2.0000      -0.549544       -14.9538
  88   2.0000      -0.532919       -14.5015
  89   2.0000      -0.526196       -14.3185
  90   2.0000      -0.523159       -14.2359
  91   2.0000      -0.497400       -13.5350
  92   2.0000      -0.495169       -13.4742
  93   2.0000      -0.486413       -13.2360
  94   2.0000      -0.479256       -13.0412
  95   2.0000      -0.477348       -12.9893
  96   2.0000      -0.469600       -12.7785
  97   2.0000      -0.467362       -12.7176
  98   2.0000      -0.462808       -12.5936
  99   2.0000      -0.461018       -12.5449
 100   2.0000      -0.459985       -12.5168
 101   2.0000      -0.456925       -12.4336
 102   2.0000      -0.455964       -12.4074
 103   2.0000      -0.454185       -12.3590
 104   2.0000      -0.448709       -12.2100
 105   2.0000      -0.447644       -12.1810
 106   2.0000      -0.441404       -12.0112
 107   2.0000      -0.438390       -11.9292
 108   2.0000      -0.432363       -11.7652
 109   2.0000      -0.431852       -11.7513
 110   2.0000      -0.430624       -11.7179
 111   2.0000      -0.427331       -11.6283
 112   2.0000      -0.425383       -11.5753
 113   2.0000      -0.423108       -11.5133
 114   2.0000      -0.422127       -11.4866
 115   2.0000      -0.416184       -11.3249
 116   2.0000      -0.410537       -11.1713
 117   2.0000      -0.407617       -11.0918
 118   2.0000      -0.406700       -11.0669
 119   2.0000      -0.402034       -10.9399
 120   2.0000      -0.399415       -10.8686
 121   2.0000      -0.398871       -10.8538
 122   2.0000      -0.393831       -10.7167
 123   2.0000      -0.392536       -10.6815
 124   2.0000      -0.386828       -10.5261
 125   2.0000      -0.385012       -10.4767
 126   2.0000      -0.375610       -10.2209
 127   2.0000      -0.362425        -9.8621
 128   2.0000      -0.358644        -9.7592
 129   2.0000      -0.356505        -9.7010
 130   2.0000      -0.347074        -9.4444
 131   2.0000      -0.337705        -9.1894
 132   2.0000      -0.334177        -9.0934
 133   2.0000      -0.332859        -9.0576
 134   2.0000      -0.331085        -9.0093
 135   2.0000      -0.326507        -8.8847
 136   2.0000      -0.314382        -8.5548
 137   2.0000      -0.311157        -8.4670
 138   2.0000      -0.299623        -8.1532
 139   2.0000      -0.288408        -7.8480
 140   2.0000      -0.287534        -7.8242
 141   2.0000      -0.286023        -7.7831
 142   2.0000      -0.283019        -7.7013
 143   2.0000      -0.280516        -7.6332
 144   2.0000      -0.271271        -7.3817
 145   2.0000      -0.259062        -7.0494
 146   2.0000      -0.250542        -6.8176
 147   2.0000      -0.239642        -6.5210
 148   0.0000      -0.094278        -2.5654
 149   0.0000      -0.065862        -1.7922
 150   0.0000      -0.049655        -1.3512
 151   0.0000      -0.038970        -1.0604
 152   0.0000      -0.013604        -0.3702

MULLIKEN ATOMIC CHARGES
-----------------------
   0 C :   -0.461866
   1 C :   -0.099531
   2 C :   -0.462884
   3 C :    0.146021
   4 C :   -0.177313
   5 C :   -0.176216
   6 C :    0.203254
   7 C :   -0.286947
   8 N :   -0.596135
   9 C :    0.407181
  10 N :   -0.385752
  11 C :   -0.011697
  12 C :   -0.024326
  13 C :    0.903703
  14 F :   -0.300919
  15 F :   -0.291793
  16 F :   -0.299547
  17 C :   -0.133059
  18 C :   -0.077899
  19 Cl:    0.062904
  20 S :    1.232067
  21 O :   -0.535410
  22 O :   -0.543457
  23 C :   -0.139762
  24 C :   -0.136397
  25 C :   -0.140031
  26 C :    0.084265
  27 C :    0.530311
  28 O :   -0.440957
  29 O :   -0.623446
  30 C :   -0.145211
  31 C :   -0.149460
  32 C :   -0.146951
  33 C :   -0.179445
  34 C :    0.953234
  35 F :   -0.310722
  36 F :   -0.312055
  37 F :   -0.308619
  38 H :    0.152553
  39 H :    0.158209
  40 H :    0.162672
  41 H :    0.154893
  42 H :    0.157478
  43 H :    0.168916
  44 H :    0.141407
  45 H :    0.127525
  46 H :    0.188747
  47 H :    0.164140
  48 H :    0.180222
  49 H :    0.190741
  50 H :    0.189760
  51 H :    0.184959
  52 H :    0.436152
  53 H :    0.175447
  54 H :    0.189668
  55 H :    0.123911
  56 H :    0.127468
Sum of atomic charges:    0.0000000

LOEWDIN ATOMIC CHARGES
----------------------
   0 C :   -0.348246
   1 C :   -0.062125
   2 C :   -0.348419
   3 C :   -0.003513
   4 C :   -0.133175
   5 C :   -0.129112
   6 C :   -0.034221
   7 C :   -0.148928
   8 N :   -0.276965
   9 C :    0.059202
  10 N :   -0.119449
  11 C :   -0.054436
  12 C :   -0.075964
  13 C :    0.312423
  14 F :   -0.107948
  15 F :   -0.109007
  16 F :   -0.109110
  17 C :   -0.087985
  18 C :   -0.083860
  19 Cl:    0.089459
  20 S :    1.264850
  21 O :   -0.562184
  22 O :   -0.568227
  23 C :   -0.175812
  24 C :   -0.095098
  25 C :   -0.084076
  26 C :   -0.035309
  27 C :    0.180443
  28 O :   -0.257128
  29 O :   -0.333996
  30 C :   -0.099127
  31 C :   -0.106963
  32 C :   -0.118715
  33 C :   -0.125259
  34 C :    0.318516
  35 F :   -0.113552
  36 F :   -0.114642
  37 F :   -0.114042
  38 H :    0.129733
  39 H :    0.130561
  40 H :    0.133563
  41 H :    0.130884
  42 H :    0.130340
  43 H :    0.136884
  44 H :    0.137819
  45 H :    0.130752
  46 H :    0.148191
  47 H :    0.135485
  48 H :    0.150706
  49 H :    0.163913
  50 H :    0.162313
  51 H :    0.162550
  52 H :    0.351217
  53 H :    0.156079
  54 H :    0.160224
  55 H :    0.129694
  56 H :    0.130794

  Mayer bond orders larger than 0.100000
B(  0-C ,  1-C ) :   0.9781 B(  0-C , 38-H ) :   0.9381 B(  0-C , 39-H ) :   0.9355
B(  0-C , 40-H ) :   0.9412 B(  1-C ,  2-C ) :   0.9783 B(  1-C ,  3-C ) :   0.9400
B(  1-C , 34-C ) :   0.9388 B(  2-C , 41-H ) :   0.9373 B(  2-C , 42-H ) :   0.9351
B(  2-C , 43-H ) :   0.9401 B(  3-C ,  4-C ) :   1.4376 B(  3-C , 33-C ) :   1.4013
B(  4-C ,  5-C ) :   1.4230 B(  4-C , 44-H ) :   0.9053 B(  5-C ,  6-C ) :   1.4335
B(  5-C , 45-H ) :   0.9230 B(  6-C ,  7-C ) :   0.9274 B(  6-C , 32-C ) :   1.4351
B(  7-C ,  8-N ) :   0.9252 B(  7-C , 46-H ) :   0.9186 B(  7-C , 47-H ) :   0.9237
B(  8-N ,  9-C ) :   0.9379 B(  8-N , 20-S ) :   0.7889 B(  9-C , 10-N ) :   1.3917
B(  9-C , 18-C ) :   1.3309 B( 10-N , 11-C ) :   1.4081 B( 11-C , 12-C ) :   1.3643
B( 11-C , 48-H ) :   0.9183 B( 12-C , 13-C ) :   0.9724 B( 12-C , 17-C ) :   1.4052
B( 13-C , 14-F ) :   0.9493 B( 13-C , 15-F ) :   0.9890 B( 13-C , 16-F ) :   0.9547
B( 17-C , 18-C ) :   1.3901 B( 17-C , 49-H ) :   0.9083 B( 18-C , 19-Cl) :   1.0872
B( 20-S , 21-O ) :   1.6351 B( 20-S , 22-O ) :   1.6359 B( 20-S , 23-C ) :   0.8095
B( 23-C , 24-C ) :   1.3766 B( 23-C , 31-C ) :   1.3963 B( 24-C , 25-C ) :   1.4300
B( 24-C , 50-H ) :   0.9096 B( 25-C , 26-C ) :   1.3976 B( 25-C , 51-H ) :   0.9085
B( 26-C , 27-C ) :   1.0063 B( 26-C , 30-C ) :   1.3888 B( 27-C , 28-O ) :   1.8646
B( 27-C , 29-O ) :   1.0267 B( 29-O , 52-H ) :   0.7405 B( 30-C , 31-C ) :   1.4095
B( 30-C , 53-H ) :   0.9142 B( 31-C , 54-H ) :   0.9061 B( 32-C , 33-C ) :   1.4438
B( 32-C , 55-H ) :   0.9198 B( 33-C , 56-H ) :   0.9208 B( 34-C , 35-F ) :   0.9282
B( 34-C , 36-F ) :   0.9244 B( 34-C , 37-F ) :   0.9399

FINAL SINGLE POINT ENERGY     -2792.588138090332

DIPOLE MOMENT
-------------

Method             : SCF
Type of density    : Electron Density
Multiplicity       :   1
Irrep              :   0
Energy             : -2792.5881380903315403 Eh
Relativity type    :
Basis              : AO
                                X                 Y                 Z
Electronic contribution:     -7.756858615     -45.661277576     -12.367557029
Nuclear contribution   :      7.692053918      47.160620197      13.922608458
                        -----------------------------------------
Total Dipole Moment    :     -0.064804697       1.499342621       1.555051429
                        -----------------------------------------
Magnitude (a.u.)       :      2.161113808
Magnitude (Debye)      :      5.493114755

Rotational constants in cm-1:             0.002722             0.001870             0.001216
Rotational constants in MHz :            81.595461            56.067210            36.451294

                             ****ORCA TERMINATED NORMALLY****
TOTAL RUN TIME: 0 days 0 hours 10 minutes 23 seconds 403 msec
