                         Program Version 6.0.0  -   RELEASE  -
|  1> ! B3LYP 6-31G* SP
|  2>
|  3> * xyz 0 1
|  4> C -4.1490 1.3293 -0.9894
|  5> C -3.6564 -0.0378 -1.3631
|  6> C -2.6047 -0.6975 -0.7204
|  7> N -1.8311 -0.1711 0.3610
|  8> C -2.0291 -0.7000 1.7116
|  9> C -3.3862 -0.3051 2.2269
| 10> C -4.4054 -1.2607 2.3616
| 11> C -5.6714 -0.8800 2.8145
| 12> C -5.9499 0.4591 3.1139
| 13> O -7.2410 0.7839 3.5636
| 14> C -7.7146 2.1059 3.8171
| 15> F -6.9778 2.6972 4.8304
| 16> F -9.0374 2.0398 4.2087
| 17> F -7.6264 2.8704 2.6654
| 18> C -4.9326 1.4206 2.9587
| 19> C -3.6585 1.0367 2.5285
| 20> S -0.4555 0.8214 -0.0081
| 21> O 0.0206 1.5236 1.2342
| 22> O -0.8379 1.8545 -1.0309
| 23> C 0.8456 -0.2138 -0.6591
| 24> C 2.1608 0.5658 -0.7963
| 25> N 3.1098 -0.1267 -1.7004
| 26> C 4.1859 0.7730 -2.2012
| 27> C 5.5853 0.4695 -1.6274
| 28> C 5.4924 0.0508 -0.1512
| 29> C 6.8676 -0.1607 0.4576
| 30> C 7.7755 -1.0833 -0.1016
| 31> C 9.0338 -1.2773 0.4757
| 32> C 9.3984 -0.5610 1.6185
| 33> C 8.5032 0.3464 2.1908
| 34> C 7.2434 0.5460 1.6167
| 35> C 4.5999 -1.2005 0.0220
| 36> C 3.6271 -1.4034 -1.1562
| 37> S -2.4005 -2.2467 -1.3600
| 38> C -3.6494 -2.0948 -2.4716
| 39> C -4.0880 -3.0415 -3.3938
| 40> C -5.1699 -2.7111 -4.2217
| 41> C -5.7897 -1.4522 -4.1119
| 42> C -5.3313 -0.5106 -3.1752
| 43> C -4.2463 -0.8442 -2.3532
| 44> H -4.2499 1.9545 -1.9006
| 45> H -5.1366 1.2424 -0.4888
| 46> H -3.4478 1.8392 -0.2977
| 47> H -1.2548 -0.3125 2.4060
| 48> H -1.9158 -1.8054 1.6942
| 49> H -4.2191 -2.2991 2.1212
| 50> H -6.4437 -1.6300 2.9278
| 51> H -5.1066 2.4649 3.1777
| 52> H -2.8835 1.7869 2.4186
| 53> H 0.5255 -0.5951 -1.6533
| 54> H 0.9762 -1.0723 0.0330
| 55> H 2.6072 0.7337 0.2079
| 56> H 1.9069 1.5633 -1.2221
| 57> H 4.2343 0.6747 -3.3058
| 58> H 3.9560 1.8429 -2.0023
| 59> H 6.0503 -0.3416 -2.2290
| 60> H 6.2262 1.3734 -1.7271
| 61> H 4.9976 0.8930 0.3822
| 62> H 7.5091 -1.6606 -0.9781
| 63> H 9.7246 -1.9877 0.0381
| 64> H 10.3729 -0.7125 2.0641
| 65> H 8.7855 0.8943 3.0812
| 66> H 6.5627 1.2509 2.0800
| 67> H 5.2142 -2.1232 0.1162
| 68> H 4.0204 -1.1057 0.9666
| 69> H 2.8001 -2.0781 -0.8526
| 70> H 4.1587 -1.9443 -1.9710
| 71> H -3.6068 -4.0075 -3.4697
| 72> H -5.5309 -3.4274 -4.9473
| 73> H -6.6247 -1.2076 -4.7554
| 74> H -5.8176 0.4538 -3.0987
| 75> *
| 76>
| 77>                          ****END OF INPUT****

CARTESIAN COORDINATES (ANGSTROEM)
---------------------------------
  C     -4.149000    1.329300   -0.989400
  C     -3.656400   -0.037800   -1.363100
  C     -2.604700   -0.697500   -0.720400
  N     -1.831100   -0.171100    0.361000
  C     -2.029100   -0.700000    1.711600
  C     -3.386200   -0.305100    2.226900
  C     -4.405400   -1.260700    2.361600
  C     -5.671400   -0.880000    2.814500
  C     -5.949900    0.459100    3.113900
  O     -7.241000    0.783900    3.563600
  C     -7.714600    2.105900    3.817100
  F     -6.977800    2.697200    4.830400
  F     -9.037400    2.039800    4.208700
  F     -7.626400    2.870400    2.665400
  C     -4.932600    1.420600    2.958700
  C     -3.658500    1.036700    2.528500
  S     -0.455500    0.821400   -0.008100
  O      0.020600    1.523600    1.234200
  O     -0.837900    1.854500   -1.030900
  C      0.845600   -0.213800   -0.659100
  C      2.160800    0.565800   -0.796300
  N      3.109800   -0.126700   -1.700400
  C      4.185900    0.773000   -2.201200
  C      5.585300    0.469500   -1.627400
  C      5.492400    0.050800   -0.151200
  C      6.867600   -0.160700    0.457600
  C      7.775500   -1.083300   -0.101600
  C      9.033800   -1.277300    0.475700
  C      9.398400   -0.561000    1.618500
  C      8.503200    0.346400    2.190800
  C      7.243400    0.546000    1.616700
  C      4.599900   -1.200500    0.022000
  C      3.627100   -1.403400   -1.156200
  S     -2.400500   -2.246700   -1.360000
  C     -3.649400   -2.094800   -2.471600
  C     -4.088000   -3.041500   -3.393800
  C     -5.169900   -2.711100   -4.221700
  C     -5.789700   -1.452200   -4.111900
  C     -5.331300   -0.510600   -3.175200
  C     -4.246300   -0.844200   -2.353200
  H     -4.249900    1.954500   -1.900600
  H     -5.136600    1.242400   -0.488800
  H     -3.447800    1.839200   -0.297700
  H     -1.254800   -0.312500    2.406000
  H     -1.915800   -1.805400    1.694200
  H     -4.219100   -2.299100    2.121200
  H     -6.443700   -1.630000    2.927800
  H     -5.106600    2.464900    3.177700
  H     -2.883500    1.786900    2.418600
  H      0.525500   -0.595100   -1.653300
  H      0.976200   -1.072300    0.033000
  H      2.607200    0.733700    0.207900
  H      1.906900    1.563300   -1.222100
  H      4.234300    0.674700   -3.305800
  H      3.956000    1.842900   -2.002300
  H      6.050300   -0.341600   -2.229000
  H      6.226200    1.373400   -1.727100
  H      4.997600    0.893000    0.382200
  H      7.509100   -1.660600   -0.978100
  H      9.724600   -1.987700    0.038100
  H     10.372900   -0.712500    2.064100
  H      8.785500    0.894300    3.081200
  H      6.562700    1.250900    2.080000
  H      5.214200   -2.123200    0.116200
  H      4.020400   -1.105700    0.966600
  H      2.800100   -2.078100   -0.852600
  H      4.158700   -1.944300   -1.971000
  H     -3.606800   -4.007500   -3.469700
  H     -5.530900   -3.427400   -4.947300
  H     -6.624700   -1.207600   -4.755400
  H     -5.817600    0.453800   -3.098700

 Total Charge           Charge          ....    0
 Multiplicity           Mult            ....    1
 Number of Electrons    NEL             ....  308
 Basis Dimension        Dim             ....  630

ORBITAL ENERGIES
----------------

  NO   OCC          E(Eh)            E(eV)
   0   2.0000     -89.092575     -2424.3322
   1   2.0000     -88.887402     -2418.7492
   2   2.0000     -24.740257      -673.2166
   3   2.0000     -24.737361      -673.1378
   4   2.0000     -24.736623      -673.1177
   5   2.0000     -19.211837      -522.7807
   6   2.0000     -19.128644      -520.5169
   7   2.0000     -19.122976      -520.3626
   8   2.0000     -14.381598      -391.3432
   9   2.0000     -14.323423      -389.7601
  10   2.0000     -10.502666      -285.7921
  11   2.0000     -10.267887      -279.4034
  12   2.0000     -10.243547      -278.7411
  13   2.0000     -10.234543      -278.4961
  14   2.0000     -10.227058      -278.2924
  15   2.0000     -10.219875      -278.0969
  16   2.0000     -10.212830      -277.9052
  17   2.0000     -10.208883      -277.7978
  18   2.0000     -10.204291      -277.6729
  19   2.0000     -10.197467      -277.4872
  20   2.0000     -10.196626      -277.4643
  21   2.0000     -10.196144      -277.4512
  22   2.0000     -10.195951      -277.4459
  23   2.0000     -10.194954      -277.4188
  24   2.0000     -10.194780      -277.4141
  25   2.0000     -10.192918      -277.3634
  26   2.0000     -10.190124      -277.2874
  27   2.0000     -10.189246      -277.2635
  28   2.0000     -10.188391      -277.2402
  29   2.0000     -10.187846      -277.2254
  30   2.0000     -10.187532      -277.2168
  31   2.0000     -10.186453      -277.1875
  32   2.0000     -10.179870      -277.0084
  33   2.0000     -10.179154      -276.9889
  34   2.0000     -10.178772      -276.9785
  35   2.0000     -10.178742      -276.9777
  36   2.0000     -10.178225      -276.9636
  37   2.0000     -10.177718      -276.9498
  38   2.0000     -10.177055      -276.9318
  39   2.0000     -10.170607      -276.7563
  40   2.0000      -8.129607      -221.2179
  41   2.0000      -7.965631      -216.7558
  42   2.0000      -6.094605      -165.8426
  43   2.0000      -6.092758      -165.7924
  44   2.0000      -6.091781      -165.7658
  45   2.0000      -5.928693      -161.3279
  46   2.0000      -5.925001      -161.2275
  47   2.0000      -5.922012      -161.1462
  48   2.0000      -1.301900       -35.4265
  49   2.0000      -1.223004       -33.2796
  50   2.0000      -1.222256       -33.2593
  51   2.0000      -1.082728       -29.4625
  52   2.0000      -1.081155       -29.4197
  53   2.0000      -0.962544       -26.1922
  54   2.0000      -0.953457       -25.9449
  55   2.0000      -0.919144       -25.0112
  56   2.0000      -0.902775       -24.5658
  57   2.0000      -0.863767       -23.5043
  58   2.0000      -0.850408       -23.1408
  59   2.0000      -0.828930       -22.5563
  60   2.0000      -0.811262       -22.0756
  61   2.0000      -0.791453       -21.5365
  62   2.0000      -0.788421       -21.4540
  63   2.0000      -0.780579       -21.2406
  64   2.0000      -0.757405       -20.6101
  65   2.0000      -0.750459       -20.4210
  66   2.0000      -0.738865       -20.1055
  67   2.0000      -0.736565       -20.0430
  68   2.0000      -0.732536       -19.9333
  69   2.0000      -0.730729       -19.8841
  70   2.0000      -0.719565       -19.5804
  71   2.0000      -0.689578       -18.7644
  72   2.0000      -0.676598       -18.4112
  73   2.0000      -0.664129       -18.0719
  74   2.0000      -0.643409       -17.5081
  75   2.0000      -0.631856       -17.1937
  76   2.0000      -0.626885       -17.0584
  77   2.0000      -0.623121       -16.9560
  78   2.0000      -0.612579       -16.6691
  79   2.0000      -0.599966       -16.3259
  80   2.0000      -0.593998       -16.1635
  81   2.0000      -0.593893       -16.1606
  82   2.0000      -0.590394       -16.0654
  83   2.0000      -0.581089       -15.8122
  84   2.0000      -0.577077       -15.7031
  85   2.0000      -0.571667       -15.5558
  86   2.0000      -0.553566       -15.0633
  87   2.0000      -0.533797       -14.5253
  88   2.0000      -0.526091       -14.3157
  89   2.0000      -0.511743       -13.9252
  90   2.0000      -0.509028       -13.8513
  91   2.0000      -0.500634       -13.6229
  92   2.0000      -0.493934       -13.4406
  93   2.0000      -0.489941       -13.3320
  94   2.0000      -0.484364       -13.1802
  95   2.0000      -0.483122       -13.1464
  96   2.0000      -0.476433       -12.9644
  97   2.0000      -0.470338       -12.7985
  98   2.0000      -0.468020       -12.7355
  99   2.0000      -0.466319       -12.6892
 100   2.0000      -0.463648       -12.6165
 101   2.0000      -0.458254       -12.4697
 102   2.0000      -0.455101       -12.3839
 103   2.0000      -0.447901       -12.1880
 104   2.0000      -0.443576       -12.0703
 105   2.0000      -0.442555       -12.0425
 106   2.0000      -0.441101       -12.0030
 107   2.0000      -0.437933       -11.9168
 108   2.0000      -0.435343       -11.8463
 109   2.0000      -0.433348       -11.7920
 110   2.0000      -0.427468       -11.6320
 111   2.0000      -0.425698       -11.5838
 112   2.0000      -0.419943       -11.4272
 113   2.0000      -0.416897       -11.3443
 114   2.0000      -0.414714       -11.2849
 115   2.0000      -0.413798       -11.2600
 116   2.0000      -0.412163       -11.2155
 117   2.0000      -0.407171       -11.0797
 118   2.0000      -0.405561       -11.0359
 119   2.0000      -0.404612       -11.0100
 120   2.0000      -0.394851       -10.7444
 121   2.0000      -0.390452       -10.6247
 122   2.0000      -0.389435       -10.5971
 123   2.0000      -0.385964       -10.5026
 124   2.0000      -0.380628       -10.3574
 125   2.0000      -0.378086       -10.2882
 126   2.0000      -0.375618       -10.2211
 127   2.0000      -0.372799       -10.1444
 128   2.0000      -0.361920        -9.8483
 129   2.0000      -0.355454        -9.6724
 130   2.0000      -0.352854        -9.6017
 131   2.0000      -0.352123        -9.5817
 132   2.0000      -0.349580        -9.5126
 133   2.0000      -0.347523        -9.4566
 134   2.0000      -0.344158        -9.3650
 135   2.0000      -0.340370        -9.2619
 136   2.0000      -0.338513        -9.2114
 137   2.0000      -0.336186        -9.1481
 138   2.0000      -0.324485        -8.8297
 139   2.0000      -0.322826        -8.7845
 140   2.0000      -0.318333        -8.6623
 141   2.0000      -0.311558        -8.4779
 142   2.0000      -0.300556        -8.1786
 143   2.0000      -0.291739        -7.9386
 144   2.0000      -0.279512        -7.6059
 145   2.0000      -0.271094        -7.3768
 146   2.0000      -0.267658        -7.2834
 147   2.0000      -0.259453        -7.0601
 148   2.0000      -0.244963        -6.6658
 149   2.0000      -0.241018        -6.5584
 150   2.0000      -0.235921        -6.4197
 151   2.0000      -0.235224        -6.4008
 152   2.0000      -0.210989        -5.7413
 153   2.0000      -0.205690        -5.5971
 154   0.0000      -0.038354        -1.0437
 155   0.0000      -0.015471        -0.4210
 156   0.0000      -0.011563        -0.3147
 157   0.0000      -0.003550        -0.0966
 158   0.0000       0.000991         0.0270

MULLIKEN ATOMIC CHARGES
-----------------------
   0 C :   -0.522805
   1 C :    0.200134
   2 C :   -0.081891
   3 N :   -0.601502
   4 C :   -0.248633
   5 C :    0.164137
   6 C :   -0.167207
   7 C :   -0.171927
   8 C :    0.352337
   9 O :   -0.545733
  10 C :    1.086135
  11 F :   -0.291012
  12 F :   -0.278721
  13 F :   -0.292244
  14 C :   -0.190910
  15 C :   -0.170998
  16 S :    1.241227
  17 O :   -0.560459
  18 O :   -0.546502
  19 C :   -0.488925
  20 C :   -0.142810
  21 N :   -0.376806
  22 C :   -0.132697
  23 C :   -0.284544
  24 C :   -0.157110
  25 C :    0.167657
  26 C :   -0.176227
  27 C :   -0.128674
  28 C :   -0.127097
  29 C :   -0.125090
  30 C :   -0.187992
  31 C :   -0.281548
  32 C :   -0.157167
  33 S :    0.197200
  34 C :   -0.116588
  35 C :   -0.175210
  36 C :   -0.114562
  37 C :   -0.145001
  38 C :   -0.174039
  39 C :    0.112588
  40 H :    0.159750
  41 H :    0.160917
  42 H :    0.190115
  43 H :    0.197795
  44 H :    0.154020
  45 H :    0.141061
  46 H :    0.148201
  47 H :    0.156716
  48 H :    0.170364
  49 H :    0.224116
  50 H :    0.186625
  51 H :    0.151977
  52 H :    0.186990
  53 H :    0.139131
  54 H :    0.142671
  55 H :    0.135034
  56 H :    0.145264
  57 H :    0.129807
  58 H :    0.121427
  59 H :    0.126260
  60 H :    0.124985
  61 H :    0.127095
  62 H :    0.125224
  63 H :    0.140321
  64 H :    0.135832
  65 H :    0.136398
  66 H :    0.142006
  67 H :    0.139001
  68 H :    0.132992
  69 H :    0.131890
  70 H :    0.137227
Sum of atomic charges:   -0.0000000

LOEWDIN ATOMIC CHARGES
----------------------
   0 C :   -0.352621
   1 C :   -0.017283
   2 C :   -0.175509
   3 N :   -0.286288
   4 C :   -0.150451
   5 C :   -0.037636
   6 C :   -0.121839
   7 C :   -0.142269
   8 C :    0.086750
   9 O :   -0.160746
  10 C :    0.361307
  11 F :   -0.105633
  12 F :   -0.087120
  13 F :   -0.106347
  14 C :   -0.157930
  15 C :   -0.110313
  16 S :    1.254726
  17 O :   -0.588383
  18 O :   -0.578556
  19 C :   -0.376353
  20 C :   -0.160754
  21 N :   -0.187755
  22 C :   -0.155836
  23 C :   -0.234419
  24 C :   -0.116354
  25 C :   -0.007572
  26 C :   -0.137177
  27 C :   -0.127990
  28 C :   -0.135374
  29 C :   -0.127651
  30 C :   -0.138267
  31 C :   -0.241507
  32 C :   -0.163788
  33 S :    0.350588
  34 C :   -0.163518
  35 C :   -0.133824
  36 C :   -0.127535
  37 C :   -0.133054
  38 C :   -0.119232
  39 C :   -0.042429
  40 H :    0.137575
  41 H :    0.137696
  42 H :    0.150630
  43 H :    0.156468
  44 H :    0.122989
  45 H :    0.138523
  46 H :    0.145012
  47 H :    0.143856
  48 H :    0.150016
  49 H :    0.173846
  50 H :    0.151624
  51 H :    0.115436
  52 H :    0.145334
  53 H :    0.117247
  54 H :    0.123346
  55 H :    0.116999
  56 H :    0.130621
  57 H :    0.120941
  58 H :    0.127187
  59 H :    0.130203
  60 H :    0.129910
  61 H :    0.130752
  62 H :    0.129690
  63 H :    0.126164
  64 H :    0.119705
  65 H :    0.119893
  66 H :    0.119540
  67 H :    0.138043
  68 H :    0.134923
  69 H :    0.133481
  70 H :    0.138297

  Mayer bond orders larger than 0.100000
B(  0-C ,  1-C ) :   1.0276 B(  0-C , 40-H ) :   0.9279 B(  0-C , 41-H ) :   0.9255
B(  0-C , 42-H ) :   0.9234 B(  1-C ,  2-C ) :   1.5125 B(  1-C , 39-C ) :   1.2403
B(  2-C ,  3-N ) :   0.9169 B(  2-C , 33-S ) :   1.0495 B(  3-N ,  4-C ) :   0.9252
B(  3-N , 16-S ) :   0.7737 B(  4-C ,  5-C ) :   0.9632 B(  4-C , 43-H ) :   0.9058
B(  4-C , 44-H ) :   0.9239 B(  5-C ,  6-C ) :   1.4400 B(  5-C , 15-C ) :   1.4249
B(  6-C ,  7-C ) :   1.4302 B(  6-C , 45-H ) :   0.9206 B(  7-C ,  8-C ) :   1.4246
B(  7-C , 46-H ) :   0.9182 B(  8-C ,  9-O ) :   0.8240 B(  8-C , 14-C ) :   1.3839
B(  9-O , 10-C ) :   0.9905 B( 10-C , 11-F ) :   0.9665 B( 10-C , 12-F ) :   1.0083
B( 10-C , 13-F ) :   0.9695 B( 14-C , 15-C ) :   1.4338 B( 14-C , 47-H ) :   0.9093
B( 15-C , 48-H ) :   0.9114 B( 16-S , 17-O ) :   1.6088 B( 16-S , 18-O ) :   1.6522
B( 16-S , 19-C ) :   0.8309 B( 19-C , 20-C ) :   0.9665 B( 19-C , 49-H ) :   0.8914
B( 19-C , 50-H ) :   0.9071 B( 20-C , 21-N ) :   0.9596 B( 20-C , 51-H ) :   0.9095
B( 20-C , 52-H ) :   0.9201 B( 21-N , 22-C ) :   0.9652 B( 21-N , 32-C ) :   0.9949
B( 22-C , 23-C ) :   0.9826 B( 22-C , 53-H ) :   0.9371 B( 22-C , 54-H ) :   0.9356
B( 23-C , 24-C ) :   0.9950 B( 23-C , 55-H ) :   0.9343 B( 23-C , 56-H ) :   0.9354
B( 24-C , 25-C ) :   0.9832 B( 24-C , 31-C ) :   0.9700 B( 24-C , 57-H ) :   0.9223
B( 25-C , 26-C ) :   1.4125 B( 25-C , 30-C ) :   1.4379 B( 26-C , 27-C ) :   1.4466
B( 26-C , 58-H ) :   0.9226 B( 27-C , 28-C ) :   1.4488 B( 27-C , 59-H ) :   0.9301
B( 28-C , 29-C ) :   1.4601 B( 28-C , 60-H ) :   0.9307 B( 29-C , 30-C ) :   1.4319
B( 29-C , 61-H ) :   0.9296 B( 30-C , 62-H ) :   0.9241 B( 31-C , 32-C ) :   0.9655
B( 31-C , 63-H ) :   0.9331 B( 31-C , 64-H ) :   0.9424 B( 32-C , 65-H ) :   0.9372
B( 32-C , 66-H ) :   0.9396 B( 33-S , 34-C ) :   1.0570 B( 34-C , 35-C ) :   1.3384
B( 34-C , 39-C ) :   1.3157 B( 35-C , 36-C ) :   1.4891 B( 35-C , 38-C ) :   0.1000
B( 35-C , 67-H ) :   0.9252 B( 36-C , 37-C ) :   1.3871 B( 36-C , 68-H ) :   0.9306
B( 37-C , 38-C ) :   1.4764 B( 37-C , 69-H ) :   0.9301 B( 38-C , 39-C ) :   1.3389
B( 38-C , 70-H ) :   0.9184

FINAL SINGLE POINT ENERGY     -2591.645816660859

DIPOLE MOMENT
-------------

Method             : SCF
Type of density    : Electron Density
Multiplicity       :   1
Irrep              :   0
Energy             : -2591.6458166608585998 Eh
Relativity type    :
Basis              : AO
                                X                 Y                 Z
Electronic contribution:    -81.701236446      14.705827952      29.303507240
Nuclear contribution   :     82.305267561     -16.414576008     -29.727962758
                        -----------------------------------------
Total Dipole Moment    :      0.604031114      -1.708748055      -0.424455519
                        -----------------------------------------
Magnitude (a.u.)       :      1.861406992
Magnitude (Debye)      :      4.731320570

Rotational constants in cm-1:             0.004010             0.001009             0.000861
Rotational constants in MHz :           120.219343            30.235475            25.820019

                             ****ORCA TERMINATED NORMALLY****
TOTAL RUN TIME: 0 days 0 hours 13 minutes 54 seconds 182 msec
