                         Program Version 6.0.0  -   RELEASE  -
|  1> ! B3LYP 6-31G* SP
|  2>
|  3> * xyz 0 1
|  4> C -0.5801 0.5574 1.9719
|  5> C -0.4087 1.9032 1.3236
|  6> C 0.1647 2.9498 2.0605
|  7> C 0.3350 4.2108 1.4788
|  8> C 0.9192 5.2695 2.1909
|  9> C 1.0802 6.5173 1.5798
| 10> C 0.6602 6.7139 0.2602
| 11> C 0.0761 5.6640 -0.4553
| 12> C -0.0891 4.4123 0.1487
| 13> N -0.6592 3.3915 -0.5423
| 14> C -0.8422 2.1586 0.0039
| 15> N -1.4355 1.1286 -0.7966
| 16> C -0.6988 0.5924 -1.9429
| 17> C 0.3776 -0.3432 -1.4655
| 18> C 0.1300 -1.7194 -1.3714
| 19> C 1.0990 -2.5760 -0.8476
| 20> C 2.3327 -2.0734 -0.4078
| 21> C 2.5777 -0.6809 -0.4693
| 22> C 1.6046 0.1679 -1.0178
| 23> C 3.9020 -0.0912 -0.0441
| 24> C 4.6880 -1.0197 0.8861
| 25> C 4.7330 -2.4352 0.3115
| 26> C 3.3211 -3.0226 0.2283
| 27> S -3.1191 0.7534 -0.5931
| 28> O -3.9139 1.4257 -1.6771
| 29> O -3.6036 1.2601 0.7370
| 30> C -3.3525 -0.9909 -0.6629
| 31> C -3.7026 -1.6088 -1.8702
| 32> C -3.8381 -2.9984 -1.9376
| 33> C -3.6241 -3.7915 -0.7958
| 34> C -3.7571 -5.2633 -0.8629
| 35> O -4.0649 -5.8281 -1.9474
| 36> O -3.5426 -6.0399 0.2729
| 37> C -3.2784 -3.1646 0.4138
| 38> C -3.1451 -1.7749 0.4785
| 39> H 0.2434 0.3646 2.6919
| 40> H -0.5602 -0.2591 1.2226
| 41> H -1.5456 0.5311 2.5174
| 42> H 0.4845 2.7778 3.0822
| 43> H 1.2506 5.1321 3.2132
| 44> H 1.5315 7.3331 2.1294
| 45> H 0.7873 7.6813 -0.2083
| 46> H -0.2470 5.8250 -1.4764
| 47> H -1.3875 0.0585 -2.6322
| 48> H -0.2517 1.4252 -2.5285
| 49> H -0.8170 -2.1309 -1.6945
| 50> H 0.8822 -3.6347 -0.7733
| 51> H 1.7958 1.2331 -1.0797
| 52> H 4.5066 0.1104 -0.9549
| 53> H 3.7353 0.8763 0.4781
| 54> H 5.7236 -0.6333 1.0014
| 55> H 4.2122 -1.0359 1.8917
| 56> H 5.3614 -3.0800 0.9631
| 57> H 5.1932 -2.4162 -0.7012
| 58> H 2.9663 -3.2653 1.2535
| 59> H 3.3634 -3.9696 -0.3525
| 60> H -3.8566 -1.0180 -2.7641
| 61> H -4.1036 -3.4513 -2.8846
| 62> H -3.6308 -7.0485 0.2379
| 63> H -3.1074 -3.7469 1.3104
| 64> H -2.8756 -1.3133 1.4186
| 65> *
| 66>
| 67>                          ****END OF INPUT****

CARTESIAN COORDINATES (ANGSTROEM)
---------------------------------
  C     -0.580100    0.557400    1.971900
  C     -0.408700    1.903200    1.323600
  C      0.164700    2.949800    2.060500
  C      0.335000    4.210800    1.478800
  C      0.919200    5.269500    2.190900
  C      1.080200    6.517300    1.579800
  C      0.660200    6.713900    0.260200
  C      0.076100    5.664000   -0.455300
  C     -0.089100    4.412300    0.148700
  N     -0.659200    3.391500   -0.542300
  C     -0.842200    2.158600    0.003900
  N     -1.435500    1.128600   -0.796600
  C     -0.698800    0.592400   -1.942900
  C      0.377600   -0.343200   -1.465500
  C      0.130000   -1.719400   -1.371400
  C      1.099000   -2.576000   -0.847600
  C      2.332700   -2.073400   -0.407800
  C      2.577700   -0.680900   -0.469300
  C      1.604600    0.167900   -1.017800
  C      3.902000   -0.091200   -0.044100
  C      4.688000   -1.019700    0.886100
  C      4.733000   -2.435200    0.311500
  C      3.321100   -3.022600    0.228300
  S     -3.119100    0.753400   -0.593100
  O     -3.913900    1.425700   -1.677100
  O     -3.603600    1.260100    0.737000
  C     -3.352500   -0.990900   -0.662900
  C     -3.702600   -1.608800   -1.870200
  C     -3.838100   -2.998400   -1.937600
  C     -3.624100   -3.791500   -0.795800
  C     -3.757100   -5.263300   -0.862900
  O     -4.064900   -5.828100   -1.947400
  O     -3.542600   -6.039900    0.272900
  C     -3.278400   -3.164600    0.413800
  C     -3.145100   -1.774900    0.478500
  H      0.243400    0.364600    2.691900
  H     -0.560200   -0.259100    1.222600
  H     -1.545600    0.531100    2.517400
  H      0.484500    2.777800    3.082200
  H      1.250600    5.132100    3.213200
  H      1.531500    7.333100    2.129400
  H      0.787300    7.681300   -0.208300
  H     -0.247000    5.825000   -1.476400
  H     -1.387500    0.058500   -2.632200
  H     -0.251700    1.425200   -2.528500
  H     -0.817000   -2.130900   -1.694500
  H      0.882200   -3.634700   -0.773300
  H      1.795800    1.233100   -1.079700
  H      4.506600    0.110400   -0.954900
  H      3.735300    0.876300    0.478100
  H      5.723600   -0.633300    1.001400
  H      4.212200   -1.035900    1.891700
  H      5.361400   -3.080000    0.963100
  H      5.193200   -2.416200   -0.701200
  H      2.966300   -3.265300    1.253500
  H      3.363400   -3.969600   -0.352500
  H     -3.856600   -1.018000   -2.764100
  H     -4.103600   -3.451300   -2.884600
  H     -3.630800   -7.048500    0.237900
  H     -3.107400   -3.746900    1.310400
  H     -2.875600   -1.313300    1.418600

 Total Charge           Charge          ....    0
 Multiplicity           Mult            ....    1
 Number of Electrons    NEL             ....  256
 Basis Dimension        Dim             ....  546

ORBITAL ENERGIES
----------------

  NO   OCC          E(Eh)            E(eV)
   0   2.0000     -89.095845     -2424.4212
   1   2.0000     -19.200065      -522.4603
   2   2.0000     -19.141795      -520.8747
   3   2.0000     -19.123953      -520.3892
   4   2.0000     -19.119459      -520.2669
   5   2.0000     -14.366758      -390.9394
   6   2.0000     -14.324538      -389.7905
   7   2.0000     -10.339224      -281.3446
   8   2.0000     -10.260585      -279.2047
   9   2.0000     -10.245543      -278.7954
  10   2.0000     -10.236562      -278.5510
  11   2.0000     -10.227778      -278.3120
  12   2.0000     -10.223943      -278.2076
  13   2.0000     -10.223445      -278.1941
  14   2.0000     -10.221487      -278.1408
  15   2.0000     -10.221203      -278.1331
  16   2.0000     -10.216325      -278.0003
  17   2.0000     -10.201972      -277.6098
  18   2.0000     -10.195416      -277.4314
  19   2.0000     -10.192450      -277.3507
  20   2.0000     -10.188970      -277.2560
  21   2.0000     -10.188336      -277.2387
  22   2.0000     -10.188305      -277.2379
  23   2.0000     -10.188280      -277.2372
  24   2.0000     -10.187563      -277.2177
  25   2.0000     -10.187435      -277.2142
  26   2.0000     -10.182597      -277.0825
  27   2.0000     -10.182516      -277.0803
  28   2.0000     -10.181886      -277.0632
  29   2.0000     -10.181053      -277.0405
  30   2.0000     -10.180373      -277.0220
  31   2.0000     -10.179348      -276.9941
  32   2.0000     -10.178799      -276.9792
  33   2.0000     -10.178604      -276.9739
  34   2.0000     -10.175887      -276.9000
  35   2.0000      -8.131622      -221.2727
  36   2.0000      -6.096620      -165.8975
  37   2.0000      -6.094713      -165.8456
  38   2.0000      -6.094216      -165.8321
  39   2.0000      -1.084634       -29.5144
  40   2.0000      -1.080339       -29.3975
  41   2.0000      -0.998811       -27.1790
  42   2.0000      -0.959205       -26.1013
  43   2.0000      -0.958404       -26.0795
  44   2.0000      -0.913313       -24.8525
  45   2.0000      -0.894066       -24.3288
  46   2.0000      -0.862950       -23.4821
  47   2.0000      -0.843466       -22.9519
  48   2.0000      -0.815596       -22.1935
  49   2.0000      -0.813336       -22.1320
  50   2.0000      -0.808962       -22.0130
  51   2.0000      -0.780529       -21.2393
  52   2.0000      -0.771691       -20.9988
  53   2.0000      -0.764597       -20.8058
  54   2.0000      -0.752125       -20.4664
  55   2.0000      -0.740487       -20.1497
  56   2.0000      -0.722000       -19.6466
  57   2.0000      -0.711429       -19.3590
  58   2.0000      -0.688725       -18.7412
  59   2.0000      -0.685209       -18.6455
  60   2.0000      -0.661970       -18.0131
  61   2.0000      -0.641811       -17.4646
  62   2.0000      -0.629493       -17.1294
  63   2.0000      -0.622221       -16.9315
  64   2.0000      -0.610303       -16.6072
  65   2.0000      -0.601880       -16.3780
  66   2.0000      -0.601724       -16.3737
  67   2.0000      -0.598822       -16.2948
  68   2.0000      -0.588999       -16.0275
  69   2.0000      -0.559751       -15.2316
  70   2.0000      -0.543779       -14.7970
  71   2.0000      -0.538905       -14.6644
  72   2.0000      -0.529096       -14.3974
  73   2.0000      -0.512237       -13.9387
  74   2.0000      -0.497928       -13.5493
  75   2.0000      -0.494320       -13.4511
  76   2.0000      -0.490550       -13.3485
  77   2.0000      -0.482992       -13.1429
  78   2.0000      -0.477463       -12.9924
  79   2.0000      -0.469918       -12.7871
  80   2.0000      -0.468734       -12.7549
  81   2.0000      -0.463848       -12.6219
  82   2.0000      -0.461375       -12.5547
  83   2.0000      -0.452674       -12.3179
  84   2.0000      -0.446489       -12.1496
  85   2.0000      -0.445536       -12.1236
  86   2.0000      -0.442846       -12.0505
  87   2.0000      -0.435676       -11.8554
  88   2.0000      -0.432195       -11.7606
  89   2.0000      -0.429411       -11.6849
  90   2.0000      -0.425940       -11.5904
  91   2.0000      -0.421682       -11.4745
  92   2.0000      -0.417911       -11.3719
  93   2.0000      -0.414233       -11.2718
  94   2.0000      -0.405960       -11.0467
  95   2.0000      -0.401061       -10.9134
  96   2.0000      -0.396657       -10.7936
  97   2.0000      -0.395498       -10.7621
  98   2.0000      -0.393585       -10.7100
  99   2.0000      -0.390309       -10.6208
 100   2.0000      -0.388430       -10.5697
 101   2.0000      -0.381682       -10.3861
 102   2.0000      -0.376506       -10.2452
 103   2.0000      -0.372319       -10.1313
 104   2.0000      -0.371328       -10.1044
 105   2.0000      -0.358478        -9.7547
 106   2.0000      -0.350710        -9.5433
 107   2.0000      -0.348280        -9.4772
 108   2.0000      -0.338515        -9.2115
 109   2.0000      -0.335800        -9.1376
 110   2.0000      -0.335165        -9.1203
 111   2.0000      -0.323920        -8.8143
 112   2.0000      -0.319152        -8.6846
 113   2.0000      -0.312827        -8.5125
 114   2.0000      -0.309133        -8.4119
 115   2.0000      -0.306288        -8.3345
 116   2.0000      -0.297423        -8.0933
 117   2.0000      -0.294372        -8.0103
 118   2.0000      -0.286618        -7.7993
 119   2.0000      -0.281644        -7.6639
 120   2.0000      -0.278445        -7.5769
 121   2.0000      -0.271881        -7.3983
 122   2.0000      -0.258132        -7.0241
 123   2.0000      -0.249983        -6.8024
 124   2.0000      -0.242838        -6.6080
 125   2.0000      -0.239280        -6.5111
 126   2.0000      -0.228759        -6.2249
 127   2.0000      -0.219933        -5.9847
 128   0.0000      -0.088046        -2.3958
 129   0.0000      -0.060092        -1.6352
 130   0.0000      -0.035590        -0.9684
 131   0.0000      -0.016743        -0.4556
 132   0.0000      -0.007615        -0.2072

MULLIKEN ATOMIC CHARGES
-----------------------
   0 C :   -0.551632
   1 C :    0.178965
   2 C :   -0.213541
   3 C :    0.176864
   4 C :   -0.206533
   5 C :   -0.128537
   6 C :   -0.132208
   7 C :   -0.145267
   8 C :    0.203843
   9 N :   -0.445195
  10 C :    0.341303
  11 N :   -0.609479
  12 C :   -0.255188
  13 C :    0.177706
  14 C :   -0.182330
  15 C :   -0.183712
  16 C :    0.118090
  17 C :    0.116887
  18 C :   -0.234629
  19 C :   -0.335222
  20 C :   -0.260025
  21 C :   -0.259726
  22 C :   -0.334756
  23 S :    1.209989
  24 O :   -0.525478
  25 O :   -0.554230
  26 C :   -0.134776
  27 C :   -0.152582
  28 C :   -0.140990
  29 C :    0.082619
  30 C :    0.528881
  31 O :   -0.442288
  32 O :   -0.623480
  33 C :   -0.148043
  34 C :   -0.131838
  35 H :    0.147058
  36 H :    0.172251
  37 H :    0.186057
  38 H :    0.135641
  39 H :    0.131099
  40 H :    0.132433
  41 H :    0.135123
  42 H :    0.146589
  43 H :    0.165339
  44 H :    0.187199
  45 H :    0.124878
  46 H :    0.121156
  47 H :    0.133098
  48 H :    0.151165
  49 H :    0.144073
  50 H :    0.131140
  51 H :    0.130993
  52 H :    0.130031
  53 H :    0.134625
  54 H :    0.146914
  55 H :    0.142080
  56 H :    0.190882
  57 H :    0.183398
  58 H :    0.435149
  59 H :    0.174174
  60 H :    0.183993
Sum of atomic charges:   -0.0000000

LOEWDIN ATOMIC CHARGES
----------------------
   0 C :   -0.363873
   1 C :   -0.018608
   2 C :   -0.098918
   3 C :   -0.023453
   4 C :   -0.123953
   5 C :   -0.126033
   6 C :   -0.125541
   7 C :   -0.112889
   8 C :    0.013631
   9 N :   -0.118362
  10 C :    0.054796
  11 N :   -0.278636
  12 C :   -0.145422
  13 C :   -0.038853
  14 C :   -0.141599
  15 C :   -0.130707
  16 C :   -0.024338
  17 C :   -0.021924
  18 C :   -0.133511
  19 C :   -0.225132
  20 C :   -0.227828
  21 C :   -0.227960
  22 C :   -0.224995
  23 S :    1.264385
  24 O :   -0.565636
  25 O :   -0.574648
  26 C :   -0.174317
  27 C :   -0.107740
  28 C :   -0.088163
  29 C :   -0.038713
  30 C :    0.179796
  31 O :   -0.258573
  32 O :   -0.334311
  33 C :   -0.098704
  34 C :   -0.097348
  35 H :    0.129069
  36 H :    0.140310
  37 H :    0.146338
  38 H :    0.136889
  39 H :    0.132629
  40 H :    0.133744
  41 H :    0.135557
  42 H :    0.145394
  43 H :    0.137975
  44 H :    0.144663
  45 H :    0.130863
  46 H :    0.129261
  47 H :    0.134044
  48 H :    0.130666
  49 H :    0.128810
  50 H :    0.120548
  51 H :    0.116918
  52 H :    0.120010
  53 H :    0.118790
  54 H :    0.128329
  55 H :    0.127835
  56 H :    0.162301
  57 H :    0.161662
  58 H :    0.350494
  59 H :    0.155471
  60 H :    0.159507

  Mayer bond orders larger than 0.100000
B(  0-C ,  1-C ) :   0.9923 B(  0-C , 35-H ) :   0.9416 B(  0-C , 36-H ) :   0.9231
B(  0-C , 37-H ) :   0.9163 B(  1-C ,  2-C ) :   1.4709 B(  1-C , 10-C ) :   1.2996
B(  2-C ,  3-C ) :   1.2935 B(  2-C , 38-H ) :   0.9189 B(  3-C ,  4-C ) :   1.2808
B(  3-C ,  8-C ) :   1.2471 B(  4-C ,  5-C ) :   1.5148 B(  4-C ,  7-C ) :   0.1080
B(  4-C , 39-H ) :   0.9252 B(  5-C ,  6-C ) :   1.3454 B(  5-C , 40-H ) :   0.9302
B(  6-C ,  7-C ) :   1.5187 B(  6-C , 41-H ) :   0.9297 B(  7-C ,  8-C ) :   1.3008
B(  7-C , 42-H ) :   0.9172 B(  8-C ,  9-N ) :   1.2515 B(  9-N , 10-C ) :   1.4450
B( 10-C , 11-N ) :   0.8913 B( 11-N , 12-C ) :   0.9127 B( 11-N , 23-S ) :   0.8168
B( 12-C , 13-C ) :   0.9367 B( 12-C , 43-H ) :   0.9239 B( 12-C , 44-H ) :   0.9163
B( 13-C , 14-C ) :   1.4144 B( 13-C , 18-C ) :   1.4194 B( 14-C , 15-C ) :   1.4349
B( 14-C , 45-H ) :   0.9176 B( 15-C , 16-C ) :   1.4024 B( 15-C , 46-H ) :   0.9262
B( 16-C , 17-C ) :   1.4469 B( 16-C , 22-C ) :   0.9815 B( 17-C , 18-C ) :   1.3880
B( 17-C , 19-C ) :   0.9805 B( 18-C , 47-H ) :   0.9172 B( 19-C , 20-C ) :   1.0059
B( 19-C , 48-H ) :   0.9257 B( 19-C , 49-H ) :   0.9335 B( 20-C , 21-C ) :   1.0063
B( 20-C , 50-H ) :   0.9406 B( 20-C , 51-H ) :   0.9409 B( 21-C , 22-C ) :   1.0067
B( 21-C , 52-H ) :   0.9406 B( 21-C , 53-H ) :   0.9404 B( 22-C , 54-H ) :   0.9265
B( 22-C , 55-H ) :   0.9342 B( 23-S , 24-O ) :   1.6712 B( 23-S , 25-O ) :   1.6039
B( 23-S , 26-C ) :   0.8104 B( 26-C , 27-C ) :   1.3818 B( 26-C , 34-C ) :   1.3949
B( 27-C , 28-C ) :   1.4123 B( 27-C , 56-H ) :   0.9069 B( 28-C , 29-C ) :   1.4009
B( 28-C , 57-H ) :   0.9090 B( 29-C , 30-C ) :   1.0072 B( 29-C , 33-C ) :   1.3816
B( 30-C , 31-O ) :   1.8642 B( 30-C , 32-O ) :   1.0260 B( 32-O , 58-H ) :   0.7412
B( 33-C , 34-C ) :   1.4194 B( 33-C , 59-H ) :   0.9145 B( 34-C , 60-H ) :   0.9060

FINAL SINGLE POINT ENERGY     -1890.174729633237

DIPOLE MOMENT
-------------

Method             : SCF
Type of density    : Electron Density
Multiplicity       :   1
Irrep              :   0
Energy             : -1890.1747296332368933 Eh
Relativity type    :
Basis              : AO
                                X                 Y                 Z
Electronic contribution:    -33.301960603       3.560199692      -8.058467464
Nuclear contribution   :     35.532656434      -4.953121160       9.217908023
                        -----------------------------------------
Total Dipole Moment    :      2.230695832      -1.392921468       1.159440559
                        -----------------------------------------
Magnitude (a.u.)       :      2.874114911
Magnitude (Debye)      :      7.305419531

Rotational constants in cm-1:             0.004867             0.002603             0.001894
Rotational constants in MHz :           145.900990            78.022188            56.781563

                             ****ORCA TERMINATED NORMALLY****
TOTAL RUN TIME: 0 days 0 hours 12 minutes 53 seconds 232 msec
