                         Program Version 6.0.0  -   RELEASE  -
|  1> ! B3LYP 6-31G* SP
|  2>
|  3> * xyz 0 1
|  4> O 0.8544 -1.1053 -2.3566
|  5> C 1.1688 -0.4061 -1.3546
|  6> N 0.2548 0.5920 -0.8660
|  7> C -1.1185 0.7183 -1.3772
|  8> C -2.0668 -0.3727 -0.8859
|  9> C -1.6415 -1.4436 -0.0720
| 10> C -2.5373 -2.4416 0.3203
| 11> C -3.8769 -2.4028 -0.0953
| 12> C -4.8199 -3.5133 0.2932
| 13> F -6.1386 -3.0990 0.2087
| 14> F -4.6310 -4.5881 -0.5555
| 15> F -4.5754 -3.9173 1.5945
| 16> C -4.2937 -1.3677 -0.9471
| 17> C -3.4005 -0.3659 -1.3347
| 18> C -1.6810 2.1248 -1.1343
| 19> C -2.1407 2.8264 -2.2705
| 20> N -2.6555 4.0757 -2.1645
| 21> C -2.7532 4.7068 -0.9726
| 22> C -2.3248 4.0737 0.1880
| 23> C -1.8029 2.7659 0.1434
| 24> C -1.3022 2.2025 1.4647
| 25> F -2.1407 2.5888 2.4968
| 26> F -1.2518 0.8295 1.4837
| 27> F -0.0382 2.7008 1.7210
| 28> C 2.4777 -0.6269 -0.6955
| 29> C 3.5368 -1.2145 -1.4123
| 30> C 4.7742 -1.4380 -0.8014
| 31> C 4.9686 -1.0847 0.5396
| 32> C 6.1970 -1.2989 1.1782
| 33> C 6.3533 -0.9405 2.5186
| 34> C 5.2794 -0.3720 3.2084
| 35> N 4.0920 -0.1691 2.5773
| 36> C 3.9092 -0.5057 1.2715
| 37> C 2.6728 -0.2830 0.6555
| 38> H 0.6463 1.3505 -0.2676
| 39> H -1.0531 0.5632 -2.4774
| 40> H -0.6232 -1.5120 0.2820
| 41> H -2.1803 -3.2515 0.9445
| 42> H -5.3093 -1.3343 -1.3206
| 43> H -3.7518 0.4151 -1.9965
| 44> H -2.0904 2.3793 -3.2549
| 45> H -3.1603 5.7081 -0.9265
| 46> H -2.3959 4.6144 1.1238
| 47> H 3.4108 -1.4931 -2.4514
| 48> H 5.5760 -1.8870 -1.3755
| 49> H 7.0297 -1.7419 0.6447
| 50> H 7.2991 -1.1024 3.0193
| 51> H 5.3905 -0.0917 4.2471
| 52> H 1.8640 0.1349 1.2418
| 53> *
| 54>
| 55>                          ****END OF INPUT****

CARTESIAN COORDINATES (ANGSTROEM)
---------------------------------
  O      0.854400   -1.105300   -2.356600
  C      1.168800   -0.406100   -1.354600
  N      0.254800    0.592000   -0.866000
  C     -1.118500    0.718300   -1.377200
  C     -2.066800   -0.372700   -0.885900
  C     -1.641500   -1.443600   -0.072000
  C     -2.537300   -2.441600    0.320300
  C     -3.876900   -2.402800   -0.095300
  C     -4.819900   -3.513300    0.293200
  F     -6.138600   -3.099000    0.208700
  F     -4.631000   -4.588100   -0.555500
  F     -4.575400   -3.917300    1.594500
  C     -4.293700   -1.367700   -0.947100
  C     -3.400500   -0.365900   -1.334700
  C     -1.681000    2.124800   -1.134300
  C     -2.140700    2.826400   -2.270500
  N     -2.655500    4.075700   -2.164500
  C     -2.753200    4.706800   -0.972600
  C     -2.324800    4.073700    0.188000
  C     -1.802900    2.765900    0.143400
  C     -1.302200    2.202500    1.464700
  F     -2.140700    2.588800    2.496800
  F     -1.251800    0.829500    1.483700
  F     -0.038200    2.700800    1.721000
  C      2.477700   -0.626900   -0.695500
  C      3.536800   -1.214500   -1.412300
  C      4.774200   -1.438000   -0.801400
  C      4.968600   -1.084700    0.539600
  C      6.197000   -1.298900    1.178200
  C      6.353300   -0.940500    2.518600
  C      5.279400   -0.372000    3.208400
  N      4.092000   -0.169100    2.577300
  C      3.909200   -0.505700    1.271500
  C      2.672800   -0.283000    0.655500
  H      0.646300    1.350500   -0.267600
  H     -1.053100    0.563200   -2.477400
  H     -0.623200   -1.512000    0.282000
  H     -2.180300   -3.251500    0.944500
  H     -5.309300   -1.334300   -1.320600
  H     -3.751800    0.415100   -1.996500
  H     -2.090400    2.379300   -3.254900
  H     -3.160300    5.708100   -0.926500
  H     -2.395900    4.614400    1.123800
  H      3.410800   -1.493100   -2.451400
  H      5.576000   -1.887000   -1.375500
  H      7.029700   -1.741900    0.644700
  H      7.299100   -1.102400    3.019300
  H      5.390500   -0.091700    4.247100
  H      1.864000    0.134900    1.241800

 Total Charge           Charge          ....    0
 Multiplicity           Mult            ....    1
 Number of Electrons    NEL             ....  242
 Basis Dimension        Dim             ....  506

ORBITAL ENERGIES
----------------

  NO   OCC          E(Eh)            E(eV)
   0   2.0000     -24.741447      -673.2490
   1   2.0000     -24.739936      -673.2079
   2   2.0000     -24.734370      -673.0564
   3   2.0000     -24.712340      -672.4570
   4   2.0000     -24.710590      -672.4093
   5   2.0000     -24.707257      -672.3186
   6   2.0000     -19.119877      -520.2783
   7   2.0000     -14.366276      -390.9263
   8   2.0000     -14.351052      -390.5120
   9   2.0000     -14.331974      -389.9928
  10   2.0000     -10.457387      -284.5600
  11   2.0000     -10.426142      -283.7098
  12   2.0000     -10.299323      -280.2588
  13   2.0000     -10.253400      -279.0092
  14   2.0000     -10.249480      -278.9025
  15   2.0000     -10.244990      -278.7804
  16   2.0000     -10.242303      -278.7072
  17   2.0000     -10.240755      -278.6651
  18   2.0000     -10.229215      -278.3511
  19   2.0000     -10.228169      -278.3226
  20   2.0000     -10.222386      -278.1653
  21   2.0000     -10.214108      -277.9400
  22   2.0000     -10.209426      -277.8126
  23   2.0000     -10.206714      -277.7388
  24   2.0000     -10.204968      -277.6913
  25   2.0000     -10.204275      -277.6724
  26   2.0000     -10.202050      -277.6119
  27   2.0000     -10.201197      -277.5887
  28   2.0000     -10.199498      -277.5424
  29   2.0000     -10.199060      -277.5305
  30   2.0000     -10.196030      -277.4481
  31   2.0000     -10.194262      -277.4000
  32   2.0000     -10.192668      -277.3566
  33   2.0000     -10.189559      -277.2720
  34   2.0000      -1.302471       -35.4420
  35   2.0000      -1.270988       -34.5854
  36   2.0000      -1.227815       -33.4105
  37   2.0000      -1.221745       -33.2454
  38   2.0000      -1.196941       -32.5704
  39   2.0000      -1.195055       -32.5191
  40   2.0000      -1.020072       -27.7576
  41   2.0000      -0.955299       -25.9950
  42   2.0000      -0.942294       -25.6411
  43   2.0000      -0.920615       -25.0512
  44   2.0000      -0.864937       -23.5361
  45   2.0000      -0.859551       -23.3896
  46   2.0000      -0.843945       -22.9649
  47   2.0000      -0.817029       -22.2325
  48   2.0000      -0.806462       -21.9449
  49   2.0000      -0.780512       -21.2388
  50   2.0000      -0.771288       -20.9878
  51   2.0000      -0.752721       -20.4826
  52   2.0000      -0.749911       -20.4061
  53   2.0000      -0.735716       -20.0199
  54   2.0000      -0.713134       -19.4054
  55   2.0000      -0.679609       -18.4931
  56   2.0000      -0.667716       -18.1695
  57   2.0000      -0.653989       -17.7959
  58   2.0000      -0.645812       -17.5734
  59   2.0000      -0.634858       -17.2754
  60   2.0000      -0.617654       -16.8072
  61   2.0000      -0.616021       -16.7628
  62   2.0000      -0.604046       -16.4369
  63   2.0000      -0.592341       -16.1184
  64   2.0000      -0.590175       -16.0595
  65   2.0000      -0.584513       -15.9054
  66   2.0000      -0.576317       -15.6824
  67   2.0000      -0.561751       -15.2860
  68   2.0000      -0.559022       -15.2118
  69   2.0000      -0.553680       -15.0664
  70   2.0000      -0.547439       -14.8966
  71   2.0000      -0.526023       -14.3138
  72   2.0000      -0.521864       -14.2006
  73   2.0000      -0.515514       -14.0279
  74   2.0000      -0.501305       -13.6412
  75   2.0000      -0.491203       -13.3663
  76   2.0000      -0.488182       -13.2841
  77   2.0000      -0.477083       -12.9821
  78   2.0000      -0.472697       -12.8628
  79   2.0000      -0.468230       -12.7412
  80   2.0000      -0.464261       -12.6332
  81   2.0000      -0.458414       -12.4741
  82   2.0000      -0.455162       -12.3856
  83   2.0000      -0.452925       -12.3247
  84   2.0000      -0.448338       -12.1999
  85   2.0000      -0.443398       -12.0655
  86   2.0000      -0.440930       -11.9983
  87   2.0000      -0.439718       -11.9653
  88   2.0000      -0.434948       -11.8355
  89   2.0000      -0.430378       -11.7112
  90   2.0000      -0.429841       -11.6966
  91   2.0000      -0.427201       -11.6247
  92   2.0000      -0.420202       -11.4343
  93   2.0000      -0.416919       -11.3450
  94   2.0000      -0.414772       -11.2865
  95   2.0000      -0.412259       -11.2181
  96   2.0000      -0.412163       -11.2155
  97   2.0000      -0.406393       -11.0585
  98   2.0000      -0.401036       -10.9127
  99   2.0000      -0.400207       -10.8902
 100   2.0000      -0.397114       -10.8060
 101   2.0000      -0.393796       -10.7157
 102   2.0000      -0.389900       -10.6097
 103   2.0000      -0.383840       -10.4448
 104   2.0000      -0.374507       -10.1908
 105   2.0000      -0.361855        -9.8466
 106   2.0000      -0.359242        -9.7755
 107   2.0000      -0.351992        -9.5782
 108   2.0000      -0.350767        -9.5449
 109   2.0000      -0.338940        -9.2230
 110   2.0000      -0.312029        -8.4907
 111   2.0000      -0.307679        -8.3724
 112   2.0000      -0.287032        -7.8105
 113   2.0000      -0.270100        -7.3498
 114   2.0000      -0.266887        -7.2624
 115   2.0000      -0.260335        -7.0841
 116   2.0000      -0.255266        -6.9462
 117   2.0000      -0.254053        -6.9131
 118   2.0000      -0.251385        -6.8405
 119   2.0000      -0.249407        -6.7867
 120   2.0000      -0.236837        -6.4447
 121   0.0000      -0.074665        -2.0318
 122   0.0000      -0.066508        -1.8098
 123   0.0000      -0.041552        -1.1307
 124   0.0000      -0.039137        -1.0650
 125   0.0000      -0.020734        -0.5642

MULLIKEN ATOMIC CHARGES
-----------------------
   0 O :   -0.476079
   1 C :    0.494248
   2 N :   -0.659430
   3 C :   -0.080342
   4 C :    0.177551
   5 C :   -0.157329
   6 C :   -0.160709
   7 C :   -0.014338
   8 C :    0.893639
   9 F :   -0.307733
  10 F :   -0.297336
  11 F :   -0.306295
  12 C :   -0.161783
  13 C :   -0.181198
  14 C :    0.083496
  15 C :   -0.035469
  16 N :   -0.350006
  17 C :    0.027734
  18 C :   -0.168086
  19 C :   -0.033910
  20 C :    0.910763
  21 F :   -0.298886
  22 F :   -0.284769
  23 F :   -0.296320
  24 C :    0.079978
  25 C :   -0.156133
  26 C :   -0.207521
  27 C :    0.170384
  28 C :   -0.152395
  29 C :   -0.144344
  30 C :    0.015942
  31 N :   -0.432302
  32 C :    0.211219
  33 C :   -0.204302
  34 H :    0.332416
  35 H :    0.193550
  36 H :    0.144441
  37 H :    0.152168
  38 H :    0.150630
  39 H :    0.133717
  40 H :    0.170315
  41 H :    0.164856
  42 H :    0.165118
  43 H :    0.163097
  44 H :    0.141206
  45 H :    0.146011
  46 H :    0.138644
  47 H :    0.154098
  48 H :    0.151797
Sum of atomic charges:   -0.0000000

LOEWDIN ATOMIC CHARGES
----------------------
   0 O :   -0.281440
   1 C :    0.140822
   2 N :   -0.242806
   3 C :   -0.045946
   4 C :   -0.007059
   5 C :   -0.118169
   6 C :   -0.109722
   7 C :   -0.072464
   8 C :    0.309874
   9 F :   -0.115116
  10 F :   -0.114484
  11 F :   -0.115270
  12 C :   -0.113573
  13 C :   -0.133687
  14 C :   -0.014248
  15 C :   -0.071624
  16 N :   -0.113113
  17 C :   -0.064462
  18 C :   -0.120740
  19 C :   -0.050901
  20 C :    0.305963
  21 F :   -0.107070
  22 F :   -0.083965
  23 F :   -0.110718
  24 C :   -0.047724
  25 C :   -0.100491
  26 C :   -0.117573
  27 C :   -0.021867
  28 C :   -0.092646
  29 C :   -0.144099
  30 C :   -0.061572
  31 N :   -0.128535
  32 C :    0.013481
  33 C :   -0.109257
  34 H :    0.251066
  35 H :    0.155098
  36 H :    0.141693
  37 H :    0.143639
  38 H :    0.142976
  39 H :    0.135127
  40 H :    0.144603
  41 H :    0.143155
  42 H :    0.150459
  43 H :    0.152125
  44 H :    0.137656
  45 H :    0.140001
  46 H :    0.137936
  47 H :    0.137750
  48 H :    0.146917

  Mayer bond orders larger than 0.100000
B(  0-O ,  1-C ) :   1.7993 B(  1-C ,  2-N ) :   1.0343 B(  1-C , 24-C ) :   0.9864
B(  2-N ,  3-C ) :   0.8842 B(  2-N , 34-H ) :   0.8041 B(  3-C ,  4-C ) :   0.9370
B(  3-C , 14-C ) :   0.9507 B(  3-C , 35-H ) :   0.8962 B(  4-C ,  5-C ) :   1.4268
B(  4-C , 13-C ) :   1.4116 B(  5-C ,  6-C ) :   1.4317 B(  5-C , 36-H ) :   0.9128
B(  6-C ,  7-C ) :   1.4049 B(  6-C , 37-H ) :   0.9202 B(  7-C ,  8-C ) :   0.9802
B(  7-C , 12-C ) :   1.4167 B(  8-C ,  9-F ) :   0.9446 B(  8-C , 10-F ) :   0.9849
B(  8-C , 11-F ) :   0.9498 B( 12-C , 13-C ) :   1.4270 B( 12-C , 38-H ) :   0.9199
B( 13-C , 39-H ) :   0.9207 B( 14-C , 15-C ) :   1.3563 B( 14-C , 19-C ) :   1.3937
B( 15-C , 16-N ) :   1.4334 B( 15-C , 40-H ) :   0.9219 B( 16-N , 17-C ) :   1.4346
B( 17-C , 18-C ) :   1.4039 B( 17-C , 41-H ) :   0.9279 B( 18-C , 19-C ) :   1.3979
B( 18-C , 42-H ) :   0.9126 B( 19-C , 20-C ) :   0.9668 B( 20-C , 21-F ) :   0.9505
B( 20-C , 22-F ) :   0.9403 B( 20-C , 23-F ) :   0.9504 B( 24-C , 25-C ) :   1.3116
B( 24-C , 33-C ) :   1.4373 B( 25-C , 26-C ) :   1.4981 B( 25-C , 43-H ) :   0.9146
B( 26-C , 27-C ) :   1.2725 B( 26-C , 44-H ) :   0.9240 B( 27-C , 28-C ) :   1.3048
B( 27-C , 32-C ) :   1.2570 B( 28-C , 29-C ) :   1.5116 B( 28-C , 45-H ) :   0.9236
B( 29-C , 30-C ) :   1.3247 B( 29-C , 46-H ) :   0.9244 B( 30-C , 31-N ) :   1.5121
B( 30-C , 47-H ) :   0.9294 B( 31-N , 32-C ) :   1.2503 B( 32-C , 33-C ) :   1.2869
B( 33-C , 48-H ) :   0.9016

FINAL SINGLE POINT ENERGY     -1761.185005863791

DIPOLE MOMENT
-------------

Method             : SCF
Type of density    : Electron Density
Multiplicity       :   1
Irrep              :   0
Energy             : -1761.1850058637912753 Eh
Relativity type    :
Basis              : AO
                                X                 Y                 Z
Electronic contribution:    -30.070555031      -7.522327527      10.413644548
Nuclear contribution   :     31.754504239       8.823095661     -10.079793870
                        -----------------------------------------
Total Dipole Moment    :      1.683949208       1.300768134       0.333850678
                        -----------------------------------------
Magnitude (a.u.)       :      2.153866048
Magnitude (Debye)      :      5.474692412

Rotational constants in cm-1:             0.004621             0.002459             0.001965
Rotational constants in MHz :           138.538653            73.729182            58.898896

                             ****ORCA TERMINATED NORMALLY****
TOTAL RUN TIME: 0 days 0 hours 9 minutes 25 seconds 707 msec
