                         Program Version 6.0.0  -   RELEASE  -
|  1> ! B3LYP 6-31G* SP
|  2>
|  3> * xyz 0 1
|  4> C -0.9046 2.5281 1.7647
|  5> C -0.4301 2.5150 0.3034
|  6> C -0.9988 3.6606 -0.5155
|  7> C -2.3832 3.9271 -0.5623
|  8> C -2.8719 4.9855 -1.3344
|  9> C -1.9920 5.7850 -2.0715
| 10> F -2.4669 6.8175 -2.8107
| 11> C -0.6217 5.5221 -2.0442
| 12> C -0.1268 4.4633 -1.2776
| 13> N -0.6666 1.2200 -0.3618
| 14> C -1.9707 0.5352 -0.3572
| 15> C -1.8215 -0.8799 0.1469
| 16> C -1.4518 -1.9021 -0.7445
| 17> C -1.1822 -3.2021 -0.2788
| 18> C -0.7482 -4.2643 -1.2136
| 19> O -0.6120 -4.0162 -2.4421
| 20> O -0.4807 -5.5478 -0.7437
| 21> C -1.3155 -3.4767 1.0927
| 22> C -1.7010 -2.4700 1.9800
| 23> C -1.9495 -1.1760 1.5156
| 24> F -2.3155 -0.2182 2.4030
| 25> C 0.3271 0.7616 -1.2933
| 26> O 0.2941 1.1820 -2.4828
| 27> C 1.3541 -0.2235 -0.8768
| 28> C 2.1673 -0.8596 -1.8313
| 29> N 3.0640 -1.8101 -1.4519
| 30> C 3.2087 -2.1826 -0.1520
| 31> C 4.1277 -3.1767 0.1974
| 32> C 4.2563 -3.5726 1.5330
| 33> C 3.4717 -2.9722 2.5232
| 34> C 2.5548 -1.9705 2.1840
| 35> C 2.4185 -1.5720 0.8459
| 36> C 1.5000 -0.5824 0.4741
| 37> H -2.0057 2.4735 1.8604
| 38> H -0.4550 1.6749 2.3152
| 39> H -0.5686 3.4662 2.2532
| 40> H 0.6731 2.6600 0.3774
| 41> H -3.0885 3.3316 0.0009
| 42> H -3.9326 5.1884 -1.3573
| 43> H 0.0604 6.1419 -2.6115
| 44> H 0.9404 4.2744 -1.2768
| 45> H -2.7144 1.0726 0.2602
| 46> H -2.3838 0.5260 -1.3896
| 47> H -1.3421 -1.6707 -1.7977
| 48> H -0.1843 -6.2832 -1.3749
| 49> H -1.1223 -4.4697 1.4828
| 50> H -1.8017 -2.6934 3.0350
| 51> H 2.0772 -0.6159 -2.8826
| 52> H 4.7355 -3.6495 -0.5628
| 53> H 4.9628 -4.3465 1.8000
| 54> H 3.5754 -3.2809 3.5553
| 55> H 1.9521 -1.5159 2.9613
| 56> H 0.8892 -0.1116 1.2337
| 57> *
| 58>
| 59>                          ****END OF INPUT****

CARTESIAN COORDINATES (ANGSTROEM)
---------------------------------
  C     -0.904600    2.528100    1.764700
  C     -0.430100    2.515000    0.303400
  C     -0.998800    3.660600   -0.515500
  C     -2.383200    3.927100   -0.562300
  C     -2.871900    4.985500   -1.334400
  C     -1.992000    5.785000   -2.071500
  F     -2.466900    6.817500   -2.810700
  C     -0.621700    5.522100   -2.044200
  C     -0.126800    4.463300   -1.277600
  N     -0.666600    1.220000   -0.361800
  C     -1.970700    0.535200   -0.357200
  C     -1.821500   -0.879900    0.146900
  C     -1.451800   -1.902100   -0.744500
  C     -1.182200   -3.202100   -0.278800
  C     -0.748200   -4.264300   -1.213600
  O     -0.612000   -4.016200   -2.442100
  O     -0.480700   -5.547800   -0.743700
  C     -1.315500   -3.476700    1.092700
  C     -1.701000   -2.470000    1.980000
  C     -1.949500   -1.176000    1.515600
  F     -2.315500   -0.218200    2.403000
  C      0.327100    0.761600   -1.293300
  O      0.294100    1.182000   -2.482800
  C      1.354100   -0.223500   -0.876800
  C      2.167300   -0.859600   -1.831300
  N      3.064000   -1.810100   -1.451900
  C      3.208700   -2.182600   -0.152000
  C      4.127700   -3.176700    0.197400
  C      4.256300   -3.572600    1.533000
  C      3.471700   -2.972200    2.523200
  C      2.554800   -1.970500    2.184000
  C      2.418500   -1.572000    0.845900
  C      1.500000   -0.582400    0.474100
  H     -2.005700    2.473500    1.860400
  H     -0.455000    1.674900    2.315200
  H     -0.568600    3.466200    2.253200
  H      0.673100    2.660000    0.377400
  H     -3.088500    3.331600    0.000900
  H     -3.932600    5.188400   -1.357300
  H      0.060400    6.141900   -2.611500
  H      0.940400    4.274400   -1.276800
  H     -2.714400    1.072600    0.260200
  H     -2.383800    0.526000   -1.389600
  H     -1.342100   -1.670700   -1.797700
  H     -0.184300   -6.283200   -1.374900
  H     -1.122300   -4.469700    1.482800
  H     -1.801700   -2.693400    3.035000
  H      2.077200   -0.615900   -2.882600
  H      4.735500   -3.649500   -0.562800
  H      4.962800   -4.346500    1.800000
  H      3.575400   -3.280900    3.555300
  H      1.952100   -1.515900    2.961300
  H      0.889200   -0.111600    1.233700

 Total Charge           Charge          ....    0
 Multiplicity           Mult            ....    1
 Number of Electrons    NEL             ....  232
 Basis Dimension        Dim             ....  502

ORBITAL ENERGIES
----------------

  NO   OCC          E(Eh)            E(eV)
   0   2.0000     -24.723101      -672.7498
   1   2.0000     -24.691576      -671.8920
   2   2.0000     -19.186126      -522.0810
   3   2.0000     -19.136775      -520.7381
   4   2.0000     -19.125282      -520.4254
   5   2.0000     -14.329218      -389.9178
   6   2.0000     -14.326525      -389.8446
   7   2.0000     -10.323691      -280.9219
   8   2.0000     -10.299644      -280.2676
   9   2.0000     -10.289485      -279.9911
  10   2.0000     -10.262508      -279.2570
  11   2.0000     -10.231761      -278.4204
  12   2.0000     -10.229383      -278.3557
  13   2.0000     -10.225054      -278.2379
  14   2.0000     -10.224567      -278.2246
  15   2.0000     -10.216098      -277.9942
  16   2.0000     -10.212204      -277.8882
  17   2.0000     -10.211853      -277.8787
  18   2.0000     -10.209545      -277.8158
  19   2.0000     -10.208415      -277.7851
  20   2.0000     -10.205961      -277.7183
  21   2.0000     -10.205571      -277.7077
  22   2.0000     -10.201377      -277.5936
  23   2.0000     -10.199321      -277.5376
  24   2.0000     -10.199159      -277.5332
  25   2.0000     -10.197198      -277.4799
  26   2.0000     -10.190563      -277.2993
  27   2.0000     -10.188941      -277.2552
  28   2.0000     -10.188095      -277.2321
  29   2.0000     -10.186097      -277.1778
  30   2.0000     -10.185839      -277.1708
  31   2.0000     -10.183709      -277.1128
  32   2.0000     -10.180455      -277.0243
  33   2.0000      -1.235496       -33.6196
  34   2.0000      -1.205170       -32.7943
  35   2.0000      -1.070034       -29.1171
  36   2.0000      -1.026600       -27.9352
  37   2.0000      -0.983627       -26.7658
  38   2.0000      -0.938157       -25.5285
  39   2.0000      -0.921505       -25.0754
  40   2.0000      -0.876992       -23.8642
  41   2.0000      -0.853970       -23.2377
  42   2.0000      -0.852763       -23.2049
  43   2.0000      -0.817652       -22.2494
  44   2.0000      -0.797958       -21.7135
  45   2.0000      -0.776013       -21.1164
  46   2.0000      -0.770530       -20.9672
  47   2.0000      -0.763566       -20.7777
  48   2.0000      -0.749192       -20.3866
  49   2.0000      -0.745688       -20.2912
  50   2.0000      -0.721987       -19.6463
  51   2.0000      -0.700674       -19.0663
  52   2.0000      -0.668277       -18.1847
  53   2.0000      -0.662362       -18.0238
  54   2.0000      -0.648268       -17.6403
  55   2.0000      -0.632232       -17.2039
  56   2.0000      -0.620532       -16.8855
  57   2.0000      -0.616268       -16.7695
  58   2.0000      -0.610688       -16.6177
  59   2.0000      -0.602660       -16.3992
  60   2.0000      -0.588124       -16.0037
  61   2.0000      -0.564225       -15.3533
  62   2.0000      -0.550321       -14.9750
  63   2.0000      -0.534966       -14.5572
  64   2.0000      -0.533771       -14.5247
  65   2.0000      -0.525171       -14.2906
  66   2.0000      -0.520619       -14.1668
  67   2.0000      -0.517710       -14.0876
  68   2.0000      -0.501514       -13.6469
  69   2.0000      -0.491783       -13.3821
  70   2.0000      -0.486690       -13.2435
  71   2.0000      -0.476498       -12.9662
  72   2.0000      -0.469486       -12.7754
  73   2.0000      -0.466086       -12.6829
  74   2.0000      -0.458520       -12.4770
  75   2.0000      -0.457811       -12.4577
  76   2.0000      -0.455271       -12.3886
  77   2.0000      -0.447564       -12.1788
  78   2.0000      -0.446295       -12.1443
  79   2.0000      -0.443710       -12.0740
  80   2.0000      -0.433967       -11.8089
  81   2.0000      -0.431829       -11.7507
  82   2.0000      -0.430230       -11.7071
  83   2.0000      -0.425459       -11.5773
  84   2.0000      -0.424141       -11.5415
  85   2.0000      -0.419050       -11.4029
  86   2.0000      -0.417042       -11.3483
  87   2.0000      -0.414088       -11.2679
  88   2.0000      -0.411938       -11.2094
  89   2.0000      -0.402885       -10.9631
  90   2.0000      -0.397281       -10.8106
  91   2.0000      -0.389975       -10.6118
  92   2.0000      -0.386038       -10.5046
  93   2.0000      -0.375047       -10.2056
  94   2.0000      -0.369876       -10.0648
  95   2.0000      -0.368605       -10.0303
  96   2.0000      -0.366301        -9.9676
  97   2.0000      -0.361059        -9.8249
  98   2.0000      -0.356240        -9.6938
  99   2.0000      -0.352887        -9.6025
 100   2.0000      -0.351822        -9.5736
 101   2.0000      -0.343437        -9.3454
 102   2.0000      -0.336335        -9.1521
 103   2.0000      -0.334614        -9.1053
 104   2.0000      -0.307633        -8.3711
 105   2.0000      -0.305506        -8.3132
 106   2.0000      -0.273806        -7.4506
 107   2.0000      -0.269303        -7.3281
 108   2.0000      -0.262958        -7.1555
 109   2.0000      -0.259932        -7.0731
 110   2.0000      -0.258151        -7.0246
 111   2.0000      -0.252065        -6.8591
 112   2.0000      -0.245771        -6.6878
 113   2.0000      -0.234868        -6.3911
 114   2.0000      -0.231877        -6.3097
 115   2.0000      -0.209835        -5.7099
 116   0.0000      -0.079974        -2.1762
 117   0.0000      -0.055958        -1.5227
 118   0.0000      -0.048149        -1.3102
 119   0.0000      -0.024273        -0.6605
 120   0.0000      -0.005155        -0.1403

MULLIKEN ATOMIC CHARGES
-----------------------
   0 C :   -0.450843
   1 C :   -0.084673
   2 C :    0.200290
   3 C :   -0.166351
   4 C :   -0.210429
   5 C :    0.409708
   6 F :   -0.319999
   7 C :   -0.205472
   8 C :   -0.159895
   9 N :   -0.429128
  10 C :   -0.225329
  11 C :    0.066544
  12 C :   -0.198728
  13 C :    0.078943
  14 C :    0.526258
  15 O :   -0.449015
  16 O :   -0.628465
  17 C :   -0.143832
  18 C :   -0.211889
  19 C :    0.376721
  20 F :   -0.311215
  21 C :    0.424919
  22 O :   -0.415012
  23 C :    0.072101
  24 C :   -0.006598
  25 N :   -0.431313
  26 C :    0.218831
  27 C :   -0.143301
  28 C :   -0.127148
  29 C :   -0.132823
  30 C :   -0.198533
  31 C :    0.163995
  32 C :   -0.194104
  33 H :    0.150671
  34 H :    0.149365
  35 H :    0.154199
  36 H :    0.140587
  37 H :    0.126882
  38 H :    0.141144
  39 H :    0.143591
  40 H :    0.135810
  41 H :    0.164047
  42 H :    0.165720
  43 H :    0.184888
  44 H :    0.430835
  45 H :    0.166745
  46 H :    0.149719
  47 H :    0.183531
  48 H :    0.148662
  49 H :    0.139583
  50 H :    0.135114
  51 H :    0.134493
  52 H :    0.160200
Sum of atomic charges:   -0.0000000

LOEWDIN ATOMIC CHARGES
----------------------
   0 C :   -0.357803
   1 C :   -0.047352
   2 C :   -0.026709
   3 C :   -0.127259
   4 C :   -0.156617
   5 C :    0.114344
   6 F :   -0.106046
   7 C :   -0.154189
   8 C :   -0.118521
   9 N :   -0.158296
  10 C :   -0.140245
  11 C :   -0.056877
  12 C :   -0.085259
  13 C :   -0.060909
  14 C :    0.178979
  15 O :   -0.266377
  16 O :   -0.339119
  17 C :   -0.096234
  18 C :   -0.159407
  19 C :    0.125431
  20 F :   -0.094815
  21 C :    0.154765
  22 O :   -0.217753
  23 C :   -0.081714
  24 C :   -0.032533
  25 N :   -0.125514
  26 C :    0.022536
  27 C :   -0.114593
  28 C :   -0.115087
  29 C :   -0.129488
  30 C :   -0.113911
  31 C :   -0.032873
  32 C :   -0.066029
  33 H :    0.124865
  34 H :    0.123803
  35 H :    0.133057
  36 H :    0.127723
  37 H :    0.129978
  38 H :    0.141518
  39 H :    0.142982
  40 H :    0.135386
  41 H :    0.137511
  42 H :    0.130405
  43 H :    0.160608
  44 H :    0.347558
  45 H :    0.151894
  46 H :    0.145653
  47 H :    0.154157
  48 H :    0.146593
  49 H :    0.137557
  50 H :    0.134968
  51 H :    0.134296
  52 H :    0.144961

  Mayer bond orders larger than 0.100000
B(  0-C ,  1-C ) :   1.0020 B(  0-C , 33-H ) :   0.9375 B(  0-C , 34-H ) :   0.9366
B(  0-C , 35-H ) :   0.9407 B(  1-C ,  2-C ) :   0.9382 B(  1-C ,  9-N ) :   0.9676
B(  1-C , 36-H ) :   0.9234 B(  2-C ,  3-C ) :   1.4136 B(  2-C ,  8-C ) :   1.4270
B(  3-C ,  4-C ) :   1.4279 B(  3-C , 37-H ) :   0.9216 B(  4-C ,  5-C ) :   1.3903
B(  4-C , 38-H ) :   0.9212 B(  5-C ,  6-F ) :   0.9154 B(  5-C ,  7-C ) :   1.3986
B(  7-C ,  8-C ) :   1.4201 B(  7-C , 39-H ) :   0.9206 B(  8-C , 40-H ) :   0.9224
B(  9-N , 10-C ) :   0.9598 B(  9-N , 21-C ) :   0.9457 B( 10-C , 11-C ) :   0.9449
B( 10-C , 41-H ) :   0.9193 B( 10-C , 42-H ) :   0.9151 B( 11-C , 12-C ) :   1.3961
B( 11-C , 19-C ) :   1.3445 B( 12-C , 13-C ) :   1.3855 B( 12-C , 43-H ) :   0.9009
B( 13-C , 14-C ) :   1.0125 B( 13-C , 17-C ) :   1.3869 B( 14-C , 15-O ) :   1.8593
B( 14-C , 16-O ) :   1.0172 B( 16-O , 44-H ) :   0.7438 B( 17-C , 18-C ) :   1.4143
B( 17-C , 45-H ) :   0.9155 B( 18-C , 19-C ) :   1.3824 B( 18-C , 46-H ) :   0.9192
B( 19-C , 20-F ) :   0.9118 B( 21-C , 22-O ) :   1.8909 B( 21-C , 23-C ) :   0.9992
B( 23-C , 24-C ) :   1.2478 B( 23-C , 32-C ) :   1.4205 B( 24-C , 25-N ) :   1.5053
B( 24-C , 47-H ) :   0.9140 B( 25-N , 26-C ) :   1.2417 B( 26-C , 27-C ) :   1.3168
B( 26-C , 31-C ) :   1.2461 B( 27-C , 28-C ) :   1.5068 B( 27-C , 30-C ) :   0.1059
B( 27-C , 48-H ) :   0.9162 B( 28-C , 29-C ) :   1.3493 B( 28-C , 49-H ) :   0.9290
B( 29-C , 30-C ) :   1.5116 B( 29-C , 50-H ) :   0.9297 B( 30-C , 31-C ) :   1.2784
B( 30-C , 51-H ) :   0.9242 B( 31-C , 32-C ) :   1.2728 B( 32-C , 52-H ) :   0.9005

FINAL SINGLE POINT ENERGY     -1536.747638357997

DIPOLE MOMENT
-------------

Method             : SCF
Type of density    : Electron Density
Multiplicity       :   1
Irrep              :   0
Energy             : -1536.7476383579974026 Eh
Relativity type    :
Basis              : AO
                                X                 Y                 Z
Electronic contribution:     -5.891009785       2.631009612      -9.632707494
Nuclear contribution   :      6.003609760      -3.732553353      12.079449984
                        -----------------------------------------
Total Dipole Moment    :      0.112599974      -1.101543740       2.446742491
                        -----------------------------------------
Magnitude (a.u.)       :      2.685633293
Magnitude (Debye)      :      6.826337332

Rotational constants in cm-1:             0.007386             0.002574             0.002394
Rotational constants in MHz :           221.440362            77.156192            71.784495

                             ****ORCA TERMINATED NORMALLY****
TOTAL RUN TIME: 0 days 0 hours 10 minutes 29 seconds 140 msec
