                         Program Version 6.0.0  -   RELEASE  -
|  1> ! B3LYP 6-31G* SP
|  2>
|  3> * xyz 0 1
|  4> O 0.1743 -0.9935 1.5976
|  5> C 0.6015 -0.5865 0.4838
|  6> N -0.3178 -0.3024 -0.5952
|  7> C -1.7312 -0.7110 -0.6989
|  8> C -2.2808 -1.4802 0.4979
|  9> C -3.1523 -0.8984 1.4432
| 10> C -3.6277 -1.6464 2.5245
| 11> C -3.2486 -2.9813 2.6760
| 12> C -2.3962 -3.5742 1.7434
| 13> C -1.9180 -2.8322 0.6599
| 14> C -2.6320 0.4303 -1.1575
| 15> N -3.6134 0.0901 -2.0420
| 16> C -4.4993 0.9829 -2.5468
| 17> C -4.4280 2.3167 -2.1709
| 18> C -3.4542 2.7171 -1.2611
| 19> C -2.5520 1.7867 -0.7052
| 20> C -1.5110 2.2997 0.2762
| 21> F -0.3084 2.4811 -0.3789
| 22> F -1.8907 3.5155 0.8198
| 23> F -1.3383 1.4259 1.3292
| 24> C 2.0637 -0.3969 0.3149
| 25> C 2.9564 -1.1884 1.0619
| 26> C 4.3385 -1.0290 0.9272
| 27> C 4.8510 -0.0673 0.0485
| 28> C 6.2314 0.1166 -0.1055
| 29> C 6.7073 1.0908 -0.9856
| 30> C 5.7982 1.8727 -1.7027
| 31> N 4.4608 1.6841 -1.5447
| 32> C 3.9662 0.7415 -0.6967
| 33> C 2.5833 0.5772 -0.5595
| 34> H 0.0824 0.0692 -1.4847
| 35> H -1.7532 -1.4435 -1.5383
| 36> H -3.4814 0.1262 1.3486
| 37> H -4.2951 -1.1905 3.2445
| 38> H -3.6185 -3.5573 3.5143
| 39> H -2.1044 -4.6099 1.8601
| 40> H -1.2530 -3.3085 -0.0502
| 41> H -5.2542 0.6549 -3.2487
| 42> H -5.1229 3.0378 -2.5819
| 43> H -3.4133 3.7648 -0.9926
| 44> H 2.5834 -1.9426 1.7440
| 45> H 5.0041 -1.6557 1.5087
| 46> H 6.9369 -0.4879 0.4519
| 47> H 7.7720 1.2399 -1.1104
| 48> H 6.1568 2.6309 -2.3860
| 49> H 1.9277 1.2311 -1.1177
| 50> *
| 51>
| 52>                          ****END OF INPUT****

CARTESIAN COORDINATES (ANGSTROEM)
---------------------------------
  O      0.174300   -0.993500    1.597600
  C      0.601500   -0.586500    0.483800
  N     -0.317800   -0.302400   -0.595200
  C     -1.731200   -0.711000   -0.698900
  C     -2.280800   -1.480200    0.497900
  C     -3.152300   -0.898400    1.443200
  C     -3.627700   -1.646400    2.524500
  C     -3.248600   -2.981300    2.676000
  C     -2.396200   -3.574200    1.743400
  C     -1.918000   -2.832200    0.659900
  C     -2.632000    0.430300   -1.157500
  N     -3.613400    0.090100   -2.042000
  C     -4.499300    0.982900   -2.546800
  C     -4.428000    2.316700   -2.170900
  C     -3.454200    2.717100   -1.261100
  C     -2.552000    1.786700   -0.705200
  C     -1.511000    2.299700    0.276200
  F     -0.308400    2.481100   -0.378900
  F     -1.890700    3.515500    0.819800
  F     -1.338300    1.425900    1.329200
  C      2.063700   -0.396900    0.314900
  C      2.956400   -1.188400    1.061900
  C      4.338500   -1.029000    0.927200
  C      4.851000   -0.067300    0.048500
  C      6.231400    0.116600   -0.105500
  C      6.707300    1.090800   -0.985600
  C      5.798200    1.872700   -1.702700
  N      4.460800    1.684100   -1.544700
  C      3.966200    0.741500   -0.696700
  C      2.583300    0.577200   -0.559500
  H      0.082400    0.069200   -1.484700
  H     -1.753200   -1.443500   -1.538300
  H     -3.481400    0.126200    1.348600
  H     -4.295100   -1.190500    3.244500
  H     -3.618500   -3.557300    3.514300
  H     -2.104400   -4.609900    1.860100
  H     -1.253000   -3.308500   -0.050200
  H     -5.254200    0.654900   -3.248700
  H     -5.122900    3.037800   -2.581900
  H     -3.413300    3.764800   -0.992600
  H      2.583400   -1.942600    1.744000
  H      5.004100   -1.655700    1.508700
  H      6.936900   -0.487900    0.451900
  H      7.772000    1.239900   -1.110400
  H      6.156800    2.630900   -2.386000
  H      1.927700    1.231100   -1.117700

 Total Charge           Charge          ....    0
 Multiplicity           Mult            ....    1
 Number of Electrons    NEL             ....  210
 Basis Dimension        Dim             ....  452

ORBITAL ENERGIES
----------------

  NO   OCC          E(Eh)            E(eV)
   0   2.0000     -24.720910      -672.6902
   1   2.0000     -24.719340      -672.6474
   2   2.0000     -24.715549      -672.5443
   3   2.0000     -19.102403      -519.8028
   4   2.0000     -14.353448      -390.5772
   5   2.0000     -14.341251      -390.2453
   6   2.0000     -14.324288      -389.7837
   7   2.0000     -10.438310      -284.0409
   8   2.0000     -10.286662      -279.9143
   9   2.0000     -10.251973      -278.9704
  10   2.0000     -10.238762      -278.6109
  11   2.0000     -10.235014      -278.5089
  12   2.0000     -10.227600      -278.3071
  13   2.0000     -10.221958      -278.1536
  14   2.0000     -10.219848      -278.0962
  15   2.0000     -10.219624      -278.0901
  16   2.0000     -10.204990      -277.6919
  17   2.0000     -10.204951      -277.6908
  18   2.0000     -10.202145      -277.6145
  19   2.0000     -10.196413      -277.4585
  20   2.0000     -10.193660      -277.3836
  21   2.0000     -10.192087      -277.3408
  22   2.0000     -10.190931      -277.3093
  23   2.0000     -10.190445      -277.2961
  24   2.0000     -10.187431      -277.2141
  25   2.0000     -10.170816      -276.7620
  26   2.0000     -10.169494      -276.7260
  27   2.0000     -10.168890      -276.7096
  28   2.0000     -10.168543      -276.7001
  29   2.0000     -10.168089      -276.6878
  30   2.0000      -1.281615       -34.8745
  31   2.0000      -1.206459       -32.8294
  32   2.0000      -1.203194       -32.7406
  33   2.0000      -1.003847       -27.3161
  34   2.0000      -0.948334       -25.8055
  35   2.0000      -0.934412       -25.4266
  36   2.0000      -0.902601       -24.5610
  37   2.0000      -0.851406       -23.1679
  38   2.0000      -0.836600       -22.7650
  39   2.0000      -0.824154       -22.4264
  40   2.0000      -0.808487       -22.0000
  41   2.0000      -0.797186       -21.6925
  42   2.0000      -0.765036       -20.8177
  43   2.0000      -0.751371       -20.4459
  44   2.0000      -0.739342       -20.1185
  45   2.0000      -0.729394       -19.8478
  46   2.0000      -0.709625       -19.3099
  47   2.0000      -0.687117       -18.6974
  48   2.0000      -0.659921       -17.9574
  49   2.0000      -0.638938       -17.3864
  50   2.0000      -0.636170       -17.3111
  51   2.0000      -0.623006       -16.9529
  52   2.0000      -0.608081       -16.5467
  53   2.0000      -0.591874       -16.1057
  54   2.0000      -0.590092       -16.0572
  55   2.0000      -0.573074       -15.5941
  56   2.0000      -0.569564       -15.4986
  57   2.0000      -0.565791       -15.3960
  58   2.0000      -0.553252       -15.0548
  59   2.0000      -0.537350       -14.6220
  60   2.0000      -0.518223       -14.1016
  61   2.0000      -0.514916       -14.0116
  62   2.0000      -0.513632       -13.9766
  63   2.0000      -0.503379       -13.6976
  64   2.0000      -0.497423       -13.5356
  65   2.0000      -0.476854       -12.9759
  66   2.0000      -0.465002       -12.6534
  67   2.0000      -0.453699       -12.3458
  68   2.0000      -0.451744       -12.2926
  69   2.0000      -0.449600       -12.2342
  70   2.0000      -0.445721       -12.1287
  71   2.0000      -0.442062       -12.0291
  72   2.0000      -0.441188       -12.0053
  73   2.0000      -0.430729       -11.7207
  74   2.0000      -0.427302       -11.6275
  75   2.0000      -0.421657       -11.4739
  76   2.0000      -0.419060       -11.4032
  77   2.0000      -0.412376       -11.2213
  78   2.0000      -0.410500       -11.1703
  79   2.0000      -0.408764       -11.1230
  80   2.0000      -0.404902       -11.0179
  81   2.0000      -0.404082       -10.9956
  82   2.0000      -0.401033       -10.9127
  83   2.0000      -0.396196       -10.7810
  84   2.0000      -0.393057       -10.6956
  85   2.0000      -0.387982       -10.5575
  86   2.0000      -0.375237       -10.2107
  87   2.0000      -0.370502       -10.0819
  88   2.0000      -0.364285        -9.9127
  89   2.0000      -0.353210        -9.6113
  90   2.0000      -0.342711        -9.3256
  91   2.0000      -0.334039        -9.0897
  92   2.0000      -0.331455        -9.0194
  93   2.0000      -0.327923        -8.9232
  94   2.0000      -0.303715        -8.2645
  95   2.0000      -0.296637        -8.0719
  96   2.0000      -0.278026        -7.5655
  97   2.0000      -0.260650        -7.0926
  98   2.0000      -0.258924        -7.0457
  99   2.0000      -0.250800        -6.8246
 100   2.0000      -0.245434        -6.6786
 101   2.0000      -0.240118        -6.5339
 102   2.0000      -0.231859        -6.3092
 103   2.0000      -0.227825        -6.1994
 104   2.0000      -0.214390        -5.8338
 105   0.0000      -0.064795        -1.7632
 106   0.0000      -0.044684        -1.2159
 107   0.0000      -0.038321        -1.0428
 108   0.0000      -0.027254        -0.7416
 109   0.0000       0.006846         0.1863

MULLIKEN ATOMIC CHARGES
-----------------------
   0 O :   -0.465470
   1 C :    0.500465
   2 N :   -0.648731
   3 C :   -0.065103
   4 C :    0.178131
   5 C :   -0.147590
   6 C :   -0.131800
   7 C :   -0.119882
   8 C :   -0.123999
   9 C :   -0.143795
  10 C :    0.202001
  11 N :   -0.399217
  12 C :    0.027068
  13 C :   -0.133648
  14 C :   -0.131283
  15 C :   -0.079741
  16 C :    0.939254
  17 F :   -0.300275
  18 F :   -0.306787
  19 F :   -0.280309
  20 C :    0.086679
  21 C :   -0.154278
  22 C :   -0.209162
  23 C :    0.170776
  24 C :   -0.153297
  25 C :   -0.145709
  26 C :    0.014630
  27 N :   -0.434891
  28 C :    0.209746
  29 C :   -0.199258
  30 H :    0.322860
  31 H :    0.171678
  32 H :    0.118012
  33 H :    0.124248
  34 H :    0.122292
  35 H :    0.123379
  36 H :    0.120289
  37 H :    0.159462
  38 H :    0.144906
  39 H :    0.167269
  40 H :    0.160132
  41 H :    0.137630
  42 H :    0.142985
  43 H :    0.134803
  44 H :    0.150096
  45 H :    0.145437
Sum of atomic charges:    0.0000000

LOEWDIN ATOMIC CHARGES
----------------------
   0 O :   -0.263558
   1 C :    0.142195
   2 N :   -0.245420
   3 C :   -0.047350
   4 C :   -0.002950
   5 C :   -0.122789
   6 C :   -0.128022
   7 C :   -0.126998
   8 C :   -0.127154
   9 C :   -0.114128
  10 C :    0.044801
  11 N :   -0.127317
  12 C :   -0.054781
  13 C :   -0.144386
  14 C :   -0.089813
  15 C :   -0.084280
  16 C :    0.309791
  17 F :   -0.112427
  18 F :   -0.112299
  19 F :   -0.087304
  20 C :   -0.037994
  21 C :   -0.101115
  22 C :   -0.120219
  23 C :   -0.023770
  24 C :   -0.093477
  25 C :   -0.147917
  26 C :   -0.064081
  27 N :   -0.131541
  28 C :    0.013844
  29 C :   -0.112272
  30 H :    0.247877
  31 H :    0.147200
  32 H :    0.129180
  33 H :    0.129823
  34 H :    0.128833
  35 H :    0.129644
  36 H :    0.128034
  37 H :    0.140122
  38 H :    0.141121
  39 H :    0.149929
  40 H :    0.150728
  41 H :    0.135993
  42 H :    0.138567
  43 H :    0.136118
  44 H :    0.135793
  45 H :    0.143771

  Mayer bond orders larger than 0.100000
B(  0-O ,  1-C ) :   1.8003 B(  1-C ,  2-N ) :   1.0200 B(  1-C , 20-C ) :   0.9733
B(  2-N ,  3-C ) :   0.8935 B(  2-N , 30-H ) :   0.8185 B(  3-C ,  4-C ) :   0.9798
B(  3-C , 10-C ) :   0.9481 B(  3-C , 31-H ) :   0.9030 B(  4-C ,  5-C ) :   1.4415
B(  4-C ,  9-C ) :   1.4054 B(  5-C ,  6-C ) :   1.4404 B(  5-C , 32-H ) :   0.9159
B(  6-C ,  7-C ) :   1.4571 B(  6-C , 33-H ) :   0.9299 B(  7-C ,  8-C ) :   1.4487
B(  7-C , 34-H ) :   0.9307 B(  8-C ,  9-C ) :   1.4536 B(  8-C , 35-H ) :   0.9300
B(  9-C , 36-H ) :   0.9262 B( 10-C , 11-N ) :   1.3941 B( 10-C , 15-C ) :   1.3473
B( 11-N , 12-C ) :   1.4207 B( 12-C , 13-C ) :   1.4216 B( 12-C , 37-H ) :   0.9275
B( 13-C , 14-C ) :   1.4372 B( 13-C , 38-H ) :   0.9236 B( 14-C , 15-C ) :   1.4021
B( 14-C , 39-H ) :   0.9164 B( 15-C , 16-C ) :   0.9653 B( 16-C , 17-F ) :   0.9463
B( 16-C , 18-F ) :   0.9384 B( 16-C , 19-F ) :   0.9464 B( 20-C , 21-C ) :   1.3181
B( 20-C , 29-C ) :   1.4431 B( 21-C , 22-C ) :   1.4961 B( 21-C , 40-H ) :   0.9154
B( 22-C , 23-C ) :   1.2736 B( 22-C , 41-H ) :   0.9244 B( 23-C , 24-C ) :   1.3057
B( 23-C , 28-C ) :   1.2558 B( 24-C , 25-C ) :   1.5109 B( 24-C , 42-H ) :   0.9240
B( 25-C , 26-C ) :   1.3264 B( 25-C , 43-H ) :   0.9250 B( 26-C , 27-N ) :   1.5125
B( 26-C , 44-H ) :   0.9302 B( 27-N , 28-C ) :   1.2507 B( 28-C , 29-C ) :   1.2921
B( 29-C , 45-H ) :   0.9026

FINAL SINGLE POINT ENERGY     -1424.267246147077

DIPOLE MOMENT
-------------

Method             : SCF
Type of density    : Electron Density
Multiplicity       :   1
Irrep              :   0
Energy             : -1424.2672461470770031 Eh
Relativity type    :
Basis              : AO
                                X                 Y                 Z
Electronic contribution:     -3.931442381      15.539854449       1.418311152
Nuclear contribution   :      4.186581224     -15.320739756      -2.443246129
                        -----------------------------------------
Total Dipole Moment    :      0.255138843       0.219114693      -1.024934977
                        -----------------------------------------
Magnitude (a.u.)       :      1.078702362
Magnitude (Debye)      :      2.741843506

Rotational constants in cm-1:             0.008258             0.003317             0.002683
Rotational constants in MHz :           247.557298            99.426473            80.423620

                             ****ORCA TERMINATED NORMALLY****
TOTAL RUN TIME: 0 days 0 hours 6 minutes 25 seconds 99 msec
