                         Program Version 6.0.0  -   RELEASE  -
|  1> ! B3LYP 6-31G* SP
|  2>
|  3> * xyz 0 1
|  4> C 5.6253 0.7581 -0.0219
|  5> C 5.0538 -0.6146 0.3076
|  6> N 3.6691 -0.7021 -0.1376
|  7> N 3.2957 -1.1018 -1.3405
|  8> N 1.9795 -1.0041 -1.4318
|  9> C 1.5791 -0.5200 -0.2371
| 10> C 0.1706 -0.2464 0.1000
| 11> S -1.1072 -0.5095 -0.9641
| 12> C -2.2836 0.0187 0.1184
| 13> C -3.7341 0.0761 -0.1365
| 14> C -4.2876 -0.3242 -1.3636
| 15> N -5.6324 -0.2513 -1.5471
| 16> C -6.4549 0.2019 -0.5658
| 17> C -5.9101 0.6007 0.6550
| 18> N -4.5662 0.5289 0.8412
| 19> N -1.7260 0.3976 1.2895
| 20> C -0.3729 0.2563 1.2924
| 21> O 0.3649 0.6012 2.4237
| 22> N 2.6289 -0.3190 0.5819
| 23> H 5.0376 1.5492 0.4905
| 24> H 5.5935 0.9314 -1.1186
| 25> H 6.6800 0.8157 0.3204
| 26> H 5.1049 -0.7845 1.4048
| 27> H 5.6592 -1.3995 -0.1952
| 28> H -3.6646 -0.6904 -2.1683
| 29> H -7.5225 0.2519 -0.7327
| 30> H -6.5490 0.9644 1.4484
| 31> H 1.3690 0.5155 2.4789
| 32> *
| 33>
| 34>                          ****END OF INPUT****

CARTESIAN COORDINATES (ANGSTROEM)
---------------------------------
  C      5.625300    0.758100   -0.021900
  C      5.053800   -0.614600    0.307600
  N      3.669100   -0.702100   -0.137600
  N      3.295700   -1.101800   -1.340500
  N      1.979500   -1.004100   -1.431800
  C      1.579100   -0.520000   -0.237100
  C      0.170600   -0.246400    0.100000
  S     -1.107200   -0.509500   -0.964100
  C     -2.283600    0.018700    0.118400
  C     -3.734100    0.076100   -0.136500
  C     -4.287600   -0.324200   -1.363600
  N     -5.632400   -0.251300   -1.547100
  C     -6.454900    0.201900   -0.565800
  C     -5.910100    0.600700    0.655000
  N     -4.566200    0.528900    0.841200
  N     -1.726000    0.397600    1.289500
  C     -0.372900    0.256300    1.292400
  O      0.364900    0.601200    2.423700
  N      2.628900   -0.319000    0.581900
  H      5.037600    1.549200    0.490500
  H      5.593500    0.931400   -1.118600
  H      6.680000    0.815700    0.320400
  H      5.104900   -0.784500    1.404800
  H      5.659200   -1.399500   -0.195200
  H     -3.664600   -0.690400   -2.168300
  H     -7.522500    0.251900   -0.732700
  H     -6.549000    0.964400    1.448400
  H      1.369000    0.515500    2.478900

 Total Charge           Charge          ....    0
 Multiplicity           Mult            ....    1
 Number of Electrons    NEL             ....  142
 Basis Dimension        Dim             ....  288

ORBITAL ENERGIES
----------------

  NO   OCC          E(Eh)            E(eV)
   0   2.0000     -88.910086     -2419.3664
   1   2.0000     -19.173271      -521.7312
   2   2.0000     -14.472396      -393.8139
   3   2.0000     -14.410739      -392.1361
   4   2.0000     -14.386285      -391.4707
   5   2.0000     -14.371449      -391.0670
   6   2.0000     -14.349062      -390.4578
   7   2.0000     -14.346400      -390.3854
   8   2.0000     -14.336664      -390.1205
   9   2.0000     -10.291837      -280.0551
  10   2.0000     -10.270161      -279.4653
  11   2.0000     -10.261806      -279.2379
  12   2.0000     -10.261665      -279.2341
  13   2.0000     -10.252221      -278.9771
  14   2.0000     -10.237166      -278.5674
  15   2.0000     -10.232896      -278.4513
  16   2.0000     -10.231498      -278.4132
  17   2.0000     -10.230901      -278.3970
  18   2.0000     -10.203898      -277.6622
  19   2.0000      -7.986704      -217.3293
  20   2.0000      -5.949627      -161.8976
  21   2.0000      -5.945695      -161.7906
  22   2.0000      -5.943809      -161.7393
  23   2.0000      -1.160218       -31.5711
  24   2.0000      -1.042981       -28.3810
  25   2.0000      -0.976362       -26.5681
  26   2.0000      -0.963610       -26.2212
  27   2.0000      -0.959470       -26.1085
  28   2.0000      -0.909859       -24.7585
  29   2.0000      -0.890961       -24.2443
  30   2.0000      -0.826323       -22.4854
  31   2.0000      -0.806933       -21.9578
  32   2.0000      -0.796372       -21.6704
  33   2.0000      -0.747433       -20.3387
  34   2.0000      -0.698233       -18.9999
  35   2.0000      -0.685772       -18.6608
  36   2.0000      -0.665332       -18.1046
  37   2.0000      -0.651479       -17.7276
  38   2.0000      -0.626055       -17.0358
  39   2.0000      -0.606237       -16.4966
  40   2.0000      -0.577595       -15.7172
  41   2.0000      -0.547758       -14.9052
  42   2.0000      -0.539163       -14.6714
  43   2.0000      -0.518888       -14.1197
  44   2.0000      -0.514845       -14.0096
  45   2.0000      -0.509615       -13.8673
  46   2.0000      -0.489284       -13.3141
  47   2.0000      -0.480236       -13.0679
  48   2.0000      -0.459778       -12.5112
  49   2.0000      -0.448897       -12.2151
  50   2.0000      -0.446708       -12.1555
  51   2.0000      -0.426767       -11.6129
  52   2.0000      -0.416783       -11.3412
  53   2.0000      -0.413993       -11.2653
  54   2.0000      -0.405055       -11.0221
  55   2.0000      -0.404502       -11.0071
  56   2.0000      -0.394262       -10.7284
  57   2.0000      -0.382893       -10.4190
  58   2.0000      -0.359634        -9.7861
  59   2.0000      -0.344118        -9.3639
  60   2.0000      -0.335785        -9.1372
  61   2.0000      -0.324895        -8.8408
  62   2.0000      -0.316041        -8.5999
  63   2.0000      -0.315698        -8.5906
  64   2.0000      -0.300698        -8.1824
  65   2.0000      -0.291718        -7.9381
  66   2.0000      -0.286381        -7.7928
  67   2.0000      -0.271790        -7.3958
  68   2.0000      -0.270926        -7.3723
  69   2.0000      -0.242159        -6.5895
  70   2.0000      -0.219606        -5.9758
  71   0.0000      -0.077476        -2.1082
  72   0.0000      -0.046667        -1.2699
  73   0.0000      -0.034322        -0.9340
  74   0.0000      -0.003953        -0.1076
  75   0.0000       0.026898         0.7319

MULLIKEN ATOMIC CHARGES
-----------------------
   0 C :   -0.445635
   1 C :   -0.149313
   2 N :   -0.022633
   3 N :   -0.056139
   4 N :   -0.318215
   5 C :    0.431312
   6 C :   -0.240810
   7 S :    0.304909
   8 C :   -0.006431
   9 C :    0.248749
  10 C :   -0.023429
  11 N :   -0.343737
  12 C :    0.016743
  13 C :    0.017292
  14 N :   -0.356364
  15 N :   -0.363029
  16 C :    0.489988
  17 O :   -0.650778
  18 N :   -0.357140
  19 H :    0.171756
  20 H :    0.177593
  21 H :    0.162386
  22 H :    0.187827
  23 H :    0.194466
  24 H :    0.170418
  25 H :    0.157703
  26 H :    0.159606
  27 H :    0.442906
Sum of atomic charges:   -0.0000000

LOEWDIN ATOMIC CHARGES
----------------------
   0 C :   -0.362145
   1 C :   -0.153394
   2 N :    0.099854
   3 N :   -0.064926
   4 N :   -0.120080
   5 C :   -0.001187
   6 C :   -0.257757
   7 S :    0.431058
   8 C :   -0.130556
   9 C :    0.006053
  10 C :   -0.075092
  11 N :   -0.106783
  12 C :   -0.082039
  13 C :   -0.074168
  14 N :   -0.085787
  15 N :   -0.128846
  16 C :    0.102464
  17 O :   -0.333242
  18 N :   -0.155520
  19 H :    0.137822
  20 H :    0.140834
  21 H :    0.137682
  22 H :    0.149753
  23 H :    0.153391
  24 H :    0.144996
  25 H :    0.140047
  26 H :    0.141761
  27 H :    0.345808

  Mayer bond orders larger than 0.100000
B(  0-C ,  1-C ) :   1.0029 B(  0-C , 19-H ) :   0.9441 B(  0-C , 20-H ) :   0.9430
B(  0-C , 21-H ) :   0.9412 B(  1-C ,  2-N ) :   0.8953 B(  1-C , 22-H ) :   0.9268
B(  1-C , 23-H ) :   0.9251 B(  2-N ,  3-N ) :   1.2491 B(  2-N , 18-N ) :   1.2236
B(  3-N ,  4-N ) :   1.4279 B(  3-N , 18-N ) :   0.1295 B(  4-N ,  5-C ) :   1.2872
B(  5-C ,  6-C ) :   1.0534 B(  5-C , 18-N ) :   1.3593 B(  6-C ,  7-S ) :   1.0938
B(  6-C ,  8-C ) :   0.1243 B(  6-C , 16-C ) :   1.3664 B(  7-S ,  8-C ) :   1.1521
B(  8-C ,  9-C ) :   1.0043 B(  8-C , 15-N ) :   1.4304 B(  9-C , 10-C ) :   1.3177
B(  9-C , 14-N ) :   1.3896 B( 10-C , 11-N ) :   1.4478 B( 10-C , 13-C ) :   0.1032
B( 10-C , 24-H ) :   0.9152 B( 11-N , 12-C ) :   1.4275 B( 12-C , 13-C ) :   1.3714
B( 12-C , 25-H ) :   0.9250 B( 13-C , 14-N ) :   1.4458 B( 13-C , 26-H ) :   0.9230
B( 15-N , 16-C ) :   1.3273 B( 16-C , 17-O ) :   1.0149 B( 17-O , 27-H ) :   0.7186

FINAL SINGLE POINT ENERGY     -1242.518621281846

DIPOLE MOMENT
-------------

Method             : SCF
Type of density    : Electron Density
Multiplicity       :   1
Irrep              :   0
Energy             : -1242.5186212818457534 Eh
Relativity type    :
Basis              : AO
                                X                 Y                 Z
Electronic contribution:    -14.028462127      -3.067894823      -1.951682190
Nuclear contribution   :     15.642070637       3.150543902       2.258065429
                        -----------------------------------------
Total Dipole Moment    :      1.613608510       0.082649079       0.306383239
                        -----------------------------------------
Magnitude (a.u.)       :      1.644516337
Magnitude (Debye)      :      4.180028336

Rotational constants in cm-1:             0.042760             0.004633             0.004245
Rotational constants in MHz :          1281.901441           138.893603           127.250635

                             ****ORCA TERMINATED NORMALLY****
TOTAL RUN TIME: 0 days 0 hours 3 minutes 23 seconds 563 msec
