                         Program Version 6.0.0  -   RELEASE  -
|  1> ! B3LYP 6-31G* SP
|  2>
|  3> * xyz 0 1
|  4> O -1.0101 0.3051 1.5857
|  5> C -1.5970 0.5806 0.5042
|  6> N -0.9384 0.3445 -0.7563
|  7> C 0.2549 -0.4939 -0.9593
|  8> C 1.5299 0.3342 -0.9410
|  9> C 1.6716 1.4686 -0.1200
| 10> C 2.8735 2.1816 -0.0947
| 11> C 3.9581 1.7815 -0.8922
| 12> C 5.2702 2.5215 -0.8243
| 13> F 5.9522 2.4184 -2.0244
| 14> F 5.0608 3.8641 -0.5601
| 15> F 6.0465 1.9799 0.1830
| 16> C 3.8336 0.6242 -1.6776
| 17> C 2.6321 -0.0888 -1.7038
| 18> C 0.3199 -1.6656 0.0110
| 19> N 1.1258 -1.5534 1.1069
| 20> C 1.2400 -2.5322 2.0383
| 21> C 0.5181 -3.7113 1.8980
| 22> C -0.3211 -3.8716 0.7979
| 23> C -0.4515 -2.8499 -0.1632
| 24> C -1.3478 -3.0672 -1.3691
| 25> F -0.5707 -3.1984 -2.5053
| 26> F -2.1139 -4.2129 -1.2362
| 27> F -2.2135 -2.0018 -1.5259
| 28> C -2.9535 1.1766 0.5516
| 29> C -3.4073 1.8189 1.7162
| 30> C -4.6875 2.3731 1.7600
| 31> C -5.5135 2.2754 0.6405
| 32> N -5.0717 1.6409 -0.4767
| 33> C -3.8281 1.0951 -0.5472
| 34> H -1.2766 0.8719 -1.5921
| 35> H 0.1784 -0.9096 -1.9861
| 36> H 0.8613 1.8077 0.5080
| 37> H 2.9567 3.0442 0.5546
| 38> H 4.6681 0.2661 -2.2674
| 39> H 2.5641 -0.9805 -2.3150
| 40> H 1.8949 -2.3930 2.8879
| 41> H 0.6100 -4.4985 2.6352
| 42> H -0.8654 -4.8022 0.7038
| 43> H -2.7697 1.9015 2.5877
| 44> H -5.0362 2.8740 2.6539
| 45> H -6.5084 2.6997 0.6608
| 46> H -3.5388 0.5814 -1.4535
| 47> *
| 48>
| 49>                          ****END OF INPUT****

CARTESIAN COORDINATES (ANGSTROEM)
---------------------------------
  O     -1.010100    0.305100    1.585700
  C     -1.597000    0.580600    0.504200
  N     -0.938400    0.344500   -0.756300
  C      0.254900   -0.493900   -0.959300
  C      1.529900    0.334200   -0.941000
  C      1.671600    1.468600   -0.120000
  C      2.873500    2.181600   -0.094700
  C      3.958100    1.781500   -0.892200
  C      5.270200    2.521500   -0.824300
  F      5.952200    2.418400   -2.024400
  F      5.060800    3.864100   -0.560100
  F      6.046500    1.979900    0.183000
  C      3.833600    0.624200   -1.677600
  C      2.632100   -0.088800   -1.703800
  C      0.319900   -1.665600    0.011000
  N      1.125800   -1.553400    1.106900
  C      1.240000   -2.532200    2.038300
  C      0.518100   -3.711300    1.898000
  C     -0.321100   -3.871600    0.797900
  C     -0.451500   -2.849900   -0.163200
  C     -1.347800   -3.067200   -1.369100
  F     -0.570700   -3.198400   -2.505300
  F     -2.113900   -4.212900   -1.236200
  F     -2.213500   -2.001800   -1.525900
  C     -2.953500    1.176600    0.551600
  C     -3.407300    1.818900    1.716200
  C     -4.687500    2.373100    1.760000
  C     -5.513500    2.275400    0.640500
  N     -5.071700    1.640900   -0.476700
  C     -3.828100    1.095100   -0.547200
  H     -1.276600    0.871900   -1.592100
  H      0.178400   -0.909600   -1.986100
  H      0.861300    1.807700    0.508000
  H      2.956700    3.044200    0.554600
  H      4.668100    0.266100   -2.267400
  H      2.564100   -0.980500   -2.315000
  H      1.894900   -2.393000    2.887900
  H      0.610000   -4.498500    2.635200
  H     -0.865400   -4.802200    0.703800
  H     -2.769700    1.901500    2.587700
  H     -5.036200    2.874000    2.653900
  H     -6.508400    2.699700    0.660800
  H     -3.538800    0.581400   -1.453500

 Total Charge           Charge          ....    0
 Multiplicity           Mult            ....    1
 Number of Electrons    NEL             ....  216
 Basis Dimension        Dim             ....  446

ORBITAL ENERGIES
----------------

  NO   OCC          E(Eh)            E(eV)
   0   2.0000     -24.731178      -672.9696
   1   2.0000     -24.730307      -672.9459
   2   2.0000     -24.730030      -672.9383
   3   2.0000     -24.711830      -672.4431
   4   2.0000     -24.711572      -672.4361
   5   2.0000     -24.707452      -672.3240
   6   2.0000     -19.118387      -520.2378
   7   2.0000     -14.367803      -390.9678
   8   2.0000     -14.338213      -390.1626
   9   2.0000     -14.337047      -390.1309
  10   2.0000     -10.447599      -284.2936
  11   2.0000     -10.426200      -283.7113
  12   2.0000     -10.301527      -280.3188
  13   2.0000     -10.252910      -278.9959
  14   2.0000     -10.250606      -278.9332
  15   2.0000     -10.234371      -278.4914
  16   2.0000     -10.231984      -278.4264
  17   2.0000     -10.231963      -278.4259
  18   2.0000     -10.226503      -278.2773
  19   2.0000     -10.218132      -278.0495
  20   2.0000     -10.214055      -277.9386
  21   2.0000     -10.211942      -277.8811
  22   2.0000     -10.204039      -277.6660
  23   2.0000     -10.203809      -277.6598
  24   2.0000     -10.202375      -277.6207
  25   2.0000     -10.201686      -277.6020
  26   2.0000     -10.194861      -277.4163
  27   2.0000     -10.192896      -277.3628
  28   2.0000     -10.191521      -277.3254
  29   2.0000     -10.186632      -277.1923
  30   2.0000      -1.292410       -35.1683
  31   2.0000      -1.271444       -34.5978
  32   2.0000      -1.217603       -33.1327
  33   2.0000      -1.215436       -33.0737
  34   2.0000      -1.197245       -32.5787
  35   2.0000      -1.195537       -32.5322
  36   2.0000      -1.020801       -27.7774
  37   2.0000      -0.946397       -25.7528
  38   2.0000      -0.938092       -25.5268
  39   2.0000      -0.915877       -24.9223
  40   2.0000      -0.862321       -23.4650
  41   2.0000      -0.824692       -22.4410
  42   2.0000      -0.814562       -22.1654
  43   2.0000      -0.803044       -21.8519
  44   2.0000      -0.781761       -21.2728
  45   2.0000      -0.777371       -21.1533
  46   2.0000      -0.751010       -20.4360
  47   2.0000      -0.729820       -19.8594
  48   2.0000      -0.706075       -19.2133
  49   2.0000      -0.677832       -18.4448
  50   2.0000      -0.659076       -17.9344
  51   2.0000      -0.641516       -17.4565
  52   2.0000      -0.639306       -17.3964
  53   2.0000      -0.628449       -17.1010
  54   2.0000      -0.616841       -16.7851
  55   2.0000      -0.599352       -16.3092
  56   2.0000      -0.583448       -15.8764
  57   2.0000      -0.582291       -15.8449
  58   2.0000      -0.575583       -15.6624
  59   2.0000      -0.562220       -15.2988
  60   2.0000      -0.561551       -15.2806
  61   2.0000      -0.559444       -15.2233
  62   2.0000      -0.552353       -15.0303
  63   2.0000      -0.547253       -14.8915
  64   2.0000      -0.518133       -14.0991
  65   2.0000      -0.512895       -13.9566
  66   2.0000      -0.507401       -13.8071
  67   2.0000      -0.497720       -13.5436
  68   2.0000      -0.482195       -13.1212
  69   2.0000      -0.474098       -12.9009
  70   2.0000      -0.462322       -12.5804
  71   2.0000      -0.459339       -12.4993
  72   2.0000      -0.456815       -12.4306
  73   2.0000      -0.454919       -12.3790
  74   2.0000      -0.453594       -12.3429
  75   2.0000      -0.440050       -11.9744
  76   2.0000      -0.439389       -11.9564
  77   2.0000      -0.436023       -11.8648
  78   2.0000      -0.430264       -11.7081
  79   2.0000      -0.428570       -11.6620
  80   2.0000      -0.427098       -11.6219
  81   2.0000      -0.422828       -11.5057
  82   2.0000      -0.414673       -11.2838
  83   2.0000      -0.413620       -11.2552
  84   2.0000      -0.411901       -11.2084
  85   2.0000      -0.409976       -11.1560
  86   2.0000      -0.408893       -11.1265
  87   2.0000      -0.403273       -10.9736
  88   2.0000      -0.400992       -10.9116
  89   2.0000      -0.393811       -10.7162
  90   2.0000      -0.392695       -10.6858
  91   2.0000      -0.390236       -10.6189
  92   2.0000      -0.386634       -10.5208
  93   2.0000      -0.376188       -10.2366
  94   2.0000      -0.370675       -10.0866
  95   2.0000      -0.359526        -9.7832
  96   2.0000      -0.349989        -9.5237
  97   2.0000      -0.348765        -9.4904
  98   2.0000      -0.298096        -8.1116
  99   2.0000      -0.289498        -7.8776
 100   2.0000      -0.281325        -7.6552
 101   2.0000      -0.271308        -7.3827
 102   2.0000      -0.267568        -7.2809
 103   2.0000      -0.263748        -7.1769
 104   2.0000      -0.256159        -6.9704
 105   2.0000      -0.254124        -6.9151
 106   2.0000      -0.242422        -6.5966
 107   2.0000      -0.240471        -6.5435
 108   0.0000      -0.058114        -1.5814
 109   0.0000      -0.043479        -1.1831
 110   0.0000      -0.038415        -1.0453
 111   0.0000      -0.031613        -0.8602
 112   0.0000      -0.020583        -0.5601

MULLIKEN ATOMIC CHARGES
-----------------------
   0 O :   -0.474145
   1 C :    0.508357
   2 N :   -0.627841
   3 C :   -0.100959
   4 C :    0.168016
   5 C :   -0.141304
   6 C :   -0.167061
   7 C :   -0.012968
   8 C :    0.892520
   9 F :   -0.307613
  10 F :   -0.307179
  11 F :   -0.297223
  12 C :   -0.161858
  13 C :   -0.171495
  14 C :    0.239214
  15 N :   -0.370210
  16 C :    0.032476
  17 C :   -0.132518
  18 C :   -0.132217
  19 C :   -0.058308
  20 C :    0.913365
  21 F :   -0.299586
  22 F :   -0.303308
  23 F :   -0.300356
  24 C :    0.053526
  25 C :   -0.114155
  26 C :   -0.142394
  27 C :    0.030298
  28 N :   -0.370195
  29 C :   -0.021175
  30 H :    0.329349
  31 H :    0.162093
  32 H :    0.155000
  33 H :    0.149806
  34 H :    0.148379
  35 H :    0.133024
  36 H :    0.160528
  37 H :    0.144653
  38 H :    0.164191
  39 H :    0.173243
  40 H :    0.143736
  41 H :    0.157282
  42 H :    0.155010
Sum of atomic charges:   -0.0000000

LOEWDIN ATOMIC CHARGES
----------------------
   0 O :   -0.274614
   1 C :    0.137999
   2 N :   -0.233202
   3 C :   -0.053860
   4 C :   -0.003654
   5 C :   -0.109341
   6 C :   -0.112629
   7 C :   -0.072013
   8 C :    0.309269
   9 F :   -0.115544
  10 F :   -0.115188
  11 F :   -0.114685
  12 C :   -0.113930
  13 C :   -0.129581
  14 C :    0.051783
  15 N :   -0.098071
  16 C :   -0.049298
  17 C :   -0.138955
  18 C :   -0.092731
  19 C :   -0.082458
  20 C :    0.310052
  21 F :   -0.113555
  22 F :   -0.109029
  23 F :   -0.109031
  24 C :   -0.066019
  25 C :   -0.071265
  26 C :   -0.142308
  27 C :   -0.055628
  28 N :   -0.133206
  29 C :   -0.063672
  30 H :    0.254143
  31 H :    0.142842
  32 H :    0.147986
  33 H :    0.142406
  34 H :    0.141710
  35 H :    0.133447
  36 H :    0.141045
  37 H :    0.140964
  38 H :    0.148685
  39 H :    0.155197
  40 H :    0.140188
  41 H :    0.138580
  42 H :    0.137170

  Mayer bond orders larger than 0.100000
B(  0-O ,  1-C ) :   1.7823 B(  1-C ,  2-N ) :   1.0305 B(  1-C , 24-C ) :   0.9834
B(  2-N ,  3-C ) :   0.9064 B(  2-N , 30-H ) :   0.8231 B(  3-C ,  4-C ) :   0.9485
B(  3-C , 14-C ) :   0.9594 B(  3-C , 31-H ) :   0.9066 B(  4-C ,  5-C ) :   1.4389
B(  4-C , 13-C ) :   1.4167 B(  5-C ,  6-C ) :   1.4235 B(  5-C , 32-H ) :   0.9090
B(  6-C ,  7-C ) :   1.4048 B(  6-C , 33-H ) :   0.9209 B(  7-C ,  8-C ) :   0.9806
B(  7-C , 12-C ) :   1.4150 B(  8-C ,  9-F ) :   0.9462 B(  8-C , 10-F ) :   0.9467
B(  8-C , 11-F ) :   0.9863 B( 12-C , 13-C ) :   1.4281 B( 12-C , 34-H ) :   0.9204
B( 13-C , 35-H ) :   0.9234 B( 14-C , 15-N ) :   1.3969 B( 14-C , 19-C ) :   1.3481
B( 15-N , 16-C ) :   1.4276 B( 16-C , 17-C ) :   1.4118 B( 16-C , 36-H ) :   0.9267
B( 17-C , 18-C ) :   1.4393 B( 17-C , 37-H ) :   0.9237 B( 18-C , 19-C ) :   1.4070
B( 18-C , 38-H ) :   0.9171 B( 19-C , 20-C ) :   0.9720 B( 20-C , 21-F ) :   0.9492
B( 20-C , 22-F ) :   0.9454 B( 20-C , 23-F ) :   0.9339 B( 24-C , 25-C ) :   1.4038
B( 24-C , 29-C ) :   1.3493 B( 25-C , 26-C ) :   1.4390 B( 25-C , 39-H ) :   0.9121
B( 26-C , 27-C ) :   1.4072 B( 26-C , 40-H ) :   0.9240 B( 27-C , 28-N ) :   1.4316
B( 27-C , 41-H ) :   0.9294 B( 28-N , 29-C ) :   1.4259 B( 29-C , 42-H ) :   0.9208

FINAL SINGLE POINT ENERGY     -1607.640098342889

DIPOLE MOMENT
-------------

Method             : SCF
Type of density    : Electron Density
Multiplicity       :   1
Irrep              :   0
Energy             : -1607.6400983428886775 Eh
Relativity type    :
Basis              : AO
                                X                 Y                 Z
Electronic contribution:     18.497034184      -2.320648032     -11.869163514
Nuclear contribution   :    -19.380625640       1.680441274      12.224714189
                        -----------------------------------------
Total Dipole Moment    :     -0.883591456      -0.640206758       0.355550675
                        -----------------------------------------
Magnitude (a.u.)       :      1.147612668
Magnitude (Debye)      :      2.916999584

Rotational constants in cm-1:             0.006388             0.003025             0.002410
Rotational constants in MHz :           191.505906            90.698323            72.243799

                             ****ORCA TERMINATED NORMALLY****
TOTAL RUN TIME: 0 days 0 hours 4 minutes 17 seconds 883 msec
