                         Program Version 6.0.0  -   RELEASE  -
|  1> ! B3LYP def2-TZVP SP
|  2>
|  3> * xyz 0 1
|  4> O -1.2241 -1.4776 -0.4809
|  5> C -2.2025 -0.7056 -0.2979
|  6> N -3.3181 -1.1248 0.4971
|  7> C -3.2935 -2.3542 1.2933
|  8> C -3.6997 -3.6619 0.6189
|  9> C -4.3126 -3.6272 -0.6488
| 10> C -4.7019 -4.8052 -1.2916
| 11> C -4.5030 -6.0397 -0.6703
| 12> C -3.9161 -6.0956 0.5948
| 13> C -3.5200 -4.9199 1.2386
| 14> C -3.7875 -2.1568 2.7213
| 15> C -2.2981 -2.3252 2.4484
| 16> C -2.1944 0.6422 -0.9080
| 17> C -1.5281 1.7137 -0.2573
| 18> C -0.7275 1.4614 1.0134
| 19> N 0.4686 0.6369 0.7394
| 20> C 1.0799 0.2016 2.0127
| 21> C 2.2438 -0.7572 1.7449
| 22> C 3.3030 -0.0705 0.8533
| 23> N 4.4626 -0.9339 0.5043
| 24> C 5.5081 -0.9120 1.5560
| 25> C 6.5911 -1.9907 1.3406
| 26> C 6.6696 -2.4118 -0.1289
| 27> C 5.3183 -2.9584 -0.6249
| 28> C 4.1226 -2.3141 0.0965
| 29> C 2.6466 0.4855 -0.4210
| 30> C 1.4590 1.3865 -0.0660
| 31> C -1.5687 3.0000 -0.8539
| 32> C -0.8854 4.1666 -0.2705
| 33> C -1.4180 4.8125 0.8531
| 34> C -0.7742 5.9289 1.3885
| 35> C 0.4047 6.4051 0.8078
| 36> C 0.9549 5.7639 -0.3142
| 37> C 2.2062 6.3099 -0.9552
| 38> F 1.8771 7.3887 -1.7550
| 39> F 3.0991 6.7249 0.0182
| 40> F 2.8278 5.3486 -1.7332
| 41> C 0.2833 4.6605 -0.8683
| 42> N -2.2263 3.1842 -2.0262
| 43> C -2.8631 2.1793 -2.6742
| 44> C -3.5149 2.4456 -3.8841
| 45> C -4.1579 1.4172 -4.5769
| 46> Br -5.0369 1.7849 -6.2308
| 47> C -4.1435 0.1175 -4.0668
| 48> C -3.4941 -0.1576 -2.8600
| 49> C -2.8565 0.8731 -2.1374
| 50> H -4.1847 -0.5414 0.4978
| 51> H -4.5115 -2.6874 -1.1436
| 52> H -5.1603 -4.7631 -2.2700
| 53> H -4.8084 -6.9516 -1.1660
| 54> H -3.7801 -7.0511 1.0845
| 55> H -3.0909 -5.0105 2.2249
| 56> H -4.0699 -1.1185 3.0001
| 57> H -4.2466 -3.0384 3.2162
| 58> H -1.7378 -1.3790 2.5701
| 59> H -1.8749 -3.2851 2.7984
| 60> H -1.3985 0.9360 1.7287
| 61> H -0.4332 2.3993 1.5270
| 62> H 1.4375 1.0757 2.6036
| 63> H 0.3349 -0.3351 2.6342
| 64> H 2.6945 -1.0568 2.7153
| 65> H 1.8295 -1.6617 1.2518
| 66> H 3.6783 0.8165 1.4156
| 67> H 6.0034 0.0856 1.5343
| 68> H 5.0621 -1.0471 2.5672
| 69> H 6.3558 -2.8852 1.9589
| 70> H 7.5794 -1.6042 1.6716
| 71> H 7.4548 -3.1878 -0.2537
| 72> H 6.9644 -1.5300 -0.7405
| 73> H 5.2819 -4.0599 -0.4680
| 74> H 5.2374 -2.7704 -1.7181
| 75> H 3.8642 -2.9249 0.9914
| 76> H 3.2527 -2.3302 -0.5945
| 77> H 2.2828 -0.3380 -1.0716
| 78> H 3.3939 1.0749 -0.9933
| 79> H 1.0058 1.7205 -1.0229
| 80> H 1.8153 2.2892 0.4801
| 81> H -2.3298 4.4531 1.3116
| 82> H -1.1903 6.4262 2.2542
| 83> H 0.8874 7.2762 1.2339
| 84> H 0.6683 4.1763 -1.7571
| 85> H -3.5188 3.4502 -4.2900
| 86> H -4.6288 -0.6831 -4.6095
| 87> H -3.4798 -1.1786 -2.5112
| 88> *
| 89>
| 90>                          ****END OF INPUT****

CARTESIAN COORDINATES (ANGSTROEM)
---------------------------------
  O     -1.224100   -1.477600   -0.480900
  C     -2.202500   -0.705600   -0.297900
  N     -3.318100   -1.124800    0.497100
  C     -3.293500   -2.354200    1.293300
  C     -3.699700   -3.661900    0.618900
  C     -4.312600   -3.627200   -0.648800
  C     -4.701900   -4.805200   -1.291600
  C     -4.503000   -6.039700   -0.670300
  C     -3.916100   -6.095600    0.594800
  C     -3.520000   -4.919900    1.238600
  C     -3.787500   -2.156800    2.721300
  C     -2.298100   -2.325200    2.448400
  C     -2.194400    0.642200   -0.908000
  C     -1.528100    1.713700   -0.257300
  C     -0.727500    1.461400    1.013400
  N      0.468600    0.636900    0.739400
  C      1.079900    0.201600    2.012700
  C      2.243800   -0.757200    1.744900
  C      3.303000   -0.070500    0.853300
  N      4.462600   -0.933900    0.504300
  C      5.508100   -0.912000    1.556000
  C      6.591100   -1.990700    1.340600
  C      6.669600   -2.411800   -0.128900
  C      5.318300   -2.958400   -0.624900
  C      4.122600   -2.314100    0.096500
  C      2.646600    0.485500   -0.421000
  C      1.459000    1.386500   -0.066000
  C     -1.568700    3.000000   -0.853900
  C     -0.885400    4.166600   -0.270500
  C     -1.418000    4.812500    0.853100
  C     -0.774200    5.928900    1.388500
  C      0.404700    6.405100    0.807800
  C      0.954900    5.763900   -0.314200
  C      2.206200    6.309900   -0.955200
  F      1.877100    7.388700   -1.755000
  F      3.099100    6.724900    0.018200
  F      2.827800    5.348600   -1.733200
  C      0.283300    4.660500   -0.868300
  N     -2.226300    3.184200   -2.026200
  C     -2.863100    2.179300   -2.674200
  C     -3.514900    2.445600   -3.884100
  C     -4.157900    1.417200   -4.576900
  Br    -5.036900    1.784900   -6.230800
  C     -4.143500    0.117500   -4.066800
  C     -3.494100   -0.157600   -2.860000
  C     -2.856500    0.873100   -2.137400
  H     -4.184700   -0.541400    0.497800
  H     -4.511500   -2.687400   -1.143600
  H     -5.160300   -4.763100   -2.270000
  H     -4.808400   -6.951600   -1.166000
  H     -3.780100   -7.051100    1.084500
  H     -3.090900   -5.010500    2.224900
  H     -4.069900   -1.118500    3.000100
  H     -4.246600   -3.038400    3.216200
  H     -1.737800   -1.379000    2.570100
  H     -1.874900   -3.285100    2.798400
  H     -1.398500    0.936000    1.728700
  H     -0.433200    2.399300    1.527000
  H      1.437500    1.075700    2.603600
  H      0.334900   -0.335100    2.634200
  H      2.694500   -1.056800    2.715300
  H      1.829500   -1.661700    1.251800
  H      3.678300    0.816500    1.415600
  H      6.003400    0.085600    1.534300
  H      5.062100   -1.047100    2.567200
  H      6.355800   -2.885200    1.958900
  H      7.579400   -1.604200    1.671600
  H      7.454800   -3.187800   -0.253700
  H      6.964400   -1.530000   -0.740500
  H      5.281900   -4.059900   -0.468000
  H      5.237400   -2.770400   -1.718100
  H      3.864200   -2.924900    0.991400
  H      3.252700   -2.330200   -0.594500
  H      2.282800   -0.338000   -1.071600
  H      3.393900    1.074900   -0.993300
  H      1.005800    1.720500   -1.022900
  H      1.815300    2.289200    0.480100
  H     -2.329800    4.453100    1.311600
  H     -1.190300    6.426200    2.254200
  H      0.887400    7.276200    1.233900
  H      0.668300    4.176300   -1.757100
  H     -3.518800    3.450200   -4.290000
  H     -4.628800   -0.683100   -4.609500
  H     -3.479800   -1.178600   -2.511200

 Total Charge           Charge          ....    0
 Multiplicity           Mult            ....    1
 Number of Electrons    NEL             ....  358
 Basis Dimension        Dim             .... 1671

ORBITAL ENERGIES
----------------

  NO   OCC          E(Eh)            E(eV)
   0   2.0000    -482.865435    -13139.4365
   1   2.0000     -62.512723     -1701.0577
   2   2.0000     -56.328227     -1532.7690
   3   2.0000     -56.325724     -1532.7009
   4   2.0000     -56.325712     -1532.7005
   5   2.0000     -24.717179      -672.5886
   6   2.0000     -24.716317      -672.5652
   7   2.0000     -24.714588      -672.5181
   8   2.0000     -19.106572      -519.9163
   9   2.0000     -14.362612      -390.8265
  10   2.0000     -14.322942      -389.7471
  11   2.0000     -14.309217      -389.3736
  12   2.0000     -14.293289      -388.9402
  13   2.0000     -10.434869      -283.9472
  14   2.0000     -10.295590      -280.1572
  15   2.0000     -10.247197      -278.8404
  16   2.0000     -10.246303      -278.8161
  17   2.0000     -10.237697      -278.5819
  18   2.0000     -10.227596      -278.3070
  19   2.0000     -10.222109      -278.1577
  20   2.0000     -10.215698      -277.9833
  21   2.0000     -10.212503      -277.8963
  22   2.0000     -10.211616      -277.8722
  23   2.0000     -10.208412      -277.7850
  24   2.0000     -10.206909      -277.7441
  25   2.0000     -10.203144      -277.6417
  26   2.0000     -10.202614      -277.6273
  27   2.0000     -10.201578      -277.5991
  28   2.0000     -10.200967      -277.5824
  29   2.0000     -10.200316      -277.5647
  30   2.0000     -10.200222      -277.5622
  31   2.0000     -10.197961      -277.5006
  32   2.0000     -10.195883      -277.4441
  33   2.0000     -10.195856      -277.4433
  34   2.0000     -10.194356      -277.4025
  35   2.0000     -10.194256      -277.3998
  36   2.0000     -10.192248      -277.3452
  37   2.0000     -10.190756      -277.3046
  38   2.0000     -10.185871      -277.1717
  39   2.0000     -10.183189      -277.0986
  40   2.0000     -10.182979      -277.0929
  41   2.0000     -10.180695      -277.0308
  42   2.0000     -10.180089      -277.0143
  43   2.0000     -10.179502      -276.9983
  44   2.0000     -10.176510      -276.9169
  45   2.0000     -10.162455      -276.5345
  46   2.0000     -10.160916      -276.4926
  47   2.0000     -10.158122      -276.4165
  48   2.0000     -10.157382      -276.3964
  49   2.0000     -10.156839      -276.3816
  50   2.0000      -8.703577      -236.8364
  51   2.0000      -6.533088      -177.7744
  52   2.0000      -6.522201      -177.4781
  53   2.0000      -6.521712      -177.4648
  54   2.0000      -2.647707       -72.0478
  55   2.0000      -2.644696       -71.9658
  56   2.0000      -2.644322       -71.9557
  57   2.0000      -2.635353       -71.7116
  58   2.0000      -2.635341       -71.7113
  59   2.0000      -1.294294       -35.2195
  60   2.0000      -1.220386       -33.2084
  61   2.0000      -1.219472       -33.1835
  62   2.0000      -1.028879       -27.9972
  63   2.0000      -0.957921       -26.0663
  64   2.0000      -0.936534       -25.4844
  65   2.0000      -0.925356       -25.1802
  66   2.0000      -0.905009       -24.6265
  67   2.0000      -0.889465       -24.2036
  68   2.0000      -0.876005       -23.8373
  69   2.0000      -0.863053       -23.4849
  70   2.0000      -0.848206       -23.0808
  71   2.0000      -0.833518       -22.6812
  72   2.0000      -0.822177       -22.3726
  73   2.0000      -0.799490       -21.7552
  74   2.0000      -0.793994       -21.6057
  75   2.0000      -0.782802       -21.3011
  76   2.0000      -0.764311       -20.7980
  77   2.0000      -0.756449       -20.5840
  78   2.0000      -0.754767       -20.5383
  79   2.0000      -0.750754       -20.4291
  80   2.0000      -0.747532       -20.3414
  81   2.0000      -0.742413       -20.2021
  82   2.0000      -0.737240       -20.0613
  83   2.0000      -0.710414       -19.3314
  84   2.0000      -0.696328       -18.9480
  85   2.0000      -0.683290       -18.5933
  86   2.0000      -0.660809       -17.9815
  87   2.0000      -0.644042       -17.5253
  88   2.0000      -0.634937       -17.2775
  89   2.0000      -0.632024       -17.1982
  90   2.0000      -0.624605       -16.9964
  91   2.0000      -0.619484       -16.8570
  92   2.0000      -0.615778       -16.7562
  93   2.0000      -0.614318       -16.7164
  94   2.0000      -0.611154       -16.6303
  95   2.0000      -0.609538       -16.5864
  96   2.0000      -0.595400       -16.2016
  97   2.0000      -0.589492       -16.0409
  98   2.0000      -0.587590       -15.9891
  99   2.0000      -0.583106       -15.8671
 100   2.0000      -0.575404       -15.6575
 101   2.0000      -0.564389       -15.3578
 102   2.0000      -0.551508       -15.0073
 103   2.0000      -0.542830       -14.7711
 104   2.0000      -0.541232       -14.7277
 105   2.0000      -0.526623       -14.3301
 106   2.0000      -0.519781       -14.1439
 107   2.0000      -0.516321       -14.0498
 108   2.0000      -0.512535       -13.9468
 109   2.0000      -0.504896       -13.7389
 110   2.0000      -0.495692       -13.4885
 111   2.0000      -0.486713       -13.2441
 112   2.0000      -0.483598       -13.1594
 113   2.0000      -0.479343       -13.0436
 114   2.0000      -0.477278       -12.9874
 115   2.0000      -0.473063       -12.8727
 116   2.0000      -0.472719       -12.8633
 117   2.0000      -0.468305       -12.7432
 118   2.0000      -0.465769       -12.6742
 119   2.0000      -0.464288       -12.6339
 120   2.0000      -0.461303       -12.5527
 121   2.0000      -0.459549       -12.5050
 122   2.0000      -0.454062       -12.3556
 123   2.0000      -0.450637       -12.2625
 124   2.0000      -0.447437       -12.1754
 125   2.0000      -0.443895       -12.0790
 126   2.0000      -0.440480       -11.9861
 127   2.0000      -0.435809       -11.8590
 128   2.0000      -0.433312       -11.7910
 129   2.0000      -0.429821       -11.6960
 130   2.0000      -0.428815       -11.6686
 131   2.0000      -0.427168       -11.6238
 132   2.0000      -0.422044       -11.4844
 133   2.0000      -0.420646       -11.4464
 134   2.0000      -0.418226       -11.3805
 135   2.0000      -0.415414       -11.3040
 136   2.0000      -0.414173       -11.2702
 137   2.0000      -0.406037       -11.0488
 138   2.0000      -0.397748       -10.8233
 139   2.0000      -0.395058       -10.7501
 140   2.0000      -0.393271       -10.7014
 141   2.0000      -0.392471       -10.6797
 142   2.0000      -0.388377       -10.5683
 143   2.0000      -0.384337       -10.4583
 144   2.0000      -0.383556       -10.4371
 145   2.0000      -0.381228       -10.3737
 146   2.0000      -0.380724       -10.3600
 147   2.0000      -0.376663       -10.2495
 148   2.0000      -0.375560       -10.2195
 149   2.0000      -0.368198       -10.0192
 150   2.0000      -0.366428        -9.9710
 151   2.0000      -0.361648        -9.8409
 152   2.0000      -0.359881        -9.7929
 153   2.0000      -0.357252        -9.7213
 154   2.0000      -0.353311        -9.6141
 155   2.0000      -0.353002        -9.6057
 156   2.0000      -0.340831        -9.2745
 157   2.0000      -0.334717        -9.1081
 158   2.0000      -0.330494        -8.9932
 159   2.0000      -0.326775        -8.8920
 160   2.0000      -0.324709        -8.8358
 161   2.0000      -0.319788        -8.7019
 162   2.0000      -0.318236        -8.6597
 163   2.0000      -0.310412        -8.4467
 164   2.0000      -0.304640        -8.2897
 165   2.0000      -0.303251        -8.2519
 166   2.0000      -0.299279        -8.1438
 167   2.0000      -0.294546        -8.0150
 168   2.0000      -0.281984        -7.6732
 169   2.0000      -0.280937        -7.6447
 170   2.0000      -0.273743        -7.4489
 171   2.0000      -0.269307        -7.3282
 172   2.0000      -0.264164        -7.1883
 173   2.0000      -0.261051        -7.1035
 174   2.0000      -0.259601        -7.0641
 175   2.0000      -0.244765        -6.6604
 176   2.0000      -0.239694        -6.5224
 177   2.0000      -0.219375        -5.9695
 178   2.0000      -0.198386        -5.3984
 179   0.0000      -0.087246        -2.3741
 180   0.0000      -0.047799        -1.3007
 181   0.0000      -0.045146        -1.2285
 182   0.0000      -0.031285        -0.8513
 183   0.0000      -0.022058        -0.6002

MULLIKEN ATOMIC CHARGES
-----------------------
   0 O :   -0.345635
   1 C :    0.151155
   2 N :   -0.367031
   3 C :    0.260841
   4 C :    0.161909
   5 C :   -0.182015
   6 C :   -0.116965
   7 C :   -0.118588
   8 C :   -0.115819
   9 C :   -0.216083
  10 C :   -0.272234
  11 C :   -0.192258
  12 C :    0.087336
  13 C :   -0.025017
  14 C :   -0.163810
  15 N :   -0.110123
  16 C :   -0.125794
  17 C :   -0.169755
  18 C :   -0.022141
  19 N :   -0.116214
  20 C :   -0.153014
  21 C :   -0.143199
  22 C :   -0.153787
  23 C :   -0.140809
  24 C :   -0.176471
  25 C :   -0.110109
  26 C :   -0.179116
  27 C :    0.220384
  28 C :    0.177000
  29 C :   -0.214142
  30 C :   -0.094512
  31 C :   -0.149316
  32 C :    0.038965
  33 C :    0.513029
  34 F :   -0.179949
  35 F :   -0.187466
  36 F :   -0.186698
  37 C :   -0.268322
  38 N :   -0.202058
  39 C :    0.129054
  40 C :   -0.314959
  41 C :    0.190887
  42 Br:   -0.065147
  43 C :   -0.200368
  44 C :   -0.164479
  45 C :    0.084988
  46 H :    0.228323
  47 H :    0.108533
  48 H :    0.104681
  49 H :    0.107245
  50 H :    0.107990
  51 H :    0.102877
  52 H :    0.111024
  53 H :    0.121946
  54 H :    0.102703
  55 H :    0.115504
  56 H :    0.115322
  57 H :    0.121704
  58 H :    0.063067
  59 H :    0.089946
  60 H :    0.081216
  61 H :    0.109184
  62 H :    0.054253
  63 H :    0.088632
  64 H :    0.062888
  65 H :    0.077924
  66 H :    0.093761
  67 H :    0.084826
  68 H :    0.077377
  69 H :    0.077095
  70 H :    0.079666
  71 H :    0.077577
  72 H :    0.119952
  73 H :    0.080121
  74 H :    0.087471
  75 H :    0.094097
  76 H :    0.081971
  77 H :    0.112744
  78 H :    0.118062
  79 H :    0.129700
  80 H :    0.141430
  81 H :    0.117627
  82 H :    0.125295
  83 H :    0.154122
Sum of atomic charges:    0.0000000

LOEWDIN ATOMIC CHARGES
----------------------
   0 O :    0.079442
   1 C :   -0.332103
   2 N :    0.141856
   3 C :   -0.225383
   4 C :   -0.082827
   5 C :   -0.108800
   6 C :   -0.136112
   7 C :   -0.142592
   8 C :   -0.136760
   9 C :   -0.108514
  10 C :   -0.195596
  11 C :   -0.183406
  12 C :   -0.021647
  13 C :   -0.065683
  14 C :   -0.230738
  15 N :    0.109235
  16 C :   -0.276810
  17 C :   -0.237974
  18 C :   -0.273162
  19 N :    0.104241
  20 C :   -0.275900
  21 C :   -0.262949
  22 C :   -0.265700
  23 C :   -0.260633
  24 C :   -0.276050
  25 C :   -0.230922
  26 C :   -0.269448
  27 C :   -0.138884
  28 C :   -0.100569
  29 C :   -0.085901
  30 C :   -0.125023
  31 C :   -0.086210
  32 C :   -0.122606
  33 C :   -0.512126
  34 F :    0.156576
  35 F :    0.154150
  36 F :    0.156281
  37 C :   -0.041856
  38 N :    0.201760
  39 C :   -0.178671
  40 C :   -0.090746
  41 C :   -0.363113
  42 Br:    0.342992
  43 C :   -0.136618
  44 C :   -0.078146
  45 C :   -0.075405
  46 H :    0.194782
  47 H :    0.138567
  48 H :    0.141031
  49 H :    0.140602
  50 H :    0.141920
  51 H :    0.141531
  52 H :    0.133568
  53 H :    0.140175
  54 H :    0.135080
  55 H :    0.135612
  56 H :    0.139560
  57 H :    0.135285
  58 H :    0.116386
  59 H :    0.127683
  60 H :    0.133637
  61 H :    0.146719
  62 H :    0.150713
  63 H :    0.128214
  64 H :    0.114530
  65 H :    0.132441
  66 H :    0.135008
  67 H :    0.131575
  68 H :    0.136446
  69 H :    0.131811
  70 H :    0.133860
  71 H :    0.117482
  72 H :    0.135009
  73 H :    0.141028
  74 H :    0.139451
  75 H :    0.138244
  76 H :    0.120537
  77 H :    0.149361
  78 H :    0.145662
  79 H :    0.152346
  80 H :    0.158015
  81 H :    0.154653
  82 H :    0.148332
  83 H :    0.152197

  Mayer bond orders larger than 0.100000
B(  0-O ,  1-C ) :   1.9836 B(  1-C ,  2-N ) :   1.1957 B(  1-C , 12-C ) :   0.8894
B(  2-N ,  3-C ) :   0.8898 B(  2-N , 46-H ) :   0.9001 B(  3-C ,  4-C ) :   0.9640
B(  3-C , 10-C ) :   0.8570 B(  3-C , 11-C ) :   0.8926 B(  4-C ,  5-C ) :   1.4081
B(  4-C ,  9-C ) :   1.2969 B(  5-C ,  6-C ) :   1.4420 B(  5-C , 47-H ) :   0.9320
B(  6-C ,  7-C ) :   1.4088 B(  6-C , 48-H ) :   0.9744 B(  7-C ,  8-C ) :   1.4073
B(  7-C , 49-H ) :   0.9675 B(  8-C ,  9-C ) :   1.4569 B(  8-C , 50-H ) :   0.9693
B(  9-C , 51-H ) :   0.9685 B( 10-C , 11-C ) :   0.9563 B( 10-C , 52-H ) :   0.9620
B( 10-C , 53-H ) :   0.9623 B( 11-C , 54-H ) :   0.9640 B( 11-C , 55-H ) :   0.9498
B( 12-C , 13-C ) :   1.3522 B( 12-C , 45-C ) :   1.1531 B( 13-C , 14-C ) :   0.8891
B( 13-C , 27-C ) :   1.2679 B( 14-C , 15-N ) :   0.9349 B( 14-C , 56-H ) :   0.9779
B( 14-C , 57-H ) :   0.9523 B( 15-N , 16-C ) :   0.9305 B( 15-N , 26-C ) :   0.9478
B( 16-C , 17-C ) :   1.0155 B( 16-C , 58-H ) :   0.9396 B( 16-C , 59-H ) :   0.9529
B( 17-C , 18-C ) :   0.9814 B( 17-C , 60-H ) :   0.9583 B( 17-C , 61-H ) :   0.9417
B( 18-C , 19-N ) :   0.9761 B( 18-C , 25-C ) :   1.0110 B( 18-C , 62-H ) :   0.9542
B( 19-N , 20-C ) :   0.9864 B( 19-N , 24-C ) :   0.9269 B( 20-C , 21-C ) :   0.9933
B( 20-C , 63-H ) :   0.9601 B( 20-C , 64-H ) :   0.9545 B( 21-C , 22-C ) :   0.9837
B( 21-C , 65-H ) :   0.9675 B( 21-C , 66-H ) :   0.9693 B( 22-C , 23-C ) :   1.0117
B( 22-C , 67-H ) :   0.9656 B( 22-C , 68-H ) :   0.9523 B( 23-C , 24-C ) :   0.9920
B( 23-C , 69-H ) :   0.9680 B( 23-C , 70-H ) :   0.9631 B( 24-C , 71-H ) :   0.9547
B( 24-C , 72-H ) :   0.9595 B( 25-C , 26-C ) :   0.9974 B( 25-C , 73-H ) :   0.9281
B( 25-C , 74-H ) :   0.9751 B( 26-C , 75-H ) :   0.9511 B( 26-C , 76-H ) :   0.9435
B( 27-C , 28-C ) :   0.8540 B( 27-C , 38-N ) :   1.4939 B( 28-C , 29-C ) :   1.3375
B( 28-C , 37-C ) :   1.3600 B( 29-C , 30-C ) :   1.4101 B( 29-C , 77-H ) :   0.9850
B( 30-C , 31-C ) :   1.4059 B( 30-C , 78-H ) :   0.9726 B( 31-C , 32-C ) :   1.3702
B( 31-C , 79-H ) :   0.9585 B( 32-C , 33-C ) :   1.0121 B( 32-C , 37-C ) :   1.3902
B( 33-C , 34-F ) :   1.1307 B( 33-C , 35-F ) :   1.1113 B( 33-C , 36-F ) :   1.1065
B( 37-C , 80-H ) :   0.9525 B( 38-N , 39-C ) :   1.3821 B( 39-C , 40-C ) :   1.3066
B( 39-C , 45-C ) :   1.2003 B( 40-C , 41-C ) :   1.4266 B( 40-C , 81-H ) :   0.9922
B( 41-C , 42-Br) :   1.0279 B( 41-C , 43-C ) :   1.2650 B( 43-C , 44-C ) :   1.5108
B( 43-C , 82-H ) :   0.9756 B( 44-C , 45-C ) :   1.2205 B( 44-C , 83-H ) :   0.9221

FINAL SINGLE POINT ENERGY     -4600.131788273359

DIPOLE MOMENT
-------------

Method             : SCF
Type of density    : Electron Density
Multiplicity       :   1
Irrep              :   0
Energy             : -4600.1317882733592342 Eh
Relativity type    :
Basis              : AO
                                X                 Y                 Z
Electronic contribution:    -80.701511578      78.378322878     -98.950328301
Nuclear contribution   :     79.289872227     -79.111706070     100.941006179
                        -----------------------------------------
Total Dipole Moment    :     -1.411639351      -0.733383191       1.990677878
                        -----------------------------------------
Magnitude (a.u.)       :      2.548210151
Magnitude (Debye)      :      6.477035467

Rotational constants in cm-1:             0.001604             0.001398             0.000920
Rotational constants in MHz :            48.100288            41.918769            27.576654

                             ****ORCA TERMINATED NORMALLY****
TOTAL RUN TIME: 0 days 0 hours 44 minutes 53 seconds 783 msec
