                         Program Version 6.0.0  -   RELEASE  -
|  1> ! B3LYP 6-31G* SP
|  2>
|  3> * xyz -1 1
|  4> C 2.5224 -0.0949 -1.3975
|  5> C 2.0457 -0.9846 -0.2709
|  6> C 1.0965 -0.5111 0.6655
|  7> N 0.4736 0.7699 0.5141
|  8> C -0.5650 0.9670 -0.5006
|  9> C -1.8189 0.2319 -0.1146
| 10> C -2.7737 0.7543 0.7533
| 11> C -3.6409 -0.2831 1.0053
| 12> C -4.7476 -0.3418 1.8496
| 13> C -5.4175 -1.5716 1.9700
| 14> C -4.9605 -2.7055 1.2646
| 15> C -3.8342 -2.6182 0.4265
| 16> C -3.1992 -1.3769 0.3042
| 17> N -2.0952 -1.0693 -0.4116
| 18> C -1.2720 -2.0020 -1.1912
| 19> C -2.0292 -2.7078 -2.3091
| 20> C -1.0543 -1.5971 -2.6428
| 21> S 0.7600 1.9887 1.7158
| 22> O -0.4038 2.0431 2.6653
| 23> O 2.0009 1.6547 2.4963
| 24> C 0.9926 3.5464 0.9305
| 25> C 2.1920 3.8149 0.2609
| 26> C 2.3785 5.0392 -0.3872
| 27> C 1.3625 6.0121 -0.3782
| 28> C 1.5538 7.3094 -1.0630
| 29> O 2.6334 7.5658 -1.6601
| 30> O 0.5439 8.2648 -1.0569
| 31> C 0.1575 5.7327 0.2902
| 32> C -0.0261 4.5075 0.9379
| 33> N 0.7355 -1.2854 1.7221
| 34> C 1.2285 -2.5328 1.9121
| 35> C 2.1253 -3.0806 0.9917
| 36> C 2.6092 -4.3863 1.1666
| 37> C 3.4940 -4.9366 0.2388
| 38> C 3.8987 -4.1919 -0.8688
| 39> C 3.4275 -2.8892 -1.0537
| 40> C 2.5388 -2.3074 -0.1224
| 41> H 2.2281 0.9644 -1.2560
| 42> H 2.1052 -0.4558 -2.3609
| 43> H 3.6313 -0.1016 -1.4457
| 44> H -0.8013 2.0471 -0.6011
| 45> H -0.1970 0.6384 -1.4901
| 46> H -2.7946 1.7452 1.1882
| 47> H -5.0762 0.5279 2.4041
| 48> H -6.2813 -1.6523 2.6171
| 49> H -5.4752 -3.6510 1.3757
| 50> H -3.4736 -3.4947 -0.0943
| 51> H -0.4912 -2.5973 -0.6747
| 52> H -1.6521 -3.7235 -2.5524
| 53> H -3.0928 -2.4156 -2.4444
| 54> H -0.0959 -1.9515 -3.0772
| 55> H -1.5547 -0.6622 -2.9741
| 56> H 2.9817 3.0745 0.2377
| 57> H 3.3162 5.2224 -0.8969
| 58> H -0.6452 6.4589 0.3111
| 59> H -0.9653 4.3085 1.4378
| 60> H 0.9013 -3.1025 2.7731
| 61> H 2.3001 -4.9814 2.0179
| 62> H 3.8632 -5.9448 0.3761
| 63> H 4.5795 -4.6265 -1.5895
| 64> H 3.7571 -2.3551 -1.9342
| 65> *
| 66>
| 67>                          ****END OF INPUT****

CARTESIAN COORDINATES (ANGSTROEM)
---------------------------------
  C      2.522400   -0.094900   -1.397500
  C      2.045700   -0.984600   -0.270900
  C      1.096500   -0.511100    0.665500
  N      0.473600    0.769900    0.514100
  C     -0.565000    0.967000   -0.500600
  C     -1.818900    0.231900   -0.114600
  C     -2.773700    0.754300    0.753300
  C     -3.640900   -0.283100    1.005300
  C     -4.747600   -0.341800    1.849600
  C     -5.417500   -1.571600    1.970000
  C     -4.960500   -2.705500    1.264600
  C     -3.834200   -2.618200    0.426500
  C     -3.199200   -1.376900    0.304200
  N     -2.095200   -1.069300   -0.411600
  C     -1.272000   -2.002000   -1.191200
  C     -2.029200   -2.707800   -2.309100
  C     -1.054300   -1.597100   -2.642800
  S      0.760000    1.988700    1.715800
  O     -0.403800    2.043100    2.665300
  O      2.000900    1.654700    2.496300
  C      0.992600    3.546400    0.930500
  C      2.192000    3.814900    0.260900
  C      2.378500    5.039200   -0.387200
  C      1.362500    6.012100   -0.378200
  C      1.553800    7.309400   -1.063000
  O      2.633400    7.565800   -1.660100
  O      0.543900    8.264800   -1.056900
  C      0.157500    5.732700    0.290200
  C     -0.026100    4.507500    0.937900
  N      0.735500   -1.285400    1.722100
  C      1.228500   -2.532800    1.912100
  C      2.125300   -3.080600    0.991700
  C      2.609200   -4.386300    1.166600
  C      3.494000   -4.936600    0.238800
  C      3.898700   -4.191900   -0.868800
  C      3.427500   -2.889200   -1.053700
  C      2.538800   -2.307400   -0.122400
  H      2.228100    0.964400   -1.256000
  H      2.105200   -0.455800   -2.360900
  H      3.631300   -0.101600   -1.445700
  H     -0.801300    2.047100   -0.601100
  H     -0.197000    0.638400   -1.490100
  H     -2.794600    1.745200    1.188200
  H     -5.076200    0.527900    2.404100
  H     -6.281300   -1.652300    2.617100
  H     -5.475200   -3.651000    1.375700
  H     -3.473600   -3.494700   -0.094300
  H     -0.491200   -2.597300   -0.674700
  H     -1.652100   -3.723500   -2.552400
  H     -3.092800   -2.415600   -2.444400
  H     -0.095900   -1.951500   -3.077200
  H     -1.554700   -0.662200   -2.974100
  H      2.981700    3.074500    0.237700
  H      3.316200    5.222400   -0.896900
  H     -0.645200    6.458900    0.311100
  H     -0.965300    4.308500    1.437800
  H      0.901300   -3.102500    2.773100
  H      2.300100   -4.981400    2.017900
  H      3.863200   -5.944800    0.376100
  H      4.579500   -4.626500   -1.589500
  H      3.757100   -2.355100   -1.934200

 Total Charge           Charge          ....   -1
 Multiplicity           Mult            ....    1
 Number of Electrons    NEL             ....  268
 Basis Dimension        Dim             ....  570

ORBITAL ENERGIES
----------------

  NO   OCC          E(Eh)            E(eV)
   0   2.0000     -88.997234     -2421.7378
   1   2.0000     -19.025839      -517.7194
   2   2.0000     -19.021912      -517.6125
   3   2.0000     -18.908155      -514.5170
   4   2.0000     -18.887654      -513.9592
   5   2.0000     -14.307699      -389.3323
   6   2.0000     -14.283237      -388.6666
   7   2.0000     -14.262864      -388.1123
   8   2.0000     -10.192127      -277.3419
   9   2.0000     -10.181496      -277.0526
  10   2.0000     -10.160637      -276.4850
  11   2.0000     -10.158656      -276.4311
  12   2.0000     -10.147467      -276.1266
  13   2.0000     -10.144682      -276.0508
  14   2.0000     -10.144110      -276.0353
  15   2.0000     -10.143429      -276.0167
  16   2.0000     -10.142472      -275.9907
  17   2.0000     -10.141692      -275.9695
  18   2.0000     -10.141097      -275.9533
  19   2.0000     -10.140832      -275.9461
  20   2.0000     -10.140514      -275.9374
  21   2.0000     -10.134437      -275.7720
  22   2.0000     -10.128471      -275.6097
  23   2.0000     -10.122316      -275.4422
  24   2.0000     -10.118236      -275.3312
  25   2.0000     -10.106797      -275.0199
  26   2.0000     -10.104326      -274.9527
  27   2.0000     -10.100819      -274.8573
  28   2.0000     -10.099938      -274.8333
  29   2.0000     -10.097054      -274.7548
  30   2.0000     -10.094593      -274.6878
  31   2.0000     -10.093646      -274.6621
  32   2.0000     -10.088834      -274.5311
  33   2.0000     -10.078846      -274.2593
  34   2.0000     -10.077733      -274.2290
  35   2.0000     -10.076449      -274.1941
  36   2.0000     -10.074506      -274.1413
  37   2.0000      -8.032950      -218.5877
  38   2.0000      -5.998422      -163.2254
  39   2.0000      -5.995916      -163.1572
  40   2.0000      -5.995178      -163.1371
  41   2.0000      -0.983654       -26.7666
  42   2.0000      -0.931812       -25.3559
  43   2.0000      -0.887735       -24.1565
  44   2.0000      -0.861571       -23.4445
  45   2.0000      -0.839352       -22.8399
  46   2.0000      -0.817552       -22.2467
  47   2.0000      -0.813678       -22.1413
  48   2.0000      -0.805146       -21.9091
  49   2.0000      -0.761101       -20.7106
  50   2.0000      -0.758644       -20.6438
  51   2.0000      -0.746228       -20.3059
  52   2.0000      -0.718984       -19.5646
  53   2.0000      -0.710881       -19.3440
  54   2.0000      -0.698651       -19.0112
  55   2.0000      -0.687319       -18.7029
  56   2.0000      -0.677779       -18.4433
  57   2.0000      -0.664269       -18.0757
  58   2.0000      -0.654073       -17.7982
  59   2.0000      -0.645682       -17.5699
  60   2.0000      -0.634590       -17.2681
  61   2.0000      -0.609932       -16.5971
  62   2.0000      -0.589340       -16.0368
  63   2.0000      -0.585590       -15.9347
  64   2.0000      -0.570625       -15.5275
  65   2.0000      -0.551824       -15.0159
  66   2.0000      -0.546815       -14.8796
  67   2.0000      -0.536701       -14.6044
  68   2.0000      -0.525396       -14.2968
  69   2.0000      -0.508138       -13.8271
  70   2.0000      -0.503727       -13.7071
  71   2.0000      -0.499844       -13.6015
  72   2.0000      -0.493634       -13.4325
  73   2.0000      -0.472821       -12.8661
  74   2.0000      -0.468781       -12.7562
  75   2.0000      -0.454337       -12.3631
  76   2.0000      -0.440911       -11.9978
  77   2.0000      -0.438202       -11.9241
  78   2.0000      -0.430998       -11.7281
  79   2.0000      -0.421226       -11.4621
  80   2.0000      -0.414991       -11.2925
  81   2.0000      -0.411518       -11.1980
  82   2.0000      -0.396593       -10.7919
  83   2.0000      -0.391743       -10.6599
  84   2.0000      -0.389117       -10.5884
  85   2.0000      -0.380064       -10.3421
  86   2.0000      -0.376116       -10.2346
  87   2.0000      -0.370277       -10.0757
  88   2.0000      -0.369046       -10.0423
  89   2.0000      -0.360791        -9.8176
  90   2.0000      -0.357255        -9.7214
  91   2.0000      -0.353117        -9.6088
  92   2.0000      -0.348739        -9.4897
  93   2.0000      -0.343615        -9.3502
  94   2.0000      -0.338580        -9.2132
  95   2.0000      -0.337320        -9.1789
  96   2.0000      -0.331771        -9.0280
  97   2.0000      -0.327301        -8.9063
  98   2.0000      -0.326544        -8.8857
  99   2.0000      -0.324889        -8.8407
 100   2.0000      -0.323173        -8.7940
 101   2.0000      -0.318660        -8.6712
 102   2.0000      -0.312227        -8.4961
 103   2.0000      -0.308597        -8.3974
 104   2.0000      -0.293941        -7.9985
 105   2.0000      -0.292454        -7.9581
 106   2.0000      -0.291206        -7.9241
 107   2.0000      -0.277266        -7.5448
 108   2.0000      -0.275285        -7.4909
 109   2.0000      -0.267965        -7.2917
 110   2.0000      -0.260533        -7.0895
 111   2.0000      -0.248875        -6.7722
 112   2.0000      -0.246628        -6.7111
 113   2.0000      -0.241587        -6.5739
 114   2.0000      -0.235803        -6.4165
 115   2.0000      -0.230279        -6.2662
 116   2.0000      -0.227538        -6.1916
 117   2.0000      -0.214309        -5.8317
 118   2.0000      -0.212614        -5.7855
 119   2.0000      -0.203462        -5.5365
 120   2.0000      -0.196540        -5.3481
 121   2.0000      -0.193424        -5.2633
 122   2.0000      -0.187501        -5.1022
 123   2.0000      -0.181533        -4.9398
 124   2.0000      -0.178482        -4.8568
 125   2.0000      -0.163408        -4.4466
 126   2.0000      -0.159588        -4.3426
 127   2.0000      -0.152171        -4.1408
 128   2.0000      -0.146444        -3.9849
 129   2.0000      -0.131836        -3.5874
 130   2.0000      -0.118153        -3.2151
 131   2.0000      -0.062436        -1.6990
 132   2.0000      -0.040644        -1.1060
 133   2.0000      -0.024041        -0.6542
 134   0.0000      -0.001689        -0.0460
 135   0.0000       0.030654         0.8341
 136   0.0000       0.058934         1.6037
 137   0.0000       0.065395         1.7795
 138   0.0000       0.079426         2.1613

MULLIKEN ATOMIC CHARGES
-----------------------
   0 C :   -0.549512
   1 C :    0.106429
   2 C :    0.326812
   3 N :   -0.599102
   4 C :   -0.264209
   5 C :    0.284788
   6 C :   -0.235011
   7 C :    0.128647
   8 C :   -0.198730
   9 C :   -0.146785
  10 C :   -0.147157
  11 C :   -0.188601
  12 C :    0.284522
  13 N :   -0.486897
  14 C :    0.006926
  15 C :   -0.320874
  16 C :   -0.321502
  17 S :    1.194887
  18 O :   -0.549480
  19 O :   -0.559580
  20 C :   -0.157731
  21 C :   -0.150090
  22 C :   -0.158612
  23 C :    0.106005
  24 C :    0.411112
  25 O :   -0.551798
  26 O :   -0.655754
  27 C :   -0.150414
  28 C :   -0.158211
  29 N :   -0.347660
  30 C :   -0.060662
  31 C :    0.137577
  32 C :   -0.202574
  33 C :   -0.130782
  34 C :   -0.123691
  35 C :   -0.202577
  36 C :    0.108291
  37 H :    0.195532
  38 H :    0.150948
  39 H :    0.161258
  40 H :    0.193003
  41 H :    0.158414
  42 H :    0.149415
  43 H :    0.119771
  44 H :    0.100580
  45 H :    0.099536
  46 H :    0.115656
  47 H :    0.176862
  48 H :    0.147892
  49 H :    0.176050
  50 H :    0.153082
  51 H :    0.174085
  52 H :    0.138636
  53 H :    0.146022
  54 H :    0.154203
  55 H :    0.151000
  56 H :    0.148424
  57 H :    0.131627
  58 H :    0.121784
  59 H :    0.124633
  60 H :    0.133587
Sum of atomic charges:   -1.0000000

LOEWDIN ATOMIC CHARGES
----------------------
   0 C :   -0.361783
   1 C :   -0.017515
   2 C :    0.047399
   3 N :   -0.286414
   4 C :   -0.158364
   5 C :   -0.003462
   6 C :   -0.172365
   7 C :   -0.038320
   8 C :   -0.130246
   9 C :   -0.154198
  10 C :   -0.155449
  11 C :   -0.160375
  12 C :    0.008809
  13 N :    0.018045
  14 C :   -0.071013
  15 C :   -0.256460
  16 C :   -0.256643
  17 S :    1.260789
  18 O :   -0.584888
  19 O :   -0.588512
  20 C :   -0.216527
  21 C :   -0.125254
  22 C :   -0.113589
  23 C :   -0.001780
  24 C :    0.071207
  25 O :   -0.377358
  26 O :   -0.504040
  27 C :   -0.108143
  28 C :   -0.128170
  29 N :   -0.102265
  30 C :   -0.063612
  31 C :   -0.035137
  32 C :   -0.114380
  33 C :   -0.137238
  34 C :   -0.126752
  35 C :   -0.127815
  36 C :   -0.011501
  37 H :    0.150448
  38 H :    0.130461
  39 H :    0.136347
  40 H :    0.156712
  41 H :    0.129910
  42 H :    0.144418
  43 H :    0.129811
  44 H :    0.118944
  45 H :    0.119198
  46 H :    0.126734
  47 H :    0.141906
  48 H :    0.132210
  49 H :    0.146752
  50 H :    0.134007
  51 H :    0.145604
  52 H :    0.135854
  53 H :    0.146181
  54 H :    0.151198
  55 H :    0.141819
  56 H :    0.135604
  57 H :    0.133692
  58 H :    0.128780
  59 H :    0.130373
  60 H :    0.136355

  Mayer bond orders larger than 0.100000
B(  0-C ,  1-C ) :   0.9966 B(  0-C , 37-H ) :   0.9211 B(  0-C , 38-H ) :   0.9255
B(  0-C , 39-H ) :   0.9297 B(  1-C ,  2-C ) :   1.4289 B(  1-C , 30-C ) :   0.1050
B(  1-C , 36-C ) :   1.2641 B(  2-C ,  3-N ) :   0.9231 B(  2-C , 29-N ) :   1.2795
B(  3-N ,  4-C ) :   0.9457 B(  3-N , 17-S ) :   0.7679 B(  4-C ,  5-C ) :   0.9602
B(  4-C , 40-H ) :   0.9146 B(  4-C , 41-H ) :   0.9118 B(  5-C ,  6-C ) :   1.5298
B(  5-C , 13-N ) :   1.1095 B(  6-C ,  7-C ) :   1.2849 B(  6-C , 42-H ) :   0.9173
B(  7-C ,  8-C ) :   1.3392 B(  7-C , 12-C ) :   1.3146 B(  8-C ,  9-C ) :   1.4754
B(  8-C , 43-H ) :   0.9269 B(  9-C , 10-C ) :   1.3830 B(  9-C , 44-H ) :   0.9343
B( 10-C , 11-C ) :   1.4664 B( 10-C , 45-H ) :   0.9347 B( 11-C , 12-C ) :   1.3597
B( 11-C , 46-H ) :   0.9175 B( 12-C , 13-N ) :   1.0289 B( 13-N , 14-C ) :   0.9791
B( 14-C , 15-C ) :   0.9349 B( 14-C , 16-C ) :   0.9381 B( 14-C , 47-H ) :   0.9046
B( 15-C , 16-C ) :   0.9623 B( 15-C , 48-H ) :   0.9434 B( 15-C , 49-H ) :   0.9378
B( 16-C , 50-H ) :   0.9397 B( 16-C , 51-H ) :   0.9374 B( 17-S , 18-O ) :   1.6397
B( 17-S , 19-O ) :   1.6320 B( 17-S , 20-C ) :   0.8393 B( 20-C , 21-C ) :   1.3615
B( 20-C , 28-C ) :   1.3626 B( 21-C , 22-C ) :   1.4198 B( 21-C , 52-H ) :   0.9204
B( 22-C , 23-C ) :   1.3827 B( 22-C , 53-H ) :   0.9074 B( 23-C , 24-C ) :   0.9273
B( 23-C , 27-C ) :   1.4044 B( 24-C , 25-O ) :   1.7061 B( 24-C , 26-O ) :   1.5504
B( 25-O , 26-O ) :   0.1491 B( 27-C , 28-C ) :   1.3980 B( 27-C , 54-H ) :   0.9012
B( 28-C , 55-H ) :   0.9183 B( 29-N , 30-C ) :   1.5011 B( 30-C , 31-C ) :   1.2236
B( 30-C , 56-H ) :   0.9281 B( 31-C , 32-C ) :   1.2851 B( 31-C , 36-C ) :   1.2860
B( 32-C , 33-C ) :   1.5126 B( 32-C , 35-C ) :   0.1064 B( 32-C , 57-H ) :   0.9241
B( 33-C , 34-C ) :   1.3520 B( 33-C , 58-H ) :   0.9315 B( 34-C , 35-C ) :   1.5108
B( 34-C , 59-H ) :   0.9312 B( 35-C , 36-C ) :   1.2915 B( 35-C , 60-H ) :   0.9170

FINAL SINGLE POINT ENERGY     -1981.753953675201

DIPOLE MOMENT
-------------

Method             : SCF
Type of density    : Electron Density
Multiplicity       :   1
Irrep              :   0
Energy             : -1981.7539536752008189 Eh
Relativity type    :
Basis              : AO
                                X                 Y                 Z
Electronic contribution:      4.511729057      17.019621998      13.744738234
Nuclear contribution   :     -5.570183606     -28.669104209     -14.440274872
                        -----------------------------------------
Total Dipole Moment    :     -1.058454549     -11.649482211      -0.695536638
                        -----------------------------------------
Magnitude (a.u.)       :     11.718128393
Magnitude (Debye)      :     29.785115312

Rotational constants in cm-1:             0.004329             0.002322             0.001789
Rotational constants in MHz :           129.791295            69.615398            53.620513

                             ****ORCA TERMINATED NORMALLY****
TOTAL RUN TIME: 0 days 0 hours 13 minutes 56 seconds 863 msec
