                         Program Version 6.0.0  -   RELEASE  -
|  1> ! B3LYP 6-31G* SP
|  2>
|  3> * xyz 0 1
|  4> C -7.2445 0.0759 -2.0180
|  5> N -6.3049 0.3148 -0.9084
|  6> C -5.1123 -0.3714 -0.8656
|  7> O -4.8292 -1.2197 -1.7558
|  8> C -4.2102 -0.1123 0.1712
|  9> C -2.9283 -0.6850 0.4133
| 10> C -2.3077 -1.7438 -0.4636
| 11> C -0.9484 -2.1602 0.0194
| 12> O -0.8396 -3.1965 0.7281
| 13> N 0.1979 -1.3504 -0.2906
| 14> C 1.5446 -1.6304 0.1207
| 15> N 2.5751 -0.8121 -0.1792
| 16> C 3.7639 -1.2710 0.3057
| 17> C 5.0276 -0.5164 0.0950
| 18> C 4.9804 0.8114 -0.3651
| 19> C 6.1557 1.5388 -0.5707
| 20> C 7.4096 0.9549 -0.3219
| 21> C 8.6909 1.7223 -0.5448
| 22> F 9.4265 1.7454 0.6265
| 23> F 9.4335 1.1005 -1.5322
| 24> F 8.4463 3.0282 -0.9338
| 25> C 7.4620 -0.3763 0.1271
| 26> F 8.6568 -0.9769 0.3614
| 27> C 6.2849 -1.1027 0.3330
| 28> C 3.6721 -2.4773 1.0086
| 29> S 2.0627 -2.9636 1.0072
| 30> N -2.2813 -0.1996 1.5138
| 31> S -3.2930 0.9388 2.1865
| 32> C -4.5586 0.8327 1.1081
| 33> N -5.7281 1.5253 1.0766
| 34> C -6.0102 2.5625 2.0793
| 35> C -6.5920 1.2820 0.0355
| 36> O -7.6569 1.9558 -0.0612
| 37> H -7.0107 0.7631 -2.8581
| 38> H -7.1872 -0.9734 -2.3784
| 39> H -8.2959 0.2359 -1.6967
| 40> H -2.9747 -2.6325 -0.4880
| 41> H -2.2138 -1.3527 -1.4990
| 42> H 0.0431 -0.4821 -0.8509
| 43> H 4.0317 1.2951 -0.5612
| 44> H 6.0768 2.5587 -0.9244
| 45> H 6.3699 -2.1284 0.6627
| 46> H 4.4754 -3.0119 1.4949
| 47> H -7.1033 2.7011 2.2197
| 48> H -5.5972 2.2789 3.0704
| 49> H -5.5594 3.5244 1.7566
| 50> *
| 51>
| 52>                          ****END OF INPUT****

CARTESIAN COORDINATES (ANGSTROEM)
---------------------------------
  C     -7.244500    0.075900   -2.018000
  N     -6.304900    0.314800   -0.908400
  C     -5.112300   -0.371400   -0.865600
  O     -4.829200   -1.219700   -1.755800
  C     -4.210200   -0.112300    0.171200
  C     -2.928300   -0.685000    0.413300
  C     -2.307700   -1.743800   -0.463600
  C     -0.948400   -2.160200    0.019400
  O     -0.839600   -3.196500    0.728100
  N      0.197900   -1.350400   -0.290600
  C      1.544600   -1.630400    0.120700
  N      2.575100   -0.812100   -0.179200
  C      3.763900   -1.271000    0.305700
  C      5.027600   -0.516400    0.095000
  C      4.980400    0.811400   -0.365100
  C      6.155700    1.538800   -0.570700
  C      7.409600    0.954900   -0.321900
  C      8.690900    1.722300   -0.544800
  F      9.426500    1.745400    0.626500
  F      9.433500    1.100500   -1.532200
  F      8.446300    3.028200   -0.933800
  C      7.462000   -0.376300    0.127100
  F      8.656800   -0.976900    0.361400
  C      6.284900   -1.102700    0.333000
  C      3.672100   -2.477300    1.008600
  S      2.062700   -2.963600    1.007200
  N     -2.281300   -0.199600    1.513800
  S     -3.293000    0.938800    2.186500
  C     -4.558600    0.832700    1.108100
  N     -5.728100    1.525300    1.076600
  C     -6.010200    2.562500    2.079300
  C     -6.592000    1.282000    0.035500
  O     -7.656900    1.955800   -0.061200
  H     -7.010700    0.763100   -2.858100
  H     -7.187200   -0.973400   -2.378400
  H     -8.295900    0.235900   -1.696700
  H     -2.974700   -2.632500   -0.488000
  H     -2.213800   -1.352700   -1.499000
  H      0.043100   -0.482100   -0.850900
  H      4.031700    1.295100   -0.561200
  H      6.076800    2.558700   -0.924400
  H      6.369900   -2.128400    0.662700
  H      4.475400   -3.011900    1.494900
  H     -7.103300    2.701100    2.219700
  H     -5.597200    2.278900    3.070400
  H     -5.559400    3.524400    1.756600

 Total Charge           Charge          ....    0
 Multiplicity           Mult            ....    1
 Number of Electrons    NEL             ....  254
 Basis Dimension        Dim             ....  496

ORBITAL ENERGIES
----------------

  NO   OCC          E(Eh)            E(eV)
   0   2.0000     -88.944050     -2420.2907
   1   2.0000     -88.906188     -2419.2604
   2   2.0000     -24.717645      -672.6013
   3   2.0000     -24.709138      -672.3698
   4   2.0000     -24.709081      -672.3683
   5   2.0000     -24.708862      -672.3623
   6   2.0000     -19.135664      -520.7079
   7   2.0000     -19.135661      -520.7078
   8   2.0000     -19.129840      -520.5494
   9   2.0000     -14.436416      -392.8349
  10   2.0000     -14.415367      -392.2621
  11   2.0000     -14.399287      -391.8245
  12   2.0000     -14.378626      -391.2623
  13   2.0000     -14.334965      -390.0742
  14   2.0000     -10.431628      -283.8590
  15   2.0000     -10.351264      -281.6722
  16   2.0000     -10.315559      -280.7006
  17   2.0000     -10.312076      -280.6058
  18   2.0000     -10.295189      -280.1463
  19   2.0000     -10.293746      -280.1071
  20   2.0000     -10.285435      -279.8809
  21   2.0000     -10.271527      -279.5025
  22   2.0000     -10.258990      -279.1613
  23   2.0000     -10.233585      -278.4700
  24   2.0000     -10.230716      -278.3919
  25   2.0000     -10.221734      -278.1475
  26   2.0000     -10.220635      -278.1176
  27   2.0000     -10.215680      -277.9828
  28   2.0000     -10.214200      -277.9425
  29   2.0000     -10.209946      -277.8268
  30   2.0000     -10.203941      -277.6633
  31   2.0000     -10.200843      -277.5791
  32   2.0000     -10.191027      -277.3119
  33   2.0000      -8.018042      -218.1820
  34   2.0000      -7.982117      -217.2044
  35   2.0000      -5.982388      -162.7891
  36   2.0000      -5.977036      -162.6434
  37   2.0000      -5.974064      -162.5625
  38   2.0000      -5.945252      -161.7785
  39   2.0000      -5.940951      -161.6615
  40   2.0000      -5.939153      -161.6126
  41   2.0000      -1.273400       -34.6510
  42   2.0000      -1.221280       -33.2327
  43   2.0000      -1.199715       -32.6459
  44   2.0000      -1.195556       -32.5327
  45   2.0000      -1.091861       -29.7111
  46   2.0000      -1.040421       -28.3113
  47   2.0000      -1.036168       -28.1956
  48   2.0000      -1.012485       -27.5511
  49   2.0000      -0.980876       -26.6910
  50   2.0000      -0.979597       -26.6562
  51   2.0000      -0.958326       -26.0774
  52   2.0000      -0.919989       -25.0342
  53   2.0000      -0.873660       -23.7735
  54   2.0000      -0.835862       -22.7450
  55   2.0000      -0.824840       -22.4450
  56   2.0000      -0.812985       -22.1224
  57   2.0000      -0.798282       -21.7224
  58   2.0000      -0.774147       -21.0656
  59   2.0000      -0.757552       -20.6140
  60   2.0000      -0.755549       -20.5595
  61   2.0000      -0.739324       -20.1180
  62   2.0000      -0.724468       -19.7138
  63   2.0000      -0.688375       -18.7316
  64   2.0000      -0.677671       -18.4404
  65   2.0000      -0.660622       -17.9764
  66   2.0000      -0.640254       -17.4222
  67   2.0000      -0.635339       -17.2884
  68   2.0000      -0.619833       -16.8665
  69   2.0000      -0.611626       -16.6432
  70   2.0000      -0.593521       -16.1505
  71   2.0000      -0.582814       -15.8592
  72   2.0000      -0.569321       -15.4920
  73   2.0000      -0.563317       -15.3286
  74   2.0000      -0.562848       -15.3159
  75   2.0000      -0.558467       -15.1967
  76   2.0000      -0.541207       -14.7270
  77   2.0000      -0.529697       -14.4138
  78   2.0000      -0.528420       -14.3790
  79   2.0000      -0.516894       -14.0654
  80   2.0000      -0.515478       -14.0269
  81   2.0000      -0.491335       -13.3699
  82   2.0000      -0.490169       -13.3382
  83   2.0000      -0.483042       -13.1442
  84   2.0000      -0.481215       -13.0945
  85   2.0000      -0.476170       -12.9572
  86   2.0000      -0.466478       -12.6935
  87   2.0000      -0.465508       -12.6671
  88   2.0000      -0.457078       -12.4377
  89   2.0000      -0.451444       -12.2844
  90   2.0000      -0.449758       -12.2385
  91   2.0000      -0.442256       -12.0344
  92   2.0000      -0.441036       -12.0012
  93   2.0000      -0.440512       -11.9870
  94   2.0000      -0.438322       -11.9273
  95   2.0000      -0.430817       -11.7231
  96   2.0000      -0.429139       -11.6775
  97   2.0000      -0.422868       -11.5068
  98   2.0000      -0.417595       -11.3633
  99   2.0000      -0.413713       -11.2577
 100   2.0000      -0.410567       -11.1721
 101   2.0000      -0.407000       -11.0750
 102   2.0000      -0.406516       -11.0619
 103   2.0000      -0.401889       -10.9360
 104   2.0000      -0.397504       -10.8166
 105   2.0000      -0.394227       -10.7275
 106   2.0000      -0.391044       -10.6409
 107   2.0000      -0.390247       -10.6192
 108   2.0000      -0.376094       -10.2340
 109   2.0000      -0.375215       -10.2101
 110   2.0000      -0.365123        -9.9355
 111   2.0000      -0.362808        -9.8725
 112   2.0000      -0.348847        -9.4926
 113   2.0000      -0.346120        -9.4184
 114   2.0000      -0.332215        -9.0400
 115   2.0000      -0.317148        -8.6300
 116   2.0000      -0.296658        -8.0725
 117   2.0000      -0.294606        -8.0166
 118   2.0000      -0.285984        -7.7820
 119   2.0000      -0.283789        -7.7223
 120   2.0000      -0.279492        -7.6054
 121   2.0000      -0.271443        -7.3863
 122   2.0000      -0.265281        -7.2187
 123   2.0000      -0.264098        -7.1865
 124   2.0000      -0.259039        -7.0488
 125   2.0000      -0.251748        -6.8504
 126   2.0000      -0.218014        -5.9325
 127   0.0000      -0.055613        -1.5133
 128   0.0000      -0.047057        -1.2805
 129   0.0000      -0.044744        -1.2175
 130   0.0000      -0.033737        -0.9180
 131   0.0000      -0.010589        -0.2881

MULLIKEN ATOMIC CHARGES
-----------------------
   0 C :   -0.317838
   1 N :   -0.480490
   2 C :    0.515778
   3 O :   -0.495454
   4 C :    0.050691
   5 C :    0.176800
   6 C :   -0.401218
   7 C :    0.576985
   8 O :   -0.447172
   9 N :   -0.638240
  10 C :    0.265660
  11 N :   -0.437780
  12 C :    0.211478
  13 C :    0.145875
  14 C :   -0.172951
  15 C :   -0.154800
  16 C :   -0.114716
  17 C :    0.917836
  18 F :   -0.300050
  19 F :   -0.298922
  20 F :   -0.306940
  21 C :    0.385604
  22 F :   -0.302567
  23 C :   -0.269242
  24 C :   -0.402469
  25 S :    0.330127
  26 N :   -0.488167
  27 S :    0.406816
  28 C :    0.045036
  29 N :   -0.448905
  30 C :   -0.341555
  31 C :    0.686758
  32 O :   -0.493117
  33 H :    0.181795
  34 H :    0.200910
  35 H :    0.197947
  36 H :    0.227686
  37 H :    0.187698
  38 H :    0.354214
  39 H :    0.157221
  40 H :    0.159493
  41 H :    0.145937
  42 H :    0.184821
  43 H :    0.221175
  44 H :    0.185370
  45 H :    0.192883
Sum of atomic charges:    0.0000000

LOEWDIN ATOMIC CHARGES
----------------------
   0 C :   -0.259667
   1 N :   -0.027276
   2 C :    0.115698
   3 O :   -0.292172
   4 C :   -0.131158
   5 C :    0.042714
   6 C :   -0.240047
   7 C :    0.158868
   8 O :   -0.252323
   9 N :   -0.194370
  10 C :   -0.075819
  11 N :   -0.187319
  12 C :   -0.009653
  13 C :    0.002810
  14 C :   -0.124227
  15 C :   -0.107855
  16 C :   -0.101621
  17 C :    0.313458
  18 F :   -0.112821
  19 F :   -0.112855
  20 F :   -0.112110
  21 C :    0.134460
  22 F :   -0.094302
  23 C :   -0.152877
  24 C :   -0.345877
  25 S :    0.436861
  26 N :   -0.325320
  27 S :    0.479909
  28 C :   -0.118203
  29 N :   -0.021392
  30 C :   -0.262406
  31 C :    0.146465
  32 O :   -0.301809
  33 H :    0.142527
  34 H :    0.155793
  35 H :    0.154107
  36 H :    0.182347
  37 H :    0.158507
  38 H :    0.275644
  39 H :    0.148626
  40 H :    0.147883
  41 H :    0.145540
  42 H :    0.162282
  43 H :    0.167378
  44 H :    0.145888
  45 H :    0.145714

  Mayer bond orders larger than 0.100000
B(  0-C ,  1-N ) :   0.9133 B(  0-C , 33-H ) :   0.9395 B(  0-C , 34-H ) :   0.9224
B(  0-C , 35-H ) :   0.9256 B(  1-N ,  2-C ) :   0.9844 B(  1-N , 31-C ) :   1.0434
B(  2-C ,  3-O ) :   1.7648 B(  2-C ,  4-C ) :   1.0894 B(  4-C ,  5-C ) :   1.2450
B(  4-C , 28-C ) :   1.3507 B(  5-C ,  6-C ) :   1.0005 B(  5-C , 26-N ) :   1.5237
B(  6-C ,  7-C ) :   0.9360 B(  6-C , 36-H ) :   0.8993 B(  6-C , 37-H ) :   0.9020
B(  7-C ,  8-O ) :   1.8323 B(  7-C ,  9-N ) :   1.0173 B(  9-N , 10-C ) :   0.9506
B(  9-N , 38-H ) :   0.8102 B( 10-C , 11-N ) :   1.4781 B( 10-C , 24-C ) :   0.1050
B( 10-C , 25-S ) :   1.1844 B( 11-N , 12-C ) :   1.2914 B( 12-C , 13-C ) :   1.0583
B( 12-C , 24-C ) :   1.5138 B( 13-C , 14-C ) :   1.3999 B( 13-C , 23-C ) :   1.3660
B( 14-C , 15-C ) :   1.4138 B( 14-C , 39-H ) :   0.9118 B( 15-C , 16-C ) :   1.4042
B( 15-C , 40-H ) :   0.9193 B( 16-C , 17-C ) :   0.9677 B( 16-C , 21-C ) :   1.3196
B( 17-C , 18-F ) :   0.9684 B( 17-C , 19-F ) :   0.9741 B( 17-C , 20-F ) :   0.9450
B( 21-C , 22-F ) :   0.9473 B( 21-C , 23-C ) :   1.3846 B( 23-C , 41-H ) :   0.9099
B( 24-C , 25-S ) :   1.1102 B( 24-C , 42-H ) :   0.9007 B( 26-N , 27-S ) :   1.0907
B( 26-N , 28-C ) :   0.1308 B( 27-S , 28-C ) :   1.1601 B( 28-C , 29-N ) :   0.9982
B( 29-N , 30-C ) :   0.9213 B( 29-N , 31-C ) :   1.0256 B( 30-C , 43-H ) :   0.9184
B( 30-C , 44-H ) :   0.9236 B( 30-C , 45-H ) :   0.9313 B( 31-C , 32-O ) :   1.8013

FINAL SINGLE POINT ENERGY     -2426.051562113096

DIPOLE MOMENT
-------------

Method             : SCF
Type of density    : Electron Density
Multiplicity       :   1
Irrep              :   0
Energy             : -2426.0515621130957697 Eh
Relativity type    :
Basis              : AO
                                X                 Y                 Z
Electronic contribution:     61.599218210       2.125852106       2.363679734
Nuclear contribution   :    -64.183856323      -1.099956984      -2.016831395
                        -----------------------------------------
Total Dipole Moment    :     -2.584638113       1.025895122       0.346848339
                        -----------------------------------------
Magnitude (a.u.)       :      2.802341654
Magnitude (Debye)      :      7.122986413

Rotational constants in cm-1:             0.008712             0.001026             0.000976
Rotational constants in MHz :           261.173221            30.769343            29.263209

                             ****ORCA TERMINATED NORMALLY****
TOTAL RUN TIME: 0 days 0 hours 4 minutes 33 seconds 650 msec
