                         Program Version 6.0.0  -   RELEASE  -
|  1> ! B3LYP 6-31G* SP
|  2>
|  3> * xyz 0 1
|  4> C 1.8853 1.4930 -2.1025
|  5> C 2.7387 0.4024 -1.5137
|  6> C 3.8812 -0.0339 -2.2075
|  7> C 4.7280 -0.9963 -1.6515
|  8> C 4.4519 -1.5262 -0.3920
|  9> C 3.3215 -1.1042 0.3105
| 10> C 2.4523 -0.1516 -0.2435
| 11> C 1.2699 0.2638 0.5360
| 12> O 1.4539 0.9803 1.5555
| 13> N -0.0683 -0.1621 0.1717
| 14> C -0.2660 -1.5166 -0.3967
| 15> C -0.8515 -1.4615 -1.8176
| 16> C -1.0548 -2.3930 0.5624
| 17> C -0.3748 -3.0522 1.6002
| 18> C -1.0699 -3.8163 2.5395
| 19> C -2.4602 -3.9129 2.4692
| 20> C -3.1577 -3.2550 1.4510
| 21> Cl -4.9064 -3.3619 1.3745
| 22> C -2.4637 -2.4985 0.5016
| 23> C -1.2408 0.6842 0.5092
| 24> C -1.5139 0.7136 1.9995
| 25> N -2.5574 1.5405 2.5223
| 26> O -0.8824 -0.0503 2.7815
| 27> C -1.1055 2.0705 -0.1085
| 28> C -1.5811 2.2909 -1.4180
| 29> C -1.4231 3.5349 -2.0391
| 30> C -0.7884 4.5777 -1.3568
| 31> C -0.3132 4.3752 -0.0577
| 32> C -0.4655 3.1306 0.5645
| 33> H 0.8468 1.1301 -2.2322
| 34> H 1.8866 2.3794 -1.4265
| 35> H 2.2590 1.8152 -3.1031
| 36> H 4.1253 0.3779 -3.1797
| 37> H 5.6073 -1.3222 -2.1933
| 38> H 5.1151 -2.2643 0.0385
| 39> H 3.1181 -1.5270 1.2864
| 40> H 0.7174 -2.0170 -0.5288
| 41> H -0.1266 -0.9804 -2.5038
| 42> H -1.0350 -2.4883 -2.1915
| 43> H -1.7996 -0.8958 -1.8637
| 44> H 0.7070 -2.9762 1.6816
| 45> H -0.5329 -4.3227 3.3309
| 46> H -2.9950 -4.4977 3.2058
| 47> H -3.0344 -1.9880 -0.2668
| 48> H -2.1580 0.2311 0.0789
| 49> H -2.8220 1.4746 3.5302
| 50> H -3.0898 2.1903 1.9031
| 51> H -2.0716 1.4954 -1.9685
| 52> H -1.7866 3.6909 -3.0480
| 53> H -0.6629 5.5402 -1.8402
| 54> H 0.1817 5.1847 0.4695
| 55> H -0.0881 3.0044 1.5704
| 56> *
| 57>
| 58>                          ****END OF INPUT****

CARTESIAN COORDINATES (ANGSTROEM)
---------------------------------
  C      1.885300    1.493000   -2.102500
  C      2.738700    0.402400   -1.513700
  C      3.881200   -0.033900   -2.207500
  C      4.728000   -0.996300   -1.651500
  C      4.451900   -1.526200   -0.392000
  C      3.321500   -1.104200    0.310500
  C      2.452300   -0.151600   -0.243500
  C      1.269900    0.263800    0.536000
  O      1.453900    0.980300    1.555500
  N     -0.068300   -0.162100    0.171700
  C     -0.266000   -1.516600   -0.396700
  C     -0.851500   -1.461500   -1.817600
  C     -1.054800   -2.393000    0.562400
  C     -0.374800   -3.052200    1.600200
  C     -1.069900   -3.816300    2.539500
  C     -2.460200   -3.912900    2.469200
  C     -3.157700   -3.255000    1.451000
  Cl    -4.906400   -3.361900    1.374500
  C     -2.463700   -2.498500    0.501600
  C     -1.240800    0.684200    0.509200
  C     -1.513900    0.713600    1.999500
  N     -2.557400    1.540500    2.522300
  O     -0.882400   -0.050300    2.781500
  C     -1.105500    2.070500   -0.108500
  C     -1.581100    2.290900   -1.418000
  C     -1.423100    3.534900   -2.039100
  C     -0.788400    4.577700   -1.356800
  C     -0.313200    4.375200   -0.057700
  C     -0.465500    3.130600    0.564500
  H      0.846800    1.130100   -2.232200
  H      1.886600    2.379400   -1.426500
  H      2.259000    1.815200   -3.103100
  H      4.125300    0.377900   -3.179700
  H      5.607300   -1.322200   -2.193300
  H      5.115100   -2.264300    0.038500
  H      3.118100   -1.527000    1.286400
  H      0.717400   -2.017000   -0.528800
  H     -0.126600   -0.980400   -2.503800
  H     -1.035000   -2.488300   -2.191500
  H     -1.799600   -0.895800   -1.863700
  H      0.707000   -2.976200    1.681600
  H     -0.532900   -4.322700    3.330900
  H     -2.995000   -4.497700    3.205800
  H     -3.034400   -1.988000   -0.266800
  H     -2.158000    0.231100    0.078900
  H     -2.822000    1.474600    3.530200
  H     -3.089800    2.190300    1.903100
  H     -2.071600    1.495400   -1.968500
  H     -1.786600    3.690900   -3.048000
  H     -0.662900    5.540200   -1.840200
  H      0.181700    5.184700    0.469500
  H     -0.088100    3.004400    1.570400

 Total Charge           Charge          ....    0
 Multiplicity           Mult            ....    1
 Number of Electrons    NEL             ....  214
 Basis Dimension        Dim             ....  456

ORBITAL ENERGIES
----------------

  NO   OCC          E(Eh)            E(eV)
   0   2.0000    -101.523634     -2762.5985
   1   2.0000     -19.110198      -520.0149
   2   2.0000     -19.095894      -519.6257
   3   2.0000     -14.352745      -390.5580
   4   2.0000     -14.345043      -390.3485
   5   2.0000     -10.283064      -279.8164
   6   2.0000     -10.280907      -279.7577
   7   2.0000     -10.241072      -278.6737
   8   2.0000     -10.240888      -278.6687
   9   2.0000     -10.231217      -278.4056
  10   2.0000     -10.199579      -277.5447
  11   2.0000     -10.196791      -277.4688
  12   2.0000     -10.195677      -277.4385
  13   2.0000     -10.192467      -277.3511
  14   2.0000     -10.192391      -277.3491
  15   2.0000     -10.190194      -277.2893
  16   2.0000     -10.188742      -277.2498
  17   2.0000     -10.187609      -277.2189
  18   2.0000     -10.186776      -277.1963
  19   2.0000     -10.186344      -277.1845
  20   2.0000     -10.185238      -277.1544
  21   2.0000     -10.185010      -277.1482
  22   2.0000     -10.183165      -277.0980
  23   2.0000     -10.183119      -277.0968
  24   2.0000     -10.181920      -277.0641
  25   2.0000     -10.180444      -277.0240
  26   2.0000     -10.180044      -277.0131
  27   2.0000     -10.179886      -277.0088
  28   2.0000     -10.171702      -276.7861
  29   2.0000      -9.455595      -257.2998
  30   2.0000      -7.218538      -196.4264
  31   2.0000      -7.209214      -196.1727
  32   2.0000      -7.208963      -196.1659
  33   2.0000      -1.010722       -27.5031
  34   2.0000      -0.991798       -26.9882
  35   2.0000      -0.919654       -25.0251
  36   2.0000      -0.882027       -24.0012
  37   2.0000      -0.869975       -23.6732
  38   2.0000      -0.855494       -23.2792
  39   2.0000      -0.852550       -23.1991
  40   2.0000      -0.830478       -22.5984
  41   2.0000      -0.789139       -21.4736
  42   2.0000      -0.771668       -20.9982
  43   2.0000      -0.763489       -20.7756
  44   2.0000      -0.750070       -20.4104
  45   2.0000      -0.745590       -20.2885
  46   2.0000      -0.733026       -19.9466
  47   2.0000      -0.723226       -19.6800
  48   2.0000      -0.703724       -19.1493
  49   2.0000      -0.680391       -18.5144
  50   2.0000      -0.644840       -17.5470
  51   2.0000      -0.625420       -17.0186
  52   2.0000      -0.610201       -16.6044
  53   2.0000      -0.601011       -16.3543
  54   2.0000      -0.596605       -16.2345
  55   2.0000      -0.590126       -16.0581
  56   2.0000      -0.580683       -15.8012
  57   2.0000      -0.572394       -15.5756
  58   2.0000      -0.536386       -14.5958
  59   2.0000      -0.521606       -14.1936
  60   2.0000      -0.519528       -14.1371
  61   2.0000      -0.514645       -14.0042
  62   2.0000      -0.500724       -13.6254
  63   2.0000      -0.485292       -13.2055
  64   2.0000      -0.474014       -12.8986
  65   2.0000      -0.472843       -12.8667
  66   2.0000      -0.463030       -12.5997
  67   2.0000      -0.459546       -12.5049
  68   2.0000      -0.457959       -12.4617
  69   2.0000      -0.450098       -12.2478
  70   2.0000      -0.440891       -11.9972
  71   2.0000      -0.436138       -11.8679
  72   2.0000      -0.432207       -11.7610
  73   2.0000      -0.423901       -11.5349
  74   2.0000      -0.422399       -11.4941
  75   2.0000      -0.416530       -11.3344
  76   2.0000      -0.415029       -11.2935
  77   2.0000      -0.409629       -11.1466
  78   2.0000      -0.403715       -10.9856
  79   2.0000      -0.398768       -10.8510
  80   2.0000      -0.388749       -10.5784
  81   2.0000      -0.384168       -10.4537
  82   2.0000      -0.382551       -10.4097
  83   2.0000      -0.377892       -10.2830
  84   2.0000      -0.369253       -10.0479
  85   2.0000      -0.367107        -9.9895
  86   2.0000      -0.357359        -9.7242
  87   2.0000      -0.355301        -9.6682
  88   2.0000      -0.350361        -9.5338
  89   2.0000      -0.347907        -9.4670
  90   2.0000      -0.345201        -9.3934
  91   2.0000      -0.343973        -9.3600
  92   2.0000      -0.340561        -9.2671
  93   2.0000      -0.338986        -9.2243
  94   2.0000      -0.328112        -8.9284
  95   2.0000      -0.322109        -8.7650
  96   2.0000      -0.307191        -8.3591
  97   2.0000      -0.266254        -7.2451
  98   2.0000      -0.255640        -6.9563
  99   2.0000      -0.254387        -6.9222
 100   2.0000      -0.251405        -6.8411
 101   2.0000      -0.245145        -6.6707
 102   2.0000      -0.240684        -6.5493
 103   2.0000      -0.239939        -6.5291
 104   2.0000      -0.232511        -6.3270
 105   2.0000      -0.227863        -6.2005
 106   2.0000      -0.217157        -5.9091
 107   0.0000      -0.021020        -0.5720
 108   0.0000      -0.014678        -0.3994
 109   0.0000      -0.007621        -0.2074
 110   0.0000      -0.005534        -0.1506
 111   0.0000      -0.003063        -0.0833

MULLIKEN ATOMIC CHARGES
-----------------------
   0 C :   -0.542065
   1 C :    0.146625
   2 C :   -0.187125
   3 C :   -0.114932
   4 C :   -0.130909
   5 C :   -0.155835
   6 C :    0.043865
   7 C :    0.436938
   8 O :   -0.441284
   9 N :   -0.391172
  10 C :   -0.092096
  11 C :   -0.456044
  12 C :    0.192455
  13 C :   -0.143540
  14 C :   -0.112060
  15 C :   -0.128947
  16 C :   -0.064731
  17 Cl:   -0.028772
  18 C :   -0.188702
  19 C :   -0.148855
  20 C :    0.588961
  21 N :   -0.771088
  22 O :   -0.465590
  23 C :    0.129369
  24 C :   -0.187867
  25 C :   -0.125372
  26 C :   -0.124295
  27 C :   -0.137749
  28 C :   -0.161028
  29 H :    0.170087
  30 H :    0.181250
  31 H :    0.145044
  32 H :    0.126106
  33 H :    0.128376
  34 H :    0.129850
  35 H :    0.148769
  36 H :    0.167612
  37 H :    0.160584
  38 H :    0.154894
  39 H :    0.142115
  40 H :    0.132785
  41 H :    0.139937
  42 H :    0.147216
  43 H :    0.138465
  44 H :    0.168726
  45 H :    0.349925
  46 H :    0.329929
  47 H :    0.125591
  48 H :    0.130525
  49 H :    0.130499
  50 H :    0.136697
  51 H :    0.176862
Sum of atomic charges:    0.0000000

LOEWDIN ATOMIC CHARGES
----------------------
   0 C :   -0.358502
   1 C :   -0.009806
   2 C :   -0.135352
   3 C :   -0.124061
   4 C :   -0.135761
   5 C :   -0.115452
   6 C :   -0.046018
   7 C :    0.154447
   8 O :   -0.242358
   9 N :   -0.086619
  10 C :   -0.053876
  11 C :   -0.364622
  12 C :   -0.013133
  13 C :   -0.108598
  14 C :   -0.114244
  15 C :   -0.131856
  16 C :   -0.087425
  17 Cl:    0.028460
  18 C :   -0.147181
  19 C :   -0.063611
  20 C :    0.137701
  21 N :   -0.407396
  22 O :   -0.271932
  23 C :   -0.032596
  24 C :   -0.134370
  25 C :   -0.133115
  26 C :   -0.126771
  27 C :   -0.130336
  28 C :   -0.120744
  29 H :    0.137765
  30 H :    0.147539
  31 H :    0.127195
  32 H :    0.131039
  33 H :    0.131667
  34 H :    0.132773
  35 H :    0.139681
  36 H :    0.146173
  37 H :    0.132581
  38 H :    0.132386
  39 H :    0.117948
  40 H :    0.134060
  41 H :    0.138461
  42 H :    0.142460
  43 H :    0.136560
  44 H :    0.150486
  45 H :    0.264811
  46 H :    0.249718
  47 H :    0.128182
  48 H :    0.132301
  49 H :    0.132175
  50 H :    0.135164
  51 H :    0.154003

  Mayer bond orders larger than 0.100000
B(  0-C ,  1-C ) :   0.9958 B(  0-C , 29-H ) :   0.9166 B(  0-C , 30-H ) :   0.9245
B(  0-C , 31-H ) :   0.9455 B(  1-C ,  2-C ) :   1.4302 B(  1-C ,  6-C ) :   1.4135
B(  2-C ,  3-C ) :   1.4372 B(  2-C , 32-H ) :   0.9228 B(  3-C ,  4-C ) :   1.4531
B(  3-C , 33-H ) :   0.9297 B(  4-C ,  5-C ) :   1.4320 B(  4-C , 34-H ) :   0.9294
B(  5-C ,  6-C ) :   1.4027 B(  5-C , 35-H ) :   0.9212 B(  6-C ,  7-C ) :   0.9343
B(  7-C ,  8-O ) :   1.8286 B(  7-C ,  9-N ) :   1.0208 B(  9-N , 10-C ) :   0.9504
B(  9-N , 19-C ) :   0.9404 B( 10-C , 11-C ) :   0.9913 B( 10-C , 12-C ) :   0.9566
B( 10-C , 36-H ) :   0.9106 B( 11-C , 37-H ) :   0.9382 B( 11-C , 38-H ) :   0.9395
B( 11-C , 39-H ) :   0.9341 B( 12-C , 13-C ) :   1.4216 B( 12-C , 18-C ) :   1.4126
B( 13-C , 14-C ) :   1.4437 B( 13-C , 40-H ) :   0.9205 B( 14-C , 15-C ) :   1.4473
B( 14-C , 41-H ) :   0.9271 B( 15-C , 16-C ) :   1.4228 B( 15-C , 42-H ) :   0.9244
B( 16-C , 17-Cl) :   1.0040 B( 16-C , 18-C ) :   1.4036 B( 18-C , 43-H ) :   0.9148
B( 19-C , 20-C ) :   0.8981 B( 19-C , 23-C ) :   0.9570 B( 19-C , 44-H ) :   0.8988
B( 20-C , 21-N ) :   1.0622 B( 20-C , 22-O ) :   1.8518 B( 21-N , 45-H ) :   0.8237
B( 21-N , 46-H ) :   0.8269 B( 23-C , 24-C ) :   1.4104 B( 23-C , 28-C ) :   1.4336
B( 24-C , 25-C ) :   1.4437 B( 24-C , 47-H ) :   0.9210 B( 25-C , 26-C ) :   1.4500
B( 25-C , 48-H ) :   0.9293 B( 26-C , 27-C ) :   1.4497 B( 26-C , 49-H ) :   0.9300
B( 27-C , 28-C ) :   1.4219 B( 27-C , 50-H ) :   0.9292 B( 28-C , 51-H ) :   0.9044

FINAL SINGLE POINT ENERGY     -1647.723310173718

DIPOLE MOMENT
-------------

Method             : SCF
Type of density    : Electron Density
Multiplicity       :   1
Irrep              :   0
Energy             : -1647.7233101737176639 Eh
Relativity type    :
Basis              : AO
                                X                 Y                 Z
Electronic contribution:    -16.234181692     -12.543136014      15.078862773
Nuclear contribution   :     15.968982714      12.947150021     -16.392718092
                        -----------------------------------------
Total Dipole Moment    :     -0.265198978       0.404014008      -1.313855319
                        -----------------------------------------
Magnitude (a.u.)       :      1.399919146
Magnitude (Debye)      :      3.558311685

Rotational constants in cm-1:             0.006840             0.004212             0.003171
Rotational constants in MHz :           205.051884           126.262617            95.050429

                             ****ORCA TERMINATED NORMALLY****
TOTAL RUN TIME: 0 days 0 hours 9 minutes 39 seconds 270 msec
