                         Program Version 6.0.0  -   RELEASE  -
|  1> ! B3LYP 6-31G* SP
|  2>
|  3> * xyz 0 1
|  4> C 6.0082 0.1792 -0.8850
|  5> C 5.4390 0.0938 0.5250
|  6> N 4.0436 0.5136 0.5294
|  7> N 3.6403 1.7613 0.6978
|  8> N 2.3224 1.8029 0.5871
|  9> C 1.9548 0.5296 0.3360
| 10> C 0.5657 0.0993 0.1311
| 11> S -0.7791 1.1074 0.1809
| 12> C -1.8724 -0.1394 -0.1391
| 13> C -3.3421 0.0061 -0.2514
| 14> C -4.1445 -1.1178 -0.5228
| 15> C -5.5326 -0.9883 -0.6302
| 16> C -6.1347 0.2612 -0.4685
| 17> C -5.3498 1.3847 -0.1988
| 18> F -5.9357 2.5973 -0.0420
| 19> C -3.9607 1.2607 -0.0903
| 20> N -1.2266 -1.3205 -0.2847
| 21> C 0.1194 -1.1919 -0.1361
| 22> O 0.9752 -2.2830 -0.2465
| 23> N 3.0225 -0.2906 0.2893
| 24> H 5.4363 -0.4840 -1.5683
| 25> H 7.0710 -0.1421 -0.8790
| 26> H 5.9509 1.2242 -1.2571
| 27> H 5.5159 -0.9518 0.8938
| 28> H 6.0286 0.7471 1.2039
| 29> H -3.7007 -2.0970 -0.6521
| 30> H -6.1419 -1.8581 -0.8392
| 31> H -7.2096 0.3577 -0.5523
| 32> H -3.3754 2.1464 0.1191
| 33> H 0.6119 -3.2079 -0.4421
| 34> *
| 35>
| 36>                          ****END OF INPUT****

CARTESIAN COORDINATES (ANGSTROEM)
---------------------------------
  C      6.008200    0.179200   -0.885000
  C      5.439000    0.093800    0.525000
  N      4.043600    0.513600    0.529400
  N      3.640300    1.761300    0.697800
  N      2.322400    1.802900    0.587100
  C      1.954800    0.529600    0.336000
  C      0.565700    0.099300    0.131100
  S     -0.779100    1.107400    0.180900
  C     -1.872400   -0.139400   -0.139100
  C     -3.342100    0.006100   -0.251400
  C     -4.144500   -1.117800   -0.522800
  C     -5.532600   -0.988300   -0.630200
  C     -6.134700    0.261200   -0.468500
  C     -5.349800    1.384700   -0.198800
  F     -5.935700    2.597300   -0.042000
  C     -3.960700    1.260700   -0.090300
  N     -1.226600   -1.320500   -0.284700
  C      0.119400   -1.191900   -0.136100
  O      0.975200   -2.283000   -0.246500
  N      3.022500   -0.290600    0.289300
  H      5.436300   -0.484000   -1.568300
  H      7.071000   -0.142100   -0.879000
  H      5.950900    1.224200   -1.257100
  H      5.515900   -0.951800    0.893800
  H      6.028600    0.747100    1.203900
  H     -3.700700   -2.097000   -0.652100
  H     -6.141900   -1.858100   -0.839200
  H     -7.209600    0.357700   -0.552300
  H     -3.375400    2.146400    0.119100
  H      0.611900   -3.207900   -0.442100

 Total Charge           Charge          ....    0
 Multiplicity           Mult            ....    1
 Number of Electrons    NEL             ....  150
 Basis Dimension        Dim             ....  304

ORBITAL ENERGIES
----------------

  NO   OCC          E(Eh)            E(eV)
   0   2.0000     -88.904851     -2419.2240
   1   2.0000     -24.702502      -672.1893
   2   2.0000     -19.174990      -521.7780
   3   2.0000     -14.455071      -393.3425
   4   2.0000     -14.393308      -391.6618
   5   2.0000     -14.363964      -390.8633
   6   2.0000     -14.356510      -390.6605
   7   2.0000     -14.335546      -390.0901
   8   2.0000     -10.284480      -279.8549
   9   2.0000     -10.276230      -279.6304
  10   2.0000     -10.259270      -279.1689
  11   2.0000     -10.252409      -278.9822
  12   2.0000     -10.248358      -278.8720
  13   2.0000     -10.222960      -278.1809
  14   2.0000     -10.219321      -278.0819
  15   2.0000     -10.199820      -277.5512
  16   2.0000     -10.197821      -277.4968
  17   2.0000     -10.195649      -277.4377
  18   2.0000     -10.192545      -277.3533
  19   2.0000     -10.192069      -277.3403
  20   2.0000      -7.981421      -217.1855
  21   2.0000      -5.944405      -161.7555
  22   2.0000      -5.940442      -161.6476
  23   2.0000      -5.938450      -161.5934
  24   2.0000      -1.215812       -33.0839
  25   2.0000      -1.142472       -31.0882
  26   2.0000      -1.044840       -28.4315
  27   2.0000      -0.962867       -26.2009
  28   2.0000      -0.945831       -25.7374
  29   2.0000      -0.892510       -24.2864
  30   2.0000      -0.867434       -23.6041
  31   2.0000      -0.819734       -22.3061
  32   2.0000      -0.790885       -21.5211
  33   2.0000      -0.782432       -21.2910
  34   2.0000      -0.753628       -20.5073
  35   2.0000      -0.732896       -19.9431
  36   2.0000      -0.684985       -18.6394
  37   2.0000      -0.665505       -18.1093
  38   2.0000      -0.637653       -17.3514
  39   2.0000      -0.622161       -16.9299
  40   2.0000      -0.608959       -16.5706
  41   2.0000      -0.583656       -15.8821
  42   2.0000      -0.580827       -15.8051
  43   2.0000      -0.537883       -14.6365
  44   2.0000      -0.531210       -14.4549
  45   2.0000      -0.521719       -14.1967
  46   2.0000      -0.500938       -13.6312
  47   2.0000      -0.498088       -13.5537
  48   2.0000      -0.487163       -13.2564
  49   2.0000      -0.472462       -12.8564
  50   2.0000      -0.464471       -12.6389
  51   2.0000      -0.458826       -12.4853
  52   2.0000      -0.449074       -12.2199
  53   2.0000      -0.441294       -12.0082
  54   2.0000      -0.432553       -11.7704
  55   2.0000      -0.412540       -11.2258
  56   2.0000      -0.398423       -10.8416
  57   2.0000      -0.393545       -10.7089
  58   2.0000      -0.383031       -10.4228
  59   2.0000      -0.380239       -10.3468
  60   2.0000      -0.376885       -10.2556
  61   2.0000      -0.376745       -10.2518
  62   2.0000      -0.370842       -10.0911
  63   2.0000      -0.355163        -9.6645
  64   2.0000      -0.352580        -9.5942
  65   2.0000      -0.348485        -9.4827
  66   2.0000      -0.320184        -8.7126
  67   2.0000      -0.307113        -8.3570
  68   2.0000      -0.292665        -7.9638
  69   2.0000      -0.286070        -7.7844
  70   2.0000      -0.278594        -7.5809
  71   2.0000      -0.273215        -7.4346
  72   2.0000      -0.267988        -7.2923
  73   2.0000      -0.249733        -6.7956
  74   2.0000      -0.208603        -5.6764
  75   0.0000      -0.063496        -1.7278
  76   0.0000      -0.017605        -0.4791
  77   0.0000      -0.006816        -0.1855
  78   0.0000       0.008503         0.2314
  79   0.0000       0.023658         0.6438

MULLIKEN ATOMIC CHARGES
-----------------------
   0 C :   -0.445936
   1 C :   -0.143347
   2 N :   -0.029614
   3 N :   -0.066662
   4 N :   -0.325460
   5 C :    0.409268
   6 C :   -0.221497
   7 S :    0.307202
   8 C :   -0.023197
   9 C :    0.157982
  10 C :   -0.160306
  11 C :   -0.116626
  12 C :   -0.201417
  13 C :    0.412078
  14 F :   -0.315531
  15 C :   -0.280879
  16 N :   -0.428244
  17 C :    0.489035
  18 O :   -0.635577
  19 N :   -0.299885
  20 H :    0.175042
  21 H :    0.156480
  22 H :    0.173643
  23 H :    0.188518
  24 H :    0.187931
  25 H :    0.158836
  26 H :    0.144405
  27 H :    0.147744
  28 H :    0.162481
  29 H :    0.423534
Sum of atomic charges:   -0.0000000

LOEWDIN ATOMIC CHARGES
----------------------
   0 C :   -0.362362
   1 C :   -0.152409
   2 N :    0.097238
   3 N :   -0.076288
   4 N :   -0.126789
   5 C :   -0.005427
   6 C :   -0.245000
   7 S :    0.432051
   8 C :   -0.118323
   9 C :   -0.020152
  10 C :   -0.116585
  11 C :   -0.117425
  12 C :   -0.152238
  13 C :    0.119826
  14 F :   -0.101417
  15 C :   -0.154236
  16 N :   -0.184365
  17 C :    0.092598
  18 O :   -0.326216
  19 N :   -0.123169
  20 H :    0.139300
  21 H :    0.134512
  22 H :    0.138709
  23 H :    0.150461
  24 H :    0.149817
  25 H :    0.148708
  26 H :    0.139851
  27 H :    0.144855
  28 H :    0.151020
  29 H :    0.343455

  Mayer bond orders larger than 0.100000
B(  0-C ,  1-C ) :   1.0039 B(  0-C , 20-H ) :   0.9436 B(  0-C , 21-H ) :   0.9425
B(  0-C , 22-H ) :   0.9441 B(  1-C ,  2-N ) :   0.8988 B(  1-C , 23-H ) :   0.9266
B(  1-C , 24-H ) :   0.9271 B(  2-N ,  3-N ) :   1.2400 B(  2-N , 19-N ) :   1.2224
B(  3-N ,  4-N ) :   1.4312 B(  3-N , 19-N ) :   0.1309 B(  4-N ,  5-C ) :   1.2864
B(  5-C ,  6-C ) :   1.0423 B(  5-C , 19-N ) :   1.3849 B(  6-C ,  7-S ) :   1.0935
B(  6-C ,  8-C ) :   0.1239 B(  6-C , 17-C ) :   1.4218 B(  7-S ,  8-C ) :   1.1544
B(  8-C ,  9-C ) :   1.0249 B(  8-C , 16-N ) :   1.4414 B(  9-C , 10-C ) :   1.4085
B(  9-C , 15-C ) :   1.3568 B( 10-C , 11-C ) :   1.4347 B( 10-C , 25-H ) :   0.9124
B( 11-C , 12-C ) :   1.4225 B( 11-C , 26-H ) :   0.9289 B( 12-C , 13-C ) :   1.3883
B( 12-C , 27-H ) :   0.9203 B( 13-C , 14-F ) :   0.9148 B( 13-C , 15-C ) :   1.3925
B( 15-C , 28-H ) :   0.9067 B( 16-N , 17-C ) :   1.2893 B( 17-C , 18-O ) :   0.9960
B( 18-O , 29-H ) :   0.7561

FINAL SINGLE POINT ENERGY     -1309.665215270837

DIPOLE MOMENT
-------------

Method             : SCF
Type of density    : Electron Density
Multiplicity       :   1
Irrep              :   0
Energy             : -1309.6652152708365975 Eh
Relativity type    :
Basis              : AO
                                X                 Y                 Z
Electronic contribution:    -18.706382719       7.473174942       3.220601931
Nuclear contribution   :     19.279237736      -8.876434813      -3.528977560
                        -----------------------------------------
Total Dipole Moment    :      0.572855017      -1.403259872      -0.308375630
                        -----------------------------------------
Magnitude (a.u.)       :      1.546737427
Magnitude (Debye)      :      3.931494097

Rotational constants in cm-1:             0.033506             0.004021             0.003638
Rotational constants in MHz :          1004.480907           120.535406           109.063255

                             ****ORCA TERMINATED NORMALLY****
TOTAL RUN TIME: 0 days 0 hours 3 minutes 39 seconds 657 msec
