                         Program Version 6.0.0  -   RELEASE  -
|  1> ! B3LYP 6-31G* SP
|  2>
|  3> * xyz 0 1
|  4> C 2.0158 -1.4851 1.4371
|  5> C 0.7668 -1.8304 0.6732
|  6> C 0.4774 -3.1743 0.3950
|  7> C -0.6577 -3.5116 -0.3518
|  8> C -0.9728 -4.8497 -0.6307
|  9> C -2.1148 -5.1573 -1.3751
| 10> C -2.9460 -4.1357 -1.8446
| 11> C -2.6402 -2.7970 -1.5757
| 12> Cl -3.7063 -1.5326 -2.1730
| 13> C -1.4937 -2.4803 -0.8308
| 14> N -1.1803 -1.1847 -0.5694
| 15> C -0.0856 -0.8332 0.1562
| 16> N 0.1740 0.5553 0.3856
| 17> C 0.6730 1.3833 -0.7133
| 18> C 2.1074 1.0423 -1.0029
| 19> C 3.1356 1.6202 -0.2436
| 20> C 4.4676 1.2602 -0.4685
| 21> C 4.7884 0.3022 -1.4501
| 22> O 6.1065 -0.1042 -1.7125
| 23> C 7.2663 0.3763 -1.0366
| 24> F 7.3992 1.7395 -1.2300
| 25> F 7.1814 0.0959 0.3153
| 26> F 8.3800 -0.2561 -1.5529
| 27> C 3.7569 -0.2787 -2.1983
| 28> C 2.4258 0.0839 -1.9764
| 29> S -0.5654 1.3117 1.7588
| 30> O 0.3001 2.4413 2.2421
| 31> O -0.7111 0.3165 2.8767
| 32> C -2.1529 1.9062 1.2898
| 33> C -3.2267 1.0145 1.1843
| 34> C -4.4835 1.4693 0.7747
| 35> C -4.6818 2.8259 0.4598
| 36> C -6.0094 3.3141 0.0250
| 37> O -6.9913 2.5249 -0.0411
| 38> O -6.1866 4.6527 -0.3163
| 39> C -3.5969 3.7143 0.5604
| 40> C -2.3410 3.2563 0.9699
| 41> H 2.2596 -2.2855 2.1670
| 42> H 1.8952 -0.5398 2.0048
| 43> H 2.8631 -1.3768 0.7295
| 44> H 1.1353 -3.9541 0.7614
| 45> H -0.3396 -5.6533 -0.2736
| 46> H -2.3576 -6.1901 -1.5876
| 47> H -3.8290 -4.3863 -2.4181
| 48> H 0.0446 1.2243 -1.6169
| 49> H 0.5921 2.4619 -0.4571
| 50> H 2.9043 2.3450 0.5273
| 51> H 5.2352 1.7280 0.1317
| 52> H 3.9887 -1.0203 -2.9525
| 53> H 1.6431 -0.3890 -2.5562
| 54> H -3.0904 -0.0352 1.4129
| 55> H -5.2979 0.7586 0.7006
| 56> H -7.0918 4.9987 -0.6130
| 57> H -3.7165 4.7632 0.3201
| 58> H -1.5166 3.9545 1.0298
| 59> *
| 60>
| 61>                          ****END OF INPUT****

CARTESIAN COORDINATES (ANGSTROEM)
---------------------------------
  C      2.015800   -1.485100    1.437100
  C      0.766800   -1.830400    0.673200
  C      0.477400   -3.174300    0.395000
  C     -0.657700   -3.511600   -0.351800
  C     -0.972800   -4.849700   -0.630700
  C     -2.114800   -5.157300   -1.375100
  C     -2.946000   -4.135700   -1.844600
  C     -2.640200   -2.797000   -1.575700
  Cl    -3.706300   -1.532600   -2.173000
  C     -1.493700   -2.480300   -0.830800
  N     -1.180300   -1.184700   -0.569400
  C     -0.085600   -0.833200    0.156200
  N      0.174000    0.555300    0.385600
  C      0.673000    1.383300   -0.713300
  C      2.107400    1.042300   -1.002900
  C      3.135600    1.620200   -0.243600
  C      4.467600    1.260200   -0.468500
  C      4.788400    0.302200   -1.450100
  O      6.106500   -0.104200   -1.712500
  C      7.266300    0.376300   -1.036600
  F      7.399200    1.739500   -1.230000
  F      7.181400    0.095900    0.315300
  F      8.380000   -0.256100   -1.552900
  C      3.756900   -0.278700   -2.198300
  C      2.425800    0.083900   -1.976400
  S     -0.565400    1.311700    1.758800
  O      0.300100    2.441300    2.242100
  O     -0.711100    0.316500    2.876700
  C     -2.152900    1.906200    1.289800
  C     -3.226700    1.014500    1.184300
  C     -4.483500    1.469300    0.774700
  C     -4.681800    2.825900    0.459800
  C     -6.009400    3.314100    0.025000
  O     -6.991300    2.524900   -0.041100
  O     -6.186600    4.652700   -0.316300
  C     -3.596900    3.714300    0.560400
  C     -2.341000    3.256300    0.969900
  H      2.259600   -2.285500    2.167000
  H      1.895200   -0.539800    2.004800
  H      2.863100   -1.376800    0.729500
  H      1.135300   -3.954100    0.761400
  H     -0.339600   -5.653300   -0.273600
  H     -2.357600   -6.190100   -1.587600
  H     -3.829000   -4.386300   -2.418100
  H      0.044600    1.224300   -1.616900
  H      0.592100    2.461900   -0.457100
  H      2.904300    2.345000    0.527300
  H      5.235200    1.728000    0.131700
  H      3.988700   -1.020300   -2.952500
  H      1.643100   -0.389000   -2.556200
  H     -3.090400   -0.035200    1.412900
  H     -5.297900    0.758600    0.700600
  H     -7.091800    4.998700   -0.613000
  H     -3.716500    4.763200    0.320100
  H     -1.516600    3.954500    1.029800

 Total Charge           Charge          ....    0
 Multiplicity           Mult            ....    1
 Number of Electrons    NEL             ....  282
 Basis Dimension        Dim             ....  562

ORBITAL ENERGIES
----------------

  NO   OCC          E(Eh)            E(eV)
   0   2.0000    -101.531178     -2762.8038
   1   2.0000     -89.100845     -2424.5573
   2   2.0000     -24.743273      -673.2987
   3   2.0000     -24.741046      -673.2381
   4   2.0000     -24.740740      -673.2298
   5   2.0000     -19.216086      -522.8963
   6   2.0000     -19.193574      -522.2837
   7   2.0000     -19.134748      -520.6830
   8   2.0000     -19.133085      -520.6377
   9   2.0000     -19.130482      -520.5669
  10   2.0000     -14.377442      -391.2301
  11   2.0000     -14.343070      -390.2948
  12   2.0000     -10.506192      -285.8880
  13   2.0000     -10.332191      -281.1532
  14   2.0000     -10.274286      -279.5775
  15   2.0000     -10.273410      -279.5537
  16   2.0000     -10.255690      -279.0715
  17   2.0000     -10.239519      -278.6315
  18   2.0000     -10.238508      -278.6040
  19   2.0000     -10.237197      -278.5683
  20   2.0000     -10.227866      -278.3144
  21   2.0000     -10.217023      -278.0193
  22   2.0000     -10.215357      -277.9740
  23   2.0000     -10.214955      -277.9631
  24   2.0000     -10.213638      -277.9272
  25   2.0000     -10.212345      -277.8920
  26   2.0000     -10.212331      -277.8916
  27   2.0000     -10.210046      -277.8295
  28   2.0000     -10.208627      -277.7909
  29   2.0000     -10.206489      -277.7327
  30   2.0000     -10.202951      -277.6364
  31   2.0000     -10.201818      -277.6056
  32   2.0000     -10.201608      -277.5999
  33   2.0000     -10.201170      -277.5879
  34   2.0000     -10.199712      -277.5483
  35   2.0000     -10.197698      -277.4935
  36   2.0000     -10.177488      -276.9435
  37   2.0000      -9.462316      -257.4827
  38   2.0000      -8.136766      -221.4127
  39   2.0000      -7.225573      -196.6178
  40   2.0000      -7.216085      -196.3597
  41   2.0000      -7.215377      -196.3404
  42   2.0000      -6.101792      -166.0382
  43   2.0000      -6.099879      -165.9862
  44   2.0000      -6.099285      -165.9700
  45   2.0000      -1.306279       -35.5457
  46   2.0000      -1.226832       -33.3838
  47   2.0000      -1.226420       -33.3726
  48   2.0000      -1.088872       -29.6297
  49   2.0000      -1.086087       -29.5539
  50   2.0000      -1.077746       -29.3270
  51   2.0000      -0.991703       -26.9856
  52   2.0000      -0.976553       -26.5734
  53   2.0000      -0.967481       -26.3265
  54   2.0000      -0.931933       -25.3592
  55   2.0000      -0.886694       -24.1282
  56   2.0000      -0.880310       -23.9545
  57   2.0000      -0.867907       -23.6170
  58   2.0000      -0.849623       -23.1194
  59   2.0000      -0.817980       -22.2584
  60   2.0000      -0.805185       -21.9102
  61   2.0000      -0.791638       -21.5416
  62   2.0000      -0.774012       -21.0620
  63   2.0000      -0.772101       -21.0099
  64   2.0000      -0.762565       -20.7505
  65   2.0000      -0.743130       -20.2216
  66   2.0000      -0.731686       -19.9102
  67   2.0000      -0.708491       -19.2790
  68   2.0000      -0.698808       -19.0155
  69   2.0000      -0.685937       -18.6653
  70   2.0000      -0.665117       -18.0988
  71   2.0000      -0.638992       -17.3879
  72   2.0000      -0.636439       -17.3184
  73   2.0000      -0.628626       -17.1058
  74   2.0000      -0.625437       -17.0190
  75   2.0000      -0.616544       -16.7770
  76   2.0000      -0.607582       -16.5331
  77   2.0000      -0.598279       -16.2800
  78   2.0000      -0.596760       -16.2387
  79   2.0000      -0.594129       -16.1671
  80   2.0000      -0.577025       -15.7016
  81   2.0000      -0.564063       -15.3489
  82   2.0000      -0.545105       -14.8331
  83   2.0000      -0.538829       -14.6623
  84   2.0000      -0.525226       -14.2921
  85   2.0000      -0.507948       -13.8220
  86   2.0000      -0.501856       -13.6562
  87   2.0000      -0.494742       -13.4626
  88   2.0000      -0.487552       -13.2670
  89   2.0000      -0.485077       -13.1996
  90   2.0000      -0.476952       -12.9785
  91   2.0000      -0.472409       -12.8549
  92   2.0000      -0.471898       -12.8410
  93   2.0000      -0.468856       -12.7582
  94   2.0000      -0.465502       -12.6669
  95   2.0000      -0.461592       -12.5605
  96   2.0000      -0.457826       -12.4581
  97   2.0000      -0.451375       -12.2825
  98   2.0000      -0.448822       -12.2131
  99   2.0000      -0.447768       -12.1844
 100   2.0000      -0.444631       -12.0990
 101   2.0000      -0.439416       -11.9571
 102   2.0000      -0.438472       -11.9314
 103   2.0000      -0.437292       -11.8993
 104   2.0000      -0.436304       -11.8724
 105   2.0000      -0.431509       -11.7420
 106   2.0000      -0.425286       -11.5726
 107   2.0000      -0.418407       -11.3854
 108   2.0000      -0.416017       -11.3204
 109   2.0000      -0.414194       -11.2708
 110   2.0000      -0.412618       -11.2279
 111   2.0000      -0.409887       -11.1536
 112   2.0000      -0.406695       -11.0667
 113   2.0000      -0.391341       -10.6489
 114   2.0000      -0.388708       -10.5773
 115   2.0000      -0.385187       -10.4815
 116   2.0000      -0.384073       -10.4512
 117   2.0000      -0.382005       -10.3949
 118   2.0000      -0.379425       -10.3247
 119   2.0000      -0.365496        -9.9457
 120   2.0000      -0.363471        -9.8905
 121   2.0000      -0.361360        -9.8331
 122   2.0000      -0.351888        -9.5753
 123   2.0000      -0.349897        -9.5212
 124   2.0000      -0.343841        -9.3564
 125   2.0000      -0.329876        -8.9764
 126   2.0000      -0.319074        -8.6825
 127   2.0000      -0.312972        -8.5164
 128   2.0000      -0.308460        -8.3936
 129   2.0000      -0.300114        -8.1665
 130   2.0000      -0.296434        -8.0664
 131   2.0000      -0.286584        -7.7984
 132   2.0000      -0.278965        -7.5910
 133   2.0000      -0.275534        -7.4977
 134   2.0000      -0.271249        -7.3811
 135   2.0000      -0.268294        -7.3006
 136   2.0000      -0.266691        -7.2570
 137   2.0000      -0.263379        -7.1669
 138   2.0000      -0.257961        -7.0195
 139   2.0000      -0.243599        -6.6287
 140   2.0000      -0.231936        -6.3113
 141   0.0000      -0.082829        -2.2539
 142   0.0000      -0.073955        -2.0124
 143   0.0000      -0.032787        -0.8922
 144   0.0000      -0.025674        -0.6986
 145   0.0000      -0.019158        -0.5213

MULLIKEN ATOMIC CHARGES
-----------------------
   0 C :   -0.538677
   1 C :    0.179655
   2 C :   -0.212299
   3 C :    0.191668
   4 C :   -0.207828
   5 C :   -0.119042
   6 C :   -0.141188
   7 C :   -0.111200
   8 Cl:    0.009173
   9 C :    0.202587
  10 N :   -0.438303
  11 C :    0.313119
  12 N :   -0.599339
  13 C :   -0.247662
  14 C :    0.157844
  15 C :   -0.166586
  16 C :   -0.191042
  17 C :    0.352772
  18 O :   -0.545315
  19 C :    1.086528
  20 F :   -0.290522
  21 F :   -0.290469
  22 F :   -0.278565
  23 C :   -0.174800
  24 C :   -0.171315
  25 S :    1.226340
  26 O :   -0.551879
  27 O :   -0.552990
  28 C :   -0.121842
  29 C :   -0.123083
  30 C :   -0.139903
  31 C :    0.082463
  32 C :    0.528067
  33 O :   -0.444669
  34 O :   -0.624303
  35 C :   -0.146186
  36 C :   -0.153639
  37 H :    0.154535
  38 H :    0.201927
  39 H :    0.175424
  40 H :    0.147115
  41 H :    0.140981
  42 H :    0.145388
  43 H :    0.158627
  44 H :    0.175232
  45 H :    0.180743
  46 H :    0.167684
  47 H :    0.158036
  48 H :    0.149968
  49 H :    0.147133
  50 H :    0.184360
  51 H :    0.183174
  52 H :    0.433312
  53 H :    0.170785
  54 H :    0.178004
Sum of atomic charges:   -0.0000000

LOEWDIN ATOMIC CHARGES
----------------------
   0 C :   -0.357636
   1 C :   -0.008271
   2 C :   -0.093096
   3 C :   -0.017872
   4 C :   -0.121733
   5 C :   -0.120354
   6 C :   -0.128060
   7 C :   -0.081125
   8 Cl:    0.052347
   9 C :    0.001882
  10 N :   -0.121579
  11 C :    0.048974
  12 N :   -0.278424
  13 C :   -0.147100
  14 C :   -0.039719
  15 C :   -0.110354
  16 C :   -0.157721
  17 C :    0.086838
  18 O :   -0.159776
  19 C :    0.359230
  20 F :   -0.104121
  21 F :   -0.104067
  22 F :   -0.086824
  23 C :   -0.143947
  24 C :   -0.124490
  25 S :    1.266422
  26 O :   -0.574593
  27 O :   -0.568588
  28 C :   -0.175763
  29 C :   -0.090536
  30 C :   -0.082443
  31 C :   -0.039033
  32 C :    0.180445
  33 O :   -0.260889
  34 O :   -0.335511
  35 C :   -0.100823
  36 C :   -0.110473
  37 H :    0.133925
  38 H :    0.153487
  39 H :    0.146056
  40 H :    0.142961
  41 H :    0.137521
  42 H :    0.140996
  43 H :    0.148724
  44 H :    0.134178
  45 H :    0.147642
  46 H :    0.150011
  47 H :    0.144499
  48 H :    0.145716
  49 H :    0.141007
  50 H :    0.160962
  51 H :    0.161910
  52 H :    0.349261
  53 H :    0.153741
  54 H :    0.156187

  Mayer bond orders larger than 0.100000
B(  0-C ,  1-C ) :   0.9949 B(  0-C , 37-H ) :   0.9403 B(  0-C , 38-H ) :   0.9217
B(  0-C , 39-H ) :   0.9204 B(  1-C ,  2-C ) :   1.4685 B(  1-C , 11-C ) :   1.3042
B(  2-C ,  3-C ) :   1.2891 B(  2-C , 40-H ) :   0.9173 B(  3-C ,  4-C ) :   1.2819
B(  3-C ,  9-C ) :   1.2416 B(  4-C ,  5-C ) :   1.5074 B(  4-C , 41-H ) :   0.9236
B(  5-C ,  6-C ) :   1.3488 B(  5-C , 42-H ) :   0.9273 B(  6-C ,  7-C ) :   1.4918
B(  6-C , 43-H ) :   0.9218 B(  7-C ,  8-Cl) :   1.0499 B(  7-C ,  9-C ) :   1.2255
B(  9-C , 10-N ) :   1.3004 B( 10-N , 11-C ) :   1.4268 B( 11-C , 12-N ) :   0.9020
B( 12-N , 13-C ) :   0.9166 B( 12-N , 25-S ) :   0.8060 B( 13-C , 14-C ) :   0.9618
B( 13-C , 44-H ) :   0.9188 B( 13-C , 45-H ) :   0.9149 B( 14-C , 15-C ) :   1.4291
B( 14-C , 24-C ) :   1.4351 B( 15-C , 16-C ) :   1.4338 B( 15-C , 46-H ) :   0.9134
B( 16-C , 17-C ) :   1.3846 B( 16-C , 47-H ) :   0.9089 B( 17-C , 18-O ) :   0.8271
B( 17-C , 23-C ) :   1.4195 B( 18-O , 19-C ) :   0.9882 B( 19-C , 20-F ) :   0.9699
B( 19-C , 21-F ) :   0.9695 B( 19-C , 22-F ) :   1.0086 B( 23-C , 24-C ) :   1.4285
B( 23-C , 48-H ) :   0.9181 B( 24-C , 49-H ) :   0.9201 B( 25-S , 26-O ) :   1.6207
B( 25-S , 27-O ) :   1.6263 B( 25-S , 28-C ) :   0.8153 B( 28-C , 29-C ) :   1.3791
B( 28-C , 36-C ) :   1.3960 B( 29-C , 30-C ) :   1.4274 B( 29-C , 50-H ) :   0.9078
B( 30-C , 31-C ) :   1.3973 B( 30-C , 51-H ) :   0.9088 B( 31-C , 32-C ) :   1.0081
B( 31-C , 35-C ) :   1.3875 B( 32-C , 33-O ) :   1.8629 B( 32-C , 34-O ) :   1.0235
B( 34-O , 52-H ) :   0.7423 B( 35-C , 36-C ) :   1.4140 B( 35-C , 53-H ) :   0.9152
B( 36-C , 54-H ) :   0.9114

FINAL SINGLE POINT ENERGY     -2605.856182331020

DIPOLE MOMENT
-------------

Method             : SCF
Type of density    : Electron Density
Multiplicity       :   1
Irrep              :   0
Energy             : -2605.8561823310196814 Eh
Relativity type    :
Basis              : AO
                                X                 Y                 Z
Electronic contribution:     22.522927695       3.905692268      -6.807732456
Nuclear contribution   :    -22.692372700      -4.512784934       5.404624908
                        -----------------------------------------
Total Dipole Moment    :     -0.169445006      -0.607092666      -1.403107548
                        -----------------------------------------
Magnitude (a.u.)       :      1.538175512
Magnitude (Debye)      :      3.909731439

Rotational constants in cm-1:             0.004375             0.001653             0.001351
Rotational constants in MHz :           131.146084            49.557124            40.492730

                             ****ORCA TERMINATED NORMALLY****
TOTAL RUN TIME: 0 days 0 hours 7 minutes 16 seconds 953 msec
