                         Program Version 6.0.0  -   RELEASE  -
|  1> ! B3LYP 6-31G* SP
|  2>
|  3> * xyz 0 1
|  4> N -0.7483 -0.7763 -2.8025
|  5> C -1.7961 -0.4516 -1.8862
|  6> O -2.9368 -0.1708 -2.3430
|  7> C -1.5950 -0.4704 -0.3850
|  8> C -1.8575 -1.8362 0.2338
|  9> C -1.5396 -3.0381 -0.4325
| 10> C -1.7487 -4.2713 0.1920
| 11> C -2.2673 -4.3229 1.4872
| 12> C -2.5752 -3.1408 2.1629
| 13> C -2.3688 -1.9050 1.5435
| 14> N -0.2845 0.0905 0.0269
| 15> C -0.2510 1.4546 0.5114
| 16> O 0.3174 1.7162 1.6064
| 17> C -0.8850 2.5560 -0.2417
| 18> C -1.5482 3.5897 0.4363
| 19> C -2.1354 4.6330 -0.2816
| 20> C -2.0424 4.6417 -1.6741
| 21> N -1.3778 3.6461 -2.3177
| 22> C -0.8010 2.6173 -1.6408
| 23> C 0.8964 -0.7857 0.2167
| 24> C 1.0390 -1.2569 1.6856
| 25> C 2.4305 -0.8188 2.1802
| 26> C 3.0182 -0.0973 1.0270
| 27> C 4.2724 0.5180 0.9797
| 28> F 5.0972 0.4943 2.0559
| 29> C 4.6651 1.1648 -0.2017
| 30> C 3.8050 1.1860 -1.3148
| 31> Cl 4.2977 1.9981 -2.7888
| 32> C 2.5508 0.5594 -1.2468
| 33> C 2.1759 -0.0737 -0.0574
| 34> H 0.1956 -1.0727 -2.4822
| 35> H -0.9277 -0.7398 -3.8303
| 36> H -2.3919 0.1963 0.0202
| 37> H -1.1210 -3.0301 -1.4289
| 38> H -1.5024 -5.1883 -0.3275
| 39> H -2.4255 -5.2789 1.9692
| 40> H -2.9692 -3.1813 3.1701
| 41> H -2.5985 -0.9986 2.0901
| 42> H -1.6226 3.5815 1.5168
| 43> H -2.6572 5.4273 0.2363
| 44> H -2.4918 5.4444 -2.2433
| 45> H -0.2578 1.8645 -2.1933
| 46> H 0.8472 -1.6741 -0.4447
| 47> H 0.9475 -2.3640 1.7400
| 48> H 0.2504 -0.8192 2.3352
| 49> H 3.0557 -1.7003 2.4387
| 50> H 2.3446 -0.1385 3.0548
| 51> H 5.6325 1.6478 -0.2537
| 52> H 1.8850 0.5743 -2.0982
| 53> *
| 54>
| 55>                          ****END OF INPUT****

CARTESIAN COORDINATES (ANGSTROEM)
---------------------------------
  N     -0.748300   -0.776300   -2.802500
  C     -1.796100   -0.451600   -1.886200
  O     -2.936800   -0.170800   -2.343000
  C     -1.595000   -0.470400   -0.385000
  C     -1.857500   -1.836200    0.233800
  C     -1.539600   -3.038100   -0.432500
  C     -1.748700   -4.271300    0.192000
  C     -2.267300   -4.322900    1.487200
  C     -2.575200   -3.140800    2.162900
  C     -2.368800   -1.905000    1.543500
  N     -0.284500    0.090500    0.026900
  C     -0.251000    1.454600    0.511400
  O      0.317400    1.716200    1.606400
  C     -0.885000    2.556000   -0.241700
  C     -1.548200    3.589700    0.436300
  C     -2.135400    4.633000   -0.281600
  C     -2.042400    4.641700   -1.674100
  N     -1.377800    3.646100   -2.317700
  C     -0.801000    2.617300   -1.640800
  C      0.896400   -0.785700    0.216700
  C      1.039000   -1.256900    1.685600
  C      2.430500   -0.818800    2.180200
  C      3.018200   -0.097300    1.027000
  C      4.272400    0.518000    0.979700
  F      5.097200    0.494300    2.055900
  C      4.665100    1.164800   -0.201700
  C      3.805000    1.186000   -1.314800
  Cl     4.297700    1.998100   -2.788800
  C      2.550800    0.559400   -1.246800
  C      2.175900   -0.073700   -0.057400
  H      0.195600   -1.072700   -2.482200
  H     -0.927700   -0.739800   -3.830300
  H     -2.391900    0.196300    0.020200
  H     -1.121000   -3.030100   -1.428900
  H     -1.502400   -5.188300   -0.327500
  H     -2.425500   -5.278900    1.969200
  H     -2.969200   -3.181300    3.170100
  H     -2.598500   -0.998600    2.090100
  H     -1.622600    3.581500    1.516800
  H     -2.657200    5.427300    0.236300
  H     -2.491800    5.444400   -2.243300
  H     -0.257800    1.864500   -2.193300
  H      0.847200   -1.674100   -0.444700
  H      0.947500   -2.364000    1.740000
  H      0.250400   -0.819200    2.335200
  H      3.055700   -1.700300    2.438700
  H      2.344600   -0.138500    3.054800
  H      5.632500    1.647800   -0.253700
  H      1.885000    0.574300   -2.098200

 Total Charge           Charge          ....    0
 Multiplicity           Mult            ....    1
 Number of Electrons    NEL             ....  220
 Basis Dimension        Dim             ....  462

ORBITAL ENERGIES
----------------

  NO   OCC          E(Eh)            E(eV)
   0   2.0000    -101.531550     -2762.8139
   1   2.0000     -24.707312      -672.3201
   2   2.0000     -19.129025      -520.5272
   3   2.0000     -19.115505      -520.1593
   4   2.0000     -14.364731      -390.8842
   5   2.0000     -14.359610      -390.7449
   6   2.0000     -14.330696      -389.9581
   7   2.0000     -10.301045      -280.3057
   8   2.0000     -10.297699      -280.2146
   9   2.0000     -10.277082      -279.6536
  10   2.0000     -10.254675      -279.0439
  11   2.0000     -10.248492      -278.8756
  12   2.0000     -10.237880      -278.5869
  13   2.0000     -10.227684      -278.3094
  14   2.0000     -10.226963      -278.2898
  15   2.0000     -10.211018      -277.8559
  16   2.0000     -10.209344      -277.8104
  17   2.0000     -10.208560      -277.7890
  18   2.0000     -10.202213      -277.6163
  19   2.0000     -10.199781      -277.5502
  20   2.0000     -10.199212      -277.5347
  21   2.0000     -10.197767      -277.4953
  22   2.0000     -10.197135      -277.4781
  23   2.0000     -10.197073      -277.4765
  24   2.0000     -10.195422      -277.4315
  25   2.0000     -10.195124      -277.4234
  26   2.0000     -10.194395      -277.4036
  27   2.0000     -10.193912      -277.3904
  28   2.0000     -10.181871      -277.0628
  29   2.0000     -10.177200      -276.9357
  30   2.0000      -9.463298      -257.5094
  31   2.0000      -7.226392      -196.6401
  32   2.0000      -7.216857      -196.3807
  33   2.0000      -7.216604      -196.3738
  34   2.0000      -1.219225       -33.1768
  35   2.0000      -1.026894       -27.9432
  36   2.0000      -1.014992       -27.6193
  37   2.0000      -0.936063       -25.4716
  38   2.0000      -0.932106       -25.3639
  39   2.0000      -0.896517       -24.3955
  40   2.0000      -0.885995       -24.1091
  41   2.0000      -0.866628       -23.5821
  42   2.0000      -0.858907       -23.3720
  43   2.0000      -0.810280       -22.0488
  44   2.0000      -0.804062       -21.8796
  45   2.0000      -0.783529       -21.3209
  46   2.0000      -0.775417       -21.1002
  47   2.0000      -0.762096       -20.7377
  48   2.0000      -0.756247       -20.5785
  49   2.0000      -0.728251       -19.8167
  50   2.0000      -0.709782       -19.3141
  51   2.0000      -0.695365       -18.9218
  52   2.0000      -0.654100       -17.7990
  53   2.0000      -0.635617       -17.2960
  54   2.0000      -0.626253       -17.0412
  55   2.0000      -0.623602       -16.9691
  56   2.0000      -0.610118       -16.6021
  57   2.0000      -0.599663       -16.3177
  58   2.0000      -0.591272       -16.0893
  59   2.0000      -0.581511       -15.8237
  60   2.0000      -0.559907       -15.2359
  61   2.0000      -0.540827       -14.7167
  62   2.0000      -0.534407       -14.5419
  63   2.0000      -0.530960       -14.4482
  64   2.0000      -0.517992       -14.0953
  65   2.0000      -0.512979       -13.9589
  66   2.0000      -0.507149       -13.8002
  67   2.0000      -0.495433       -13.4814
  68   2.0000      -0.490149       -13.3376
  69   2.0000      -0.485094       -13.2001
  70   2.0000      -0.474761       -12.9189
  71   2.0000      -0.472157       -12.8481
  72   2.0000      -0.461722       -12.5641
  73   2.0000      -0.450600       -12.2615
  74   2.0000      -0.447945       -12.1892
  75   2.0000      -0.445498       -12.1226
  76   2.0000      -0.441708       -12.0195
  77   2.0000      -0.433174       -11.7873
  78   2.0000      -0.431061       -11.7298
  79   2.0000      -0.420549       -11.4437
  80   2.0000      -0.412922       -11.2362
  81   2.0000      -0.409934       -11.1549
  82   2.0000      -0.403098       -10.9688
  83   2.0000      -0.402053       -10.9404
  84   2.0000      -0.400588       -10.9006
  85   2.0000      -0.390324       -10.6213
  86   2.0000      -0.385765       -10.4972
  87   2.0000      -0.384608       -10.4657
  88   2.0000      -0.379166       -10.3176
  89   2.0000      -0.371513       -10.1094
  90   2.0000      -0.367436        -9.9985
  91   2.0000      -0.364687        -9.9236
  92   2.0000      -0.356705        -9.7064
  93   2.0000      -0.353838        -9.6284
  94   2.0000      -0.350619        -9.5408
  95   2.0000      -0.347146        -9.4463
  96   2.0000      -0.346859        -9.4385
  97   2.0000      -0.317480        -8.6391
  98   2.0000      -0.314662        -8.5624
  99   2.0000      -0.288701        -7.8560
 100   2.0000      -0.276917        -7.5353
 101   2.0000      -0.272678        -7.4200
 102   2.0000      -0.266628        -7.2553
 103   2.0000      -0.262356        -7.1391
 104   2.0000      -0.260167        -7.0795
 105   2.0000      -0.257689        -7.0121
 106   2.0000      -0.249780        -6.7969
 107   2.0000      -0.243128        -6.6158
 108   2.0000      -0.237001        -6.4491
 109   2.0000      -0.227801        -6.1988
 110   0.0000      -0.058131        -1.5818
 111   0.0000      -0.030247        -0.8231
 112   0.0000      -0.024024        -0.6537
 113   0.0000      -0.019779        -0.5382
 114   0.0000      -0.012742        -0.3467

MULLIKEN ATOMIC CHARGES
-----------------------
   0 N :   -0.776874
   1 C :    0.571594
   2 O :   -0.467760
   3 C :   -0.158649
   4 C :    0.156499
   5 C :   -0.174785
   6 C :   -0.129704
   7 C :   -0.121170
   8 C :   -0.125749
   9 C :   -0.165455
  10 N :   -0.441087
  11 C :    0.431845
  12 O :   -0.452953
  13 C :    0.071017
  14 C :   -0.110473
  15 C :   -0.142747
  16 C :    0.035452
  17 N :   -0.370540
  18 C :    0.000019
  19 C :   -0.053937
  20 C :   -0.285605
  21 C :   -0.338908
  22 C :    0.047928
  23 C :    0.371928
  24 F :   -0.307882
  25 C :   -0.214639
  26 C :   -0.057657
  27 Cl:   -0.010874
  28 C :   -0.202439
  29 C :    0.121437
  30 H :    0.342205
  31 H :    0.357740
  32 H :    0.192679
  33 H :    0.134913
  34 H :    0.136045
  35 H :    0.135475
  36 H :    0.137827
  37 H :    0.138366
  38 H :    0.163692
  39 H :    0.141656
  40 H :    0.157058
  41 H :    0.166888
  42 H :    0.152321
  43 H :    0.141391
  44 H :    0.172433
  45 H :    0.152436
  46 H :    0.175210
  47 H :    0.162641
  48 H :    0.141194
Sum of atomic charges:    0.0000000

LOEWDIN ATOMIC CHARGES
----------------------
   0 N :   -0.407653
   1 C :    0.137827
   2 O :   -0.277597
   3 C :   -0.066242
   4 C :   -0.016409
   5 C :   -0.136363
   6 C :   -0.125812
   7 C :   -0.122967
   8 C :   -0.123552
   9 C :   -0.120092
  10 N :   -0.121388
  11 C :    0.147330
  12 O :   -0.255800
  13 C :   -0.068620
  14 C :   -0.074376
  15 C :   -0.142982
  16 C :   -0.052018
  17 N :   -0.128362
  18 C :   -0.051686
  19 C :   -0.046802
  20 C :   -0.227229
  21 C :   -0.220951
  22 C :   -0.034928
  23 C :    0.123050
  24 F :   -0.096666
  25 C :   -0.160627
  26 C :   -0.083005
  27 Cl:    0.041821
  28 C :   -0.153532
  29 C :   -0.020836
  30 H :    0.246178
  31 H :    0.268830
  32 H :    0.161743
  33 H :    0.134265
  34 H :    0.135057
  35 H :    0.134910
  36 H :    0.136148
  37 H :    0.135938
  38 H :    0.150046
  39 H :    0.139320
  40 H :    0.138687
  41 H :    0.141061
  42 H :    0.131863
  43 H :    0.124355
  44 H :    0.141129
  45 H :    0.132205
  46 H :    0.144258
  47 H :    0.153928
  48 H :    0.136547

  Mayer bond orders larger than 0.100000
B(  0-N ,  1-C ) :   1.0522 B(  0-N , 30-H ) :   0.8062 B(  0-N , 31-H ) :   0.8199
B(  1-C ,  2-O ) :   1.8591 B(  1-C ,  3-C ) :   0.9049 B(  3-C ,  4-C ) :   0.9651
B(  3-C , 10-N ) :   0.9208 B(  3-C , 32-H ) :   0.9038 B(  4-C ,  5-C ) :   1.4243
B(  4-C ,  9-C ) :   1.4165 B(  5-C ,  6-C ) :   1.4361 B(  5-C , 33-H ) :   0.9112
B(  6-C ,  7-C ) :   1.4558 B(  6-C , 34-H ) :   0.9285 B(  7-C ,  8-C ) :   1.4486
B(  7-C , 35-H ) :   0.9290 B(  8-C ,  9-C ) :   1.4456 B(  8-C , 36-H ) :   0.9280
B(  9-C , 37-H ) :   0.9228 B( 10-N , 11-C ) :   1.0140 B( 10-N , 19-C ) :   0.9217
B( 11-C , 12-O ) :   1.8278 B( 11-C , 13-C ) :   0.9668 B( 13-C , 14-C ) :   1.3961
B( 13-C , 18-C ) :   1.3539 B( 14-C , 15-C ) :   1.4451 B( 14-C , 38-H ) :   0.9179
B( 15-C , 16-C ) :   1.4072 B( 15-C , 39-H ) :   0.9238 B( 16-C , 17-N ) :   1.4320
B( 16-C , 40-H ) :   0.9292 B( 17-N , 18-C ) :   1.4190 B( 18-C , 41-H ) :   0.9116
B( 19-C , 20-C ) :   0.9607 B( 19-C , 29-C ) :   0.9794 B( 19-C , 42-H ) :   0.9144
B( 20-C , 21-C ) :   0.9828 B( 20-C , 43-H ) :   0.9408 B( 20-C , 44-H ) :   0.9377
B( 21-C , 22-C ) :   0.9802 B( 21-C , 45-H ) :   0.9317 B( 21-C , 46-H ) :   0.9278
B( 22-C , 23-C ) :   1.3116 B( 22-C , 29-C ) :   1.4779 B( 23-C , 24-F ) :   0.9463
B( 23-C , 25-C ) :   1.3860 B( 25-C , 26-C ) :   1.3798 B( 25-C , 47-H ) :   0.9140
B( 26-C , 27-Cl) :   1.0156 B( 26-C , 28-C ) :   1.4059 B( 28-C , 29-C ) :   1.3913
B( 28-C , 48-H ) :   0.9093

FINAL SINGLE POINT ENERGY     -1761.755288566059

DIPOLE MOMENT
-------------

Method             : SCF
Type of density    : Electron Density
Multiplicity       :   1
Irrep              :   0
Energy             : -1761.7552885660591073 Eh
Relativity type    :
Basis              : AO
                                X                 Y                 Z
Electronic contribution:     22.665840309      14.192973548      -7.968702611
Nuclear contribution   :    -22.800928940     -15.402805238       8.550587000
                        -----------------------------------------
Total Dipole Moment    :     -0.135088631      -1.209831689       0.581884389
                        -----------------------------------------
Magnitude (a.u.)       :      1.349270580
Magnitude (Debye)      :      3.429573261

Rotational constants in cm-1:             0.005551             0.004241             0.003138
Rotational constants in MHz :           166.413025           127.139086            94.082448

                             ****ORCA TERMINATED NORMALLY****
TOTAL RUN TIME: 0 days 0 hours 8 minutes 21 seconds 547 msec
