                         Program Version 6.0.0  -   RELEASE  -
|  1> ! B3LYP 6-31G* SP
|  2>
|  3> * xyz 0 1
|  4> C -1.8195 1.6894 1.8283
|  5> C -0.9702 2.2264 0.6985
|  6> C -0.4323 1.3529 -0.2755
|  7> N -0.5723 -0.0695 -0.1644
|  8> C 0.2638 -0.8145 0.7825
|  9> C 1.7108 -0.6668 0.4279
| 10> C 2.3575 -1.3269 -0.6168
| 11> C 3.6835 -0.9067 -0.7700
| 12> C 4.5897 -1.3671 -1.7310
| 13> C 5.8877 -0.8273 -1.7523
| 14> C 6.2652 0.1618 -0.8199
| 15> Cl 7.8895 0.8242 -0.8584
| 16> C 5.3438 0.6211 0.1378
| 17> C 4.0642 0.0701 0.1385
| 18> S 2.7697 0.4435 1.1415
| 19> S -1.4578 -0.9168 -1.3939
| 20> O -0.5091 -1.3481 -2.4772
| 21> O -2.4978 -0.0100 -1.9916
| 22> C -2.2689 -2.3130 -0.6903
| 23> C -3.2546 -2.1211 0.2896
| 24> C -3.8740 -3.2201 0.8912
| 25> C -3.5131 -4.5296 0.5203
| 26> C -4.1403 -5.6987 1.1746
| 27> O -5.0457 -5.5362 2.0427
| 28> O -3.7283 -6.9878 0.8475
| 29> C -2.5301 -4.7145 -0.4719
| 30> C -1.9119 -3.6140 -1.0710
| 31> N 0.2633 1.8540 -1.3304
| 32> C 0.4937 3.1782 -1.4909
| 33> C 0.0282 4.0895 -0.5397
| 34> C 0.2855 5.4610 -0.6899
| 35> C -0.1826 6.3712 0.2597
| 36> C -0.9043 5.9191 1.3644
| 37> C -1.1683 4.5561 1.5269
| 38> C -0.7116 3.6171 0.5743
| 39> H -1.2778 1.8085 2.7913
| 40> H -2.7844 2.2392 1.8702
| 41> H -2.0778 0.6194 1.7005
| 42> H 0.0916 -0.4429 1.8140
| 43> H 0.0010 -1.8928 0.7715
| 44> H 1.8835 -2.0695 -1.2440
| 45> H 4.3003 -2.1237 -2.4500
| 46> H 6.5988 -1.1759 -2.4920
| 47> H 5.6164 1.3849 0.8541
| 48> H -3.5380 -1.1196 0.5934
| 49> H -4.6279 -3.0441 1.6526
| 50> H -4.1403 -7.7943 1.3000
| 51> H -2.2312 -5.7113 -0.7803
| 52> H -1.1493 -3.7798 -1.8231
| 53> H 1.0556 3.5162 -2.3528
| 54> H 0.8451 5.8290 -1.5415
| 55> H 0.0187 7.4294 0.1409
| 56> H -1.2619 6.6289 2.1005
| 57> H -1.7259 4.2516 2.4037
| 58> *
| 59>
| 60>                          ****END OF INPUT****

CARTESIAN COORDINATES (ANGSTROEM)
---------------------------------
  C     -1.819500    1.689400    1.828300
  C     -0.970200    2.226400    0.698500
  C     -0.432300    1.352900   -0.275500
  N     -0.572300   -0.069500   -0.164400
  C      0.263800   -0.814500    0.782500
  C      1.710800   -0.666800    0.427900
  C      2.357500   -1.326900   -0.616800
  C      3.683500   -0.906700   -0.770000
  C      4.589700   -1.367100   -1.731000
  C      5.887700   -0.827300   -1.752300
  C      6.265200    0.161800   -0.819900
  Cl     7.889500    0.824200   -0.858400
  C      5.343800    0.621100    0.137800
  C      4.064200    0.070100    0.138500
  S      2.769700    0.443500    1.141500
  S     -1.457800   -0.916800   -1.393900
  O     -0.509100   -1.348100   -2.477200
  O     -2.497800   -0.010000   -1.991600
  C     -2.268900   -2.313000   -0.690300
  C     -3.254600   -2.121100    0.289600
  C     -3.874000   -3.220100    0.891200
  C     -3.513100   -4.529600    0.520300
  C     -4.140300   -5.698700    1.174600
  O     -5.045700   -5.536200    2.042700
  O     -3.728300   -6.987800    0.847500
  C     -2.530100   -4.714500   -0.471900
  C     -1.911900   -3.614000   -1.071000
  N      0.263300    1.854000   -1.330400
  C      0.493700    3.178200   -1.490900
  C      0.028200    4.089500   -0.539700
  C      0.285500    5.461000   -0.689900
  C     -0.182600    6.371200    0.259700
  C     -0.904300    5.919100    1.364400
  C     -1.168300    4.556100    1.526900
  C     -0.711600    3.617100    0.574300
  H     -1.277800    1.808500    2.791300
  H     -2.784400    2.239200    1.870200
  H     -2.077800    0.619400    1.700500
  H      0.091600   -0.442900    1.814000
  H      0.001000   -1.892800    0.771500
  H      1.883500   -2.069500   -1.244000
  H      4.300300   -2.123700   -2.450000
  H      6.598800   -1.175900   -2.492000
  H      5.616400    1.384900    0.854100
  H     -3.538000   -1.119600    0.593400
  H     -4.627900   -3.044100    1.652600
  H     -4.140300   -7.794300    1.300000
  H     -2.231200   -5.711300   -0.780300
  H     -1.149300   -3.779800   -1.823100
  H      1.055600    3.516200   -2.352800
  H      0.845100    5.829000   -1.541500
  H      0.018700    7.429400    0.140900
  H     -1.261900    6.628900    2.100500
  H     -1.725900    4.251600    2.403700

 Total Charge           Charge          ....    0
 Multiplicity           Mult            ....    1
 Number of Electrons    NEL             ....  270
 Basis Dimension        Dim             ....  540

ORBITAL ENERGIES
----------------

  NO   OCC          E(Eh)            E(eV)
   0   2.0000    -101.523481     -2762.5944
   1   2.0000     -89.097666     -2424.4707
   2   2.0000     -88.886515     -2418.7251
   3   2.0000     -19.202181      -522.5179
   4   2.0000     -19.143787      -520.9289
   5   2.0000     -19.123356      -520.3730
   6   2.0000     -19.119880      -520.2784
   7   2.0000     -14.373143      -391.1131
   8   2.0000     -14.326250      -389.8371
   9   2.0000     -10.341674      -281.4113
  10   2.0000     -10.260431      -279.2005
  11   2.0000     -10.251066      -278.9457
  12   2.0000     -10.249890      -278.9137
  13   2.0000     -10.243722      -278.7459
  14   2.0000     -10.239805      -278.6393
  15   2.0000     -10.229181      -278.3502
  16   2.0000     -10.226868      -278.2872
  17   2.0000     -10.225457      -278.2488
  18   2.0000     -10.224743      -278.2294
  19   2.0000     -10.221590      -278.1436
  20   2.0000     -10.214161      -277.9415
  21   2.0000     -10.211904      -277.8800
  22   2.0000     -10.211230      -277.8617
  23   2.0000     -10.207094      -277.7492
  24   2.0000     -10.199043      -277.5301
  25   2.0000     -10.198484      -277.5149
  26   2.0000     -10.198185      -277.5067
  27   2.0000     -10.196913      -277.4721
  28   2.0000     -10.196885      -277.4713
  29   2.0000     -10.195557      -277.4352
  30   2.0000     -10.192723      -277.3581
  31   2.0000     -10.190810      -277.3060
  32   2.0000     -10.189717      -277.2763
  33   2.0000     -10.186178      -277.1800
  34   2.0000     -10.179380      -276.9950
  35   2.0000      -9.455285      -257.2914
  36   2.0000      -8.133462      -221.3227
  37   2.0000      -7.964117      -216.7146
  38   2.0000      -7.218305      -196.4201
  39   2.0000      -7.208888      -196.1638
  40   2.0000      -7.208616      -196.1564
  41   2.0000      -6.098567      -165.9504
  42   2.0000      -6.096485      -165.8938
  43   2.0000      -6.096026      -165.8813
  44   2.0000      -5.927341      -161.2912
  45   2.0000      -5.923430      -161.1847
  46   2.0000      -5.920503      -161.1051
  47   2.0000      -1.085968       -29.5507
  48   2.0000      -1.081228       -29.4217
  49   2.0000      -0.999635       -27.2014
  50   2.0000      -0.962955       -26.2033
  51   2.0000      -0.958778       -26.0897
  52   2.0000      -0.917781       -24.9741
  53   2.0000      -0.906782       -24.6748
  54   2.0000      -0.896533       -24.3959
  55   2.0000      -0.871938       -23.7266
  56   2.0000      -0.863446       -23.4956
  57   2.0000      -0.816005       -22.2046
  58   2.0000      -0.814129       -22.1536
  59   2.0000      -0.807141       -21.9634
  60   2.0000      -0.783776       -21.3276
  61   2.0000      -0.778276       -21.1780
  62   2.0000      -0.772108       -21.0101
  63   2.0000      -0.753113       -20.4932
  64   2.0000      -0.743473       -20.2309
  65   2.0000      -0.719220       -19.5710
  66   2.0000      -0.717044       -19.5118
  67   2.0000      -0.697546       -18.9812
  68   2.0000      -0.681134       -18.5346
  69   2.0000      -0.657312       -17.8864
  70   2.0000      -0.645003       -17.5514
  71   2.0000      -0.644466       -17.5368
  72   2.0000      -0.622644       -16.9430
  73   2.0000      -0.613796       -16.7022
  74   2.0000      -0.598778       -16.2936
  75   2.0000      -0.595930       -16.2161
  76   2.0000      -0.580816       -15.8048
  77   2.0000      -0.566285       -15.4094
  78   2.0000      -0.561780       -15.2868
  79   2.0000      -0.545818       -14.8525
  80   2.0000      -0.530090       -14.4245
  81   2.0000      -0.519902       -14.1473
  82   2.0000      -0.505715       -13.7612
  83   2.0000      -0.500384       -13.6162
  84   2.0000      -0.495260       -13.4767
  85   2.0000      -0.489642       -13.3238
  86   2.0000      -0.481790       -13.1102
  87   2.0000      -0.476424       -12.9642
  88   2.0000      -0.471619       -12.8334
  89   2.0000      -0.469390       -12.7727
  90   2.0000      -0.464254       -12.6330
  91   2.0000      -0.455622       -12.3981
  92   2.0000      -0.450729       -12.2650
  93   2.0000      -0.447867       -12.1871
  94   2.0000      -0.445344       -12.1184
  95   2.0000      -0.444256       -12.0888
  96   2.0000      -0.438605       -11.9350
  97   2.0000      -0.431560       -11.7433
  98   2.0000      -0.429865       -11.6972
  99   2.0000      -0.425396       -11.5756
 100   2.0000      -0.419060       -11.4032
 101   2.0000      -0.417470       -11.3599
 102   2.0000      -0.411964       -11.2101
 103   2.0000      -0.406077       -11.0499
 104   2.0000      -0.403418       -10.9775
 105   2.0000      -0.399214       -10.8632
 106   2.0000      -0.396915       -10.8006
 107   2.0000      -0.393064       -10.6958
 108   2.0000      -0.387808       -10.5528
 109   2.0000      -0.374180       -10.1820
 110   2.0000      -0.369041       -10.0421
 111   2.0000      -0.366051        -9.9608
 112   2.0000      -0.362906        -9.8752
 113   2.0000      -0.362197        -9.8559
 114   2.0000      -0.352483        -9.5915
 115   2.0000      -0.351953        -9.5771
 116   2.0000      -0.336475        -9.1560
 117   2.0000      -0.327203        -8.9036
 118   2.0000      -0.323015        -8.7897
 119   2.0000      -0.309957        -8.4344
 120   2.0000      -0.306626        -8.3437
 121   2.0000      -0.305783        -8.3208
 122   2.0000      -0.304513        -8.2862
 123   2.0000      -0.290208        -7.8970
 124   2.0000      -0.287149        -7.8137
 125   2.0000      -0.284530        -7.7424
 126   2.0000      -0.280461        -7.6317
 127   2.0000      -0.279418        -7.6033
 128   2.0000      -0.273977        -7.4553
 129   2.0000      -0.266670        -7.2565
 130   2.0000      -0.249288        -6.7835
 131   2.0000      -0.244832        -6.6622
 132   2.0000      -0.233336        -6.3494
 133   2.0000      -0.223837        -6.0909
 134   2.0000      -0.205793        -5.5999
 135   0.0000      -0.091679        -2.4947
 136   0.0000      -0.060334        -1.6418
 137   0.0000      -0.038510        -1.0479
 138   0.0000      -0.032508        -0.8846
 139   0.0000      -0.031251        -0.8504

MULLIKEN ATOMIC CHARGES
-----------------------
   0 C :   -0.547113
   1 C :    0.101388
   2 C :    0.327154
   3 N :   -0.601629
   4 C :   -0.227639
   5 C :   -0.125242
   6 C :   -0.131747
   7 C :    0.150925
   8 C :   -0.157599
   9 C :   -0.154535
  10 C :   -0.058870
  11 Cl:   -0.022392
  12 C :   -0.177340
  13 C :   -0.112888
  14 S :    0.225822
  15 S :    1.206850
  16 O :   -0.534405
  17 O :   -0.532743
  18 C :   -0.145552
  19 C :   -0.143266
  20 C :   -0.139200
  21 C :    0.081712
  22 C :    0.530504
  23 O :   -0.445147
  24 O :   -0.621827
  25 C :   -0.144652
  26 C :   -0.143695
  27 N :   -0.360589
  28 C :   -0.043028
  29 C :    0.135629
  30 C :   -0.201439
  31 C :   -0.126469
  32 C :   -0.120359
  33 C :   -0.199506
  34 C :    0.125360
  35 H :    0.163079
  36 H :    0.170022
  37 H :    0.165939
  38 H :    0.166359
  39 H :    0.182135
  40 H :    0.156158
  41 H :    0.142996
  42 H :    0.148773
  43 H :    0.155759
  44 H :    0.182855
  45 H :    0.182848
  46 H :    0.436173
  47 H :    0.177018
  48 H :    0.192566
  49 H :    0.158036
  50 H :    0.142353
  51 H :    0.136983
  52 H :    0.137330
  53 H :    0.136145
Sum of atomic charges:   -0.0000000

LOEWDIN ATOMIC CHARGES
----------------------
   0 C :   -0.360631
   1 C :   -0.012309
   2 C :    0.036018
   3 N :   -0.283026
   4 C :   -0.149463
   5 C :   -0.195899
   6 C :   -0.143821
   7 C :   -0.039186
   8 C :   -0.112195
   9 C :   -0.140894
  10 C :   -0.091631
  11 Cl:    0.033440
  12 C :   -0.139658
  13 C :   -0.166476
  14 S :    0.376620
  15 S :    1.260440
  16 O :   -0.572498
  17 O :   -0.566547
  18 C :   -0.176117
  19 C :   -0.104044
  20 C :   -0.085718
  21 C :   -0.036810
  22 C :    0.181640
  23 O :   -0.261816
  24 O :   -0.332514
  25 C :   -0.097620
  26 C :   -0.103542
  27 N :   -0.108739
  28 C :   -0.051623
  29 C :   -0.026433
  30 C :   -0.109498
  31 C :   -0.125683
  32 C :   -0.117130
  33 C :   -0.125043
  34 C :   -0.005430
  35 H :    0.137114
  36 H :    0.140939
  37 H :    0.134438
  38 H :    0.134368
  39 H :    0.149879
  40 H :    0.147213
  41 H :    0.141398
  42 H :    0.143156
  43 H :    0.147568
  44 H :    0.156342
  45 H :    0.161302
  46 H :    0.351093
  47 H :    0.156641
  48 H :    0.163892
  49 H :    0.140266
  50 H :    0.138713
  51 H :    0.135849
  52 H :    0.136345
  53 H :    0.137317

  Mayer bond orders larger than 0.100000
B(  0-C ,  1-C ) :   0.9969 B(  0-C , 35-H ) :   0.9262 B(  0-C , 36-H ) :   0.9279
B(  0-C , 37-H ) :   0.9290 B(  1-C ,  2-C ) :   1.4425 B(  1-C , 28-C ) :   0.1002
B(  1-C , 34-C ) :   1.2641 B(  2-C ,  3-N ) :   0.8881 B(  2-C , 27-N ) :   1.2786
B(  3-N ,  4-C ) :   0.9422 B(  3-N , 15-S ) :   0.7964 B(  4-C ,  5-C ) :   0.9699
B(  4-C , 38-H ) :   0.9204 B(  4-C , 39-H ) :   0.9185 B(  5-C ,  6-C ) :   1.5797
B(  5-C , 14-S ) :   1.0970 B(  6-C ,  7-C ) :   1.2551 B(  6-C , 40-H ) :   0.9105
B(  7-C ,  8-C ) :   1.3317 B(  7-C , 13-C ) :   1.3359 B(  8-C ,  9-C ) :   1.4784
B(  8-C , 41-H ) :   0.9230 B(  9-C , 10-C ) :   1.3504 B(  9-C , 42-H ) :   0.9247
B( 10-C , 11-Cl) :   1.0091 B( 10-C , 12-C ) :   1.4512 B( 12-C , 13-C ) :   1.3328
B( 12-C , 43-H ) :   0.9200 B( 13-C , 14-S ) :   1.0594 B( 15-S , 16-O ) :   1.6385
B( 15-S , 17-O ) :   1.6541 B( 15-S , 18-C ) :   0.8078 B( 18-C , 19-C ) :   1.3720
B( 18-C , 26-C ) :   1.4007 B( 19-C , 20-C ) :   1.4318 B( 19-C , 44-H ) :   0.9089
B( 20-C , 21-C ) :   1.3972 B( 20-C , 45-H ) :   0.9088 B( 21-C , 22-C ) :   1.0083
B( 21-C , 25-C ) :   1.3859 B( 22-C , 23-O ) :   1.8589 B( 22-C , 24-O ) :   1.0284
B( 24-O , 46-H ) :   0.7406 B( 25-C , 26-C ) :   1.4094 B( 25-C , 47-H ) :   0.9139
B( 26-C , 48-H ) :   0.9057 B( 27-N , 28-C ) :   1.4990 B( 28-C , 29-C ) :   1.2288
B( 28-C , 49-H ) :   0.9254 B( 29-C , 30-C ) :   1.2859 B( 29-C , 34-C ) :   1.2911
B( 30-C , 31-C ) :   1.5105 B( 30-C , 33-C ) :   0.1061 B( 30-C , 50-H ) :   0.9227
B( 31-C , 32-C ) :   1.3546 B( 31-C , 51-H ) :   0.9291 B( 32-C , 33-C ) :   1.5081
B( 32-C , 52-H ) :   0.9291 B( 33-C , 34-C ) :   1.2941 B( 33-C , 53-H ) :   0.9172

FINAL SINGLE POINT ENERGY     -2668.038829234094

DIPOLE MOMENT
-------------

Method             : SCF
Type of density    : Electron Density
Multiplicity       :   1
Irrep              :   0
Energy             : -2668.0388292340940097 Eh
Relativity type    :
Basis              : AO
                                X                 Y                 Z
Electronic contribution:     21.062431155      -6.257921880      -6.938094613
Nuclear contribution   :    -21.623863710       5.887320755       8.727216954
                        -----------------------------------------
Total Dipole Moment    :     -0.561432555      -0.370601124       1.789122342
                        -----------------------------------------
Magnitude (a.u.)       :      1.911415826
Magnitude (Debye)      :      4.858432924

Rotational constants in cm-1:             0.003801             0.002015             0.001463
Rotational constants in MHz :           113.949965            60.409300            43.872294

                             ****ORCA TERMINATED NORMALLY****
TOTAL RUN TIME: 0 days 0 hours 9 minutes 37 seconds 179 msec
