                         Program Version 6.0.0  -   RELEASE  -
|  1> ! B3LYP 6-31G* SP
|  2>
|  3> * xyz 0 1
|  4> N -6.8448 -3.7837 -0.4097
|  5> C -6.2913 -2.8191 -0.0891
|  6> C -5.5877 -1.5949 0.3171
|  7> C -4.0907 -1.5474 0.1786
|  8> C -3.2693 -2.0061 1.2196
|  9> C -1.8785 -1.9847 1.0823
| 10> C -1.2918 -1.5286 -0.1078
| 11> C 0.2049 -1.4456 -0.2315
| 12> N 0.6887 -0.1930 0.3521
| 13> C 0.3429 1.0636 -0.2395
| 14> N -0.6423 1.8134 0.3228
| 15> C -1.0211 3.0113 -0.1937
| 16> C -0.3827 3.5254 -1.3330
| 17> C -0.8340 4.8298 -1.9388
| 18> F 0.1863 5.4145 -2.6688
| 19> F -1.2187 5.7151 -0.9469
| 20> F -1.9083 4.5947 -2.7763
| 21> C 0.6227 2.7557 -1.9396
| 22> C 0.9987 1.5268 -1.3908
| 23> Cl 2.2960 0.6080 -2.1424
| 24> S 1.6947 -0.2091 1.7650
| 25> O 1.2627 -1.3131 2.6900
| 26> O 1.5631 1.0962 2.5006
| 27> C 3.3660 -0.4479 1.2735
| 28> C 4.1605 0.6524 0.9303
| 29> C 5.4793 0.4644 0.5067
| 30> C 6.0211 -0.8297 0.4177
| 31> C 7.4184 -1.0253 -0.0271
| 32> O 7.9086 -2.1844 -0.1013
| 33> O 8.2068 0.0711 -0.3673
| 34> C 5.2141 -1.9313 0.7560
| 35> C 3.8948 -1.7401 1.1774
| 36> C -2.1139 -1.0782 -1.1524
| 37> C -3.5047 -1.0991 -1.0150
| 38> C -6.1906 -0.8498 1.5008
| 39> C -6.3425 -0.2911 0.0924
| 40> H -3.7068 -2.3727 2.1399
| 41> H -1.2593 -2.3244 1.9032
| 42> H 0.5095 -1.5071 -1.2978
| 43> H 0.6703 -2.3162 0.2790
| 44> H -1.8219 3.5604 0.2843
| 45> H 1.1173 3.1083 -2.8363
| 46> H 3.7570 1.6557 0.9808
| 47> H 6.0722 1.3322 0.2472
| 48> H 9.1653 -0.0511 -0.6706
| 49> H 5.6004 -2.9409 0.6922
| 50> H 3.2856 -2.6005 1.4231
| 51> H -1.6779 -0.7064 -2.0717
| 52> H -4.1255 -0.7585 -1.8349
| 53> H -7.1324 -1.2722 1.9139
| 54> H -5.4784 -0.2723 2.1285
| 55> H -7.3738 -0.3857 -0.3112
| 56> H -5.7193 0.6112 -0.0902
| 57> *
| 58>
| 59>                          ****END OF INPUT****

CARTESIAN COORDINATES (ANGSTROEM)
---------------------------------
  N     -6.844800   -3.783700   -0.409700
  C     -6.291300   -2.819100   -0.089100
  C     -5.587700   -1.594900    0.317100
  C     -4.090700   -1.547400    0.178600
  C     -3.269300   -2.006100    1.219600
  C     -1.878500   -1.984700    1.082300
  C     -1.291800   -1.528600   -0.107800
  C      0.204900   -1.445600   -0.231500
  N      0.688700   -0.193000    0.352100
  C      0.342900    1.063600   -0.239500
  N     -0.642300    1.813400    0.322800
  C     -1.021100    3.011300   -0.193700
  C     -0.382700    3.525400   -1.333000
  C     -0.834000    4.829800   -1.938800
  F      0.186300    5.414500   -2.668800
  F     -1.218700    5.715100   -0.946900
  F     -1.908300    4.594700   -2.776300
  C      0.622700    2.755700   -1.939600
  C      0.998700    1.526800   -1.390800
  Cl     2.296000    0.608000   -2.142400
  S      1.694700   -0.209100    1.765000
  O      1.262700   -1.313100    2.690000
  O      1.563100    1.096200    2.500600
  C      3.366000   -0.447900    1.273500
  C      4.160500    0.652400    0.930300
  C      5.479300    0.464400    0.506700
  C      6.021100   -0.829700    0.417700
  C      7.418400   -1.025300   -0.027100
  O      7.908600   -2.184400   -0.101300
  O      8.206800    0.071100   -0.367300
  C      5.214100   -1.931300    0.756000
  C      3.894800   -1.740100    1.177400
  C     -2.113900   -1.078200   -1.152400
  C     -3.504700   -1.099100   -1.015000
  C     -6.190600   -0.849800    1.500800
  C     -6.342500   -0.291100    0.092400
  H     -3.706800   -2.372700    2.139900
  H     -1.259300   -2.324400    1.903200
  H      0.509500   -1.507100   -1.297800
  H      0.670300   -2.316200    0.279000
  H     -1.821900    3.560400    0.284300
  H      1.117300    3.108300   -2.836300
  H      3.757000    1.655700    0.980800
  H      6.072200    1.332200    0.247200
  H      9.165300   -0.051100   -0.670600
  H      5.600400   -2.940900    0.692200
  H      3.285600   -2.600500    1.423100
  H     -1.677900   -0.706400   -2.071700
  H     -4.125500   -0.758500   -1.834900
  H     -7.132400   -1.272200    1.913900
  H     -5.478400   -0.272300    2.128500
  H     -7.373800   -0.385700   -0.311200
  H     -5.719300    0.611200   -0.090200

 Total Charge           Charge          ....    0
 Multiplicity           Mult            ....    1
 Number of Electrons    NEL             ....  274
 Basis Dimension        Dim             ....  546

ORBITAL ENERGIES
----------------

  NO   OCC          E(Eh)            E(eV)
   0   2.0000    -101.564423     -2763.7085
   1   2.0000     -89.110653     -2424.8242
   2   2.0000     -24.742599      -673.2804
   3   2.0000     -24.741438      -673.2487
   4   2.0000     -24.738880      -673.1792
   5   2.0000     -19.201707      -522.5050
   6   2.0000     -19.143886      -520.9316
   7   2.0000     -19.140956      -520.8519
   8   2.0000     -19.137066      -520.7460
   9   2.0000     -14.389343      -391.5539
  10   2.0000     -14.370008      -391.0278
  11   2.0000     -14.324424      -389.7874
  12   2.0000     -10.460800      -284.6528
  13   2.0000     -10.341143      -281.3968
  14   2.0000     -10.304814      -280.4082
  15   2.0000     -10.290826      -280.0276
  16   2.0000     -10.263081      -279.2726
  17   2.0000     -10.250850      -278.9398
  18   2.0000     -10.250151      -278.9208
  19   2.0000     -10.250083      -278.9189
  20   2.0000     -10.245792      -278.8022
  21   2.0000     -10.244365      -278.7633
  22   2.0000     -10.238983      -278.6169
  23   2.0000     -10.228179      -278.3229
  24   2.0000     -10.227510      -278.3047
  25   2.0000     -10.224617      -278.2260
  26   2.0000     -10.224261      -278.2163
  27   2.0000     -10.217215      -278.0245
  28   2.0000     -10.208559      -277.7890
  29   2.0000     -10.208087      -277.7762
  30   2.0000     -10.207703      -277.7657
  31   2.0000     -10.202836      -277.6333
  32   2.0000     -10.196247      -277.4540
  33   2.0000     -10.195156      -277.4243
  34   2.0000     -10.192953      -277.3643
  35   2.0000     -10.190460      -277.2965
  36   2.0000      -9.495656      -258.3899
  37   2.0000      -8.146340      -221.6732
  38   2.0000      -7.258934      -197.5256
  39   2.0000      -7.249253      -197.2622
  40   2.0000      -7.248804      -197.2500
  41   2.0000      -6.111538      -166.3034
  42   2.0000      -6.109338      -166.2435
  43   2.0000      -6.108857      -166.2305
  44   2.0000      -1.301938       -35.4275
  45   2.0000      -1.227159       -33.3927
  46   2.0000      -1.225957       -33.3600
  47   2.0000      -1.096360       -29.8335
  48   2.0000      -1.086415       -29.5629
  49   2.0000      -1.000769       -27.2323
  50   2.0000      -0.995548       -27.0902
  51   2.0000      -0.974348       -26.5134
  52   2.0000      -0.940168       -25.5833
  53   2.0000      -0.909759       -24.7558
  54   2.0000      -0.904136       -24.6028
  55   2.0000      -0.897936       -24.4341
  56   2.0000      -0.881181       -23.9782
  57   2.0000      -0.858408       -23.3585
  58   2.0000      -0.846445       -23.0329
  59   2.0000      -0.815802       -22.1991
  60   2.0000      -0.794679       -21.6243
  61   2.0000      -0.784003       -21.3338
  62   2.0000      -0.779178       -21.2025
  63   2.0000      -0.754780       -20.5386
  64   2.0000      -0.736289       -20.0355
  65   2.0000      -0.726135       -19.7591
  66   2.0000      -0.699102       -19.0235
  67   2.0000      -0.678114       -18.4524
  68   2.0000      -0.661413       -17.9980
  69   2.0000      -0.660176       -17.9643
  70   2.0000      -0.646924       -17.6037
  71   2.0000      -0.632977       -17.2242
  72   2.0000      -0.626684       -17.0529
  73   2.0000      -0.610200       -16.6044
  74   2.0000      -0.601820       -16.3764
  75   2.0000      -0.598820       -16.2947
  76   2.0000      -0.593615       -16.1531
  77   2.0000      -0.592627       -16.1262
  78   2.0000      -0.581598       -15.8261
  79   2.0000      -0.572736       -15.5849
  80   2.0000      -0.550713       -14.9857
  81   2.0000      -0.545744       -14.8505
  82   2.0000      -0.538632       -14.6569
  83   2.0000      -0.526986       -14.3400
  84   2.0000      -0.503971       -13.7138
  85   2.0000      -0.500683       -13.6243
  86   2.0000      -0.493005       -13.4153
  87   2.0000      -0.487821       -13.2743
  88   2.0000      -0.482928       -13.1411
  89   2.0000      -0.479650       -13.0519
  90   2.0000      -0.478018       -13.0075
  91   2.0000      -0.471443       -12.8286
  92   2.0000      -0.468930       -12.7602
  93   2.0000      -0.467813       -12.7298
  94   2.0000      -0.464311       -12.6346
  95   2.0000      -0.461110       -12.5474
  96   2.0000      -0.455941       -12.4068
  97   2.0000      -0.448413       -12.2019
  98   2.0000      -0.447944       -12.1892
  99   2.0000      -0.444445       -12.0940
 100   2.0000      -0.436433       -11.8760
 101   2.0000      -0.434533       -11.8242
 102   2.0000      -0.432914       -11.7802
 103   2.0000      -0.429385       -11.6842
 104   2.0000      -0.427391       -11.6299
 105   2.0000      -0.421212       -11.4618
 106   2.0000      -0.419291       -11.4095
 107   2.0000      -0.413269       -11.2456
 108   2.0000      -0.404770       -11.0143
 109   2.0000      -0.399994       -10.8844
 110   2.0000      -0.392093       -10.6694
 111   2.0000      -0.391979       -10.6663
 112   2.0000      -0.377522       -10.2729
 113   2.0000      -0.375485       -10.2175
 114   2.0000      -0.375076       -10.2063
 115   2.0000      -0.372627       -10.1397
 116   2.0000      -0.365625        -9.9492
 117   2.0000      -0.351372        -9.5613
 118   2.0000      -0.350343        -9.5333
 119   2.0000      -0.347699        -9.4614
 120   2.0000      -0.343323        -9.3423
 121   2.0000      -0.337996        -9.1973
 122   2.0000      -0.328469        -8.9381
 123   2.0000      -0.323350        -8.7988
 124   2.0000      -0.315438        -8.5835
 125   2.0000      -0.303823        -8.2674
 126   2.0000      -0.302787        -8.2393
 127   2.0000      -0.299117        -8.1394
 128   2.0000      -0.291524        -7.9328
 129   2.0000      -0.288816        -7.8591
 130   2.0000      -0.286524        -7.7967
 131   2.0000      -0.285583        -7.7711
 132   2.0000      -0.281153        -7.6506
 133   2.0000      -0.279596        -7.6082
 134   2.0000      -0.270988        -7.3740
 135   2.0000      -0.259202        -7.0532
 136   2.0000      -0.250346        -6.8123
 137   0.0000      -0.092259        -2.5105
 138   0.0000      -0.075674        -2.0592
 139   0.0000      -0.061870        -1.6836
 140   0.0000      -0.038203        -1.0396
 141   0.0000      -0.027793        -0.7563

MULLIKEN ATOMIC CHARGES
-----------------------
   0 N :   -0.316142
   1 C :    0.184519
   2 C :   -0.045573
   3 C :    0.118481
   4 C :   -0.157954
   5 C :   -0.164320
   6 C :    0.181437
   7 C :   -0.258867
   8 N :   -0.594492
   9 C :    0.391297
  10 N :   -0.332079
  11 C :   -0.003517
  12 C :   -0.023552
  13 C :    0.905870
  14 F :   -0.300199
  15 F :   -0.297842
  16 F :   -0.290764
  17 C :   -0.134733
  18 C :   -0.097027
  19 Cl:    0.024760
  20 S :    1.206735
  21 O :   -0.541590
  22 O :   -0.530922
  23 C :   -0.108902
  24 C :   -0.140571
  25 C :   -0.145186
  26 C :    0.082440
  27 C :    0.529471
  28 O :   -0.442144
  29 O :   -0.623586
  30 C :   -0.138506
  31 C :   -0.149778
  32 C :   -0.175243
  33 C :   -0.158633
  34 C :   -0.311357
  35 C :   -0.311032
  36 H :    0.145038
  37 H :    0.166974
  38 H :    0.169235
  39 H :    0.188351
  40 H :    0.185849
  41 H :    0.189749
  42 H :    0.181092
  43 H :    0.175061
  44 H :    0.435693
  45 H :    0.183049
  46 H :    0.181498
  47 H :    0.127561
  48 H :    0.138922
  49 H :    0.176700
  50 H :    0.177622
  51 H :    0.175923
  52 H :    0.171183
Sum of atomic charges:   -0.0000000

LOEWDIN ATOMIC CHARGES
----------------------
   0 N :   -0.110675
   1 C :   -0.002517
   2 C :   -0.055227
   3 C :   -0.011819
   4 C :   -0.115086
   5 C :   -0.111764
   6 C :   -0.027795
   7 C :   -0.147477
   8 N :   -0.281554
   9 C :    0.056437
  10 N :   -0.081759
  11 C :   -0.043688
  12 C :   -0.072144
  13 C :    0.313094
  14 F :   -0.108630
  15 F :   -0.106373
  16 F :   -0.108107
  17 C :   -0.094221
  18 C :   -0.099451
  19 Cl:    0.061659
  20 S :    1.269573
  21 O :   -0.567187
  22 O :   -0.559535
  23 C :   -0.174093
  24 C :   -0.100556
  25 C :   -0.097086
  26 C :   -0.037533
  27 C :    0.179967
  28 O :   -0.258308
  29 O :   -0.334153
  30 C :   -0.084360
  31 C :   -0.106524
  32 C :   -0.131222
  33 C :   -0.120785
  34 C :   -0.228192
  35 C :   -0.229502
  36 H :    0.140530
  37 H :    0.149302
  38 H :    0.131050
  39 H :    0.151465
  40 H :    0.153831
  41 H :    0.163042
  42 H :    0.157879
  43 H :    0.155979
  44 H :    0.350829
  45 H :    0.161629
  46 H :    0.157883
  47 H :    0.130617
  48 H :    0.137554
  49 H :    0.146681
  50 H :    0.147410
  51 H :    0.146382
  52 H :    0.144528

  Mayer bond orders larger than 0.100000
B(  0-N ,  1-C ) :   3.0225 B(  1-C ,  2-C ) :   1.0027 B(  2-C ,  3-C ) :   0.9929
B(  2-C , 34-C ) :   0.9041 B(  2-C , 35-C ) :   0.9056 B(  3-C ,  4-C ) :   1.4206
B(  3-C , 33-C ) :   1.4329 B(  4-C ,  5-C ) :   1.4227 B(  4-C , 36-H ) :   0.9217
B(  5-C ,  6-C ) :   1.4339 B(  5-C , 37-H ) :   0.9103 B(  6-C ,  7-C ) :   0.9535
B(  6-C , 32-C ) :   1.4294 B(  7-C ,  8-N ) :   0.9108 B(  7-C , 38-H ) :   0.9179
B(  7-C , 39-H ) :   0.9149 B(  8-N ,  9-C ) :   0.9416 B(  8-N , 20-S ) :   0.7986
B(  9-C , 10-N ) :   1.3952 B(  9-C , 18-C ) :   1.3380 B( 10-N , 11-C ) :   1.4156
B( 11-C , 12-C ) :   1.3521 B( 11-C , 40-H ) :   0.9172 B( 12-C , 13-C ) :   0.9713
B( 12-C , 17-C ) :   1.4175 B( 13-C , 14-F ) :   0.9510 B( 13-C , 15-F ) :   0.9547
B( 13-C , 16-F ) :   0.9894 B( 17-C , 18-C ) :   1.3849 B( 17-C , 41-H ) :   0.9073
B( 18-C , 19-Cl) :   1.0465 B( 20-S , 21-O ) :   1.6183 B( 20-S , 22-O ) :   1.6491
B( 20-S , 23-C ) :   0.8179 B( 23-C , 24-C ) :   1.3905 B( 23-C , 31-C ) :   1.3816
B( 24-C , 25-C ) :   1.4191 B( 24-C , 42-H ) :   0.9106 B( 25-C , 26-C ) :   1.3840
B( 25-C , 43-H ) :   0.9141 B( 26-C , 27-C ) :   1.0071 B( 26-C , 30-C ) :   1.4038
B( 27-C , 28-O ) :   1.8642 B( 27-C , 29-O ) :   1.0262 B( 29-O , 44-H ) :   0.7408
B( 30-C , 31-C ) :   1.4210 B( 30-C , 45-H ) :   0.9087 B( 31-C , 46-H ) :   0.9106
B( 32-C , 33-C ) :   1.4183 B( 32-C , 47-H ) :   0.9235 B( 33-C , 48-H ) :   0.9217
B( 34-C , 35-C ) :   0.9514 B( 34-C , 49-H ) :   0.9356 B( 34-C , 50-H ) :   0.9347
B( 35-C , 51-H ) :   0.9355 B( 35-C , 52-H ) :   0.9359

FINAL SINGLE POINT ENERGY     -2546.635098459219

DIPOLE MOMENT
-------------

Method             : SCF
Type of density    : Electron Density
Multiplicity       :   1
Irrep              :   0
Energy             : -2546.6350984592186251 Eh
Relativity type    :
Basis              : AO
                                X                 Y                 Z
Electronic contribution:     14.146252076      27.977762796     -14.249683024
Nuclear contribution   :    -12.621144934     -26.338616128      12.873541661
                        -----------------------------------------
Total Dipole Moment    :      1.525107142       1.639146668      -1.376141363
                        -----------------------------------------
Magnitude (a.u.)       :      2.628025617
Magnitude (Debye)      :      6.679910258

Rotational constants in cm-1:             0.004033             0.001894             0.001435
Rotational constants in MHz :           120.910305            56.766559            43.016472

                             ****ORCA TERMINATED NORMALLY****
TOTAL RUN TIME: 0 days 0 hours 6 minutes 45 seconds 224 msec
