                         Program Version 6.0.0  -   RELEASE  -
|  1> ! B3LYP 6-31G* SP
|  2>
|  3> * xyz 0 1
|  4> C -4.4102 2.2704 3.0118
|  5> C -3.4403 2.1048 1.8796
|  6> C -3.0171 3.2193 1.1410
|  7> C -2.0966 3.0651 0.1027
|  8> C -1.5783 1.8032 -0.1954
|  9> C -1.9612 0.6794 0.5609
| 10> C -1.4273 -0.7047 0.2379
| 11> N -0.0265 -0.6345 -0.1927
| 12> C 1.0363 -0.3264 0.7240
| 13> O 0.8196 -0.3679 1.9663
| 14> C 2.3883 0.0291 0.2332
| 15> C 2.5654 0.6162 -1.0342
| 16> C 3.8426 0.9578 -1.4888
| 17> C 4.9619 0.7231 -0.6803
| 18> C 6.2534 1.0551 -1.1103
| 19> C 7.3464 0.8099 -0.2761
| 20> C 7.1375 0.2359 0.9803
| 21> N 5.8789 -0.0811 1.3865
| 22> C 4.7941 0.1452 0.5967
| 23> C 3.5136 -0.1932 1.0482
| 24> C -2.2692 -1.3772 -0.8340
| 25> N -2.7767 -0.6008 -1.8347
| 26> C -3.5156 -1.1061 -2.8535
| 27> C -3.7772 -2.4699 -2.9115
| 28> C -3.2607 -3.3069 -1.9249
| 29> C -2.4773 -2.7849 -0.8770
| 30> C -1.9171 -3.7204 0.1781
| 31> F -0.5590 -3.5079 0.3319
| 32> F -2.0992 -5.0490 -0.1673
| 33> F -2.5582 -3.4962 1.3827
| 34> C -2.9031 0.8405 1.5922
| 35> H -5.0782 1.3859 3.0826
| 36> H -5.0455 3.1688 2.8607
| 37> H -3.8508 2.3803 3.9641
| 38> H -3.4044 4.2057 1.3641
| 39> H -1.7853 3.9260 -0.4744
| 40> H -0.8779 1.7046 -1.0149
| 41> H -1.4728 -1.3043 1.1698
| 42> H 0.2027 -0.8014 -1.1986
| 43> H 1.7169 0.8366 -1.6687
| 44> H 3.9540 1.4108 -2.4670
| 45> H 6.4161 1.5008 -2.0845
| 46> H 8.3475 1.0635 -0.6002
| 47> H 7.9776 0.0433 1.6341
| 48> H 3.3988 -0.6400 2.0288
| 49> H -3.9006 -0.4454 -3.6184
| 50> H -4.3716 -2.8780 -3.7189
| 51> H -3.4738 -4.3657 -1.9913
| 52> H -3.2197 -0.0192 2.1715
| 53> *
| 54>
| 55>                          ****END OF INPUT****

CARTESIAN COORDINATES (ANGSTROEM)
---------------------------------
  C     -4.410200    2.270400    3.011800
  C     -3.440300    2.104800    1.879600
  C     -3.017100    3.219300    1.141000
  C     -2.096600    3.065100    0.102700
  C     -1.578300    1.803200   -0.195400
  C     -1.961200    0.679400    0.560900
  C     -1.427300   -0.704700    0.237900
  N     -0.026500   -0.634500   -0.192700
  C      1.036300   -0.326400    0.724000
  O      0.819600   -0.367900    1.966300
  C      2.388300    0.029100    0.233200
  C      2.565400    0.616200   -1.034200
  C      3.842600    0.957800   -1.488800
  C      4.961900    0.723100   -0.680300
  C      6.253400    1.055100   -1.110300
  C      7.346400    0.809900   -0.276100
  C      7.137500    0.235900    0.980300
  N      5.878900   -0.081100    1.386500
  C      4.794100    0.145200    0.596700
  C      3.513600   -0.193200    1.048200
  C     -2.269200   -1.377200   -0.834000
  N     -2.776700   -0.600800   -1.834700
  C     -3.515600   -1.106100   -2.853500
  C     -3.777200   -2.469900   -2.911500
  C     -3.260700   -3.306900   -1.924900
  C     -2.477300   -2.784900   -0.877000
  C     -1.917100   -3.720400    0.178100
  F     -0.559000   -3.507900    0.331900
  F     -2.099200   -5.049000   -0.167300
  F     -2.558200   -3.496200    1.382700
  C     -2.903100    0.840500    1.592200
  H     -5.078200    1.385900    3.082600
  H     -5.045500    3.168800    2.860700
  H     -3.850800    2.380300    3.964100
  H     -3.404400    4.205700    1.364100
  H     -1.785300    3.926000   -0.474400
  H     -0.877900    1.704600   -1.014900
  H     -1.472800   -1.304300    1.169800
  H      0.202700   -0.801400   -1.198600
  H      1.716900    0.836600   -1.668700
  H      3.954000    1.410800   -2.467000
  H      6.416100    1.500800   -2.084500
  H      8.347500    1.063500   -0.600200
  H      7.977600    0.043300    1.634100
  H      3.398800   -0.640000    2.028800
  H     -3.900600   -0.445400   -3.618400
  H     -4.371600   -2.878000   -3.718900
  H     -3.473800   -4.365700   -1.991300
  H     -3.219700   -0.019200    2.171500

 Total Charge           Charge          ....    0
 Multiplicity           Mult            ....    1
 Number of Electrons    NEL             ....  218
 Basis Dimension        Dim             ....  470

ORBITAL ENERGIES
----------------

  NO   OCC          E(Eh)            E(eV)
   0   2.0000     -24.727857      -672.8792
   1   2.0000     -24.724515      -672.7883
   2   2.0000     -24.722577      -672.7355
   3   2.0000     -19.104437      -519.8582
   4   2.0000     -14.354002      -390.5922
   5   2.0000     -14.345340      -390.3566
   6   2.0000     -14.324151      -389.7800
   7   2.0000     -10.444022      -284.1963
   8   2.0000     -10.285607      -279.8856
   9   2.0000     -10.255099      -279.0554
  10   2.0000     -10.239013      -278.6177
  11   2.0000     -10.232036      -278.4278
  12   2.0000     -10.230748      -278.3928
  13   2.0000     -10.223761      -278.2027
  14   2.0000     -10.222417      -278.1661
  15   2.0000     -10.219707      -278.0924
  16   2.0000     -10.209981      -277.8277
  17   2.0000     -10.204066      -277.6667
  18   2.0000     -10.203541      -277.6525
  19   2.0000     -10.198279      -277.5093
  20   2.0000     -10.197173      -277.4792
  21   2.0000     -10.194927      -277.4181
  22   2.0000     -10.194401      -277.4037
  23   2.0000     -10.189470      -277.2696
  24   2.0000     -10.179311      -276.9931
  25   2.0000     -10.177607      -276.9468
  26   2.0000     -10.168245      -276.6920
  27   2.0000     -10.167263      -276.6653
  28   2.0000     -10.167141      -276.6620
  29   2.0000     -10.166236      -276.6374
  30   2.0000     -10.165622      -276.6206
  31   2.0000      -1.286417       -35.0052
  32   2.0000      -1.211602       -32.9694
  33   2.0000      -1.209517       -32.9126
  34   2.0000      -1.004841       -27.3431
  35   2.0000      -0.952892       -25.9295
  36   2.0000      -0.934548       -25.4304
  37   2.0000      -0.903933       -24.5973
  38   2.0000      -0.853387       -23.2218
  39   2.0000      -0.839059       -22.8319
  40   2.0000      -0.828940       -22.5566
  41   2.0000      -0.808925       -22.0120
  42   2.0000      -0.801784       -21.8176
  43   2.0000      -0.768805       -20.9202
  44   2.0000      -0.758565       -20.6416
  45   2.0000      -0.744579       -20.2610
  46   2.0000      -0.740769       -20.1574
  47   2.0000      -0.713647       -19.4193
  48   2.0000      -0.692742       -18.8505
  49   2.0000      -0.668268       -18.1845
  50   2.0000      -0.661027       -17.9874
  51   2.0000      -0.642407       -17.4808
  52   2.0000      -0.636285       -17.3142
  53   2.0000      -0.626192       -17.0396
  54   2.0000      -0.607933       -16.5427
  55   2.0000      -0.585542       -15.9334
  56   2.0000      -0.584076       -15.8935
  57   2.0000      -0.576631       -15.6909
  58   2.0000      -0.575095       -15.6491
  59   2.0000      -0.567218       -15.4348
  60   2.0000      -0.552187       -15.0258
  61   2.0000      -0.542621       -14.7655
  62   2.0000      -0.523998       -14.2587
  63   2.0000      -0.517627       -14.0854
  64   2.0000      -0.508359       -13.8331
  65   2.0000      -0.505359       -13.7515
  66   2.0000      -0.491112       -13.3638
  67   2.0000      -0.479316       -13.0429
  68   2.0000      -0.469662       -12.7801
  69   2.0000      -0.458561       -12.4781
  70   2.0000      -0.455960       -12.4073
  71   2.0000      -0.450287       -12.2529
  72   2.0000      -0.446037       -12.1373
  73   2.0000      -0.443965       -12.0809
  74   2.0000      -0.433898       -11.8070
  75   2.0000      -0.431583       -11.7440
  76   2.0000      -0.429031       -11.6745
  77   2.0000      -0.426694       -11.6109
  78   2.0000      -0.424690       -11.5564
  79   2.0000      -0.414617       -11.2823
  80   2.0000      -0.413488       -11.2516
  81   2.0000      -0.411731       -11.2038
  82   2.0000      -0.407760       -11.0957
  83   2.0000      -0.407306       -11.0834
  84   2.0000      -0.404964       -11.0196
  85   2.0000      -0.401942       -10.9374
  86   2.0000      -0.399922       -10.8824
  87   2.0000      -0.394627       -10.7383
  88   2.0000      -0.391407       -10.6507
  89   2.0000      -0.374060       -10.1787
  90   2.0000      -0.373361       -10.1597
  91   2.0000      -0.364859        -9.9283
  92   2.0000      -0.360857        -9.8194
  93   2.0000      -0.359106        -9.7718
  94   2.0000      -0.338140        -9.2013
  95   2.0000      -0.331459        -9.0195
  96   2.0000      -0.327892        -8.9224
  97   2.0000      -0.324108        -8.8194
  98   2.0000      -0.303618        -8.2619
  99   2.0000      -0.301671        -8.2089
 100   2.0000      -0.282941        -7.6992
 101   2.0000      -0.263869        -7.1802
 102   2.0000      -0.258427        -7.0322
 103   2.0000      -0.245333        -6.6758
 104   2.0000      -0.244904        -6.6642
 105   2.0000      -0.243393        -6.6231
 106   2.0000      -0.230147        -6.2626
 107   2.0000      -0.225938        -6.1481
 108   2.0000      -0.219331        -5.9683
 109   0.0000      -0.066794        -1.8176
 110   0.0000      -0.048005        -1.3063
 111   0.0000      -0.043873        -1.1938
 112   0.0000      -0.030702        -0.8355
 113   0.0000       0.010760         0.2928

MULLIKEN ATOMIC CHARGES
-----------------------
   0 C :   -0.522404
   1 C :    0.168245
   2 C :   -0.168535
   3 C :   -0.131379
   4 C :   -0.141216
   5 C :    0.184202
   6 C :   -0.070545
   7 N :   -0.638186
   8 C :    0.517860
   9 O :   -0.475139
  10 C :    0.075057
  11 C :   -0.180085
  12 C :   -0.207635
  13 C :    0.172868
  14 C :   -0.153605
  15 C :   -0.144954
  16 C :    0.015614
  17 N :   -0.428187
  18 C :    0.210248
  19 C :   -0.171026
  20 C :    0.182533
  21 N :   -0.390773
  22 C :    0.025528
  23 C :   -0.134135
  24 C :   -0.132264
  25 C :   -0.057869
  26 C :    0.921372
  27 F :   -0.294823
  28 F :   -0.305031
  29 F :   -0.295668
  30 C :   -0.216664
  31 H :    0.150539
  32 H :    0.148519
  33 H :    0.166962
  34 H :    0.115772
  35 H :    0.119894
  36 H :    0.110311
  37 H :    0.181526
  38 H :    0.324971
  39 H :    0.134038
  40 H :    0.134111
  41 H :    0.141753
  42 H :    0.135686
  43 H :    0.152443
  44 H :    0.175189
  45 H :    0.160366
  46 H :    0.146570
  47 H :    0.167574
  48 H :    0.120372
Sum of atomic charges:   -0.0000000

LOEWDIN ATOMIC CHARGES
----------------------
   0 C :   -0.351518
   1 C :   -0.019584
   2 C :   -0.138303
   3 C :   -0.128239
   4 C :   -0.124130
   5 C :   -0.007112
   6 C :   -0.055858
   7 N :   -0.231196
   8 C :    0.147408
   9 O :   -0.278659
  10 C :   -0.046028
  11 C :   -0.128679
  12 C :   -0.121336
  13 C :   -0.022951
  14 C :   -0.094080
  15 C :   -0.146237
  16 C :   -0.061994
  17 N :   -0.124386
  18 C :    0.013266
  19 C :   -0.074782
  20 C :    0.045341
  21 N :   -0.119597
  22 C :   -0.055437
  23 C :   -0.141335
  24 C :   -0.091173
  25 C :   -0.079668
  26 C :    0.312232
  27 F :   -0.103815
  28 F :   -0.110324
  29 F :   -0.109142
  30 C :   -0.133106
  31 H :    0.130069
  32 H :    0.128655
  33 H :    0.138892
  34 H :    0.126730
  35 H :    0.127828
  36 H :    0.124749
  37 H :    0.150854
  38 H :    0.250088
  39 H :    0.132894
  40 H :    0.133978
  41 H :    0.137911
  42 H :    0.136504
  43 H :    0.137001
  44 H :    0.163019
  45 H :    0.140495
  46 H :    0.141785
  47 H :    0.150259
  48 H :    0.128709

  Mayer bond orders larger than 0.100000
B(  0-C ,  1-C ) :   0.9863 B(  0-C , 31-H ) :   0.9456 B(  0-C , 32-H ) :   0.9478
B(  0-C , 33-H ) :   0.9334 B(  1-C ,  2-C ) :   1.4482 B(  1-C , 30-C ) :   1.4157
B(  2-C ,  3-C ) :   1.4334 B(  2-C , 34-H ) :   0.9265 B(  3-C ,  4-C ) :   1.4455
B(  3-C , 35-H ) :   0.9302 B(  4-C ,  5-C ) :   1.4185 B(  4-C , 36-H ) :   0.9198
B(  5-C ,  6-C ) :   0.9469 B(  5-C , 30-C ) :   1.4189 B(  6-C ,  7-N ) :   0.8968
B(  6-C , 20-C ) :   0.9504 B(  6-C , 37-H ) :   0.8900 B(  7-N ,  8-C ) :   1.0281
B(  7-N , 38-H ) :   0.8200 B(  8-C ,  9-O ) :   1.8079 B(  8-C , 10-C ) :   0.9800
B( 10-C , 11-C ) :   1.3021 B( 10-C , 19-C ) :   1.4506 B( 11-C , 12-C ) :   1.5013
B( 11-C , 39-H ) :   0.9190 B( 12-C , 13-C ) :   1.2865 B( 12-C , 19-C ) :   0.1024
B( 12-C , 40-H ) :   0.9238 B( 13-C , 14-C ) :   1.3031 B( 13-C , 18-C ) :   1.2501
B( 14-C , 15-C ) :   1.5139 B( 14-C , 41-H ) :   0.9243 B( 15-C , 16-C ) :   1.3211
B( 15-C , 42-H ) :   0.9248 B( 16-C , 17-N ) :   1.5173 B( 16-C , 43-H ) :   0.9297
B( 17-N , 18-C ) :   1.2429 B( 18-C , 19-C ) :   1.2689 B( 19-C , 44-H ) :   0.9045
B( 20-C , 21-N ) :   1.3992 B( 20-C , 25-C ) :   1.3475 B( 21-N , 22-C ) :   1.4211
B( 22-C , 23-C ) :   1.4189 B( 22-C , 45-H ) :   0.9269 B( 23-C , 24-C ) :   1.4327
B( 23-C , 46-H ) :   0.9234 B( 24-C , 25-C ) :   1.4103 B( 24-C , 47-H ) :   0.9163
B( 25-C , 26-C ) :   0.9684 B( 26-C , 27-F ) :   0.9427 B( 26-C , 28-F ) :   0.9425
B( 26-C , 29-F ) :   0.9522 B( 30-C , 48-H ) :   0.9195

FINAL SINGLE POINT ENERGY     -1463.566972161545

DIPOLE MOMENT
-------------

Method             : SCF
Type of density    : Electron Density
Multiplicity       :   1
Irrep              :   0
Energy             : -1463.5669721615452090 Eh
Relativity type    :
Basis              : AO
                                X                 Y                 Z
Electronic contribution:     -0.194021854     -28.632054405       0.307797571
Nuclear contribution   :     -0.070521532      28.723563219      -2.890698079
                        -----------------------------------------
Total Dipole Moment    :     -0.264543386       0.091508814      -2.582900508
                        -----------------------------------------
Magnitude (a.u.)       :      2.598024654
Magnitude (Debye)      :      6.603653869

Rotational constants in cm-1:             0.006525             0.002718             0.002301
Rotational constants in MHz :           195.613427            81.475083            68.989295

                             ****ORCA TERMINATED NORMALLY****
TOTAL RUN TIME: 0 days 0 hours 7 minutes 2 seconds 219 msec
