                         Program Version 6.0.0  -   RELEASE  -
|  1> ! B3LYP 6-31G* SP
|  2>
|  3> * xyz 0 1
|  4> C -2.2861 1.4798 -2.1637
|  5> C -1.5402 2.2724 -1.1243
|  6> C -1.7765 3.6508 -1.0131
|  7> C -1.1532 4.3933 -0.0032
|  8> C -1.3615 5.7765 0.1178
|  9> C -0.7259 6.4929 1.1386
| 10> F -0.9251 7.8309 1.2518
| 11> C 0.1141 5.8320 2.0427
| 12> C 0.3246 4.4525 1.9302
| 13> C -0.3052 3.7297 0.9097
| 14> N -0.1008 2.3914 0.7945
| 15> C -0.6842 1.6520 -0.1883
| 16> N -0.4128 0.2483 -0.2538
| 17> C 0.6095 -0.2566 -1.1727
| 18> C 1.9356 -0.3783 -0.4715
| 19> C 2.4103 -1.6338 -0.0603
| 20> C 3.6321 -1.7439 0.6112
| 21> C 4.3922 -0.5916 0.8957
| 22> O 5.6178 -0.6397 1.5806
| 23> C 6.2379 -1.8262 2.0747
| 24> F 6.5200 -2.6876 1.0271
| 25> F 7.4200 -1.4846 2.7037
| 26> F 5.4114 -2.4545 2.9907
| 27> C 3.9169 0.6583 0.4789
| 28> C 2.7000 0.7670 -0.2009
| 29> S -1.1110 -0.8014 0.9389
| 30> O -2.1606 -0.0608 1.7208
| 31> O -0.0472 -1.2660 1.8939
| 32> C -1.8693 -2.1732 0.1379
| 33> C -3.1037 -2.0071 -0.5031
| 34> C -3.7134 -3.0850 -1.1529
| 35> C -3.0914 -4.3468 -1.1749
| 36> C -3.7326 -5.4920 -1.8587
| 37> O -4.8590 -5.3581 -2.4106
| 38> O -3.0979 -6.7314 -1.8961
| 39> C -1.8479 -4.5056 -0.5350
| 40> C -1.2419 -3.4257 0.1168
| 41> H -2.4859 2.1035 -3.0629
| 42> H -3.2551 1.1416 -1.7399
| 43> H -1.7089 0.5923 -2.4975
| 44> H -2.4480 4.1412 -1.7098
| 45> H -2.0105 6.3001 -0.5752
| 46> H 0.6049 6.3894 2.8309
| 47> H 0.9774 3.9503 2.6343
| 48> H 0.2879 -1.2376 -1.5834
| 49> H 0.7177 0.4292 -2.0412
| 50> H 1.8341 -2.5285 -0.2555
| 51> H 3.9653 -2.7260 0.9165
| 52> H 4.4957 1.5515 0.6815
| 53> H 2.3553 1.7429 -0.5185
| 54> H -3.5961 -1.0428 -0.4983
| 55> H -4.6702 -2.9292 -1.6383
| 56> H -3.5304 -7.5229 -2.3573
| 57> H -1.3429 -5.4640 -0.5364
| 58> H -0.2854 -3.5692 0.6035
| 59> *
| 60>
| 61>                          ****END OF INPUT****

CARTESIAN COORDINATES (ANGSTROEM)
---------------------------------
  C     -2.286100    1.479800   -2.163700
  C     -1.540200    2.272400   -1.124300
  C     -1.776500    3.650800   -1.013100
  C     -1.153200    4.393300   -0.003200
  C     -1.361500    5.776500    0.117800
  C     -0.725900    6.492900    1.138600
  F     -0.925100    7.830900    1.251800
  C      0.114100    5.832000    2.042700
  C      0.324600    4.452500    1.930200
  C     -0.305200    3.729700    0.909700
  N     -0.100800    2.391400    0.794500
  C     -0.684200    1.652000   -0.188300
  N     -0.412800    0.248300   -0.253800
  C      0.609500   -0.256600   -1.172700
  C      1.935600   -0.378300   -0.471500
  C      2.410300   -1.633800   -0.060300
  C      3.632100   -1.743900    0.611200
  C      4.392200   -0.591600    0.895700
  O      5.617800   -0.639700    1.580600
  C      6.237900   -1.826200    2.074700
  F      6.520000   -2.687600    1.027100
  F      7.420000   -1.484600    2.703700
  F      5.411400   -2.454500    2.990700
  C      3.916900    0.658300    0.478900
  C      2.700000    0.767000   -0.200900
  S     -1.111000   -0.801400    0.938900
  O     -2.160600   -0.060800    1.720800
  O     -0.047200   -1.266000    1.893900
  C     -1.869300   -2.173200    0.137900
  C     -3.103700   -2.007100   -0.503100
  C     -3.713400   -3.085000   -1.152900
  C     -3.091400   -4.346800   -1.174900
  C     -3.732600   -5.492000   -1.858700
  O     -4.859000   -5.358100   -2.410600
  O     -3.097900   -6.731400   -1.896100
  C     -1.847900   -4.505600   -0.535000
  C     -1.241900   -3.425700    0.116800
  H     -2.485900    2.103500   -3.062900
  H     -3.255100    1.141600   -1.739900
  H     -1.708900    0.592300   -2.497500
  H     -2.448000    4.141200   -1.709800
  H     -2.010500    6.300100   -0.575200
  H      0.604900    6.389400    2.830900
  H      0.977400    3.950300    2.634300
  H      0.287900   -1.237600   -1.583400
  H      0.717700    0.429200   -2.041200
  H      1.834100   -2.528500   -0.255500
  H      3.965300   -2.726000    0.916500
  H      4.495700    1.551500    0.681500
  H      2.355300    1.742900   -0.518500
  H     -3.596100   -1.042800   -0.498300
  H     -4.670200   -2.929200   -1.638300
  H     -3.530400   -7.522900   -2.357300
  H     -1.342900   -5.464000   -0.536400
  H     -0.285400   -3.569200    0.603500

 Total Charge           Charge          ....    0
 Multiplicity           Mult            ....    1
 Number of Electrons    NEL             ....  274
 Basis Dimension        Dim             ....  558

ORBITAL ENERGIES
----------------

  NO   OCC          E(Eh)            E(eV)
   0   2.0000     -89.099561     -2424.5223
   1   2.0000     -24.736417      -673.1121
   2   2.0000     -24.733945      -673.0449
   3   2.0000     -24.732750      -673.0124
   4   2.0000     -24.707140      -672.3155
   5   2.0000     -19.206845      -522.6448
   6   2.0000     -19.201809      -522.5078
   7   2.0000     -19.144199      -520.9401
   8   2.0000     -19.126105      -520.4478
   9   2.0000     -19.122536      -520.3507
  10   2.0000     -14.374258      -391.1434
  11   2.0000     -14.334474      -390.0609
  12   2.0000     -10.498515      -285.6791
  13   2.0000     -10.341552      -281.4079
  14   2.0000     -10.281433      -279.7720
  15   2.0000     -10.270053      -279.4624
  16   2.0000     -10.262004      -279.2433
  17   2.0000     -10.249347      -278.8989
  18   2.0000     -10.242612      -278.7156
  19   2.0000     -10.239539      -278.6320
  20   2.0000     -10.228185      -278.3231
  21   2.0000     -10.227541      -278.3055
  22   2.0000     -10.226674      -278.2820
  23   2.0000     -10.224868      -278.2328
  24   2.0000     -10.224782      -278.2305
  25   2.0000     -10.215615      -277.9810
  26   2.0000     -10.208195      -277.7791
  27   2.0000     -10.207650      -277.7643
  28   2.0000     -10.202795      -277.6322
  29   2.0000     -10.199574      -277.5445
  30   2.0000     -10.199058      -277.5305
  31   2.0000     -10.197051      -277.4759
  32   2.0000     -10.192248      -277.3452
  33   2.0000     -10.191281      -277.3189
  34   2.0000     -10.190280      -277.2916
  35   2.0000     -10.189778      -277.2779
  36   2.0000     -10.189412      -277.2680
  37   2.0000      -8.135164      -221.3691
  38   2.0000      -6.100337      -165.9986
  39   2.0000      -6.098109      -165.9380
  40   2.0000      -6.097790      -165.9293
  41   2.0000      -1.298075       -35.3224
  42   2.0000      -1.219538       -33.1853
  43   2.0000      -1.219351       -33.1802
  44   2.0000      -1.218451       -33.1557
  45   2.0000      -1.086318       -29.5602
  46   2.0000      -1.083401       -29.4808
  47   2.0000      -1.076171       -29.2841
  48   2.0000      -1.000727       -27.2312
  49   2.0000      -0.968441       -26.3526
  50   2.0000      -0.960872       -26.1467
  51   2.0000      -0.923629       -25.1332
  52   2.0000      -0.896907       -24.4061
  53   2.0000      -0.861002       -23.4291
  54   2.0000      -0.854156       -23.2428
  55   2.0000      -0.827071       -22.5057
  56   2.0000      -0.813203       -22.1284
  57   2.0000      -0.786136       -21.3919
  58   2.0000      -0.783438       -21.3184
  59   2.0000      -0.773789       -21.0559
  60   2.0000      -0.752344       -20.4723
  61   2.0000      -0.751363       -20.4456
  62   2.0000      -0.728100       -19.8126
  63   2.0000      -0.713023       -19.4023
  64   2.0000      -0.704538       -19.1715
  65   2.0000      -0.679648       -18.4942
  66   2.0000      -0.668921       -18.2023
  67   2.0000      -0.647310       -17.6142
  68   2.0000      -0.633264       -17.2320
  69   2.0000      -0.627480       -17.0746
  70   2.0000      -0.622587       -16.9414
  71   2.0000      -0.620746       -16.8914
  72   2.0000      -0.614819       -16.7301
  73   2.0000      -0.600100       -16.3295
  74   2.0000      -0.590270       -16.0621
  75   2.0000      -0.586564       -15.9612
  76   2.0000      -0.570347       -15.5199
  77   2.0000      -0.563866       -15.3436
  78   2.0000      -0.549004       -14.9392
  79   2.0000      -0.543136       -14.7795
  80   2.0000      -0.537519       -14.6266
  81   2.0000      -0.521100       -14.1798
  82   2.0000      -0.499522       -13.5927
  83   2.0000      -0.496906       -13.5215
  84   2.0000      -0.492254       -13.3949
  85   2.0000      -0.489052       -13.3078
  86   2.0000      -0.481250       -13.0955
  87   2.0000      -0.476473       -12.9655
  88   2.0000      -0.473651       -12.8887
  89   2.0000      -0.466960       -12.7066
  90   2.0000      -0.464258       -12.6331
  91   2.0000      -0.463600       -12.6152
  92   2.0000      -0.462950       -12.5975
  93   2.0000      -0.457072       -12.4376
  94   2.0000      -0.454545       -12.3688
  95   2.0000      -0.449759       -12.2386
  96   2.0000      -0.447958       -12.1895
  97   2.0000      -0.446321       -12.1450
  98   2.0000      -0.442949       -12.0533
  99   2.0000      -0.440683       -11.9916
 100   2.0000      -0.439428       -11.9574
 101   2.0000      -0.430634       -11.7181
 102   2.0000      -0.426016       -11.5925
 103   2.0000      -0.425557       -11.5800
 104   2.0000      -0.420601       -11.4451
 105   2.0000      -0.416072       -11.3219
 106   2.0000      -0.411073       -11.1859
 107   2.0000      -0.410465       -11.1693
 108   2.0000      -0.406744       -11.0681
 109   2.0000      -0.404095       -10.9960
 110   2.0000      -0.402960       -10.9651
 111   2.0000      -0.400016       -10.8850
 112   2.0000      -0.398459       -10.8426
 113   2.0000      -0.391907       -10.6643
 114   2.0000      -0.387995       -10.5579
 115   2.0000      -0.382130       -10.3983
 116   2.0000      -0.374703       -10.1962
 117   2.0000      -0.370746       -10.0885
 118   2.0000      -0.356550        -9.7022
 119   2.0000      -0.345978        -9.4145
 120   2.0000      -0.343976        -9.3601
 121   2.0000      -0.335669        -9.1340
 122   2.0000      -0.326235        -8.8773
 123   2.0000      -0.320741        -8.7278
 124   2.0000      -0.310212        -8.4413
 125   2.0000      -0.309094        -8.4109
 126   2.0000      -0.299998        -8.1634
 127   2.0000      -0.286645        -7.8000
 128   2.0000      -0.284838        -7.7508
 129   2.0000      -0.281020        -7.6470
 130   2.0000      -0.276641        -7.5278
 131   2.0000      -0.259592        -7.0639
 132   2.0000      -0.258968        -7.0469
 133   2.0000      -0.253196        -6.8898
 134   2.0000      -0.247451        -6.7335
 135   2.0000      -0.232424        -6.3246
 136   2.0000      -0.229408        -6.2425
 137   0.0000      -0.091385        -2.4867
 138   0.0000      -0.069178        -1.8824
 139   0.0000      -0.038742        -1.0542
 140   0.0000      -0.027961        -0.7609
 141   0.0000      -0.008065        -0.2195

MULLIKEN ATOMIC CHARGES
-----------------------
   0 C :   -0.534941
   1 C :    0.152243
   2 C :   -0.210052
   3 C :    0.195838
   4 C :   -0.301167
   5 C :    0.417540
   6 F :   -0.314959
   7 C :   -0.211239
   8 C :   -0.132177
   9 C :    0.199199
  10 N :   -0.418897
  11 C :    0.327930
  12 N :   -0.601739
  13 C :   -0.287902
  14 C :    0.195311
  15 C :   -0.143289
  16 C :   -0.188676
  17 C :    0.355141
  18 O :   -0.546488
  19 C :    1.086064
  20 F :   -0.294050
  21 F :   -0.280036
  22 F :   -0.289627
  23 C :   -0.173774
  24 C :   -0.139532
  25 S :    1.206778
  26 O :   -0.538264
  27 O :   -0.524154
  28 C :   -0.134107
  29 C :   -0.141725
  30 C :   -0.140384
  31 C :    0.082561
  32 C :    0.529999
  33 O :   -0.442671
  34 O :   -0.623084
  35 C :   -0.145622
  36 C :   -0.152459
  37 H :    0.158991
  38 H :    0.176386
  39 H :    0.164193
  40 H :    0.140630
  41 H :    0.145919
  42 H :    0.155034
  43 H :    0.165489
  44 H :    0.160813
  45 H :    0.174192
  46 H :    0.122114
  47 H :    0.148714
  48 H :    0.145767
  49 H :    0.137757
  50 H :    0.181681
  51 H :    0.182106
  52 H :    0.435846
  53 H :    0.175613
  54 H :    0.191168
Sum of atomic charges:   -0.0000000

LOEWDIN ATOMIC CHARGES
----------------------
   0 C :   -0.354358
   1 C :   -0.028829
   2 C :   -0.100834
   3 C :   -0.016701
   4 C :   -0.157492
   5 C :    0.121903
   6 F :   -0.100887
   7 C :   -0.147682
   8 C :   -0.099462
   9 C :    0.008237
  10 N :   -0.101822
  11 C :    0.047412
  12 N :   -0.283017
  13 C :   -0.149753
  14 C :   -0.037547
  15 C :   -0.112777
  16 C :   -0.157228
  17 C :    0.089502
  18 O :   -0.160469
  19 C :    0.361160
  20 F :   -0.107949
  21 F :   -0.088498
  22 F :   -0.104052
  23 C :   -0.138850
  24 C :   -0.108212
  25 S :    1.265470
  26 O :   -0.567364
  27 O :   -0.559984
  28 C :   -0.175737
  29 C :   -0.100061
  30 C :   -0.086019
  31 C :   -0.037237
  32 C :    0.180550
  33 O :   -0.258953
  34 O :   -0.333911
  35 C :   -0.098598
  36 C :   -0.108631
  37 H :    0.134850
  38 H :    0.142676
  39 H :    0.134698
  40 H :    0.138992
  41 H :    0.143815
  42 H :    0.148945
  43 H :    0.154322
  44 H :    0.130203
  45 H :    0.142137
  46 H :    0.129069
  47 H :    0.140755
  48 H :    0.144067
  49 H :    0.138517
  50 H :    0.157041
  51 H :    0.161111
  52 H :    0.350956
  53 H :    0.156024
  54 H :    0.160499

  Mayer bond orders larger than 0.100000
B(  0-C ,  1-C ) :   0.9872 B(  0-C , 37-H ) :   0.9412 B(  0-C , 38-H ) :   0.9255
B(  0-C , 39-H ) :   0.9344 B(  1-C ,  2-C ) :   1.4782 B(  1-C , 11-C ) :   1.3016
B(  2-C ,  3-C ) :   1.2933 B(  2-C , 40-H ) :   0.9178 B(  3-C ,  4-C ) :   1.2488
B(  3-C ,  9-C ) :   1.2419 B(  4-C ,  5-C ) :   1.4457 B(  4-C ,  8-C ) :   0.1068
B(  4-C , 41-H ) :   0.9177 B(  5-C ,  6-F ) :   0.9128 B(  5-C ,  7-C ) :   1.2964
B(  7-C ,  8-C ) :   1.4963 B(  7-C , 42-H ) :   0.9196 B(  8-C ,  9-C ) :   1.2978
B(  8-C , 43-H ) :   0.9143 B(  9-C , 10-N ) :   1.2455 B( 10-N , 11-C ) :   1.4410
B( 11-C , 12-N ) :   0.9091 B( 12-N , 13-C ) :   0.9327 B( 12-N , 25-S ) :   0.8017
B( 13-C , 14-C ) :   0.9361 B( 13-C , 44-H ) :   0.9258 B( 13-C , 45-H ) :   0.9231
B( 14-C , 15-C ) :   1.4367 B( 14-C , 24-C ) :   1.4279 B( 15-C , 16-C ) :   1.4362
B( 15-C , 46-H ) :   0.9190 B( 16-C , 17-C ) :   1.3968 B( 16-C , 47-H ) :   0.9095
B( 17-C , 18-O ) :   0.8213 B( 17-C , 23-C ) :   1.4147 B( 18-O , 19-C ) :   0.9923
B( 19-C , 20-F ) :   0.9652 B( 19-C , 21-F ) :   1.0068 B( 19-C , 22-F ) :   0.9702
B( 23-C , 24-C ) :   1.4442 B( 23-C , 48-H ) :   0.9187 B( 24-C , 49-H ) :   0.9185
B( 25-S , 26-O ) :   1.6381 B( 25-S , 27-O ) :   1.6563 B( 25-S , 28-C ) :   0.8088
B( 28-C , 29-C ) :   1.3793 B( 28-C , 36-C ) :   1.3974 B( 29-C , 30-C ) :   1.4288
B( 29-C , 50-H ) :   0.9075 B( 30-C , 31-C ) :   1.3973 B( 30-C , 51-H ) :   0.9091
B( 31-C , 32-C ) :   1.0069 B( 31-C , 35-C ) :   1.3888 B( 32-C , 33-O ) :   1.8632
B( 32-C , 34-O ) :   1.0269 B( 34-O , 52-H ) :   0.7408 B( 35-C , 36-C ) :   1.4076
B( 35-C , 53-H ) :   0.9142 B( 36-C , 54-H ) :   0.9037

FINAL SINGLE POINT ENERGY     -2245.513567727592

DIPOLE MOMENT
-------------

Method             : SCF
Type of density    : Electron Density
Multiplicity       :   1
Irrep              :   0
Energy             : -2245.5135677275916350 Eh
Relativity type    :
Basis              : AO
                                X                 Y                 Z
Electronic contribution:     31.099906324      -2.188272702      20.029860096
Nuclear contribution   :    -31.494784814       1.761828798     -22.450368146
                        -----------------------------------------
Total Dipole Moment    :     -0.394878490      -0.426443904      -2.420508050
                        -----------------------------------------
Magnitude (a.u.)       :      2.489305655
Magnitude (Debye)      :      6.327312135

Rotational constants in cm-1:             0.002569             0.002324             0.001306
Rotational constants in MHz :            77.014350            69.674024            39.153376

                             ****ORCA TERMINATED NORMALLY****
TOTAL RUN TIME: 0 days 0 hours 11 minutes 28 seconds 545 msec
