                         Program Version 6.0.0  -   RELEASE  -
|  1> ! B3LYP 6-31G* SP
|  2>
|  3> * xyz 0 1
|  4> C -2.1747 -2.5307 -1.6371
|  5> C -3.0142 -1.4535 -1.0324
|  6> O -3.8609 -1.6642 -0.0422
|  7> C -4.4045 -0.5096 0.2639
|  8> C -3.9192 0.4854 -0.5268
|  9> C -3.0140 -0.1043 -1.3929
| 10> C -2.1416 0.5653 -2.4162
| 11> C -0.8891 1.0734 -1.7696
| 12> O -0.9038 2.1997 -1.2046
| 13> N 0.3022 0.2702 -1.7810
| 14> C 1.4789 0.5384 -1.0046
| 15> N 2.6076 -0.1909 -1.1284
| 16> C 3.5867 0.2147 -0.2708
| 17> C 4.9125 -0.4578 -0.2383
| 18> C 5.0783 -1.7024 -0.8721
| 19> C 6.3109 -2.3574 -0.8413
| 20> F 6.4487 -3.5668 -1.4387
| 21> C 7.3994 -1.7751 -0.1908
| 22> C 7.2718 -0.5165 0.4189
| 23> C 8.4355 0.0978 1.1570
| 24> F 9.6392 -0.3325 0.6254
| 25> F 8.3937 1.4785 1.0674
| 26> F 8.3748 -0.2694 2.4882
| 27> C 6.0201 0.1256 0.4096
| 28> C 3.2200 1.2796 0.5595
| 29> S 1.6361 1.7090 0.1937
| 30> C -4.3654 1.7902 -0.3546
| 31> O -3.9294 2.7162 -1.0918
| 32> N -5.2957 2.0418 0.6281
| 33> C -5.8177 3.4068 0.8090
| 34> C -5.7987 1.0040 1.3942
| 35> O -6.7012 1.2338 2.2486
| 36> N -5.3301 -0.2808 1.2331
| 37> C -5.8645 -1.3903 2.0322
| 38> H -2.2966 -2.5334 -2.7401
| 39> H -2.4870 -3.5197 -1.2414
| 40> H -1.1091 -2.3618 -1.3798
| 41> H -2.6880 1.4047 -2.8944
| 42> H -1.8885 -0.1505 -3.2261
| 43> H 0.3195 -0.5757 -2.3936
| 44> H 4.2490 -2.1798 -1.3790
| 45> H 8.3416 -2.3081 -0.1652
| 46> H 5.9231 1.0849 0.8978
| 47> H 3.8203 1.7440 1.3284
| 48> H -6.0919 3.5942 1.8691
| 49> H -5.0547 4.1698 0.5446
| 50> H -6.7135 3.5505 0.1690
| 51> H -5.9867 -1.0815 3.0924
| 52> H -6.8499 -1.7007 1.6254
| 53> H -5.1794 -2.2649 2.0220
| 54> *
| 55>
| 56>                          ****END OF INPUT****

CARTESIAN COORDINATES (ANGSTROEM)
---------------------------------
  C     -2.174700   -2.530700   -1.637100
  C     -3.014200   -1.453500   -1.032400
  O     -3.860900   -1.664200   -0.042200
  C     -4.404500   -0.509600    0.263900
  C     -3.919200    0.485400   -0.526800
  C     -3.014000   -0.104300   -1.392900
  C     -2.141600    0.565300   -2.416200
  C     -0.889100    1.073400   -1.769600
  O     -0.903800    2.199700   -1.204600
  N      0.302200    0.270200   -1.781000
  C      1.478900    0.538400   -1.004600
  N      2.607600   -0.190900   -1.128400
  C      3.586700    0.214700   -0.270800
  C      4.912500   -0.457800   -0.238300
  C      5.078300   -1.702400   -0.872100
  C      6.310900   -2.357400   -0.841300
  F      6.448700   -3.566800   -1.438700
  C      7.399400   -1.775100   -0.190800
  C      7.271800   -0.516500    0.418900
  C      8.435500    0.097800    1.157000
  F      9.639200   -0.332500    0.625400
  F      8.393700    1.478500    1.067400
  F      8.374800   -0.269400    2.488200
  C      6.020100    0.125600    0.409600
  C      3.220000    1.279600    0.559500
  S      1.636100    1.709000    0.193700
  C     -4.365400    1.790200   -0.354600
  O     -3.929400    2.716200   -1.091800
  N     -5.295700    2.041800    0.628100
  C     -5.817700    3.406800    0.809000
  C     -5.798700    1.004000    1.394200
  O     -6.701200    1.233800    2.248600
  N     -5.330100   -0.280800    1.233100
  C     -5.864500   -1.390300    2.032200
  H     -2.296600   -2.533400   -2.740100
  H     -2.487000   -3.519700   -1.241400
  H     -1.109100   -2.361800   -1.379800
  H     -2.688000    1.404700   -2.894400
  H     -1.888500   -0.150500   -3.226100
  H      0.319500   -0.575700   -2.393600
  H      4.249000   -2.179800   -1.379000
  H      8.341600   -2.308100   -0.165200
  H      5.923100    1.084900    0.897800
  H      3.820300    1.744000    1.328400
  H     -6.091900    3.594200    1.869100
  H     -5.054700    4.169800    0.544600
  H     -6.713500    3.550500    0.169000
  H     -5.986700   -1.081500    3.092400
  H     -6.849900   -1.700700    1.625400
  H     -5.179400   -2.264900    2.022000

 Total Charge           Charge          ....    0
 Multiplicity           Mult            ....    1
 Number of Electrons    NEL             ....  254
 Basis Dimension        Dim             ....  512

ORBITAL ENERGIES
----------------

  NO   OCC          E(Eh)            E(eV)
   0   2.0000     -88.908553     -2419.3247
   1   2.0000     -24.720980      -672.6921
   2   2.0000     -24.720933      -672.6908
   3   2.0000     -24.717271      -672.5911
   4   2.0000     -24.706755      -672.3050
   5   2.0000     -19.256413      -523.9936
   6   2.0000     -19.132015      -520.6086
   7   2.0000     -19.114586      -520.1343
   8   2.0000     -19.102732      -519.8118
   9   2.0000     -14.414893      -392.2492
  10   2.0000     -14.401766      -391.8920
  11   2.0000     -14.394448      -391.6928
  12   2.0000     -14.337542      -390.1443
  13   2.0000     -10.437523      -284.0194
  14   2.0000     -10.331237      -281.1272
  15   2.0000     -10.313139      -280.6348
  16   2.0000     -10.301198      -280.3098
  17   2.0000     -10.295789      -280.1627
  18   2.0000     -10.285861      -279.8925
  19   2.0000     -10.280219      -279.7390
  20   2.0000     -10.258286      -279.1422
  21   2.0000     -10.242133      -278.7026
  22   2.0000     -10.233390      -278.4647
  23   2.0000     -10.220967      -278.1267
  24   2.0000     -10.218322      -278.0547
  25   2.0000     -10.216294      -277.9995
  26   2.0000     -10.214053      -277.9385
  27   2.0000     -10.213810      -277.9319
  28   2.0000     -10.212292      -277.8906
  29   2.0000     -10.207057      -277.7481
  30   2.0000     -10.204797      -277.6866
  31   2.0000     -10.204601      -277.6813
  32   2.0000     -10.198864      -277.5252
  33   2.0000     -10.189563      -277.2721
  34   2.0000      -7.984541      -217.2704
  35   2.0000      -5.947687      -161.8448
  36   2.0000      -5.943373      -161.7274
  37   2.0000      -5.941564      -161.6782
  38   2.0000      -1.280702       -34.8497
  39   2.0000      -1.219882       -33.1947
  40   2.0000      -1.206116       -32.8201
  41   2.0000      -1.204892       -32.7868
  42   2.0000      -1.186352       -32.2823
  43   2.0000      -1.068010       -29.0620
  44   2.0000      -1.033938       -28.1349
  45   2.0000      -1.015132       -27.6231
  46   2.0000      -0.982907       -26.7463
  47   2.0000      -0.977273       -26.5929
  48   2.0000      -0.936182       -25.4748
  49   2.0000      -0.922093       -25.0914
  50   2.0000      -0.877331       -23.8734
  51   2.0000      -0.857413       -23.3314
  52   2.0000      -0.816129       -22.2080
  53   2.0000      -0.813964       -22.1491
  54   2.0000      -0.796877       -21.6841
  55   2.0000      -0.778246       -21.1772
  56   2.0000      -0.771388       -20.9905
  57   2.0000      -0.748507       -20.3679
  58   2.0000      -0.728110       -19.8129
  59   2.0000      -0.726295       -19.7635
  60   2.0000      -0.712462       -19.3871
  61   2.0000      -0.700502       -19.0616
  62   2.0000      -0.665105       -18.0984
  63   2.0000      -0.641982       -17.4692
  64   2.0000      -0.638487       -17.3741
  65   2.0000      -0.630261       -17.1503
  66   2.0000      -0.622331       -16.9345
  67   2.0000      -0.612711       -16.6727
  68   2.0000      -0.594938       -16.1891
  69   2.0000      -0.582627       -15.8541
  70   2.0000      -0.573745       -15.6124
  71   2.0000      -0.571375       -15.5479
  72   2.0000      -0.568386       -15.4666
  73   2.0000      -0.548247       -14.9186
  74   2.0000      -0.538939       -14.6653
  75   2.0000      -0.532637       -14.4938
  76   2.0000      -0.524805       -14.2807
  77   2.0000      -0.510179       -13.8827
  78   2.0000      -0.507821       -13.8185
  79   2.0000      -0.506732       -13.7889
  80   2.0000      -0.495386       -13.4801
  81   2.0000      -0.486415       -13.2360
  82   2.0000      -0.484441       -13.1823
  83   2.0000      -0.474767       -12.9191
  84   2.0000      -0.467257       -12.7147
  85   2.0000      -0.462995       -12.5987
  86   2.0000      -0.462225       -12.5778
  87   2.0000      -0.455963       -12.4074
  88   2.0000      -0.450405       -12.2561
  89   2.0000      -0.450091       -12.2476
  90   2.0000      -0.447989       -12.1904
  91   2.0000      -0.438513       -11.9326
  92   2.0000      -0.436807       -11.8861
  93   2.0000      -0.434901       -11.8342
  94   2.0000      -0.433489       -11.7958
  95   2.0000      -0.431395       -11.7389
  96   2.0000      -0.421363       -11.4659
  97   2.0000      -0.420642       -11.4462
  98   2.0000      -0.416531       -11.3344
  99   2.0000      -0.410752       -11.1771
 100   2.0000      -0.407669       -11.0932
 101   2.0000      -0.405037       -11.0216
 102   2.0000      -0.400450       -10.8968
 103   2.0000      -0.399183       -10.8623
 104   2.0000      -0.397629       -10.8200
 105   2.0000      -0.396261       -10.7828
 106   2.0000      -0.389560       -10.6005
 107   2.0000      -0.388023       -10.5586
 108   2.0000      -0.381786       -10.3889
 109   2.0000      -0.379270       -10.3205
 110   2.0000      -0.368280       -10.0214
 111   2.0000      -0.365733        -9.9521
 112   2.0000      -0.363204        -9.8833
 113   2.0000      -0.350749        -9.5444
 114   2.0000      -0.328118        -8.9285
 115   2.0000      -0.317353        -8.6356
 116   2.0000      -0.299689        -8.1550
 117   2.0000      -0.292226        -7.9519
 118   2.0000      -0.282786        -7.6950
 119   2.0000      -0.275666        -7.5012
 120   2.0000      -0.266516        -7.2523
 121   2.0000      -0.264514        -7.1978
 122   2.0000      -0.258520        -7.0347
 123   2.0000      -0.256836        -6.9889
 124   2.0000      -0.241862        -6.5814
 125   2.0000      -0.219456        -5.9717
 126   2.0000      -0.209816        -5.7094
 127   0.0000      -0.044900        -1.2218
 128   0.0000      -0.037912        -1.0316
 129   0.0000      -0.023234        -0.6322
 130   0.0000      -0.017120        -0.4659
 131   0.0000      -0.007005        -0.1906

MULLIKEN ATOMIC CHARGES
-----------------------
   0 C :   -0.544420
   1 C :    0.261883
   2 O :   -0.405576
   3 C :    0.482310
   4 C :    0.041258
   5 C :    0.025110
   6 C :   -0.433389
   7 C :    0.570117
   8 O :   -0.428061
   9 N :   -0.650286
  10 C :    0.260407
  11 N :   -0.438410
  12 C :    0.213055
  13 C :    0.134256
  14 C :   -0.249884
  15 C :    0.424192
  16 F :   -0.315297
  17 C :   -0.245527
  18 C :   -0.008521
  19 C :    0.901134
  20 F :   -0.304109
  21 F :   -0.304000
  22 F :   -0.295217
  23 C :   -0.220576
  24 C :   -0.402278
  25 S :    0.329209
  26 C :    0.509438
  27 O :   -0.489165
  28 N :   -0.483382
  29 C :   -0.315388
  30 C :    0.675987
  31 O :   -0.505630
  32 N :   -0.503596
  33 C :   -0.328499
  34 H :    0.177016
  35 H :    0.175373
  36 H :    0.173174
  37 H :    0.225046
  38 H :    0.139548
  39 H :    0.350720
  40 H :    0.165625
  41 H :    0.162866
  42 H :    0.148273
  43 H :    0.186773
  44 H :    0.191941
  45 H :    0.201346
  46 H :    0.175304
  47 H :    0.204440
  48 H :    0.185378
  49 H :    0.180032
Sum of atomic charges:    0.0000000

LOEWDIN ATOMIC CHARGES
----------------------
   0 C :   -0.364458
   1 C :    0.015719
   2 O :   -0.001746
   3 C :    0.091726
   4 C :   -0.105950
   5 C :   -0.040779
   6 C :   -0.237196
   7 C :    0.156325
   8 O :   -0.241119
   9 N :   -0.205121
  10 C :   -0.079051
  11 N :   -0.189610
  12 C :   -0.009152
  13 C :   -0.005326
  14 C :   -0.135058
  15 C :    0.119039
  16 F :   -0.099886
  17 C :   -0.146511
  18 C :   -0.061635
  19 C :    0.312624
  20 F :   -0.111714
  21 F :   -0.112278
  22 F :   -0.112585
  23 C :   -0.120348
  24 C :   -0.345704
  25 S :    0.437056
  26 C :    0.110793
  27 O :   -0.288349
  28 N :   -0.028733
  29 C :   -0.259759
  30 C :    0.143616
  31 O :   -0.314323
  32 N :   -0.025128
  33 C :   -0.259911
  34 H :    0.145139
  35 H :    0.148245
  36 H :    0.140636
  37 H :    0.178921
  38 H :    0.128020
  39 H :    0.271190
  40 H :    0.156091
  41 H :    0.152910
  42 H :    0.141661
  43 H :    0.163172
  44 H :    0.150823
  45 H :    0.155902
  46 H :    0.139035
  47 H :    0.157078
  48 H :    0.142104
  49 H :    0.143603

  Mayer bond orders larger than 0.100000
B(  0-C ,  1-C ) :   1.0262 B(  0-C , 34-H ) :   0.9316 B(  0-C , 35-H ) :   0.9364
B(  0-C , 36-H ) :   0.9244 B(  1-C ,  2-O ) :   0.9909 B(  1-C ,  5-C ) :   1.5406
B(  2-O ,  3-C ) :   1.0654 B(  3-C ,  4-C ) :   1.3758 B(  3-C , 32-N ) :   0.9764
B(  4-C ,  5-C ) :   1.2981 B(  4-C , 26-C ) :   1.0774 B(  5-C ,  6-C ) :   0.9973
B(  6-C ,  7-C ) :   0.9527 B(  6-C , 37-H ) :   0.8909 B(  6-C , 38-H ) :   0.9178
B(  7-C ,  8-O ) :   1.8467 B(  7-C ,  9-N ) :   1.0057 B(  9-N , 10-C ) :   0.9459
B(  9-N , 39-H ) :   0.8078 B( 10-C , 11-N ) :   1.4785 B( 10-C , 24-C ) :   0.1061
B( 10-C , 25-S ) :   1.1867 B( 11-N , 12-C ) :   1.2895 B( 12-C , 13-C ) :   1.0541
B( 12-C , 24-C ) :   1.5181 B( 13-C , 14-C ) :   1.3689 B( 13-C , 23-C ) :   1.3837
B( 14-C , 15-C ) :   1.3640 B( 14-C , 40-H ) :   0.9046 B( 15-C , 16-F ) :   0.9084
B( 15-C , 17-C ) :   1.3744 B( 17-C , 18-C ) :   1.3800 B( 17-C , 41-H ) :   0.9112
B( 18-C , 19-C ) :   0.9782 B( 18-C , 23-C ) :   1.4017 B( 19-C , 20-F ) :   0.9471
B( 19-C , 21-F ) :   0.9482 B( 19-C , 22-F ) :   0.9885 B( 23-C , 42-H ) :   0.9091
B( 24-C , 25-S ) :   1.1114 B( 24-C , 43-H ) :   0.9004 B( 26-C , 27-O ) :   1.7869
B( 26-C , 28-N ) :   0.9607 B( 28-N , 29-C ) :   0.9181 B( 28-N , 30-C ) :   1.0477
B( 29-C , 44-H ) :   0.9276 B( 29-C , 45-H ) :   0.9221 B( 29-C , 46-H ) :   0.9412
B( 30-C , 31-O ) :   1.7928 B( 30-C , 32-N ) :   1.0418 B( 32-N , 33-C ) :   0.9274
B( 33-C , 47-H ) :   0.9267 B( 33-C , 48-H ) :   0.9349 B( 33-C , 49-H ) :   0.9313

FINAL SINGLE POINT ENERGY     -2126.349422074770

DIPOLE MOMENT
-------------

Method             : SCF
Type of density    : Electron Density
Multiplicity       :   1
Irrep              :   0
Energy             : -2126.3494220747697909 Eh
Relativity type    :
Basis              : AO
                                X                 Y                 Z
Electronic contribution:     61.971320054       0.060395628       5.208031755
Nuclear contribution   :    -63.196077216      -2.049582206      -5.548817563
                        -----------------------------------------
Total Dipole Moment    :     -1.224757162      -1.989186578      -0.340785808
                        -----------------------------------------
Magnitude (a.u.)       :      2.360726227
Magnitude (Debye)      :      6.000489202

Rotational constants in cm-1:             0.008718             0.001171             0.001127
Rotational constants in MHz :           261.358137            35.097144            33.783863

                             ****ORCA TERMINATED NORMALLY****
TOTAL RUN TIME: 0 days 0 hours 5 minutes 31 seconds 566 msec
