                         Program Version 6.0.0  -   RELEASE  -
|  1> ! B3LYP def2-TZVP SP
|  2>
|  3> * xyz 0 1
|  4> O -4.7135 -1.6691 -2.2027
|  5> C -4.4515 -1.2823 -1.0319
|  6> C -3.1973 -1.7576 -0.3531
|  7> C -2.6591 -0.7029 0.6525
|  8> C -2.0633 0.5225 -0.1057
|  9> C -0.5708 0.3688 -0.4288
| 10> N 0.2098 0.0582 0.7785
| 11> C 1.6406 0.2446 0.7986
| 12> O 2.2303 0.3915 1.9044
| 13> N 2.3984 0.2852 -0.4255
| 14> C 3.8325 0.1936 -0.4829
| 15> C 4.5535 -0.6126 0.4148
| 16> C 5.9443 -0.7076 0.3179
| 17> C 6.6387 -0.0187 -0.6830
| 18> O 8.0353 -0.1546 -0.7341
| 19> C 8.8883 0.4556 -1.7001
| 20> F 10.1940 0.0871 -1.4407
| 21> F 8.5485 0.0309 -2.9721
| 22> F 8.7903 1.8330 -1.6217
| 23> C 5.9163 0.7731 -1.5956
| 24> C 4.5250 0.8697 -1.4978
| 25> C -0.4837 -0.4156 1.9850
| 26> C -1.6071 -1.3731 1.5825
| 27> O -3.7375 -0.2353 1.4761
| 28> C -5.0122 0.0569 0.9725
| 29> C -5.9080 0.8222 1.7320
| 30> Br -5.4108 1.4668 3.4625
| 31> C -7.1718 1.1315 1.2172
| 32> C -7.5449 0.6753 -0.0500
| 33> C -6.6618 -0.1018 -0.8047
| 34> C -5.3943 -0.4223 -0.2923
| 35> H -3.4457 -2.6974 0.1865
| 36> H -2.4214 -1.9950 -1.1134
| 37> H -2.6217 0.7284 -1.0438
| 38> H -2.1766 1.4291 0.5290
| 39> H -0.2201 1.3296 -0.8638
| 40> H -0.4276 -0.4366 -1.1801
| 41> H 1.8969 0.4406 -1.3272
| 42> H 4.0441 -1.1903 1.1747
| 43> H 6.4858 -1.3316 1.0175
| 44> H 6.4155 1.3152 -2.3862
| 45> H 3.9850 1.4821 -2.2080
| 46> H -0.8968 0.4510 2.5453
| 47> H 0.2166 -0.9633 2.6529
| 48> H -1.1324 -2.2418 1.0728
| 49> H -2.1006 -1.7677 2.4977
| 50> H -7.8639 1.7280 1.7975
| 51> H -8.5227 0.9185 -0.4450
| 52> H -6.9724 -0.4595 -1.7784
| 53> *
| 54>
| 55>                          ****END OF INPUT****

CARTESIAN COORDINATES (ANGSTROEM)
---------------------------------
  O     -4.713500   -1.669100   -2.202700
  C     -4.451500   -1.282300   -1.031900
  C     -3.197300   -1.757600   -0.353100
  C     -2.659100   -0.702900    0.652500
  C     -2.063300    0.522500   -0.105700
  C     -0.570800    0.368800   -0.428800
  N      0.209800    0.058200    0.778500
  C      1.640600    0.244600    0.798600
  O      2.230300    0.391500    1.904400
  N      2.398400    0.285200   -0.425500
  C      3.832500    0.193600   -0.482900
  C      4.553500   -0.612600    0.414800
  C      5.944300   -0.707600    0.317900
  C      6.638700   -0.018700   -0.683000
  O      8.035300   -0.154600   -0.734100
  C      8.888300    0.455600   -1.700100
  F     10.194000    0.087100   -1.440700
  F      8.548500    0.030900   -2.972100
  F      8.790300    1.833000   -1.621700
  C      5.916300    0.773100   -1.595600
  C      4.525000    0.869700   -1.497800
  C     -0.483700   -0.415600    1.985000
  C     -1.607100   -1.373100    1.582500
  O     -3.737500   -0.235300    1.476100
  C     -5.012200    0.056900    0.972500
  C     -5.908000    0.822200    1.732000
  Br    -5.410800    1.466800    3.462500
  C     -7.171800    1.131500    1.217200
  C     -7.544900    0.675300   -0.050000
  C     -6.661800   -0.101800   -0.804700
  C     -5.394300   -0.422300   -0.292300
  H     -3.445700   -2.697400    0.186500
  H     -2.421400   -1.995000   -1.113400
  H     -2.621700    0.728400   -1.043800
  H     -2.176600    1.429100    0.529000
  H     -0.220100    1.329600   -0.863800
  H     -0.427600   -0.436600   -1.180100
  H      1.896900    0.440600   -1.327200
  H      4.044100   -1.190300    1.174700
  H      6.485800   -1.331600    1.017500
  H      6.415500    1.315200   -2.386200
  H      3.985000    1.482100   -2.208000
  H     -0.896800    0.451000    2.545300
  H      0.216600   -0.963300    2.652900
  H     -1.132400   -2.241800    1.072800
  H     -2.100600   -1.767700    2.497700
  H     -7.863900    1.728000    1.797500
  H     -8.522700    0.918500   -0.445000
  H     -6.972400   -0.459500   -1.778400

 Total Charge           Charge          ....    0
 Multiplicity           Mult            ....    1
 Number of Electrons    NEL             ....  252
 Basis Dimension        Dim             .... 1086

ORBITAL ENERGIES
----------------

  NO   OCC          E(Eh)            E(eV)
   0   2.0000    -482.869174    -13139.5382
   1   2.0000     -62.516316     -1701.1554
   2   2.0000     -56.331951     -1532.8703
   3   2.0000     -56.329294     -1532.7980
   4   2.0000     -56.329224     -1532.7961
   5   2.0000     -24.736070      -673.1027
   6   2.0000     -24.733624      -673.0361
   7   2.0000     -24.733321      -673.0279
   8   2.0000     -19.199534      -522.4459
   9   2.0000     -19.179590      -521.9032
  10   2.0000     -19.124071      -520.3924
  11   2.0000     -19.091630      -519.5097
  12   2.0000     -14.365297      -390.8996
  13   2.0000     -14.353442      -390.5770
  14   2.0000     -10.500028      -285.7203
  15   2.0000     -10.316189      -280.7178
  16   2.0000     -10.279775      -279.7269
  17   2.0000     -10.278007      -279.6788
  18   2.0000     -10.274223      -279.5758
  19   2.0000     -10.258304      -279.1427
  20   2.0000     -10.251913      -278.9687
  21   2.0000     -10.238013      -278.5905
  22   2.0000     -10.232849      -278.4500
  23   2.0000     -10.221285      -278.1353
  24   2.0000     -10.213501      -277.9235
  25   2.0000     -10.210090      -277.8307
  26   2.0000     -10.206112      -277.7224
  27   2.0000     -10.205752      -277.7126
  28   2.0000     -10.205272      -277.6996
  29   2.0000     -10.199737      -277.5489
  30   2.0000     -10.199306      -277.5372
  31   2.0000     -10.192475      -277.3514
  32   2.0000     -10.191896      -277.3356
  33   2.0000     -10.190065      -277.2858
  34   2.0000     -10.187203      -277.2079
  35   2.0000      -8.707069      -236.9314
  36   2.0000      -6.536879      -177.8775
  37   2.0000      -6.525587      -177.5703
  38   2.0000      -6.524979      -177.5537
  39   2.0000      -2.651429       -72.1490
  40   2.0000      -2.648346       -72.0652
  41   2.0000      -2.647889       -72.0527
  42   2.0000      -2.638574       -71.7992
  43   2.0000      -2.638566       -71.7990
  44   2.0000      -1.316340       -35.8194
  45   2.0000      -1.238078       -33.6898
  46   2.0000      -1.237512       -33.6744
  47   2.0000      -1.088548       -29.6209
  48   2.0000      -1.084791       -29.5187
  49   2.0000      -1.031334       -28.0640
  50   2.0000      -1.030795       -28.0493
  51   2.0000      -0.939162       -25.5559
  52   2.0000      -0.927814       -25.2471
  53   2.0000      -0.894135       -24.3306
  54   2.0000      -0.859320       -23.3833
  55   2.0000      -0.838141       -22.8070
  56   2.0000      -0.822050       -22.3691
  57   2.0000      -0.793116       -21.5818
  58   2.0000      -0.784943       -21.3594
  59   2.0000      -0.773181       -21.0393
  60   2.0000      -0.762167       -20.7396
  61   2.0000      -0.752591       -20.4790
  62   2.0000      -0.745856       -20.2958
  63   2.0000      -0.713039       -19.4028
  64   2.0000      -0.676400       -18.4058
  65   2.0000      -0.672185       -18.2911
  66   2.0000      -0.661420       -17.9981
  67   2.0000      -0.649650       -17.6779
  68   2.0000      -0.635307       -17.2876
  69   2.0000      -0.620674       -16.8894
  70   2.0000      -0.611056       -16.6277
  71   2.0000      -0.606610       -16.5067
  72   2.0000      -0.601670       -16.3723
  73   2.0000      -0.582161       -15.8414
  74   2.0000      -0.569755       -15.5038
  75   2.0000      -0.561647       -15.2832
  76   2.0000      -0.557757       -15.1773
  77   2.0000      -0.540188       -14.6993
  78   2.0000      -0.531349       -14.4587
  79   2.0000      -0.516013       -14.0414
  80   2.0000      -0.513029       -13.9602
  81   2.0000      -0.498755       -13.5718
  82   2.0000      -0.492214       -13.3938
  83   2.0000      -0.487231       -13.2582
  84   2.0000      -0.484115       -13.1734
  85   2.0000      -0.480748       -13.0818
  86   2.0000      -0.477238       -12.9863
  87   2.0000      -0.473271       -12.8784
  88   2.0000      -0.461404       -12.5554
  89   2.0000      -0.460986       -12.5441
  90   2.0000      -0.457625       -12.4526
  91   2.0000      -0.455373       -12.3913
  92   2.0000      -0.450400       -12.2560
  93   2.0000      -0.449018       -12.2184
  94   2.0000      -0.438224       -11.9247
  95   2.0000      -0.436946       -11.8899
  96   2.0000      -0.434377       -11.8200
  97   2.0000      -0.433871       -11.8062
  98   2.0000      -0.428679       -11.6650
  99   2.0000      -0.421244       -11.4626
 100   2.0000      -0.420610       -11.4454
 101   2.0000      -0.414840       -11.2884
 102   2.0000      -0.409910       -11.1542
 103   2.0000      -0.406163       -11.0523
 104   2.0000      -0.399593       -10.8735
 105   2.0000      -0.397920       -10.8279
 106   2.0000      -0.394713       -10.7407
 107   2.0000      -0.389068       -10.5871
 108   2.0000      -0.385864       -10.4999
 109   2.0000      -0.380051       -10.3417
 110   2.0000      -0.372449       -10.1349
 111   2.0000      -0.363764        -9.8985
 112   2.0000      -0.360759        -9.8168
 113   2.0000      -0.356887        -9.7114
 114   2.0000      -0.340388        -9.2624
 115   2.0000      -0.333776        -9.0825
 116   2.0000      -0.326155        -8.8751
 117   2.0000      -0.300832        -8.1861
 118   2.0000      -0.298718        -8.1285
 119   2.0000      -0.276525        -7.5246
 120   2.0000      -0.272499        -7.4151
 121   2.0000      -0.267725        -7.2852
 122   2.0000      -0.264886        -7.2079
 123   2.0000      -0.251920        -6.8551
 124   2.0000      -0.244616        -6.6564
 125   2.0000      -0.226287        -6.1576
 126   0.0000      -0.089477        -2.4348
 127   0.0000      -0.033509        -0.9118
 128   0.0000      -0.026648        -0.7251
 129   0.0000      -0.025399        -0.6911
 130   0.0000      -0.019700        -0.5361

MULLIKEN ATOMIC CHARGES
-----------------------
   0 O :   -0.333957
   1 C :    0.155109
   2 C :   -0.182173
   3 C :    0.329832
   4 C :   -0.272845
   5 C :   -0.200418
   6 N :   -0.084280
   7 C :    0.333460
   8 O :   -0.417588
   9 N :   -0.344543
  10 C :    0.316515
  11 C :   -0.169733
  12 C :   -0.168461
  13 C :    0.269580
  14 O :   -0.266670
  15 C :    0.589256
  16 F :   -0.157514
  17 F :   -0.175717
  18 F :   -0.174347
  19 C :   -0.186513
  20 C :   -0.243870
  21 C :   -0.147878
  22 C :   -0.200787
  23 O :   -0.297125
  24 C :    0.252897
  25 C :   -0.066631
  26 Br:   -0.053949
  27 C :   -0.114930
  28 C :   -0.090948
  29 C :   -0.186159
  30 C :   -0.005905
  31 H :    0.125452
  32 H :    0.116232
  33 H :    0.132897
  34 H :    0.125429
  35 H :    0.117360
  36 H :    0.097304
  37 H :    0.227374
  38 H :    0.125167
  39 H :    0.121199
  40 H :    0.122988
  41 H :    0.112417
  42 H :    0.108354
  43 H :    0.140095
  44 H :    0.104286
  45 H :    0.118334
  46 H :    0.135468
  47 H :    0.121532
  48 H :    0.144405
Sum of atomic charges:    0.0000000

LOEWDIN ATOMIC CHARGES
----------------------
   0 O :    0.077474
   1 C :   -0.255020
   2 C :   -0.170074
   3 C :   -0.304897
   4 C :   -0.201537
   5 C :   -0.263676
   6 N :    0.154200
   7 C :   -0.405155
   8 O :    0.009992
   9 N :    0.120317
  10 C :   -0.179850
  11 C :   -0.091010
  12 C :   -0.104981
  13 C :   -0.212048
  14 O :    0.256610
  15 C :   -0.618078
  16 F :    0.164739
  17 F :    0.153153
  18 F :    0.154218
  19 C :   -0.123171
  20 C :   -0.118563
  21 C :   -0.245008
  22 C :   -0.203942
  23 O :    0.280834
  24 C :   -0.172224
  25 C :   -0.344245
  26 Br:    0.347403
  27 C :   -0.119306
  28 C :   -0.136193
  29 C :   -0.063794
  30 C :   -0.110087
  31 H :    0.164656
  32 H :    0.159563
  33 H :    0.152204
  34 H :    0.153979
  35 H :    0.136495
  36 H :    0.125476
  37 H :    0.192252
  38 H :    0.154433
  39 H :    0.151423
  40 H :    0.147217
  41 H :    0.143367
  42 H :    0.136126
  43 H :    0.150219
  44 H :    0.149523
  45 H :    0.152158
  46 H :    0.150875
  47 H :    0.146632
  48 H :    0.157325

  Mayer bond orders larger than 0.100000
B(  0-O ,  1-C ) :   2.0921 B(  0-O , 30-C ) :  -0.1496 B(  1-C ,  2-C ) :   1.0205
B(  1-C , 30-C ) :   0.9481 B(  2-C ,  3-C ) :   0.9000 B(  2-C , 31-H ) :   0.9328
B(  2-C , 32-H ) :   0.9411 B(  3-C ,  4-C ) :   0.9410 B(  3-C , 22-C ) :   0.9025
B(  3-C , 23-O ) :   0.8843 B(  4-C ,  5-C ) :   1.0111 B(  4-C , 33-H ) :   0.9515
B(  4-C , 34-H ) :   0.9628 B(  5-C ,  6-N ) :   0.9711 B(  5-C , 35-H ) :   0.9392
B(  5-C , 36-H ) :   0.9442 B(  6-N ,  7-C ) :   1.1579 B(  6-N , 21-C ) :   0.9312
B(  7-C ,  8-O ) :   1.9001 B(  7-C ,  9-N ) :   1.1109 B(  9-N , 10-C ) :   0.8641
B(  9-N , 37-H ) :   0.9042 B( 10-C , 11-C ) :   1.4024 B( 10-C , 20-C ) :   1.3672
B( 11-C , 12-C ) :   1.4274 B( 11-C , 38-H ) :   0.9554 B( 12-C , 13-C ) :   1.3863
B( 12-C , 39-H ) :   0.9767 B( 13-C , 14-O ) :   0.9643 B( 13-C , 19-C ) :   1.3590
B( 14-O , 15-C ) :   1.1337 B( 15-C , 16-F ) :   1.1577 B( 15-C , 17-F ) :   1.1010
B( 15-C , 18-F ) :   1.1031 B( 19-C , 20-C ) :   1.4393 B( 19-C , 40-H ) :   0.9500
B( 20-C , 41-H ) :   0.9579 B( 21-C , 22-C ) :   1.0059 B( 21-C , 42-H ) :   0.9590
B( 21-C , 43-H ) :   0.9610 B( 22-C , 44-H ) :   0.9535 B( 22-C , 45-H ) :   0.9553
B( 23-O , 24-C ) :   1.1361 B( 24-C , 25-C ) :   1.2964 B( 24-C , 30-C ) :   1.2828
B( 25-C , 26-Br) :   1.1504 B( 25-C , 27-C ) :   1.3568 B( 27-C , 28-C ) :   1.3629
B( 27-C , 46-H ) :   0.9634 B( 28-C , 29-C ) :   1.4172 B( 28-C , 47-H ) :   0.9749
B( 29-C , 30-C ) :   1.3334 B( 29-C , 48-H ) :   0.9562

FINAL SINGLE POINT ENERGY     -4094.823613231342

DIPOLE MOMENT
-------------

Method             : SCF
Type of density    : Electron Density
Multiplicity       :   1
Irrep              :   0
Energy             : -4094.8236132313422786 Eh
Relativity type    :
Basis              : AO
                                X                 Y                 Z
Electronic contribution:    -11.643546295      19.619010570      26.762413892
Nuclear contribution   :      9.880144180     -19.623252880     -27.284356018
                        -----------------------------------------
Total Dipole Moment    :     -1.763402116      -0.004242309      -0.521942126
                        -----------------------------------------
Magnitude (a.u.)       :      1.839029255
Magnitude (Debye)      :      4.674440883

Rotational constants in cm-1:             0.011463             0.001008             0.000961
Rotational constants in MHz :           343.646119            30.225758            28.796826

                             ****ORCA TERMINATED NORMALLY****
TOTAL RUN TIME: 0 days 0 hours 18 minutes 35 seconds 660 msec
