                         Program Version 6.0.0  -   RELEASE  -
|  1> ! B3LYP 6-31G* SP
|  2>
|  3> * xyz 0 1
|  4> C -1.5656 -2.6609 -3.6978
|  5> C -2.0223 -2.5986 -2.2574
|  6> C -1.9095 -1.3960 -1.5174
|  7> N -1.2365 -0.2440 -2.0505
|  8> C 0.2150 -0.2696 -2.2654
|  9> C 0.9474 0.1767 -1.0273
| 10> C 1.6509 1.3873 -1.0125
| 11> C 2.2952 1.8152 0.1491
| 12> C 2.2508 1.0466 1.3295
| 13> C 3.0265 1.5373 2.5424
| 14> F 2.4530 1.0895 3.7219
| 15> F 2.9923 2.9223 2.5866
| 16> C 4.4988 1.1058 2.4054
| 17> C 5.3227 1.1506 3.6812
| 18> C 4.9207 -0.1896 3.0846
| 19> C 1.5753 -0.2014 1.2966
| 20> Cl 1.5092 -1.3005 2.6713
| 21> C 0.9286 -0.6168 0.1266
| 22> S -2.0903 1.2686 -2.1479
| 23> O -3.5582 1.0489 -1.9042
| 24> O -1.9182 1.8357 -3.5294
| 25> C -1.4720 2.3891 -0.9362
| 26> C -1.5537 2.0569 0.4226
| 27> C -0.9837 2.8890 1.3873
| 28> C -0.3288 4.0741 1.0072
| 29> C 0.2941 4.9487 2.0243
| 30> O 0.2932 4.6166 3.2399
| 31> O 0.8962 6.1453 1.6448
| 32> C -0.2677 4.4142 -0.3557
| 33> C -0.8348 3.5770 -1.3203
| 34> N -2.4242 -1.3233 -0.2625
| 35> C -3.0223 -2.3760 0.3452
| 36> C -3.1082 -3.6068 -0.3077
| 37> C -3.6979 -4.7081 0.3326
| 38> C -3.7654 -5.9425 -0.3138
| 39> C -3.2464 -6.0868 -1.6002
| 40> C -2.6644 -4.9960 -2.2534
| 41> C -2.5931 -3.7337 -1.6220
| 42> H -2.3531 -3.1225 -4.3297
| 43> H -1.3810 -1.6545 -4.1265
| 44> H -0.6323 -3.2589 -3.7690
| 45> H 0.4697 0.3773 -3.1323
| 46> H 0.5524 -1.2952 -2.5265
| 47> H 1.6907 2.0106 -1.8980
| 48> H 2.8350 2.7539 0.1229
| 49> H 5.0644 1.3724 1.4869
| 50> H 6.3916 1.4008 3.5354
| 51> H 4.7843 1.3896 4.6261
| 52> H 4.1707 -0.7192 3.7072
| 53> H 5.7610 -0.7271 2.5923
| 54> H 0.4138 -1.5694 0.1148
| 55> H -2.0393 1.1409 0.7331
| 56> H -1.0448 2.5994 2.4289
| 57> H 1.3142 6.7618 2.3344
| 58> H 0.2329 5.3186 -0.6792
| 59> H -0.7497 3.8423 -2.3668
| 60> H -3.4119 -2.2517 1.3476
| 61> H -4.1024 -4.6149 1.3336
| 62> H -4.2161 -6.7908 0.1861
| 63> H -3.2932 -7.0497 -2.0940
| 64> H -2.2635 -5.1583 -3.2449
| 65> *
| 66>
| 67>                          ****END OF INPUT****

CARTESIAN COORDINATES (ANGSTROEM)
---------------------------------
  C     -1.565600   -2.660900   -3.697800
  C     -2.022300   -2.598600   -2.257400
  C     -1.909500   -1.396000   -1.517400
  N     -1.236500   -0.244000   -2.050500
  C      0.215000   -0.269600   -2.265400
  C      0.947400    0.176700   -1.027300
  C      1.650900    1.387300   -1.012500
  C      2.295200    1.815200    0.149100
  C      2.250800    1.046600    1.329500
  C      3.026500    1.537300    2.542400
  F      2.453000    1.089500    3.721900
  F      2.992300    2.922300    2.586600
  C      4.498800    1.105800    2.405400
  C      5.322700    1.150600    3.681200
  C      4.920700   -0.189600    3.084600
  C      1.575300   -0.201400    1.296600
  Cl     1.509200   -1.300500    2.671300
  C      0.928600   -0.616800    0.126600
  S     -2.090300    1.268600   -2.147900
  O     -3.558200    1.048900   -1.904200
  O     -1.918200    1.835700   -3.529400
  C     -1.472000    2.389100   -0.936200
  C     -1.553700    2.056900    0.422600
  C     -0.983700    2.889000    1.387300
  C     -0.328800    4.074100    1.007200
  C      0.294100    4.948700    2.024300
  O      0.293200    4.616600    3.239900
  O      0.896200    6.145300    1.644800
  C     -0.267700    4.414200   -0.355700
  C     -0.834800    3.577000   -1.320300
  N     -2.424200   -1.323300   -0.262500
  C     -3.022300   -2.376000    0.345200
  C     -3.108200   -3.606800   -0.307700
  C     -3.697900   -4.708100    0.332600
  C     -3.765400   -5.942500   -0.313800
  C     -3.246400   -6.086800   -1.600200
  C     -2.664400   -4.996000   -2.253400
  C     -2.593100   -3.733700   -1.622000
  H     -2.353100   -3.122500   -4.329700
  H     -1.381000   -1.654500   -4.126500
  H     -0.632300   -3.258900   -3.769000
  H      0.469700    0.377300   -3.132300
  H      0.552400   -1.295200   -2.526500
  H      1.690700    2.010600   -1.898000
  H      2.835000    2.753900    0.122900
  H      5.064400    1.372400    1.486900
  H      6.391600    1.400800    3.535400
  H      4.784300    1.389600    4.626100
  H      4.170700   -0.719200    3.707200
  H      5.761000   -0.727100    2.592300
  H      0.413800   -1.569400    0.114800
  H     -2.039300    1.140900    0.733100
  H     -1.044800    2.599400    2.428900
  H      1.314200    6.761800    2.334400
  H      0.232900    5.318600   -0.679200
  H     -0.749700    3.842300   -2.366800
  H     -3.411900   -2.251700    1.347600
  H     -4.102400   -4.614900    1.333600
  H     -4.216100   -6.790800    0.186100
  H     -3.293200   -7.049700   -2.094000
  H     -2.263500   -5.158300   -3.244900

 Total Charge           Charge          ....    0
 Multiplicity           Mult            ....    1
 Number of Electrons    NEL             ....  288
 Basis Dimension        Dim             ....  586

ORBITAL ENERGIES
----------------

  NO   OCC          E(Eh)            E(eV)
   0   2.0000    -101.528042     -2762.7185
   1   2.0000     -89.095191     -2424.4034
   2   2.0000     -24.696729      -672.0322
   3   2.0000     -24.688144      -671.7986
   4   2.0000     -19.188334      -522.1411
   5   2.0000     -19.128897      -520.5237
   6   2.0000     -19.124593      -520.4066
   7   2.0000     -19.120113      -520.2847
   8   2.0000     -14.377025      -391.2187
   9   2.0000     -14.335034      -390.0761
  10   2.0000     -10.352648      -281.7099
  11   2.0000     -10.326049      -280.9861
  12   2.0000     -10.265281      -279.3325
  13   2.0000     -10.258413      -279.1456
  14   2.0000     -10.243267      -278.7335
  15   2.0000     -10.234309      -278.4897
  16   2.0000     -10.227521      -278.3050
  17   2.0000     -10.223209      -278.1877
  18   2.0000     -10.216941      -278.0171
  19   2.0000     -10.212175      -277.8874
  20   2.0000     -10.211811      -277.8775
  21   2.0000     -10.209249      -277.8078
  22   2.0000     -10.209026      -277.8017
  23   2.0000     -10.208653      -277.7916
  24   2.0000     -10.208117      -277.7770
  25   2.0000     -10.207194      -277.7519
  26   2.0000     -10.203901      -277.6623
  27   2.0000     -10.203290      -277.6456
  28   2.0000     -10.202140      -277.6143
  29   2.0000     -10.201460      -277.5958
  30   2.0000     -10.199797      -277.5506
  31   2.0000     -10.199241      -277.5354
  32   2.0000     -10.198956      -277.5277
  33   2.0000     -10.197653      -277.4922
  34   2.0000     -10.196597      -277.4635
  35   2.0000     -10.187724      -277.2221
  36   2.0000     -10.187305      -277.2107
  37   2.0000     -10.184567      -277.1361
  38   2.0000      -9.459805      -257.4144
  39   2.0000      -8.130829      -221.2511
  40   2.0000      -7.223072      -196.5498
  41   2.0000      -7.213452      -196.2880
  42   2.0000      -7.212806      -196.2704
  43   2.0000      -6.096089      -165.8830
  44   2.0000      -6.093686      -165.8176
  45   2.0000      -6.093434      -165.8108
  46   2.0000      -1.232518       -33.5385
  47   2.0000      -1.177355       -32.0374
  48   2.0000      -1.080214       -29.3941
  49   2.0000      -1.072379       -29.1809
  50   2.0000      -0.986229       -26.8367
  51   2.0000      -0.966838       -26.3090
  52   2.0000      -0.957773       -26.0623
  53   2.0000      -0.919073       -25.0093
  54   2.0000      -0.894295       -24.3350
  55   2.0000      -0.881552       -23.9882
  56   2.0000      -0.866578       -23.5808
  57   2.0000      -0.859630       -23.3917
  58   2.0000      -0.842934       -22.9374
  59   2.0000      -0.811364       -22.0783
  60   2.0000      -0.799212       -21.7477
  61   2.0000      -0.794446       -21.6180
  62   2.0000      -0.776856       -21.1393
  63   2.0000      -0.767659       -20.8891
  64   2.0000      -0.746438       -20.3116
  65   2.0000      -0.744644       -20.2628
  66   2.0000      -0.731890       -19.9157
  67   2.0000      -0.710538       -19.3347
  68   2.0000      -0.695114       -18.9150
  69   2.0000      -0.673138       -18.3170
  70   2.0000      -0.651092       -17.7171
  71   2.0000      -0.647006       -17.6059
  72   2.0000      -0.631294       -17.1784
  73   2.0000      -0.624051       -16.9813
  74   2.0000      -0.615934       -16.7604
  75   2.0000      -0.602299       -16.3894
  76   2.0000      -0.598216       -16.2783
  77   2.0000      -0.589281       -16.0351
  78   2.0000      -0.588659       -16.0182
  79   2.0000      -0.583785       -15.8856
  80   2.0000      -0.557116       -15.1599
  81   2.0000      -0.542015       -14.7490
  82   2.0000      -0.537633       -14.6297
  83   2.0000      -0.535002       -14.5581
  84   2.0000      -0.530771       -14.4430
  85   2.0000      -0.522810       -14.2264
  86   2.0000      -0.518516       -14.1095
  87   2.0000      -0.504791       -13.7361
  88   2.0000      -0.489833       -13.3290
  89   2.0000      -0.485649       -13.2152
  90   2.0000      -0.479351       -13.0438
  91   2.0000      -0.478235       -13.0134
  92   2.0000      -0.469539       -12.7768
  93   2.0000      -0.467767       -12.7286
  94   2.0000      -0.461825       -12.5669
  95   2.0000      -0.458871       -12.4865
  96   2.0000      -0.452633       -12.3168
  97   2.0000      -0.450693       -12.2640
  98   2.0000      -0.448338       -12.1999
  99   2.0000      -0.440248       -11.9798
 100   2.0000      -0.439093       -11.9483
 101   2.0000      -0.436939       -11.8897
 102   2.0000      -0.433521       -11.7967
 103   2.0000      -0.432285       -11.7631
 104   2.0000      -0.423616       -11.5272
 105   2.0000      -0.421103       -11.4588
 106   2.0000      -0.413951       -11.2642
 107   2.0000      -0.412777       -11.2322
 108   2.0000      -0.407053       -11.0765
 109   2.0000      -0.406424       -11.0594
 110   2.0000      -0.401842       -10.9347
 111   2.0000      -0.399650       -10.8750
 112   2.0000      -0.396194       -10.7810
 113   2.0000      -0.389842       -10.6081
 114   2.0000      -0.385693       -10.4953
 115   2.0000      -0.382874       -10.4185
 116   2.0000      -0.378742       -10.3061
 117   2.0000      -0.376372       -10.2416
 118   2.0000      -0.370746       -10.0885
 119   2.0000      -0.366923        -9.9845
 120   2.0000      -0.365763        -9.9529
 121   2.0000      -0.359291        -9.7768
 122   2.0000      -0.354886        -9.6570
 123   2.0000      -0.353437        -9.6175
 124   2.0000      -0.337234        -9.1766
 125   2.0000      -0.332710        -9.0535
 126   2.0000      -0.323839        -8.8121
 127   2.0000      -0.314520        -8.5585
 128   2.0000      -0.305448        -8.3117
 129   2.0000      -0.302187        -8.2229
 130   2.0000      -0.298831        -8.1316
 131   2.0000      -0.298124        -8.1124
 132   2.0000      -0.294366        -8.0101
 133   2.0000      -0.287847        -7.8327
 134   2.0000      -0.281980        -7.6731
 135   2.0000      -0.274549        -7.4709
 136   2.0000      -0.271763        -7.3951
 137   2.0000      -0.269765        -7.3407
 138   2.0000      -0.265285        -7.2188
 139   2.0000      -0.257190        -6.9985
 140   2.0000      -0.256014        -6.9665
 141   2.0000      -0.250615        -6.8196
 142   2.0000      -0.246202        -6.6995
 143   2.0000      -0.220500        -6.0001
 144   0.0000      -0.075586        -2.0568
 145   0.0000      -0.063494        -1.7278
 146   0.0000      -0.033175        -0.9027
 147   0.0000      -0.028621        -0.7788
 148   0.0000      -0.024313        -0.6616

MULLIKEN ATOMIC CHARGES
-----------------------
   0 C :   -0.549299
   1 C :    0.084318
   2 C :    0.350960
   3 N :   -0.610201
   4 C :   -0.269751
   5 C :    0.177871
   6 C :   -0.175279
   7 C :   -0.161049
   8 C :    0.031207
   9 C :    0.683962
  10 F :   -0.327074
  11 F :   -0.331409
  12 C :   -0.181010
  13 C :   -0.317665
  14 C :   -0.308127
  15 C :   -0.110611
  16 Cl:   -0.000358
  17 C :   -0.165091
  18 S :    1.206369
  19 O :   -0.530259
  20 O :   -0.541564
  21 C :   -0.135511
  22 C :   -0.137097
  23 C :   -0.139341
  24 C :    0.086546
  25 C :    0.530144
  26 O :   -0.440620
  27 O :   -0.627201
  28 C :   -0.150240
  29 C :   -0.152467
  30 N :   -0.394334
  31 C :   -0.043027
  32 C :    0.130501
  33 C :   -0.200644
  34 C :   -0.127676
  35 C :   -0.119347
  36 C :   -0.200466
  37 C :    0.126516
  38 H :    0.170821
  39 H :    0.194092
  40 H :    0.155875
  41 H :    0.187371
  42 H :    0.182880
  43 H :    0.139711
  44 H :    0.153365
  45 H :    0.161088
  46 H :    0.150397
  47 H :    0.171742
  48 H :    0.181263
  49 H :    0.148682
  50 H :    0.159816
  51 H :    0.202872
  52 H :    0.183000
  53 H :    0.432496
  54 H :    0.167719
  55 H :    0.181860
  56 H :    0.157142
  57 H :    0.141533
  58 H :    0.137263
  59 H :    0.138623
  60 H :    0.138711
Sum of atomic charges:   -0.0000000

LOEWDIN ATOMIC CHARGES
----------------------
   0 C :   -0.362463
   1 C :   -0.021482
   2 C :    0.036601
   3 N :   -0.276776
   4 C :   -0.149476
   5 C :   -0.032262
   6 C :   -0.130084
   7 C :   -0.115072
   8 C :   -0.049483
   9 C :    0.241509
  10 F :   -0.117815
  11 F :   -0.131529
  12 C :   -0.162830
  13 C :   -0.253641
  14 C :   -0.252016
  15 C :   -0.075465
  16 Cl:    0.039774
  17 C :   -0.127183
  18 S :    1.268640
  19 O :   -0.559829
  20 O :   -0.574666
  21 C :   -0.175042
  22 C :   -0.096647
  23 C :   -0.083583
  24 C :   -0.036142
  25 C :    0.178508
  26 O :   -0.255358
  27 O :   -0.337228
  28 C :   -0.105701
  29 C :   -0.108347
  30 N :   -0.131395
  31 C :   -0.054664
  32 C :   -0.030967
  33 C :   -0.109361
  34 C :   -0.127435
  35 C :   -0.115303
  36 C :   -0.125833
  37 C :   -0.004512
  38 H :    0.141601
  39 H :    0.149415
  40 H :    0.133291
  41 H :    0.145047
  42 H :    0.147746
  43 H :    0.136568
  44 H :    0.144726
  45 H :    0.144540
  46 H :    0.132765
  47 H :    0.142793
  48 H :    0.147369
  49 H :    0.132942
  50 H :    0.148991
  51 H :    0.166404
  52 H :    0.161510
  53 H :    0.348947
  54 H :    0.152101
  55 H :    0.158164
  56 H :    0.139705
  57 H :    0.138294
  58 H :    0.136081
  59 H :    0.136978
  60 H :    0.138580

  Mayer bond orders larger than 0.100000
B(  0-C ,  1-C ) :   0.9965 B(  0-C , 38-H ) :   0.9285 B(  0-C , 39-H ) :   0.9275
B(  0-C , 40-H ) :   0.9262 B(  1-C ,  2-C ) :   1.4363 B(  1-C , 31-C ) :   0.1005
B(  1-C , 37-C ) :   1.2667 B(  2-C ,  3-N ) :   0.8764 B(  2-C , 30-N ) :   1.2630
B(  3-N ,  4-C ) :   0.9284 B(  3-N , 18-S ) :   0.7834 B(  4-C ,  5-C ) :   0.9434
B(  4-C , 41-H ) :   0.9178 B(  4-C , 42-H ) :   0.9163 B(  5-C ,  6-C ) :   1.4319
B(  5-C , 17-C ) :   1.4195 B(  6-C ,  7-C ) :   1.4164 B(  6-C , 43-H ) :   0.9191
B(  7-C ,  8-C ) :   1.4041 B(  7-C , 44-H ) :   0.9168 B(  8-C ,  9-C ) :   0.9653
B(  8-C , 15-C ) :   1.3591 B(  9-C , 10-F ) :   0.8734 B(  9-C , 11-F ) :   0.8874
B(  9-C , 12-C ) :   0.9936 B( 12-C , 13-C ) :   0.9365 B( 12-C , 14-C ) :   0.9355
B( 12-C , 45-H ) :   0.9244 B( 13-C , 14-C ) :   0.9595 B( 13-C , 46-H ) :   0.9457
B( 13-C , 47-H ) :   0.9377 B( 14-C , 48-H ) :   0.9314 B( 14-C , 49-H ) :   0.9437
B( 15-C , 16-Cl) :   1.0367 B( 15-C , 17-C ) :   1.3977 B( 17-C , 50-H ) :   0.9109
B( 18-S , 19-O ) :   1.6607 B( 18-S , 20-O ) :   1.6402 B( 18-S , 21-C ) :   0.8160
B( 21-C , 22-C ) :   1.3784 B( 21-C , 29-C ) :   1.3976 B( 22-C , 23-C ) :   1.4271
B( 22-C , 51-H ) :   0.8861 B( 23-C , 24-C ) :   1.3938 B( 23-C , 52-H ) :   0.9092
B( 24-C , 25-C ) :   1.0073 B( 24-C , 28-C ) :   1.3870 B( 25-C , 26-O ) :   1.8631
B( 25-C , 27-O ) :   1.0196 B( 27-O , 53-H ) :   0.7429 B( 28-C , 29-C ) :   1.4075
B( 28-C , 54-H ) :   0.9160 B( 29-C , 55-H ) :   0.9098 B( 30-N , 31-C ) :   1.4896
B( 31-C , 32-C ) :   1.2369 B( 31-C , 56-H ) :   0.9247 B( 32-C , 33-C ) :   1.2841
B( 32-C , 37-C ) :   1.2892 B( 33-C , 34-C ) :   1.5136 B( 33-C , 36-C ) :   0.1062
B( 33-C , 57-H ) :   0.9229 B( 34-C , 35-C ) :   1.3526 B( 34-C , 58-H ) :   0.9290
B( 35-C , 36-C ) :   1.5090 B( 35-C , 59-H ) :   0.9289 B( 36-C , 37-C ) :   1.2937
B( 36-C , 60-H ) :   0.9169

FINAL SINGLE POINT ENERGY     -2548.056514051666

DIPOLE MOMENT
-------------

Method             : SCF
Type of density    : Electron Density
Multiplicity       :   1
Irrep              :   0
Energy             : -2548.0565140516664542 Eh
Relativity type    :
Basis              : AO
                                X                 Y                 Z
Electronic contribution:     -1.537763215      14.935779128      15.653067150
Nuclear contribution   :      3.339489079     -16.309366181     -15.979363659
                        -----------------------------------------
Total Dipole Moment    :      1.801725864      -1.373587054      -0.326296508
                        -----------------------------------------
Magnitude (a.u.)       :      2.288979444
Magnitude (Debye)      :      5.818123372

Rotational constants in cm-1:             0.004533             0.002155             0.001708
Rotational constants in MHz :           135.889879            64.620153            51.198245

                             ****ORCA TERMINATED NORMALLY****
TOTAL RUN TIME: 0 days 0 hours 13 minutes 8 seconds 735 msec
