                         Program Version 6.0.0  -   RELEASE  -
|  1> ! B3LYP 6-31G* SP
|  2>
|  3> * xyz 0 1
|  4> C -2.8673 -4.2400 0.1388
|  5> O -1.8811 -3.2237 0.0075
|  6> C -2.2044 -1.8656 -0.0553
|  7> N -3.5021 -1.4353 0.0067
|  8> C -3.8399 -0.1056 -0.0613
|  9> C -5.2618 0.2835 0.0429
| 10> C -6.0311 -0.2483 1.0922
| 11> C -7.3760 0.1019 1.2345
| 12> C -7.9707 0.9775 0.3253
| 13> C -7.2250 1.4972 -0.7348
| 14> C -5.8757 1.1538 -0.8882
| 15> Cl -5.0220 1.7684 -2.3010
| 16> C -2.8237 0.8720 -0.1722
| 17> C -1.5109 0.4184 -0.2354
| 18> N -0.3893 1.1495 -0.3555
| 19> C 0.5898 0.2045 -0.3660
| 20> C 2.0247 0.5378 -0.4967
| 21> C 3.0920 -0.1654 0.0388
| 22> Cl 3.0038 -1.5778 1.0847
| 23> C 4.2246 0.5583 -0.3346
| 24> C 5.6819 0.2635 0.0077
| 25> C 6.0732 -1.1379 -0.5017
| 26> C 5.8922 0.3493 1.5318
| 27> C 6.6071 1.2992 -0.6699
| 28> N 3.8338 1.6343 -1.0517
| 29> N 2.5147 1.6148 -1.1483
| 30> C 1.7557 2.6393 -1.8579
| 31> N 0.1164 -1.0643 -0.2618
| 32> C -1.2095 -0.9033 -0.1797
| 33> H -3.4379 -4.0967 1.0809
| 34> H -3.5609 -4.2110 -0.7282
| 35> H -2.3686 -5.2304 0.1675
| 36> H -5.5847 -0.9243 1.8116
| 37> H -7.9573 -0.3057 2.0514
| 38> H -9.0134 1.2460 0.4360
| 39> H -7.7018 2.1592 -1.4465
| 40> H -3.0465 1.9313 -0.1921
| 41> H 5.8734 -1.2247 -1.5918
| 42> H 7.1545 -1.3291 -0.3285
| 43> H 5.5081 -1.9348 0.0213
| 44> H 5.5722 1.3434 1.9127
| 45> H 6.9645 0.2057 1.7871
| 46> H 5.3144 -0.4310 2.0665
| 47> H 6.3720 2.3273 -0.3178
| 48> H 6.4868 1.2694 -1.7749
| 49> H 7.6735 1.0918 -0.4338
| 50> H 1.0338 2.1630 -2.5544
| 51> H 1.2110 3.2745 -1.1287
| 52> H 2.4414 3.2830 -2.4489
| 53> H 0.6460 -1.9632 -0.2823
| 54> *
| 55>
| 56>                          ****END OF INPUT****

CARTESIAN COORDINATES (ANGSTROEM)
---------------------------------
  C     -2.867300   -4.240000    0.138800
  O     -1.881100   -3.223700    0.007500
  C     -2.204400   -1.865600   -0.055300
  N     -3.502100   -1.435300    0.006700
  C     -3.839900   -0.105600   -0.061300
  C     -5.261800    0.283500    0.042900
  C     -6.031100   -0.248300    1.092200
  C     -7.376000    0.101900    1.234500
  C     -7.970700    0.977500    0.325300
  C     -7.225000    1.497200   -0.734800
  C     -5.875700    1.153800   -0.888200
  Cl    -5.022000    1.768400   -2.301000
  C     -2.823700    0.872000   -0.172200
  C     -1.510900    0.418400   -0.235400
  N     -0.389300    1.149500   -0.355500
  C      0.589800    0.204500   -0.366000
  C      2.024700    0.537800   -0.496700
  C      3.092000   -0.165400    0.038800
  Cl     3.003800   -1.577800    1.084700
  C      4.224600    0.558300   -0.334600
  C      5.681900    0.263500    0.007700
  C      6.073200   -1.137900   -0.501700
  C      5.892200    0.349300    1.531800
  C      6.607100    1.299200   -0.669900
  N      3.833800    1.634300   -1.051700
  N      2.514700    1.614800   -1.148300
  C      1.755700    2.639300   -1.857900
  N      0.116400   -1.064300   -0.261800
  C     -1.209500   -0.903300   -0.179700
  H     -3.437900   -4.096700    1.080900
  H     -3.560900   -4.211000   -0.728200
  H     -2.368600   -5.230400    0.167500
  H     -5.584700   -0.924300    1.811600
  H     -7.957300   -0.305700    2.051400
  H     -9.013400    1.246000    0.436000
  H     -7.701800    2.159200   -1.446500
  H     -3.046500    1.931300   -0.192100
  H      5.873400   -1.224700   -1.591800
  H      7.154500   -1.329100   -0.328500
  H      5.508100   -1.934800    0.021300
  H      5.572200    1.343400    1.912700
  H      6.964500    0.205700    1.787100
  H      5.314400   -0.431000    2.066500
  H      6.372000    2.327300   -0.317800
  H      6.486800    1.269400   -1.774900
  H      7.673500    1.091800   -0.433800
  H      1.033800    2.163000   -2.554400
  H      1.211000    3.274500   -1.128700
  H      2.441400    3.283000   -2.448900
  H      0.646000   -1.963200   -0.282300

 Total Charge           Charge          ....    0
 Multiplicity           Mult            ....    1
 Number of Electrons    NEL             ....  224
 Basis Dimension        Dim             ....  456

ORBITAL ENERGIES
----------------

  NO   OCC          E(Eh)            E(eV)
   0   2.0000    -101.545979     -2763.2066
   1   2.0000    -101.521276     -2762.5344
   2   2.0000     -19.179003      -521.8872
   3   2.0000     -14.422761      -392.4633
   4   2.0000     -14.400988      -391.8708
   5   2.0000     -14.351216      -390.5164
   6   2.0000     -14.322961      -389.7476
   7   2.0000     -14.321139      -389.6980
   8   2.0000     -10.281548      -279.7751
   9   2.0000     -10.272400      -279.5262
  10   2.0000     -10.243700      -278.7452
  11   2.0000     -10.238725      -278.6099
  12   2.0000     -10.236881      -278.5597
  13   2.0000     -10.233964      -278.4803
  14   2.0000     -10.225153      -278.2406
  15   2.0000     -10.222534      -278.1693
  16   2.0000     -10.219530      -278.0875
  17   2.0000     -10.212481      -277.8957
  18   2.0000     -10.206370      -277.7295
  19   2.0000     -10.201889      -277.6075
  20   2.0000     -10.198911      -277.5265
  21   2.0000     -10.190975      -277.3105
  22   2.0000     -10.187980      -277.2290
  23   2.0000     -10.187387      -277.2129
  24   2.0000     -10.184640      -277.1381
  25   2.0000     -10.176152      -276.9072
  26   2.0000     -10.166271      -276.6383
  27   2.0000     -10.165384      -276.6141
  28   2.0000     -10.160827      -276.4902
  29   2.0000      -9.476761      -257.8758
  30   2.0000      -9.452926      -257.2272
  31   2.0000      -7.240051      -197.0118
  32   2.0000      -7.230314      -196.7468
  33   2.0000      -7.230098      -196.7410
  34   2.0000      -7.216021      -196.3579
  35   2.0000      -7.206617      -196.1020
  36   2.0000      -7.206116      -196.0884
  37   2.0000      -1.070501       -29.1298
  38   2.0000      -1.060742       -28.8642
  39   2.0000      -1.041133       -28.3307
  40   2.0000      -0.920495       -25.0480
  41   2.0000      -0.897409       -24.4197
  42   2.0000      -0.883075       -24.0297
  43   2.0000      -0.880681       -23.9646
  44   2.0000      -0.853181       -23.2162
  45   2.0000      -0.828052       -22.5324
  46   2.0000      -0.806055       -21.9339
  47   2.0000      -0.799496       -21.7554
  48   2.0000      -0.780082       -21.2271
  49   2.0000      -0.766061       -20.8456
  50   2.0000      -0.740482       -20.1495
  51   2.0000      -0.727061       -19.7843
  52   2.0000      -0.701768       -19.0961
  53   2.0000      -0.699534       -19.0353
  54   2.0000      -0.676396       -18.4057
  55   2.0000      -0.672769       -18.3070
  56   2.0000      -0.653221       -17.7751
  57   2.0000      -0.643172       -17.5016
  58   2.0000      -0.624677       -16.9983
  59   2.0000      -0.610255       -16.6059
  60   2.0000      -0.602327       -16.3902
  61   2.0000      -0.583858       -15.8876
  62   2.0000      -0.577083       -15.7032
  63   2.0000      -0.563880       -15.3440
  64   2.0000      -0.531252       -14.4561
  65   2.0000      -0.525089       -14.2884
  66   2.0000      -0.509925       -13.8758
  67   2.0000      -0.506765       -13.7898
  68   2.0000      -0.490055       -13.3351
  69   2.0000      -0.485801       -13.2193
  70   2.0000      -0.478829       -13.0296
  71   2.0000      -0.473018       -12.8715
  72   2.0000      -0.463733       -12.6188
  73   2.0000      -0.459619       -12.5069
  74   2.0000      -0.454014       -12.3544
  75   2.0000      -0.450110       -12.2481
  76   2.0000      -0.447646       -12.1811
  77   2.0000      -0.437345       -11.9008
  78   2.0000      -0.431035       -11.7291
  79   2.0000      -0.429564       -11.6890
  80   2.0000      -0.424294       -11.5456
  81   2.0000      -0.422937       -11.5087
  82   2.0000      -0.412460       -11.2236
  83   2.0000      -0.409045       -11.1307
  84   2.0000      -0.407113       -11.0781
  85   2.0000      -0.400891       -10.9088
  86   2.0000      -0.385683       -10.4950
  87   2.0000      -0.380031       -10.3412
  88   2.0000      -0.372767       -10.1435
  89   2.0000      -0.369426       -10.0526
  90   2.0000      -0.359432        -9.7806
  91   2.0000      -0.357827        -9.7370
  92   2.0000      -0.356582        -9.7031
  93   2.0000      -0.349505        -9.5105
  94   2.0000      -0.347457        -9.4548
  95   2.0000      -0.336869        -9.1667
  96   2.0000      -0.333745        -9.0817
  97   2.0000      -0.329895        -8.9769
  98   2.0000      -0.326730        -8.8908
  99   2.0000      -0.324143        -8.8204
 100   2.0000      -0.314332        -8.5534
 101   2.0000      -0.303332        -8.2541
 102   2.0000      -0.298017        -8.1095
 103   2.0000      -0.287097        -7.8123
 104   2.0000      -0.284453        -7.7404
 105   2.0000      -0.277622        -7.5545
 106   2.0000      -0.256646        -6.9837
 107   2.0000      -0.252579        -6.8730
 108   2.0000      -0.246442        -6.7060
 109   2.0000      -0.239840        -6.5264
 110   2.0000      -0.225273        -6.1300
 111   2.0000      -0.209211        -5.6929
 112   0.0000      -0.042450        -1.1551
 113   0.0000      -0.022320        -0.6074
 114   0.0000      -0.005817        -0.1583
 115   0.0000       0.017967         0.4889
 116   0.0000       0.022172         0.6033

MULLIKEN ATOMIC CHARGES
-----------------------
   0 C :   -0.190449
   1 O :   -0.511077
   2 C :    0.432207
   3 N :   -0.494143
   4 C :    0.141965
   5 C :    0.104419
   6 C :   -0.133377
   7 C :   -0.136521
   8 C :   -0.109867
   9 C :   -0.139945
  10 C :   -0.110003
  11 Cl:   -0.011472
  12 C :   -0.218409
  13 C :    0.264163
  14 N :   -0.481597
  15 C :    0.389238
  16 C :    0.318916
  17 C :   -0.258860
  18 Cl:   -0.004056
  19 C :    0.271831
  20 C :    0.044001
  21 C :   -0.448086
  22 C :   -0.446305
  23 C :   -0.432046
  24 N :   -0.296857
  25 N :   -0.271786
  26 C :   -0.311686
  27 N :   -0.667755
  28 C :    0.281334
  29 H :    0.158433
  30 H :    0.163105
  31 H :    0.158397
  32 H :    0.146563
  33 H :    0.132560
  34 H :    0.135470
  35 H :    0.149642
  36 H :    0.149868
  37 H :    0.142644
  38 H :    0.139862
  39 H :    0.151646
  40 H :    0.146075
  41 H :    0.139132
  42 H :    0.153284
  43 H :    0.149476
  44 H :    0.145631
  45 H :    0.130547
  46 H :    0.181927
  47 H :    0.199224
  48 H :    0.184955
  49 H :    0.367781
Sum of atomic charges:   -0.0000000

LOEWDIN ATOMIC CHARGES
----------------------
   0 C :   -0.196605
   1 O :   -0.193166
   2 C :    0.106033
   3 N :   -0.181563
   4 C :    0.022224
   5 C :   -0.021471
   6 C :   -0.105585
   7 C :   -0.129741
   8 C :   -0.124500
   9 C :   -0.133464
  10 C :   -0.082272
  11 Cl:    0.034232
  12 C :   -0.148015
  13 C :   -0.006503
  14 N :   -0.172557
  15 C :    0.058186
  16 C :   -0.026447
  17 C :   -0.158270
  18 Cl:    0.039027
  19 C :   -0.009085
  20 C :   -0.038190
  21 C :   -0.347049
  22 C :   -0.346058
  23 C :   -0.340658
  24 N :   -0.127730
  25 N :    0.078924
  26 C :   -0.264350
  27 N :   -0.090463
  28 C :   -0.035955
  29 H :    0.124776
  30 H :    0.127135
  31 H :    0.129314
  32 H :    0.143889
  33 H :    0.133616
  34 H :    0.135913
  35 H :    0.143247
  36 H :    0.148142
  37 H :    0.124069
  38 H :    0.122954
  39 H :    0.126215
  40 H :    0.125848
  41 H :    0.122565
  42 H :    0.127038
  43 H :    0.127847
  44 H :    0.126221
  45 H :    0.118439
  46 H :    0.146109
  47 H :    0.151727
  48 H :    0.148174
  49 H :    0.287830

  Mayer bond orders larger than 0.100000
B(  0-C ,  1-O ) :   0.8924 B(  0-C , 29-H ) :   0.9358 B(  0-C , 30-H ) :   0.9349
B(  0-C , 31-H ) :   0.9451 B(  1-O ,  2-C ) :   0.9567 B(  2-C ,  3-N ) :   1.3784
B(  2-C , 28-C ) :   1.2572 B(  3-N ,  4-C ) :   1.2957 B(  4-C ,  5-C ) :   0.9921
B(  4-C , 12-C ) :   1.4180 B(  5-C ,  6-C ) :   1.4178 B(  5-C , 10-C ) :   1.3732
B(  6-C ,  7-C ) :   1.4325 B(  6-C , 32-H ) :   0.9197 B(  7-C ,  8-C ) :   1.4446
B(  7-C , 33-H ) :   0.9291 B(  8-C ,  9-C ) :   1.4544 B(  8-C , 34-H ) :   0.9289
B(  9-C , 10-C ) :   1.4019 B(  9-C , 35-H ) :   0.9236 B( 10-C , 11-Cl) :   1.0267
B( 12-C , 13-C ) :   1.3210 B( 12-C , 36-H ) :   0.9103 B( 13-C , 14-N ) :   1.2242
B( 13-C , 28-C ) :   1.3175 B( 14-N , 15-C ) :   1.4875 B( 15-C , 16-C ) :   0.9964
B( 15-C , 27-N ) :   1.1085 B( 16-C , 17-C ) :   1.3928 B( 16-C , 25-N ) :   1.1112
B( 17-C , 18-Cl) :   1.0187 B( 17-C , 19-C ) :   1.3234 B( 19-C , 20-C ) :   0.9861
B( 19-C , 24-N ) :   1.4217 B( 20-C , 21-C ) :   0.9901 B( 20-C , 22-C ) :   0.9923
B( 20-C , 23-C ) :   0.9986 B( 21-C , 37-H ) :   0.9474 B( 21-C , 38-H ) :   0.9443
B( 21-C , 39-H ) :   0.9367 B( 22-C , 40-H ) :   0.9466 B( 22-C , 41-H ) :   0.9437
B( 22-C , 42-H ) :   0.9369 B( 23-C , 43-H ) :   0.9425 B( 23-C , 44-H ) :   0.9440
B( 23-C , 45-H ) :   0.9421 B( 24-N , 25-N ) :   1.2109 B( 25-N , 26-C ) :   0.9343
B( 26-C , 46-H ) :   0.9323 B( 26-C , 47-H ) :   0.9251 B( 26-C , 48-H ) :   0.9310
B( 27-N , 28-C ) :   0.9592 B( 27-N , 49-H ) :   0.8024

FINAL SINGLE POINT ENERGY     -2081.375740076893

DIPOLE MOMENT
-------------

Method             : SCF
Type of density    : Electron Density
Multiplicity       :   1
Irrep              :   0
Energy             : -2081.3757400768927255 Eh
Relativity type    :
Basis              : AO
                                X                 Y                 Z
Electronic contribution:    -31.674470242       1.224647998      -4.060124056
Nuclear contribution   :     31.575162628      -1.974683923       4.201997921
                        -----------------------------------------
Total Dipole Moment    :     -0.099307614      -0.750035925       0.141873865
                        -----------------------------------------
Magnitude (a.u.)       :      0.769768851
Magnitude (Debye)      :      1.956596926

Rotational constants in cm-1:             0.011259             0.002011             0.001797
Rotational constants in MHz :           337.529207            60.297420            53.882770

                             ****ORCA TERMINATED NORMALLY****
TOTAL RUN TIME: 0 days 0 hours 4 minutes 57 seconds 251 msec
