                         Program Version 6.0.0  -   RELEASE  -
|  1> ! B3LYP 6-31G* SP
|  2>
|  3> * xyz 0 1
|  4> F 4.5253 -2.1071 -0.3198
|  5> C 5.2208 -2.0476 0.8747
|  6> F 4.3511 -2.2867 1.9218
|  7> F 6.1716 -3.0539 0.8558
|  8> C 5.8656 -0.6853 1.0521
|  9> C 7.1673 -0.6011 1.5866
| 10> C 7.7956 0.6352 1.7481
| 11> C 7.1348 1.8086 1.3909
| 12> C 5.8358 1.7525 0.8867
| 13> C 5.1821 0.5191 0.7300
| 14> C 3.7915 0.5297 0.2319
| 15> C 3.5228 0.9297 -1.1019
| 16> C 2.1977 0.9570 -1.5995
| 17> C 1.8821 1.3704 -3.0153
| 18> F 1.2472 0.3305 -3.6697
| 19> F 1.0481 2.4734 -2.9996
| 20> F 3.0294 1.6964 -3.7176
| 21> C 1.1813 0.5818 -0.7102
| 22> N -0.1417 0.5254 -0.9227
| 23> C -0.6487 0.1134 0.2655
| 24> C -2.0834 -0.0917 0.5061
| 25> N -2.5435 -0.4975 1.6362
| 26> O -3.9075 -0.6018 1.5671
| 27> C -4.4368 -0.2096 0.3058
| 28> C -5.2200 -1.3989 -0.3181
| 29> C -6.7002 -1.3684 0.0757
| 30> C -7.3934 -0.0888 -0.4366
| 31> C -6.4476 1.1269 -0.5284
| 32> C -5.3292 1.0476 0.5155
| 33> C -3.1549 0.1124 -0.5117
| 34> N 0.2967 -0.0923 1.2197
| 35> C 1.4386 0.2095 0.5765
| 36> C 2.7300 0.1743 1.0897
| 37> H 7.7075 -1.4928 1.8778
| 38> H 8.7991 0.6827 2.1511
| 39> H 7.6261 2.7650 1.5150
| 40> H 5.3297 2.6761 0.6317
| 41> H 4.3510 1.2086 -1.7415
| 42> H -0.6639 0.7483 -1.7991
| 43> H -5.1650 -1.3615 -1.4289
| 44> H -4.7687 -2.3631 0.0031
| 45> H -6.7812 -1.4192 1.1839
| 46> H -7.2156 -2.2612 -0.3399
| 47> H -7.8235 -0.2804 -1.4438
| 48> H -8.2393 0.1525 0.2434
| 49> H -7.0301 2.0620 -0.3812
| 50> H -5.9921 1.1705 -1.5423
| 51> H -5.8007 1.0039 1.5226
| 52> H -4.7277 1.9820 0.4947
| 53> H -2.9909 -0.5933 -1.3546
| 54> H -3.1292 1.1540 -0.8973
| 55> H 2.9064 -0.1080 2.1200
| 56> *
| 57>
| 58>                          ****END OF INPUT****

CARTESIAN COORDINATES (ANGSTROEM)
---------------------------------
  F      4.525300   -2.107100   -0.319800
  C      5.220800   -2.047600    0.874700
  F      4.351100   -2.286700    1.921800
  F      6.171600   -3.053900    0.855800
  C      5.865600   -0.685300    1.052100
  C      7.167300   -0.601100    1.586600
  C      7.795600    0.635200    1.748100
  C      7.134800    1.808600    1.390900
  C      5.835800    1.752500    0.886700
  C      5.182100    0.519100    0.730000
  C      3.791500    0.529700    0.231900
  C      3.522800    0.929700   -1.101900
  C      2.197700    0.957000   -1.599500
  C      1.882100    1.370400   -3.015300
  F      1.247200    0.330500   -3.669700
  F      1.048100    2.473400   -2.999600
  F      3.029400    1.696400   -3.717600
  C      1.181300    0.581800   -0.710200
  N     -0.141700    0.525400   -0.922700
  C     -0.648700    0.113400    0.265500
  C     -2.083400   -0.091700    0.506100
  N     -2.543500   -0.497500    1.636200
  O     -3.907500   -0.601800    1.567100
  C     -4.436800   -0.209600    0.305800
  C     -5.220000   -1.398900   -0.318100
  C     -6.700200   -1.368400    0.075700
  C     -7.393400   -0.088800   -0.436600
  C     -6.447600    1.126900   -0.528400
  C     -5.329200    1.047600    0.515500
  C     -3.154900    0.112400   -0.511700
  N      0.296700   -0.092300    1.219700
  C      1.438600    0.209500    0.576500
  C      2.730000    0.174300    1.089700
  H      7.707500   -1.492800    1.877800
  H      8.799100    0.682700    2.151100
  H      7.626100    2.765000    1.515000
  H      5.329700    2.676100    0.631700
  H      4.351000    1.208600   -1.741500
  H     -0.663900    0.748300   -1.799100
  H     -5.165000   -1.361500   -1.428900
  H     -4.768700   -2.363100    0.003100
  H     -6.781200   -1.419200    1.183900
  H     -7.215600   -2.261200   -0.339900
  H     -7.823500   -0.280400   -1.443800
  H     -8.239300    0.152500    0.243400
  H     -7.030100    2.062000   -0.381200
  H     -5.992100    1.170500   -1.542300
  H     -5.800700    1.003900    1.522600
  H     -4.727700    1.982000    0.494700
  H     -2.990900   -0.593300   -1.354600
  H     -3.129200    1.154000   -0.897300
  H      2.906400   -0.108000    2.120000

 Total Charge           Charge          ....    0
 Multiplicity           Mult            ....    1
 Number of Electrons    NEL             ....  240
 Basis Dimension        Dim             ....  500

ORBITAL ENERGIES
----------------

  NO   OCC          E(Eh)            E(eV)
   0   2.0000     -24.729491      -672.9237
   1   2.0000     -24.728837      -672.9059
   2   2.0000     -24.726821      -672.8510
   3   2.0000     -24.715329      -672.5383
   4   2.0000     -24.711848      -672.4436
   5   2.0000     -24.710743      -672.4135
   6   2.0000     -19.186549      -522.0925
   7   2.0000     -14.406737      -392.0272
   8   2.0000     -14.385589      -391.4518
   9   2.0000     -14.317276      -389.5929
  10   2.0000     -10.443501      -284.1821
  11   2.0000     -10.430804      -283.8366
  12   2.0000     -10.267100      -279.3820
  13   2.0000     -10.252594      -278.9873
  14   2.0000     -10.230142      -278.3763
  15   2.0000     -10.230078      -278.3746
  16   2.0000     -10.214015      -277.9375
  17   2.0000     -10.213609      -277.9264
  18   2.0000     -10.211573      -277.8710
  19   2.0000     -10.207604      -277.7630
  20   2.0000     -10.204822      -277.6873
  21   2.0000     -10.201036      -277.5843
  22   2.0000     -10.200186      -277.5612
  23   2.0000     -10.199934      -277.5543
  24   2.0000     -10.195974      -277.4466
  25   2.0000     -10.194912      -277.4177
  26   2.0000     -10.193896      -277.3900
  27   2.0000     -10.188969      -277.2559
  28   2.0000     -10.187179      -277.2072
  29   2.0000     -10.186290      -277.1830
  30   2.0000     -10.185061      -277.1496
  31   2.0000     -10.180252      -277.0187
  32   2.0000     -10.180122      -277.0152
  33   2.0000      -1.289539       -35.0901
  34   2.0000      -1.274284       -34.6750
  35   2.0000      -1.215762       -33.0826
  36   2.0000      -1.213036       -33.0084
  37   2.0000      -1.199434       -32.6383
  38   2.0000      -1.197612       -32.5887
  39   2.0000      -1.113391       -30.2969
  40   2.0000      -1.046798       -28.4848
  41   2.0000      -0.898922       -24.4609
  42   2.0000      -0.882516       -24.0145
  43   2.0000      -0.874409       -23.7939
  44   2.0000      -0.855438       -23.2776
  45   2.0000      -0.837547       -22.7908
  46   2.0000      -0.795569       -21.6485
  47   2.0000      -0.783378       -21.3168
  48   2.0000      -0.778150       -21.1745
  49   2.0000      -0.762287       -20.7429
  50   2.0000      -0.748209       -20.3598
  51   2.0000      -0.737957       -20.0808
  52   2.0000      -0.703244       -19.1363
  53   2.0000      -0.695019       -18.9124
  54   2.0000      -0.691030       -18.8039
  55   2.0000      -0.660775       -17.9806
  56   2.0000      -0.647622       -17.6227
  57   2.0000      -0.633944       -17.2505
  58   2.0000      -0.627344       -17.0709
  59   2.0000      -0.617884       -16.8135
  60   2.0000      -0.613339       -16.6898
  61   2.0000      -0.596366       -16.2279
  62   2.0000      -0.592499       -16.1227
  63   2.0000      -0.580655       -15.8004
  64   2.0000      -0.571964       -15.5639
  65   2.0000      -0.564837       -15.3700
  66   2.0000      -0.563621       -15.3369
  67   2.0000      -0.561184       -15.2706
  68   2.0000      -0.552821       -15.0430
  69   2.0000      -0.530870       -14.4457
  70   2.0000      -0.525498       -14.2995
  71   2.0000      -0.508539       -13.8381
  72   2.0000      -0.499093       -13.5810
  73   2.0000      -0.496780       -13.5181
  74   2.0000      -0.483281       -13.1508
  75   2.0000      -0.477519       -12.9940
  76   2.0000      -0.473148       -12.8750
  77   2.0000      -0.465632       -12.6705
  78   2.0000      -0.464543       -12.6409
  79   2.0000      -0.461645       -12.5620
  80   2.0000      -0.459115       -12.4932
  81   2.0000      -0.453713       -12.3462
  82   2.0000      -0.452450       -12.3118
  83   2.0000      -0.447905       -12.1881
  84   2.0000      -0.440360       -11.9828
  85   2.0000      -0.440196       -11.9783
  86   2.0000      -0.437333       -11.9004
  87   2.0000      -0.428770       -11.6674
  88   2.0000      -0.424983       -11.5644
  89   2.0000      -0.421651       -11.4737
  90   2.0000      -0.414857       -11.2888
  91   2.0000      -0.409940       -11.1550
  92   2.0000      -0.408487       -11.1155
  93   2.0000      -0.407807       -11.0970
  94   2.0000      -0.406065       -11.0496
  95   2.0000      -0.398475       -10.8431
  96   2.0000      -0.392804       -10.6887
  97   2.0000      -0.391854       -10.6629
  98   2.0000      -0.386609       -10.5202
  99   2.0000      -0.383671       -10.4402
 100   2.0000      -0.378534       -10.3004
 101   2.0000      -0.374709       -10.1963
 102   2.0000      -0.371184       -10.1004
 103   2.0000      -0.365025        -9.9328
 104   2.0000      -0.359225        -9.7750
 105   2.0000      -0.359050        -9.7702
 106   2.0000      -0.351872        -9.5749
 107   2.0000      -0.348690        -9.4883
 108   2.0000      -0.341695        -9.2980
 109   2.0000      -0.325069        -8.8456
 110   2.0000      -0.318783        -8.6745
 111   2.0000      -0.311668        -8.4809
 112   2.0000      -0.308260        -8.3882
 113   2.0000      -0.289749        -7.8845
 114   2.0000      -0.275527        -7.4975
 115   2.0000      -0.267449        -7.2776
 116   2.0000      -0.264329        -7.1928
 117   2.0000      -0.258497        -7.0341
 118   2.0000      -0.234223        -6.3735
 119   2.0000      -0.214139        -5.8270
 120   0.0000      -0.056617        -1.5406
 121   0.0000      -0.029072        -0.7911
 122   0.0000      -0.017033        -0.4635
 123   0.0000      -0.004989        -0.1358
 124   0.0000       0.021268         0.5787

MULLIKEN ATOMIC CHARGES
-----------------------
   0 F :   -0.303507
   1 C :    0.919352
   2 F :   -0.296930
   3 F :   -0.305991
   4 C :   -0.046388
   5 C :   -0.177307
   6 C :   -0.117633
   7 C :   -0.120628
   8 C :   -0.154682
   9 C :    0.023948
  10 C :    0.030034
  11 C :   -0.220034
  12 C :   -0.064712
  13 C :    0.913872
  14 F :   -0.306330
  15 F :   -0.307552
  16 F :   -0.303057
  17 C :    0.293032
  18 N :   -0.705421
  19 C :    0.434813
  20 C :    0.200558
  21 N :   -0.096624
  22 O :   -0.400173
  23 C :    0.388143
  24 C :   -0.294871
  25 C :   -0.270775
  26 C :   -0.255120
  27 C :   -0.267079
  28 C :   -0.301432
  29 C :   -0.439278
  30 N :   -0.437973
  31 C :    0.226354
  32 C :   -0.203849
  33 H :    0.154164
  34 H :    0.138529
  35 H :    0.138483
  36 H :    0.144309
  37 H :    0.151483
  38 H :    0.351894
  39 H :    0.132811
  40 H :    0.158092
  41 H :    0.148976
  42 H :    0.136548
  43 H :    0.131557
  44 H :    0.136135
  45 H :    0.140334
  46 H :    0.127661
  47 H :    0.157634
  48 H :    0.137458
  49 H :    0.163182
  50 H :    0.158946
  51 H :    0.159042
Sum of atomic charges:   -0.0000000

LOEWDIN ATOMIC CHARGES
----------------------
   0 F :   -0.108635
   1 C :    0.313006
   2 F :   -0.110078
   3 F :   -0.112296
   4 C :   -0.068098
   5 C :   -0.112332
   6 C :   -0.128095
   7 C :   -0.114396
   8 C :   -0.122258
   9 C :    0.002468
  10 C :   -0.029186
  11 C :   -0.118869
  12 C :   -0.093381
  13 C :    0.307384
  14 F :   -0.117781
  15 F :   -0.118893
  16 F :   -0.107343
  17 C :    0.005161
  18 N :   -0.104916
  19 C :    0.049810
  20 C :   -0.043714
  21 N :    0.016311
  22 O :   -0.126820
  23 C :    0.071740
  24 C :   -0.230764
  25 C :   -0.234073
  26 C :   -0.233486
  27 C :   -0.233252
  28 C :   -0.230229
  29 C :   -0.246584
  30 N :   -0.142235
  31 C :   -0.016788
  32 C :   -0.105315
  33 H :    0.144126
  34 H :    0.136947
  35 H :    0.136442
  36 H :    0.140400
  37 H :    0.145559
  38 H :    0.277900
  39 H :    0.119809
  40 H :    0.136810
  41 H :    0.124410
  42 H :    0.124543
  43 H :    0.118872
  44 H :    0.121388
  45 H :    0.126321
  46 H :    0.112769
  47 H :    0.132743
  48 H :    0.123381
  49 H :    0.135500
  50 H :    0.134105
  51 H :    0.151909

  Mayer bond orders larger than 0.100000
B(  0-F ,  1-C ) :   0.9393 B(  1-C ,  2-F ) :   0.9600 B(  1-C ,  3-F ) :   0.9427
B(  1-C ,  4-C ) :   0.9727 B(  4-C ,  5-C ) :   1.3912 B(  4-C ,  9-C ) :   1.4042
B(  5-C ,  6-C ) :   1.4355 B(  5-C , 33-H ) :   0.9190 B(  6-C ,  7-C ) :   1.4508
B(  6-C , 34-H ) :   0.9292 B(  7-C ,  8-C ) :   1.4289 B(  7-C , 35-H ) :   0.9278
B(  8-C ,  9-C ) :   1.4223 B(  8-C , 36-H ) :   0.9229 B(  9-C , 10-C ) :   0.9721
B( 10-C , 11-C ) :   1.3335 B( 10-C , 32-C ) :   1.4351 B( 11-C , 12-C ) :   1.4227
B( 11-C , 37-H ) :   0.9154 B( 12-C , 13-C ) :   0.9740 B( 12-C , 17-C ) :   1.3022
B( 13-C , 14-F ) :   0.9536 B( 13-C , 15-F ) :   0.9522 B( 13-C , 16-F ) :   0.9439
B( 17-C , 18-N ) :   0.9898 B( 17-C , 31-C ) :   1.2960 B( 18-N , 19-C ) :   1.0553
B( 18-N , 38-H ) :   0.8097 B( 19-C , 20-C ) :   1.0342 B( 19-C , 30-N ) :   1.5203
B( 20-C , 21-N ) :   1.7067 B( 20-C , 22-O ) :   0.1024 B( 20-C , 29-C ) :   0.9738
B( 21-N , 22-O ) :   0.9834 B( 22-O , 23-C ) :   0.8150 B( 23-C , 24-C ) :   0.9781
B( 23-C , 28-C ) :   0.9770 B( 23-C , 29-C ) :   0.9747 B( 24-C , 25-C ) :   1.0122
B( 24-C , 39-H ) :   0.9304 B( 24-C , 40-H ) :   0.9296 B( 25-C , 26-C ) :   1.0030
B( 25-C , 41-H ) :   0.9397 B( 25-C , 42-H ) :   0.9423 B( 26-C , 27-C ) :   1.0014
B( 26-C , 43-H ) :   0.9471 B( 26-C , 44-H ) :   0.9471 B( 27-C , 28-C ) :   0.9992
B( 27-C , 45-H ) :   0.9424 B( 27-C , 46-H ) :   0.9429 B( 28-C , 47-H ) :   0.9289
B( 28-C , 48-H ) :   0.9344 B( 29-C , 49-H ) :   0.9171 B( 29-C , 50-H ) :   0.9179
B( 30-N , 31-C ) :   1.2342 B( 31-C , 32-C ) :   1.3149 B( 32-C , 51-H ) :   0.9092

FINAL SINGLE POINT ENERGY     -1725.456311115345

DIPOLE MOMENT
-------------

Method             : SCF
Type of density    : Electron Density
Multiplicity       :   1
Irrep              :   0
Energy             : -1725.4563111153447608 Eh
Relativity type    :
Basis              : AO
                                X                 Y                 Z
Electronic contribution:     62.894329278      -6.827603734     -10.742037426
Nuclear contribution   :    -63.416024815       7.993029089       9.572201081
                        -----------------------------------------
Total Dipole Moment    :     -0.521695537       1.165425355      -1.169836345
                        -----------------------------------------
Magnitude (a.u.)       :      1.731733110
Magnitude (Debye)      :      4.401715757

Rotational constants in cm-1:             0.008113             0.001770             0.001598
Rotational constants in MHz :           243.228496            53.052193            47.907443

                             ****ORCA TERMINATED NORMALLY****
TOTAL RUN TIME: 0 days 0 hours 7 minutes 50 seconds 302 msec
