                         Program Version 6.0.0  -   RELEASE  -
|  1> ! B3LYP 6-31G* SP
|  2>
|  3> * xyz 0 1
|  4> O 1.0285 0.1923 2.3288
|  5> C 1.4836 -0.0314 1.1736
|  6> N 0.6454 -0.6617 0.1903
|  7> C -0.8002 -0.8169 0.3898
|  8> C -1.5029 0.5249 0.2859
|  9> C -1.1017 1.4863 -0.6601
| 10> C -1.7769 2.7053 -0.7629
| 11> C -2.8870 2.9758 0.0554
| 12> C -3.6036 4.3007 -0.0193
| 13> F -3.3764 4.9247 -1.2338
| 14> F -3.1531 5.1209 0.9985
| 15> F -4.9678 4.1132 0.1224
| 16> C -3.2819 2.0196 1.0051
| 17> C -2.6055 0.8012 1.1099
| 18> C -1.3636 -1.8097 -0.6143
| 19> N -1.7572 -1.3405 -1.8336
| 20> C -2.2505 -2.1467 -2.8065
| 21> C -2.3654 -3.5137 -2.5835
| 22> C -1.9540 -4.0434 -1.3626
| 23> C -1.4224 -3.2093 -0.3595
| 24> C -0.9732 -3.8145 0.9579
| 25> F 0.3035 -3.3845 1.2715
| 26> F -1.8461 -3.4368 1.9623
| 27> F -0.9491 -5.1981 0.9029
| 28> C 2.8796 0.3517 0.8568
| 29> C 3.8305 0.4632 1.8881
| 30> C 5.1475 0.8327 1.6007
| 31> C 5.5304 1.1061 0.2811
| 32> O 6.8399 1.4749 -0.0173
| 33> C 4.5889 1.0111 -0.7473
| 34> C 3.2714 0.6387 -0.4642
| 35> H 1.0735 -1.0104 -0.6974
| 36> H -0.9681 -1.2028 1.4164
| 37> H -0.2636 1.2946 -1.3181
| 38> H -1.4302 3.4341 -1.4846
| 39> H -4.1167 2.2160 1.6666
| 40> H -2.9417 0.0731 1.8383
| 41> H -2.5556 -1.7230 -3.7538
| 42> H -2.7657 -4.1608 -3.3535
| 43> H -2.0504 -5.1106 -1.2108
| 44> H 3.5577 0.2536 2.9156
| 45> H 5.8694 0.9062 2.4042
| 46> H 7.5436 1.5594 0.7064
| 47> H 4.8775 1.2313 -1.7672
| 48> H 2.5595 0.6032 -1.2779
| 49> *
| 50>
| 51>                          ****END OF INPUT****

CARTESIAN COORDINATES (ANGSTROEM)
---------------------------------
  O      1.028500    0.192300    2.328800
  C      1.483600   -0.031400    1.173600
  N      0.645400   -0.661700    0.190300
  C     -0.800200   -0.816900    0.389800
  C     -1.502900    0.524900    0.285900
  C     -1.101700    1.486300   -0.660100
  C     -1.776900    2.705300   -0.762900
  C     -2.887000    2.975800    0.055400
  C     -3.603600    4.300700   -0.019300
  F     -3.376400    4.924700   -1.233800
  F     -3.153100    5.120900    0.998500
  F     -4.967800    4.113200    0.122400
  C     -3.281900    2.019600    1.005100
  C     -2.605500    0.801200    1.109900
  C     -1.363600   -1.809700   -0.614300
  N     -1.757200   -1.340500   -1.833600
  C     -2.250500   -2.146700   -2.806500
  C     -2.365400   -3.513700   -2.583500
  C     -1.954000   -4.043400   -1.362600
  C     -1.422400   -3.209300   -0.359500
  C     -0.973200   -3.814500    0.957900
  F      0.303500   -3.384500    1.271500
  F     -1.846100   -3.436800    1.962300
  F     -0.949100   -5.198100    0.902900
  C      2.879600    0.351700    0.856800
  C      3.830500    0.463200    1.888100
  C      5.147500    0.832700    1.600700
  C      5.530400    1.106100    0.281100
  O      6.839900    1.474900   -0.017300
  C      4.588900    1.011100   -0.747300
  C      3.271400    0.638700   -0.464200
  H      1.073500   -1.010400   -0.697400
  H     -0.968100   -1.202800    1.416400
  H     -0.263600    1.294600   -1.318100
  H     -1.430200    3.434100   -1.484600
  H     -4.116700    2.216000    1.666600
  H     -2.941700    0.073100    1.838300
  H     -2.555600   -1.723000   -3.753800
  H     -2.765700   -4.160800   -3.353500
  H     -2.050400   -5.110600   -1.210800
  H      3.557700    0.253600    2.915600
  H      5.869400    0.906200    2.404200
  H      7.543600    1.559400    0.706400
  H      4.877500    1.231300   -1.767200
  H      2.559500    0.603200   -1.277900

 Total Charge           Charge          ....    0
 Multiplicity           Mult            ....    1
 Number of Electrons    NEL             ....  224
 Basis Dimension        Dim             ....  462

ORBITAL ENERGIES
----------------

  NO   OCC          E(Eh)            E(eV)
   0   2.0000     -24.731849      -672.9878
   1   2.0000     -24.728887      -672.9072
   2   2.0000     -24.726948      -672.8545
   3   2.0000     -24.709212      -672.3718
   4   2.0000     -24.706894      -672.3088
   5   2.0000     -24.703484      -672.2160
   6   2.0000     -19.177049      -521.8340
   7   2.0000     -19.105109      -519.8764
   8   2.0000     -14.356961      -390.6728
   9   2.0000     -14.350691      -390.5022
  10   2.0000     -10.448446      -284.3167
  11   2.0000     -10.422244      -283.6037
  12   2.0000     -10.286477      -279.9093
  13   2.0000     -10.260860      -279.2122
  14   2.0000     -10.260667      -279.2069
  15   2.0000     -10.243549      -278.7411
  16   2.0000     -10.239720      -278.6369
  17   2.0000     -10.235847      -278.5315
  18   2.0000     -10.228334      -278.3271
  19   2.0000     -10.214385      -277.9476
  20   2.0000     -10.199964      -277.5551
  21   2.0000     -10.199292      -277.5368
  22   2.0000     -10.196553      -277.4623
  23   2.0000     -10.195353      -277.4296
  24   2.0000     -10.194546      -277.4077
  25   2.0000     -10.190529      -277.2984
  26   2.0000     -10.190514      -277.2980
  27   2.0000     -10.189391      -277.2674
  28   2.0000     -10.188721      -277.2492
  29   2.0000     -10.185274      -277.1554
  30   2.0000     -10.183738      -277.1136
  31   2.0000      -1.290559       -35.1179
  32   2.0000      -1.267595       -34.4930
  33   2.0000      -1.215714       -33.0813
  34   2.0000      -1.213749       -33.0278
  35   2.0000      -1.193712       -32.4826
  36   2.0000      -1.191394       -32.4195
  37   2.0000      -1.041682       -28.3456
  38   2.0000      -1.006344       -27.3840
  39   2.0000      -0.958022       -26.0691
  40   2.0000      -0.908119       -24.7112
  41   2.0000      -0.859170       -23.3792
  42   2.0000      -0.855475       -23.2787
  43   2.0000      -0.833695       -22.6860
  44   2.0000      -0.808510       -22.0007
  45   2.0000      -0.779288       -21.2055
  46   2.0000      -0.757933       -20.6244
  47   2.0000      -0.755316       -20.5532
  48   2.0000      -0.746379       -20.3100
  49   2.0000      -0.726499       -19.7690
  50   2.0000      -0.706492       -19.2246
  51   2.0000      -0.674627       -18.3575
  52   2.0000      -0.647196       -17.6111
  53   2.0000      -0.643217       -17.5028
  54   2.0000      -0.630392       -17.1538
  55   2.0000      -0.620323       -16.8798
  56   2.0000      -0.611947       -16.6519
  57   2.0000      -0.592818       -16.1314
  58   2.0000      -0.581591       -15.8259
  59   2.0000      -0.579464       -15.7680
  60   2.0000      -0.571371       -15.5478
  61   2.0000      -0.569301       -15.4915
  62   2.0000      -0.558116       -15.1871
  63   2.0000      -0.555269       -15.1096
  64   2.0000      -0.553903       -15.0725
  65   2.0000      -0.547759       -14.9053
  66   2.0000      -0.538992       -14.6667
  67   2.0000      -0.514706       -14.0059
  68   2.0000      -0.511021       -13.9056
  69   2.0000      -0.489354       -13.3160
  70   2.0000      -0.475502       -12.9391
  71   2.0000      -0.470241       -12.7959
  72   2.0000      -0.460550       -12.5322
  73   2.0000      -0.460315       -12.5258
  74   2.0000      -0.454972       -12.3804
  75   2.0000      -0.452046       -12.3008
  76   2.0000      -0.446620       -12.1531
  77   2.0000      -0.437459       -11.9039
  78   2.0000      -0.435543       -11.8517
  79   2.0000      -0.433660       -11.8005
  80   2.0000      -0.431430       -11.7398
  81   2.0000      -0.430269       -11.7082
  82   2.0000      -0.428658       -11.6644
  83   2.0000      -0.425800       -11.5866
  84   2.0000      -0.423514       -11.5244
  85   2.0000      -0.417419       -11.3586
  86   2.0000      -0.410449       -11.1689
  87   2.0000      -0.408979       -11.1289
  88   2.0000      -0.408321       -11.1110
  89   2.0000      -0.407758       -11.0957
  90   2.0000      -0.405451       -11.0329
  91   2.0000      -0.396855       -10.7990
  92   2.0000      -0.393671       -10.7123
  93   2.0000      -0.386472       -10.5164
  94   2.0000      -0.380984       -10.3671
  95   2.0000      -0.378920       -10.3109
  96   2.0000      -0.375537       -10.2189
  97   2.0000      -0.366789        -9.9808
  98   2.0000      -0.355407        -9.6711
  99   2.0000      -0.345933        -9.4133
 100   2.0000      -0.344167        -9.3653
 101   2.0000      -0.339189        -9.2298
 102   2.0000      -0.326720        -8.8905
 103   2.0000      -0.306798        -8.3484
 104   2.0000      -0.288047        -7.8382
 105   2.0000      -0.270709        -7.3664
 106   2.0000      -0.260462        -7.0875
 107   2.0000      -0.253610        -6.9011
 108   2.0000      -0.250634        -6.8201
 109   2.0000      -0.245639        -6.6842
 110   2.0000      -0.237602        -6.4655
 111   2.0000      -0.227814        -6.1991
 112   0.0000      -0.053258        -1.4492
 113   0.0000      -0.049340        -1.3426
 114   0.0000      -0.031453        -0.8559
 115   0.0000      -0.014247        -0.3877
 116   0.0000      -0.010915        -0.2970

MULLIKEN ATOMIC CHARGES
-----------------------
   0 O :   -0.484490
   1 C :    0.511966
   2 N :   -0.639276
   3 C :   -0.070947
   4 C :    0.191335
   5 C :   -0.135526
   6 C :   -0.168121
   7 C :   -0.013004
   8 C :    0.892229
   9 F :   -0.308236
  10 F :   -0.298212
  11 F :   -0.307554
  12 C :   -0.160625
  13 C :   -0.170040
  14 C :    0.182772
  15 N :   -0.394768
  16 C :    0.026935
  17 C :   -0.133806
  18 C :   -0.131400
  19 C :   -0.056842
  20 C :    0.921199
  21 F :   -0.294507
  22 F :   -0.295790
  23 F :   -0.304282
  24 C :    0.070296
  25 C :   -0.144629
  26 C :   -0.205580
  27 C :    0.396631
  28 O :   -0.668081
  29 C :   -0.171368
  30 C :   -0.172191
  31 H :    0.325500
  32 H :    0.182191
  33 H :    0.124629
  34 H :    0.145987
  35 H :    0.147752
  36 H :    0.138187
  37 H :    0.163365
  38 H :    0.149312
  39 H :    0.169569
  40 H :    0.164488
  41 H :    0.128409
  42 H :    0.418661
  43 H :    0.144181
  44 H :    0.133678
Sum of atomic charges:    0.0000000

LOEWDIN ATOMIC CHARGES
----------------------
   0 O :   -0.288074
   1 C :    0.146561
   2 N :   -0.236148
   3 C :   -0.055843
   4 C :    0.004287
   5 C :   -0.110987
   6 C :   -0.116500
   7 C :   -0.072192
   8 C :    0.309264
   9 F :   -0.115059
  10 F :   -0.115170
  11 F :   -0.116686
  12 C :   -0.111295
  13 C :   -0.122803
  14 C :    0.044077
  15 N :   -0.121865
  16 C :   -0.054063
  17 C :   -0.139436
  18 C :   -0.089876
  19 C :   -0.078775
  20 C :    0.312542
  21 F :   -0.103465
  22 F :   -0.109462
  23 F :   -0.109754
  24 C :   -0.068341
  25 C :   -0.084362
  26 C :   -0.170140
  27 C :    0.095561
  28 O :   -0.342231
  29 C :   -0.153163
  30 C :   -0.115309
  31 H :    0.250364
  32 H :    0.151375
  33 H :    0.132320
  34 H :    0.140747
  35 H :    0.141436
  36 H :    0.136684
  37 H :    0.141938
  38 H :    0.143134
  39 H :    0.151244
  40 H :    0.152529
  41 H :    0.133159
  42 H :    0.337011
  43 H :    0.143503
  44 H :    0.133263

  Mayer bond orders larger than 0.100000
B(  0-O ,  1-C ) :   1.8001 B(  1-C ,  2-N ) :   1.0174 B(  1-C , 24-C ) :   0.9965
B(  2-N ,  3-C ) :   0.9028 B(  2-N , 31-H ) :   0.8193 B(  3-C ,  4-C ) :   0.9490
B(  3-C , 14-C ) :   0.9513 B(  3-C , 32-H ) :   0.8893 B(  4-C ,  5-C ) :   1.4180
B(  4-C , 13-C ) :   1.4267 B(  5-C ,  6-C ) :   1.4273 B(  5-C , 33-H ) :   0.9184
B(  6-C ,  7-C ) :   1.4082 B(  6-C , 34-H ) :   0.9211 B(  7-C ,  8-C ) :   0.9814
B(  7-C , 12-C ) :   1.4122 B(  8-C ,  9-F ) :   0.9439 B(  8-C , 10-F ) :   0.9836
B(  8-C , 11-F ) :   0.9496 B( 12-C , 13-C ) :   1.4253 B( 12-C , 35-H ) :   0.9211
B( 13-C , 36-H ) :   0.9218 B( 14-C , 15-N ) :   1.3992 B( 14-C , 19-C ) :   1.3488
B( 15-N , 16-C ) :   1.4186 B( 16-C , 17-C ) :   1.4202 B( 16-C , 37-H ) :   0.9262
B( 17-C , 18-C ) :   1.4322 B( 17-C , 38-H ) :   0.9229 B( 18-C , 19-C ) :   1.4105
B( 18-C , 39-H ) :   0.9159 B( 19-C , 20-C ) :   0.9680 B( 20-C , 21-F ) :   0.9425
B( 20-C , 22-F ) :   0.9523 B( 20-C , 23-F ) :   0.9432 B( 24-C , 25-C ) :   1.3969
B( 24-C , 30-C ) :   1.3836 B( 25-C , 26-C ) :   1.4380 B( 25-C , 40-H ) :   0.9120
B( 26-C , 27-C ) :   1.3616 B( 26-C , 41-H ) :   0.9253 B( 27-C , 28-O ) :   0.9195
B( 27-C , 29-C ) :   1.4012 B( 28-O , 42-H ) :   0.7657 B( 29-C , 30-C ) :   1.4462
B( 29-C , 43-H ) :   0.9192 B( 30-C , 44-H ) :   0.9190

FINAL SINGLE POINT ENERGY     -1666.795786509719

DIPOLE MOMENT
-------------

Method             : SCF
Type of density    : Electron Density
Multiplicity       :   1
Irrep              :   0
Energy             : -1666.7957865097191643 Eh
Relativity type    :
Basis              : AO
                                X                 Y                 Z
Electronic contribution:    -22.628733495       2.427372192       7.328988954
Nuclear contribution   :     23.724692591      -4.119299243      -8.710948970
                        -----------------------------------------
Total Dipole Moment    :      1.095959097      -1.691927051      -1.381960015
                        -----------------------------------------
Magnitude (a.u.)       :      2.444086122
Magnitude (Debye)      :      6.212373217

Rotational constants in cm-1:             0.004138             0.003355             0.002171
Rotational constants in MHz :           124.050796           100.571052            65.085054

                             ****ORCA TERMINATED NORMALLY****
TOTAL RUN TIME: 0 days 0 hours 5 minutes 16 seconds 956 msec
