                         Program Version 6.0.0  -   RELEASE  -
|  1> ! B3LYP 6-31G* SP
|  2>
|  3> * xyz 0 1
|  4> C -2.5213 2.4728 -2.2132
|  5> N -2.9495 1.4883 -1.1995
|  6> C -2.2998 1.4299 0.0025
|  7> O -1.3514 2.2308 0.2187
|  8> C -2.6824 0.4857 0.9863
|  9> C -2.0594 0.3865 2.2792
| 10> C -0.8979 1.2480 2.7472
| 11> C 0.3948 0.8184 2.1128
| 12> O 1.1155 1.6793 1.5393
| 13> N 0.8274 -0.5481 2.2075
| 14> C 1.9528 -1.0755 1.4946
| 15> N 2.6941 -0.3666 0.6171
| 16> C 3.6925 -1.1125 0.0654
| 17> C 4.6358 -0.5279 -0.9250
| 18> C 5.5205 -1.3343 -1.6692
| 19> C 6.3951 -0.7601 -2.5962
| 20> C 6.4000 0.6214 -2.7976
| 21> F 7.2534 1.1655 -3.7009
| 22> C 5.5245 1.4350 -2.0712
| 23> Cl 5.5190 3.1731 -2.3189
| 24> C 4.6472 0.8640 -1.1422
| 25> C 3.7378 -2.4364 0.5191
| 26> S 2.4922 -2.6577 1.6285
| 27> C -2.5119 -0.5860 3.1852
| 28> C -3.5493 -1.4418 2.8579
| 29> C -4.1600 -1.3581 1.6164
| 30> C -3.7455 -0.4048 0.6556
| 31> N -4.3481 -0.3406 -0.5840
| 32> C -5.4376 -1.2772 -0.9394
| 33> C -3.9378 0.5929 -1.5021
| 34> O -4.4745 0.6289 -2.6465
| 35> H -1.7031 2.0424 -2.8281
| 36> H -2.1668 3.4136 -1.7402
| 37> H -3.3614 2.7669 -2.8779
| 38> H -0.7674 1.1748 3.8487
| 39> H -1.1070 2.3228 2.5673
| 40> H 0.2880 -1.2034 2.8160
| 41> H 5.5358 -2.4084 -1.5535
| 42> H 7.0688 -1.3904 -3.1625
| 43> H 3.9800 1.5126 -0.5880
| 44> H 4.4478 -3.1997 0.2354
| 45> H -2.0530 -0.6903 4.1611
| 46> H -3.8816 -2.1830 3.5739
| 47> H -4.9603 -2.0579 1.4256
| 48> H -6.2935 -1.1432 -0.2440
| 49> H -5.0678 -2.3237 -0.8913
| 50> H -5.8346 -1.1261 -1.9640
| 51> *
| 52>
| 53>                          ****END OF INPUT****

CARTESIAN COORDINATES (ANGSTROEM)
---------------------------------
  C     -2.521300    2.472800   -2.213200
  N     -2.949500    1.488300   -1.199500
  C     -2.299800    1.429900    0.002500
  O     -1.351400    2.230800    0.218700
  C     -2.682400    0.485700    0.986300
  C     -2.059400    0.386500    2.279200
  C     -0.897900    1.248000    2.747200
  C      0.394800    0.818400    2.112800
  O      1.115500    1.679300    1.539300
  N      0.827400   -0.548100    2.207500
  C      1.952800   -1.075500    1.494600
  N      2.694100   -0.366600    0.617100
  C      3.692500   -1.112500    0.065400
  C      4.635800   -0.527900   -0.925000
  C      5.520500   -1.334300   -1.669200
  C      6.395100   -0.760100   -2.596200
  C      6.400000    0.621400   -2.797600
  F      7.253400    1.165500   -3.700900
  C      5.524500    1.435000   -2.071200
  Cl     5.519000    3.173100   -2.318900
  C      4.647200    0.864000   -1.142200
  C      3.737800   -2.436400    0.519100
  S      2.492200   -2.657700    1.628500
  C     -2.511900   -0.586000    3.185200
  C     -3.549300   -1.441800    2.857900
  C     -4.160000   -1.358100    1.616400
  C     -3.745500   -0.404800    0.655600
  N     -4.348100   -0.340600   -0.584000
  C     -5.437600   -1.277200   -0.939400
  C     -3.937800    0.592900   -1.502100
  O     -4.474500    0.628900   -2.646500
  H     -1.703100    2.042400   -2.828100
  H     -2.166800    3.413600   -1.740200
  H     -3.361400    2.766900   -2.877900
  H     -0.767400    1.174800    3.848700
  H     -1.107000    2.322800    2.567300
  H      0.288000   -1.203400    2.816000
  H      5.535800   -2.408400   -1.553500
  H      7.068800   -1.390400   -3.162500
  H      3.980000    1.512600   -0.588000
  H      4.447800   -3.199700    0.235400
  H     -2.053000   -0.690300    4.161100
  H     -3.881600   -2.183000    3.573900
  H     -4.960300   -2.057900    1.425600
  H     -6.293500   -1.143200   -0.244000
  H     -5.067800   -2.323700   -0.891300
  H     -5.834600   -1.126100   -1.964000

 Total Charge           Charge          ....    0
 Multiplicity           Mult            ....    1
 Number of Electrons    NEL             ....  236
 Basis Dimension        Dim             ....  474

ORBITAL ENERGIES
----------------

  NO   OCC          E(Eh)            E(eV)
   0   2.0000    -101.520291     -2762.5076
   1   2.0000     -88.906456     -2419.2677
   2   2.0000     -24.699306      -672.1023
   3   2.0000     -19.110375      -520.0197
   4   2.0000     -19.109588      -519.9983
   5   2.0000     -19.108855      -519.9784
   6   2.0000     -14.406232      -392.0135
   7   2.0000     -14.395576      -391.7236
   8   2.0000     -14.390350      -391.5813
   9   2.0000     -14.322732      -389.7413
  10   2.0000     -10.326790      -281.0062
  11   2.0000     -10.296017      -280.1689
  12   2.0000     -10.292540      -280.0743
  13   2.0000     -10.288767      -279.9716
  14   2.0000     -10.274541      -279.5845
  15   2.0000     -10.265152      -279.3290
  16   2.0000     -10.243080      -278.7284
  17   2.0000     -10.237067      -278.5647
  18   2.0000     -10.231029      -278.4004
  19   2.0000     -10.225679      -278.2549
  20   2.0000     -10.218755      -278.0665
  21   2.0000     -10.215071      -277.9662
  22   2.0000     -10.212938      -277.9082
  23   2.0000     -10.208151      -277.7779
  24   2.0000     -10.207756      -277.7672
  25   2.0000     -10.203087      -277.6401
  26   2.0000     -10.202971      -277.6369
  27   2.0000     -10.202622      -277.6275
  28   2.0000     -10.195609      -277.4366
  29   2.0000     -10.194795      -277.4145
  30   2.0000     -10.190734      -277.3040
  31   2.0000      -9.451745      -257.1951
  32   2.0000      -7.984217      -217.2616
  33   2.0000      -7.215064      -196.3319
  34   2.0000      -7.205313      -196.0665
  35   2.0000      -7.204859      -196.0542
  36   2.0000      -5.947299      -161.8342
  37   2.0000      -5.943212      -161.7230
  38   2.0000      -5.941010      -161.6631
  39   2.0000      -1.212034       -32.9811
  40   2.0000      -1.069322       -29.0977
  41   2.0000      -1.022030       -27.8109
  42   2.0000      -1.012703       -27.5571
  43   2.0000      -0.973489       -26.4900
  44   2.0000      -0.971404       -26.4333
  45   2.0000      -0.938867       -25.5479
  46   2.0000      -0.912196       -24.8221
  47   2.0000      -0.882631       -24.0176
  48   2.0000      -0.876640       -23.8546
  49   2.0000      -0.835201       -22.7270
  50   2.0000      -0.811441       -22.0804
  51   2.0000      -0.803484       -21.8639
  52   2.0000      -0.792785       -21.5728
  53   2.0000      -0.771703       -20.9991
  54   2.0000      -0.748727       -20.3739
  55   2.0000      -0.738262       -20.0891
  56   2.0000      -0.731604       -19.9079
  57   2.0000      -0.716774       -19.5044
  58   2.0000      -0.706376       -19.2215
  59   2.0000      -0.658486       -17.9183
  60   2.0000      -0.657197       -17.8832
  61   2.0000      -0.633489       -17.2381
  62   2.0000      -0.623437       -16.9646
  63   2.0000      -0.616352       -16.7718
  64   2.0000      -0.604369       -16.4457
  65   2.0000      -0.587450       -15.9853
  66   2.0000      -0.577584       -15.7169
  67   2.0000      -0.553724       -15.0676
  68   2.0000      -0.542812       -14.7707
  69   2.0000      -0.538006       -14.6399
  70   2.0000      -0.524036       -14.2597
  71   2.0000      -0.519578       -14.1384
  72   2.0000      -0.504718       -13.7341
  73   2.0000      -0.493567       -13.4306
  74   2.0000      -0.488198       -13.2845
  75   2.0000      -0.485004       -13.1976
  76   2.0000      -0.478654       -13.0248
  77   2.0000      -0.467622       -12.7246
  78   2.0000      -0.462425       -12.5832
  79   2.0000      -0.461293       -12.5524
  80   2.0000      -0.456926       -12.4336
  81   2.0000      -0.453841       -12.3497
  82   2.0000      -0.451311       -12.2808
  83   2.0000      -0.437627       -11.9084
  84   2.0000      -0.432164       -11.7598
  85   2.0000      -0.429913       -11.6985
  86   2.0000      -0.426418       -11.6034
  87   2.0000      -0.422642       -11.5007
  88   2.0000      -0.414830       -11.2881
  89   2.0000      -0.406809       -11.0698
  90   2.0000      -0.404037       -10.9944
  91   2.0000      -0.402572       -10.9545
  92   2.0000      -0.395661       -10.7665
  93   2.0000      -0.389232       -10.5915
  94   2.0000      -0.387242       -10.5374
  95   2.0000      -0.385379       -10.4867
  96   2.0000      -0.379491       -10.3265
  97   2.0000      -0.373807       -10.1718
  98   2.0000      -0.373255       -10.1568
  99   2.0000      -0.365080        -9.9343
 100   2.0000      -0.361757        -9.8439
 101   2.0000      -0.359692        -9.7877
 102   2.0000      -0.349841        -9.5197
 103   2.0000      -0.330892        -9.0040
 104   2.0000      -0.321441        -8.7469
 105   2.0000      -0.302170        -8.2225
 106   2.0000      -0.300221        -8.1694
 107   2.0000      -0.290046        -7.8925
 108   2.0000      -0.277808        -7.5595
 109   2.0000      -0.273112        -7.4318
 110   2.0000      -0.269330        -7.3288
 111   2.0000      -0.263796        -7.1782
 112   2.0000      -0.249231        -6.7819
 113   2.0000      -0.245654        -6.6846
 114   2.0000      -0.241620        -6.5748
 115   2.0000      -0.237304        -6.4574
 116   2.0000      -0.225397        -6.1334
 117   2.0000      -0.207637        -5.6501
 118   0.0000      -0.062810        -1.7092
 119   0.0000      -0.036804        -1.0015
 120   0.0000      -0.028904        -0.7865
 121   0.0000      -0.013833        -0.3764
 122   0.0000      -0.008224        -0.2238

MULLIKEN ATOMIC CHARGES
-----------------------
   0 C :   -0.314527
   1 N :   -0.464049
   2 C :    0.499237
   3 O :   -0.470200
   4 C :    0.010206
   5 C :    0.097647
   6 C :   -0.422350
   7 C :    0.584906
   8 O :   -0.409213
   9 N :   -0.664751
  10 C :    0.258677
  11 N :   -0.375394
  12 C :    0.225225
  13 C :    0.114191
  14 C :   -0.165586
  15 C :   -0.209620
  16 C :    0.421078
  17 F :   -0.303965
  18 C :   -0.161125
  19 Cl:    0.003762
  20 C :   -0.167949
  21 C :   -0.400327
  22 S :    0.243043
  23 C :   -0.215322
  24 C :   -0.104565
  25 C :   -0.198061
  26 C :    0.320534
  27 N :   -0.511507
  28 C :   -0.336471
  29 C :    0.672002
  30 O :   -0.508617
  31 H :    0.183530
  32 H :    0.197596
  33 H :    0.193633
  34 H :    0.160501
  35 H :    0.220622
  36 H :    0.338946
  37 H :    0.132345
  38 H :    0.150987
  39 H :    0.207724
  40 H :    0.179805
  41 H :    0.131228
  42 H :    0.144087
  43 H :    0.143170
  44 H :    0.171470
  45 H :    0.171526
  46 H :    0.225921
Sum of atomic charges:   -0.0000000

LOEWDIN ATOMIC CHARGES
----------------------
   0 C :   -0.258220
   1 N :   -0.020363
   2 C :    0.110194
   3 O :   -0.265021
   4 C :   -0.071206
   5 C :    0.029311
   6 C :   -0.237552
   7 C :    0.155210
   8 O :   -0.221499
   9 N :   -0.212238
  10 C :   -0.078098
  11 N :   -0.152093
  12 C :   -0.000646
  13 C :   -0.020633
  14 C :   -0.119607
  15 C :   -0.152586
  16 C :    0.110756
  17 F :   -0.094489
  18 C :   -0.115939
  19 Cl:    0.051416
  20 C :   -0.108888
  21 C :   -0.351948
  22 S :    0.382715
  23 C :   -0.164439
  24 C :   -0.102012
  25 C :   -0.165072
  26 C :    0.055530
  27 N :   -0.027647
  28 C :   -0.265345
  29 C :    0.137142
  30 O :   -0.317519
  31 H :    0.143977
  32 H :    0.153797
  33 H :    0.151786
  34 H :    0.138846
  35 H :    0.175186
  36 H :    0.262111
  37 H :    0.134640
  38 H :    0.147521
  39 H :    0.172066
  40 H :    0.158893
  41 H :    0.131744
  42 H :    0.140094
  43 H :    0.141292
  44 H :    0.134821
  45 H :    0.135030
  46 H :    0.168986

  Mayer bond orders larger than 0.100000
B(  0-C ,  1-N ) :   0.9150 B(  0-C , 31-H ) :   0.9394 B(  0-C , 32-H ) :   0.9238
B(  0-C , 33-H ) :   0.9257 B(  1-N ,  2-C ) :   0.9919 B(  1-N , 29-C ) :   1.0456
B(  2-C ,  3-O ) :   1.7706 B(  2-C ,  4-C ) :   1.0516 B(  4-C ,  5-C ) :   1.3672
B(  4-C , 26-C ) :   1.2881 B(  5-C ,  6-C ) :   0.9771 B(  5-C , 23-C ) :   1.4194
B(  6-C ,  7-C ) :   0.9542 B(  6-C , 34-H ) :   0.9135 B(  6-C , 35-H ) :   0.8950
B(  7-C ,  8-O ) :   1.8993 B(  7-C ,  9-N ) :   0.9649 B(  9-N , 10-C ) :   0.9589
B(  9-N , 36-H ) :   0.8137 B( 10-C , 11-N ) :   1.5109 B( 10-C , 21-C ) :   0.1076
B( 10-C , 22-S ) :   1.1374 B( 11-N , 12-C ) :   1.2665 B( 12-C , 13-C ) :   1.0572
B( 12-C , 21-C ) :   1.5125 B( 13-C , 14-C ) :   1.3983 B( 13-C , 20-C ) :   1.4008
B( 14-C , 15-C ) :   1.4259 B( 14-C , 37-H ) :   0.9203 B( 15-C , 16-C ) :   1.3854
B( 15-C , 38-H ) :   0.9190 B( 16-C , 17-F ) :   0.9463 B( 16-C , 18-C ) :   1.3200
B( 18-C , 19-Cl) :   1.0361 B( 18-C , 20-C ) :   1.3709 B( 20-C , 39-H ) :   0.8953
B( 21-C , 22-S ) :   1.1105 B( 21-C , 40-H ) :   0.9020 B( 23-C , 24-C ) :   1.4027
B( 23-C , 41-H ) :   0.9244 B( 24-C , 25-C ) :   1.4741 B( 24-C , 42-H ) :   0.9258
B( 25-C , 26-C ) :   1.3401 B( 25-C , 43-H ) :   0.9140 B( 26-C , 27-N ) :   0.9756
B( 27-N , 28-C ) :   0.9344 B( 27-N , 29-C ) :   1.0380 B( 28-C , 44-H ) :   0.9320
B( 28-C , 45-H ) :   0.9321 B( 28-C , 46-H ) :   0.9132 B( 29-C , 30-O ) :   1.7866

FINAL SINGLE POINT ENERGY     -2211.873928654803

DIPOLE MOMENT
-------------

Method             : SCF
Type of density    : Electron Density
Multiplicity       :   1
Irrep              :   0
Energy             : -2211.8739286548034215 Eh
Relativity type    :
Basis              : AO
                                X                 Y                 Z
Electronic contribution:     37.633104460       9.268245374      -9.077719655
Nuclear contribution   :    -39.722817700     -12.116829874      10.907149638
                        -----------------------------------------
Total Dipole Moment    :     -2.089713240      -2.848584499       1.829429983
                        -----------------------------------------
Magnitude (a.u.)       :      3.978460649
Magnitude (Debye)      :     10.112443322

Rotational constants in cm-1:             0.006505             0.002039             0.001794
Rotational constants in MHz :           195.003681            61.141050            53.772723

                             ****ORCA TERMINATED NORMALLY****
TOTAL RUN TIME: 0 days 0 hours 8 minutes 19 seconds 209 msec
