                         Program Version 6.0.0  -   RELEASE  -
|  1> ! B3LYP 6-31G* SP
|  2>
|  3> * xyz 0 1
|  4> O 1.7580 2.6327 1.0950
|  5> S 1.1957 1.5554 0.2076
|  6> O 1.2355 2.0302 -1.2183
|  7> C 2.1649 0.0969 0.3921
|  8> C 2.3348 -0.7801 -0.6883
|  9> C 3.0577 -1.9656 -0.5248
| 10> C 3.6055 -2.2939 0.7253
| 11> C 4.4001 -3.5593 0.8927
| 12> O 5.7200 -3.3570 0.4652
| 13> C 3.4433 -1.4087 1.8032
| 14> C 2.7180 -0.2247 1.6395
| 15> N -0.4408 1.2000 0.6612
| 16> C -1.2981 2.2511 1.2111
| 17> C -1.8885 3.0720 0.0983
| 18> C -1.2255 4.2187 -0.3679
| 19> C -1.7555 4.9543 -1.4323
| 20> C -2.9470 4.5477 -2.0403
| 21> C -3.6067 3.4019 -1.5887
| 22> C -3.0779 2.6624 -0.5264
| 23> C -1.0228 -0.0215 0.1944
| 24> N -1.1371 -0.2380 -1.1438
| 25> C -1.6622 -1.3854 -1.6465
| 26> C -2.1133 -2.3955 -0.7826
| 27> C -2.6470 -3.6912 -1.3383
| 28> F -3.3920 -3.4545 -2.4790
| 29> F -1.5889 -4.5202 -1.6551
| 30> F -3.4583 -4.3301 -0.4160
| 31> C -1.9642 -2.2074 0.6003
| 32> C -1.4250 -1.0178 1.0961
| 33> Cl -1.2034 -0.8258 2.8298
| 34> H 1.9008 -0.5514 -1.6549
| 35> H 3.1836 -2.6325 -1.3686
| 36> H 4.3808 -3.9027 1.9538
| 37> H 3.9467 -4.3709 0.2824
| 38> H 6.1732 -2.8384 1.1824
| 39> H 3.8705 -1.6389 2.7716
| 40> H 2.5825 0.4364 2.4865
| 41> H -0.7139 2.8960 1.9016
| 42> H -2.1121 1.8009 1.8192
| 43> H -0.2988 4.5394 0.0890
| 44> H -1.2411 5.8382 -1.7891
| 45> H -3.3562 5.1188 -2.8633
| 46> H -4.5267 3.0845 -2.0631
| 47> H -3.5928 1.7700 -0.1919
| 48> H -1.7211 -1.5103 -2.7202
| 49> H -2.2547 -2.9856 1.2952
| 50> *
| 51>
| 52>                          ****END OF INPUT****

CARTESIAN COORDINATES (ANGSTROEM)
---------------------------------
  O      1.758000    2.632700    1.095000
  S      1.195700    1.555400    0.207600
  O      1.235500    2.030200   -1.218300
  C      2.164900    0.096900    0.392100
  C      2.334800   -0.780100   -0.688300
  C      3.057700   -1.965600   -0.524800
  C      3.605500   -2.293900    0.725300
  C      4.400100   -3.559300    0.892700
  O      5.720000   -3.357000    0.465200
  C      3.443300   -1.408700    1.803200
  C      2.718000   -0.224700    1.639500
  N     -0.440800    1.200000    0.661200
  C     -1.298100    2.251100    1.211100
  C     -1.888500    3.072000    0.098300
  C     -1.225500    4.218700   -0.367900
  C     -1.755500    4.954300   -1.432300
  C     -2.947000    4.547700   -2.040300
  C     -3.606700    3.401900   -1.588700
  C     -3.077900    2.662400   -0.526400
  C     -1.022800   -0.021500    0.194400
  N     -1.137100   -0.238000   -1.143800
  C     -1.662200   -1.385400   -1.646500
  C     -2.113300   -2.395500   -0.782600
  C     -2.647000   -3.691200   -1.338300
  F     -3.392000   -3.454500   -2.479000
  F     -1.588900   -4.520200   -1.655100
  F     -3.458300   -4.330100   -0.416000
  C     -1.964200   -2.207400    0.600300
  C     -1.425000   -1.017800    1.096100
  Cl    -1.203400   -0.825800    2.829800
  H      1.900800   -0.551400   -1.654900
  H      3.183600   -2.632500   -1.368600
  H      4.380800   -3.902700    1.953800
  H      3.946700   -4.370900    0.282400
  H      6.173200   -2.838400    1.182400
  H      3.870500   -1.638900    2.771600
  H      2.582500    0.436400    2.486500
  H     -0.713900    2.896000    1.901600
  H     -2.112100    1.800900    1.819200
  H     -0.298800    4.539400    0.089000
  H     -1.241100    5.838200   -1.789100
  H     -3.356200    5.118800   -2.863300
  H     -4.526700    3.084500   -2.063100
  H     -3.592800    1.770000   -0.191900
  H     -1.721100   -1.510300   -2.720200
  H     -2.254700   -2.985600    1.295200

 Total Charge           Charge          ....    0
 Multiplicity           Mult            ....    1
 Number of Electrons    NEL             ....  234
 Basis Dimension        Dim             ....  460

ORBITAL ENERGIES
----------------

  NO   OCC          E(Eh)            E(eV)
   0   2.0000    -101.556636     -2763.4966
   1   2.0000     -89.096626     -2424.4425
   2   2.0000     -24.739128      -673.1859
   3   2.0000     -24.738142      -673.1591
   4   2.0000     -24.735546      -673.0884
   5   2.0000     -19.153394      -521.1903
   6   2.0000     -19.127411      -520.4833
   7   2.0000     -19.115214      -520.1514
   8   2.0000     -14.377040      -391.2191
   9   2.0000     -14.364448      -390.8765
  10   2.0000     -10.456863      -284.5457
  11   2.0000     -10.298768      -280.2437
  12   2.0000     -10.284369      -279.8519
  13   2.0000     -10.258754      -279.1549
  14   2.0000     -10.245153      -278.7848
  15   2.0000     -10.244637      -278.7707
  16   2.0000     -10.244087      -278.7558
  17   2.0000     -10.234865      -278.5048
  18   2.0000     -10.230822      -278.3948
  19   2.0000     -10.217112      -278.0218
  20   2.0000     -10.215166      -277.9688
  21   2.0000     -10.214683      -277.9556
  22   2.0000     -10.209540      -277.8157
  23   2.0000     -10.206645      -277.7369
  24   2.0000     -10.182083      -277.0686
  25   2.0000     -10.176579      -276.9188
  26   2.0000     -10.174770      -276.8696
  27   2.0000     -10.173376      -276.8316
  28   2.0000     -10.172243      -276.8008
  29   2.0000     -10.171047      -276.7683
  30   2.0000      -9.487884      -258.1784
  31   2.0000      -8.132457      -221.2954
  32   2.0000      -7.251188      -197.3149
  33   2.0000      -7.241515      -197.0516
  34   2.0000      -7.240972      -197.0369
  35   2.0000      -6.097791      -165.9293
  36   2.0000      -6.095425      -165.8650
  37   2.0000      -6.094814      -165.8483
  38   2.0000      -1.299001       -35.3476
  39   2.0000      -1.223920       -33.3045
  40   2.0000      -1.222999       -33.2795
  41   2.0000      -1.081051       -29.4169
  42   2.0000      -1.033647       -28.1270
  43   2.0000      -0.989583       -26.9279
  44   2.0000      -0.957837       -26.0641
  45   2.0000      -0.930378       -25.3169
  46   2.0000      -0.896860       -24.4048
  47   2.0000      -0.883066       -24.0295
  48   2.0000      -0.845796       -23.0153
  49   2.0000      -0.838485       -22.8163
  50   2.0000      -0.802093       -21.8261
  51   2.0000      -0.786415       -21.3994
  52   2.0000      -0.770859       -20.9761
  53   2.0000      -0.762988       -20.7620
  54   2.0000      -0.733718       -19.9655
  55   2.0000      -0.727508       -19.7965
  56   2.0000      -0.715366       -19.4661
  57   2.0000      -0.683916       -18.6103
  58   2.0000      -0.675237       -18.3741
  59   2.0000      -0.655111       -17.8265
  60   2.0000      -0.635122       -17.2825
  61   2.0000      -0.631035       -17.1713
  62   2.0000      -0.602401       -16.3922
  63   2.0000      -0.594751       -16.1840
  64   2.0000      -0.590141       -16.0586
  65   2.0000      -0.589315       -16.0361
  66   2.0000      -0.579474       -15.7683
  67   2.0000      -0.576815       -15.6959
  68   2.0000      -0.564465       -15.3599
  69   2.0000      -0.533795       -14.5253
  70   2.0000      -0.528215       -14.3735
  71   2.0000      -0.514368       -13.9967
  72   2.0000      -0.502586       -13.6761
  73   2.0000      -0.499215       -13.5843
  74   2.0000      -0.483917       -13.1680
  75   2.0000      -0.483066       -13.1449
  76   2.0000      -0.475587       -12.9414
  77   2.0000      -0.470331       -12.7984
  78   2.0000      -0.466401       -12.6914
  79   2.0000      -0.464119       -12.6293
  80   2.0000      -0.457935       -12.4611
  81   2.0000      -0.455168       -12.3858
  82   2.0000      -0.446845       -12.1593
  83   2.0000      -0.446244       -12.1429
  84   2.0000      -0.444311       -12.0903
  85   2.0000      -0.439723       -11.9655
  86   2.0000      -0.437680       -11.9099
  87   2.0000      -0.432879       -11.7792
  88   2.0000      -0.428730       -11.6663
  89   2.0000      -0.424449       -11.5498
  90   2.0000      -0.416128       -11.3234
  91   2.0000      -0.411785       -11.2052
  92   2.0000      -0.410386       -11.1672
  93   2.0000      -0.400668       -10.9027
  94   2.0000      -0.399328       -10.8663
  95   2.0000      -0.392229       -10.6731
  96   2.0000      -0.384631       -10.4663
  97   2.0000      -0.371708       -10.1147
  98   2.0000      -0.369690       -10.0598
  99   2.0000      -0.352392        -9.5891
 100   2.0000      -0.347361        -9.4522
 101   2.0000      -0.340197        -9.2572
 102   2.0000      -0.338919        -9.2224
 103   2.0000      -0.334249        -9.0954
 104   2.0000      -0.329606        -8.9690
 105   2.0000      -0.314984        -8.5712
 106   2.0000      -0.307917        -8.3789
 107   2.0000      -0.297237        -8.0882
 108   2.0000      -0.288852        -7.8601
 109   2.0000      -0.284841        -7.7509
 110   2.0000      -0.281073        -7.6484
 111   2.0000      -0.274068        -7.4578
 112   2.0000      -0.272953        -7.4274
 113   2.0000      -0.268054        -7.2941
 114   2.0000      -0.248111        -6.7514
 115   2.0000      -0.238032        -6.4772
 116   2.0000      -0.232069        -6.3149
 117   0.0000      -0.070530        -1.9192
 118   0.0000      -0.058325        -1.5871
 119   0.0000      -0.054385        -1.4799
 120   0.0000      -0.026288        -0.7153
 121   0.0000       0.001586         0.0432

MULLIKEN ATOMIC CHARGES
-----------------------
   0 O :   -0.553862
   1 S :    1.225703
   2 O :   -0.528254
   3 C :   -0.159746
   4 C :   -0.138499
   5 C :   -0.150310
   6 C :    0.158284
   7 C :   -0.116845
   8 O :   -0.597042
   9 C :   -0.169954
  10 C :   -0.130955
  11 N :   -0.583137
  12 C :   -0.272827
  13 C :    0.177160
  14 C :   -0.153795
  15 C :   -0.126530
  16 C :   -0.122177
  17 C :   -0.127175
  18 C :   -0.162411
  19 C :    0.370804
  20 N :   -0.342574
  21 C :   -0.009734
  22 C :   -0.027337
  23 C :    0.904506
  24 F :   -0.298678
  25 F :   -0.291525
  26 F :   -0.301604
  27 C :   -0.134647
  28 C :   -0.092543
  29 Cl:    0.027050
  30 H :    0.189693
  31 H :    0.151505
  32 H :    0.128023
  33 H :    0.153149
  34 H :    0.397636
  35 H :    0.138854
  36 H :    0.178547
  37 H :    0.197445
  38 H :    0.170609
  39 H :    0.155935
  40 H :    0.131406
  41 H :    0.125656
  42 H :    0.123790
  43 H :    0.112776
  44 H :    0.185506
  45 H :    0.188124
Sum of atomic charges:   -0.0000000

LOEWDIN ATOMIC CHARGES
----------------------
   0 O :   -0.578526
   1 S :    1.267892
   2 O :   -0.564581
   3 C :   -0.193835
   4 C :   -0.096352
   5 C :   -0.118586
   6 C :   -0.014511
   7 C :   -0.103703
   8 O :   -0.390164
   9 C :   -0.133889
  10 C :   -0.093032
  11 N :   -0.275863
  12 C :   -0.146647
  13 C :   -0.035837
  14 C :   -0.116852
  15 C :   -0.122101
  16 C :   -0.127192
  17 C :   -0.128903
  18 C :   -0.131910
  19 C :    0.051360
  20 N :   -0.098571
  21 C :   -0.047498
  22 C :   -0.078868
  23 C :    0.311451
  24 F :   -0.106914
  25 F :   -0.108391
  26 F :   -0.109909
  27 C :   -0.093540
  28 C :   -0.096790
  29 Cl:    0.062545
  30 H :    0.161702
  31 H :    0.144184
  32 H :    0.107098
  33 H :    0.127974
  34 H :    0.316559
  35 H :    0.136689
  36 H :    0.157030
  37 H :    0.153603
  38 H :    0.138889
  39 H :    0.143437
  40 H :    0.133153
  41 H :    0.130356
  42 H :    0.129329
  43 H :    0.123901
  44 H :    0.153289
  45 H :    0.162527

  Mayer bond orders larger than 0.100000
B(  0-O ,  1-S ) :   1.5999 B(  1-S ,  2-O ) :   1.6668 B(  1-S ,  3-C ) :   0.8209
B(  1-S , 11-N ) :   0.7933 B(  3-C ,  4-C ) :   1.3907 B(  3-C , 10-C ) :   1.3936
B(  4-C ,  5-C ) :   1.4338 B(  4-C , 30-H ) :   0.9052 B(  5-C ,  6-C ) :   1.4224
B(  5-C , 31-H ) :   0.9224 B(  6-C ,  7-C ) :   0.9425 B(  6-C ,  9-C ) :   1.4199
B(  7-C ,  8-O ) :   0.9854 B(  7-C , 32-H ) :   0.9294 B(  7-C , 33-H ) :   0.9296
B(  8-O , 34-H ) :   0.7876 B(  9-C , 10-C ) :   1.4369 B(  9-C , 35-H ) :   0.9242
B( 10-C , 36-H ) :   0.9106 B( 11-N , 12-C ) :   0.9216 B( 11-N , 19-C ) :   0.9715
B( 12-C , 13-C ) :   0.9411 B( 12-C , 37-H ) :   0.9150 B( 12-C , 38-H ) :   0.9210
B( 13-C , 14-C ) :   1.4390 B( 13-C , 18-C ) :   1.4293 B( 14-C , 15-C ) :   1.4444
B( 14-C , 39-H ) :   0.9143 B( 15-C , 16-C ) :   1.4515 B( 15-C , 40-H ) :   0.9292
B( 16-C , 17-C ) :   1.4554 B( 16-C , 41-H ) :   0.9307 B( 17-C , 18-C ) :   1.4465
B( 17-C , 42-H ) :   0.9301 B( 18-C , 43-H ) :   0.9263 B( 19-C , 20-N ) :   1.3828
B( 19-C , 28-C ) :   1.3327 B( 20-N , 21-C ) :   1.4108 B( 21-C , 22-C ) :   1.3515
B( 21-C , 44-H ) :   0.9176 B( 22-C , 23-C ) :   0.9731 B( 22-C , 27-C ) :   1.4105
B( 23-C , 24-F ) :   0.9550 B( 23-C , 25-F ) :   0.9892 B( 23-C , 26-F ) :   0.9495
B( 27-C , 28-C ) :   1.3925 B( 27-C , 45-H ) :   0.9077 B( 28-C , 29-Cl) :   1.0500

FINAL SINGLE POINT ENERGY     -2263.820339963588

DIPOLE MOMENT
-------------

Method             : SCF
Type of density    : Electron Density
Multiplicity       :   1
Irrep              :   0
Energy             : -2263.8203399635876849 Eh
Relativity type    :
Basis              : AO
                                X                 Y                 Z
Electronic contribution:    -18.169573172     -21.800322642      -0.459822613
Nuclear contribution   :     17.746455570      20.159555931       1.642805569
                        -----------------------------------------
Total Dipole Moment    :     -0.423117602      -1.640766711       1.182982956
                        -----------------------------------------
Magnitude (a.u.)       :      2.066541211
Magnitude (Debye)      :      5.252730318

Rotational constants in cm-1:             0.004803             0.003828             0.002590
Rotational constants in MHz :           143.995708           114.770809            77.645616

                             ****ORCA TERMINATED NORMALLY****
TOTAL RUN TIME: 0 days 0 hours 5 minutes 9 seconds 794 msec
