                         Program Version 6.0.0  -   RELEASE  -
|  1> ! B3LYP 6-31G* SP
|  2>
|  3> * xyz 0 1
|  4> C -2.6575 4.3847 -0.1659
|  5> C -3.3206 3.2941 0.4038
|  6> C -2.9850 1.9920 0.0207
|  7> C -1.9846 1.7736 -0.9405
|  8> C -1.6079 0.3680 -1.3272
|  9> N -0.9326 -0.3273 -0.2086
| 10> C 0.3807 0.2578 0.1574
| 11> C 1.4503 0.1510 -0.9472
| 12> C 2.7719 0.6384 -0.4351
| 13> C 3.2732 1.9329 -0.5328
| 14> N 4.4584 2.0294 0.1123
| 15> C 4.7012 0.8115 0.6278
| 16> C 5.7957 0.4228 1.3991
| 17> C 5.8366 -0.9062 1.8598
| 18> C 4.7924 -1.8049 1.5469
| 19> C 3.6988 -1.3840 0.7684
| 20> C 3.6905 -0.0629 0.3203
| 21> C -0.8578 -1.7858 -0.4344
| 22> C -2.1714 -2.4293 -0.0795
| 23> C -2.9847 -2.9969 -1.0750
| 24> C -4.2129 -3.5731 -0.7359
| 25> C -4.6381 -3.5845 0.5954
| 26> C -3.8361 -3.0186 1.5903
| 27> C -2.6072 -2.4416 1.2557
| 28> C -1.3185 2.8742 -1.5054
| 29> C -1.6566 4.1747 -1.1187
| 30> H -2.9173 5.3920 0.1328
| 31> H -4.0929 3.4577 1.1443
| 32> H -3.5002 1.1536 0.4738
| 33> H -2.5507 -0.1610 -1.5876
| 34> H -0.9884 0.3507 -2.2488
| 35> H 0.2515 1.3254 0.4376
| 36> H 0.7517 -0.2457 1.0779
| 37> H 1.1676 0.7695 -1.8233
| 38> H 1.5643 -0.8989 -1.2874
| 39> H 2.7902 2.7603 -1.0364
| 40> H 5.0524 2.8833 0.2039
| 41> H 6.5873 1.1206 1.6399
| 42> H 6.6718 -1.2408 2.4612
| 43> H 4.8326 -2.8235 1.9103
| 44> H 2.8924 -2.0653 0.5296
| 45> H -0.0776 -2.2492 0.2105
| 46> H -0.5750 -2.0098 -1.4882
| 47> H -2.6716 -2.9895 -2.1116
| 48> H -4.8364 -4.0089 -1.5059
| 49> H -5.5895 -4.0300 0.8558
| 50> H -4.1674 -3.0255 2.6207
| 51> H -1.9962 -2.0014 2.0343
| 52> H -0.5359 2.7265 -2.2390
| 53> H -1.1409 5.0199 -1.5560
| 54> *
| 55>
| 56>                          ****END OF INPUT****

CARTESIAN COORDINATES (ANGSTROEM)
---------------------------------
  C     -2.657500    4.384700   -0.165900
  C     -3.320600    3.294100    0.403800
  C     -2.985000    1.992000    0.020700
  C     -1.984600    1.773600   -0.940500
  C     -1.607900    0.368000   -1.327200
  N     -0.932600   -0.327300   -0.208600
  C      0.380700    0.257800    0.157400
  C      1.450300    0.151000   -0.947200
  C      2.771900    0.638400   -0.435100
  C      3.273200    1.932900   -0.532800
  N      4.458400    2.029400    0.112300
  C      4.701200    0.811500    0.627800
  C      5.795700    0.422800    1.399100
  C      5.836600   -0.906200    1.859800
  C      4.792400   -1.804900    1.546900
  C      3.698800   -1.384000    0.768400
  C      3.690500   -0.062900    0.320300
  C     -0.857800   -1.785800   -0.434400
  C     -2.171400   -2.429300   -0.079500
  C     -2.984700   -2.996900   -1.075000
  C     -4.212900   -3.573100   -0.735900
  C     -4.638100   -3.584500    0.595400
  C     -3.836100   -3.018600    1.590300
  C     -2.607200   -2.441600    1.255700
  C     -1.318500    2.874200   -1.505400
  C     -1.656600    4.174700   -1.118700
  H     -2.917300    5.392000    0.132800
  H     -4.092900    3.457700    1.144300
  H     -3.500200    1.153600    0.473800
  H     -2.550700   -0.161000   -1.587600
  H     -0.988400    0.350700   -2.248800
  H      0.251500    1.325400    0.437600
  H      0.751700   -0.245700    1.077900
  H      1.167600    0.769500   -1.823300
  H      1.564300   -0.898900   -1.287400
  H      2.790200    2.760300   -1.036400
  H      5.052400    2.883300    0.203900
  H      6.587300    1.120600    1.639900
  H      6.671800   -1.240800    2.461200
  H      4.832600   -2.823500    1.910300
  H      2.892400   -2.065300    0.529600
  H     -0.077600   -2.249200    0.210500
  H     -0.575000   -2.009800   -1.488200
  H     -2.671600   -2.989500   -2.111600
  H     -4.836400   -4.008900   -1.505900
  H     -5.589500   -4.030000    0.855800
  H     -4.167400   -3.025500    2.620700
  H     -1.996200   -2.001400    2.034300
  H     -0.535900    2.726500   -2.239000
  H     -1.140900    5.019900   -1.556000

 Total Charge           Charge          ....    0
 Multiplicity           Mult            ....    1
 Number of Electrons    NEL             ....  182
 Basis Dimension        Dim             ....  412

ORBITAL ENERGIES
----------------

  NO   OCC          E(Eh)            E(eV)
   0   2.0000     -14.370291      -391.0355
   1   2.0000     -14.311998      -389.4493
   2   2.0000     -10.199503      -277.5426
   3   2.0000     -10.198246      -277.5084
   4   2.0000     -10.196972      -277.4737
   5   2.0000     -10.195005      -277.4202
   6   2.0000     -10.191160      -277.3156
   7   2.0000     -10.180299      -277.0200
   8   2.0000     -10.179532      -276.9991
   9   2.0000     -10.175278      -276.8834
  10   2.0000     -10.174698      -276.8676
  11   2.0000     -10.174227      -276.8548
  12   2.0000     -10.174158      -276.8529
  13   2.0000     -10.174084      -276.8509
  14   2.0000     -10.173699      -276.8404
  15   2.0000     -10.173583      -276.8373
  16   2.0000     -10.173076      -276.8235
  17   2.0000     -10.171873      -276.7907
  18   2.0000     -10.171251      -276.7738
  19   2.0000     -10.170755      -276.7603
  20   2.0000     -10.170603      -276.7562
  21   2.0000     -10.167100      -276.6609
  22   2.0000     -10.166882      -276.6549
  23   2.0000     -10.164386      -276.5870
  24   2.0000     -10.156661      -276.3768
  25   2.0000     -10.154722      -276.3240
  26   2.0000      -0.988141       -26.8887
  27   2.0000      -0.907894       -24.7051
  28   2.0000      -0.843392       -22.9499
  29   2.0000      -0.838079       -22.8053
  30   2.0000      -0.829779       -22.5794
  31   2.0000      -0.794179       -21.6107
  32   2.0000      -0.762357       -20.7448
  33   2.0000      -0.749969       -20.4077
  34   2.0000      -0.734057       -19.9747
  35   2.0000      -0.733465       -19.9586
  36   2.0000      -0.725504       -19.7420
  37   2.0000      -0.724682       -19.7196
  38   2.0000      -0.695738       -18.9320
  39   2.0000      -0.674657       -18.3583
  40   2.0000      -0.651671       -17.7329
  41   2.0000      -0.614700       -16.7268
  42   2.0000      -0.597845       -16.2682
  43   2.0000      -0.594900       -16.1881
  44   2.0000      -0.593943       -16.1620
  45   2.0000      -0.582199       -15.8424
  46   2.0000      -0.572712       -15.5843
  47   2.0000      -0.557365       -15.1667
  48   2.0000      -0.545015       -14.8306
  49   2.0000      -0.531871       -14.4729
  50   2.0000      -0.502697       -13.6791
  51   2.0000      -0.500335       -13.6148
  52   2.0000      -0.478875       -13.0309
  53   2.0000      -0.472039       -12.8448
  54   2.0000      -0.465881       -12.6773
  55   2.0000      -0.458412       -12.4740
  56   2.0000      -0.454620       -12.3708
  57   2.0000      -0.448896       -12.2151
  58   2.0000      -0.439870       -11.9695
  59   2.0000      -0.433625       -11.7995
  60   2.0000      -0.431079       -11.7302
  61   2.0000      -0.423397       -11.5212
  62   2.0000      -0.421940       -11.4816
  63   2.0000      -0.413771       -11.2593
  64   2.0000      -0.411535       -11.1984
  65   2.0000      -0.408805       -11.1242
  66   2.0000      -0.401319       -10.9205
  67   2.0000      -0.389495       -10.5987
  68   2.0000      -0.381585       -10.3834
  69   2.0000      -0.375947       -10.2300
  70   2.0000      -0.373944       -10.1755
  71   2.0000      -0.369830       -10.0636
  72   2.0000      -0.359782        -9.7902
  73   2.0000      -0.348590        -9.4856
  74   2.0000      -0.345249        -9.3947
  75   2.0000      -0.341340        -9.2883
  76   2.0000      -0.335008        -9.1160
  77   2.0000      -0.333750        -9.0818
  78   2.0000      -0.330666        -8.9979
  79   2.0000      -0.325603        -8.8601
  80   2.0000      -0.322423        -8.7736
  81   2.0000      -0.318359        -8.6630
  82   2.0000      -0.315976        -8.5981
  83   2.0000      -0.264658        -7.2017
  84   2.0000      -0.241479        -6.5710
  85   2.0000      -0.240306        -6.5391
  86   2.0000      -0.238512        -6.4902
  87   2.0000      -0.229673        -6.2497
  88   2.0000      -0.213920        -5.8211
  89   2.0000      -0.205041        -5.5794
  90   2.0000      -0.180496        -4.9116
  91   0.0000      -0.000734        -0.0200
  92   0.0000       0.000658         0.0179
  93   0.0000       0.007726         0.2102
  94   0.0000       0.009661         0.2629
  95   0.0000       0.011020         0.2999

MULLIKEN ATOMIC CHARGES
-----------------------
   0 C :   -0.125374
   1 C :   -0.130172
   2 C :   -0.154867
   3 C :    0.147244
   4 C :   -0.222186
   5 N :   -0.355849
   6 C :   -0.142465
   7 C :   -0.357030
   8 C :    0.049048
   9 C :   -0.026161
  10 N :   -0.631599
  11 C :    0.292743
  12 C :   -0.182914
  13 C :   -0.145704
  14 C :   -0.148480
  15 C :   -0.205335
  16 C :    0.121792
  17 C :   -0.231229
  18 C :    0.168722
  19 C :   -0.180051
  20 C :   -0.128198
  21 C :   -0.125847
  22 C :   -0.132216
  23 C :   -0.153402
  24 C :   -0.176864
  25 C :   -0.129056
  26 H :    0.123115
  27 H :    0.126152
  28 H :    0.139757
  29 H :    0.154963
  30 H :    0.118336
  31 H :    0.152304
  32 H :    0.143686
  33 H :    0.135822
  34 H :    0.142764
  35 H :    0.136145
  36 H :    0.332536
  37 H :    0.112232
  38 H :    0.117440
  39 H :    0.115941
  40 H :    0.120044
  41 H :    0.148249
  42 H :    0.120926
  43 H :    0.121356
  44 H :    0.124009
  45 H :    0.123593
  46 H :    0.125474
  47 H :    0.129505
  48 H :    0.119859
  49 H :    0.121241
Sum of atomic charges:    0.0000000

LOEWDIN ATOMIC CHARGES
----------------------
   0 C :   -0.133981
   1 C :   -0.129270
   2 C :   -0.119930
   3 C :   -0.021659
   4 C :   -0.152665
   5 N :   -0.172246
   6 C :   -0.160908
   7 C :   -0.237258
   8 C :   -0.072927
   9 C :   -0.120389
  10 N :   -0.114403
  11 C :    0.003724
  12 C :   -0.153837
  13 C :   -0.145372
  14 C :   -0.147255
  15 C :   -0.138391
  16 C :   -0.045910
  17 C :   -0.150501
  18 C :   -0.022483
  19 C :   -0.141165
  20 C :   -0.131404
  21 C :   -0.134352
  22 C :   -0.130514
  23 C :   -0.121687
  24 C :   -0.140388
  25 C :   -0.133004
  26 H :    0.128929
  27 H :    0.130171
  28 H :    0.138131
  29 H :    0.133790
  30 H :    0.100564
  31 H :    0.128468
  32 H :    0.121907
  33 H :    0.122822
  34 H :    0.124872
  35 H :    0.130188
  36 H :    0.266132
  37 H :    0.125186
  38 H :    0.127571
  39 H :    0.126139
  40 H :    0.127887
  41 H :    0.128316
  42 H :    0.103257
  43 H :    0.127918
  44 H :    0.129221
  45 H :    0.129190
  46 H :    0.129822
  47 H :    0.133667
  48 H :    0.126172
  49 H :    0.127858

  Mayer bond orders larger than 0.100000
B(  0-C ,  1-C ) :   1.4453 B(  0-C , 25-C ) :   1.4618 B(  0-C , 26-H ) :   0.9313
B(  1-C ,  2-C ) :   1.4423 B(  1-C , 27-H ) :   0.9306 B(  2-C ,  3-C ) :   1.4284
B(  2-C , 28-H ) :   0.9212 B(  3-C ,  4-C ) :   0.9849 B(  3-C , 24-C ) :   1.4387
B(  4-C ,  5-N ) :   0.9614 B(  4-C , 29-H ) :   0.9170 B(  4-C , 30-H ) :   0.9090
B(  5-N ,  6-C ) :   0.9736 B(  5-N , 17-C ) :   0.9543 B(  6-C ,  7-C ) :   0.9601
B(  6-C , 31-H ) :   0.9267 B(  6-C , 32-H ) :   0.9358 B(  7-C ,  8-C ) :   0.9932
B(  7-C , 33-H ) :   0.9299 B(  7-C , 34-H ) :   0.9236 B(  8-C ,  9-C ) :   1.5369
B(  8-C , 16-C ) :   1.3151 B(  9-C , 10-N ) :   1.0856 B(  9-C , 35-H ) :   0.9288
B( 10-N , 11-C ) :   1.0183 B( 10-N , 36-H ) :   0.8376 B( 11-C , 12-C ) :   1.3511
B( 11-C , 16-C ) :   1.3076 B( 12-C , 13-C ) :   1.4805 B( 12-C , 15-C ) :   0.1040
B( 12-C , 37-H ) :   0.9246 B( 13-C , 14-C ) :   1.3807 B( 13-C , 38-H ) :   0.9323
B( 14-C , 15-C ) :   1.4735 B( 14-C , 39-H ) :   0.9326 B( 15-C , 16-C ) :   1.3370
B( 15-C , 40-H ) :   0.9219 B( 17-C , 18-C ) :   0.9731 B( 17-C , 41-H ) :   0.9254
B( 17-C , 42-H ) :   0.9129 B( 18-C , 19-C ) :   1.4406 B( 18-C , 23-C ) :   1.4249
B( 19-C , 20-C ) :   1.4283 B( 19-C , 43-H ) :   0.9236 B( 20-C , 21-C ) :   1.4638
B( 20-C , 44-H ) :   0.9301 B( 21-C , 22-C ) :   1.4425 B( 21-C , 45-H ) :   0.9312
B( 22-C , 23-C ) :   1.4457 B( 22-C , 46-H ) :   0.9305 B( 23-C , 47-H ) :   0.9243
B( 24-C , 25-C ) :   1.4306 B( 24-C , 48-H ) :   0.9228 B( 25-C , 49-H ) :   0.9307

FINAL SINGLE POINT ENERGY     -1037.798054680839

DIPOLE MOMENT
-------------

Method             : SCF
Type of density    : Electron Density
Multiplicity       :   1
Irrep              :   0
Energy             : -1037.7980546808394138 Eh
Relativity type    :
Basis              : AO
                                X                 Y                 Z
Electronic contribution:      5.944094440       2.346781066       1.703686381
Nuclear contribution   :     -5.575092379      -1.531707337      -1.906677995
                        -----------------------------------------
Total Dipole Moment    :      0.369002061       0.815073729      -0.202991614
                        -----------------------------------------
Magnitude (a.u.)       :      0.917449344
Magnitude (Debye)      :      2.331970909

Rotational constants in cm-1:             0.008170             0.004016             0.002910
Rotational constants in MHz :           244.943670           120.385642            87.239106

                             ****ORCA TERMINATED NORMALLY****
TOTAL RUN TIME: 0 days 0 hours 3 minutes 56 seconds 486 msec
