                         Program Version 6.0.0  -   RELEASE  -
|  1> ! B3LYP 6-31G* SP
|  2>
|  3> * xyz 0 1
|  4> C 6.3540 -2.2099 0.7132
|  5> C 7.6894 -1.4588 0.6360
|  6> C 8.8437 -2.4601 0.4976
|  7> C 7.7272 -0.4423 -0.5238
|  8> O 6.8170 0.6400 -0.3088
|  9> C 5.4403 0.6860 -0.6002
| 10> C 4.7952 -0.1642 -1.5268
| 11> F 5.4703 -1.0904 -2.2473
| 12> C 3.4192 -0.0445 -1.7511
| 13> C 2.6575 0.9250 -1.0751
| 14> C 1.1969 1.0715 -1.3105
| 15> C 0.5160 0.5297 -2.4068
| 16> S -1.1067 0.9523 -2.2798
| 17> C -0.8808 1.8130 -0.8516
| 18> N -1.9075 2.4554 -0.0846
| 19> C -3.2343 2.7109 -0.5690
| 20> O -3.4797 2.6940 -1.8060
| 21> C -4.3309 3.0583 0.3940
| 22> C -5.5161 2.1617 0.1918
| 23> C -6.7231 2.5067 -0.4081
| 24> O -7.5156 1.4520 -0.4661
| 25> C -6.8695 0.4394 0.0653
| 26> C -5.6335 0.8164 0.4853
| 27> C -4.7748 -0.1149 1.0537
| 28> O -3.6187 0.2280 1.4250
| 29> N -5.2142 -1.4120 1.1934
| 30> C -4.3136 -2.4344 1.7524
| 31> C -6.4708 -1.7750 0.7376
| 32> O -6.8448 -2.9796 0.8174
| 33> N -7.3190 -0.8379 0.1897
| 34> C -8.6465 -1.2187 -0.3089
| 35> N 0.4079 1.7781 -0.4524
| 36> C 3.3057 1.7690 -0.1597
| 37> C 4.6795 1.6536 0.0677
| 38> F 5.2780 2.4866 0.9552
| 39> H 5.5283 -1.5140 0.9661
| 40> H 6.1313 -2.7174 -0.2493
| 41> H 6.3919 -2.9765 1.5161
| 42> H 7.8310 -0.9047 1.5909
| 43> H 9.8176 -1.9252 0.4726
| 44> H 8.7377 -3.0558 -0.4353
| 45> H 8.8571 -3.1531 1.3663
| 46> H 7.5965 -0.9255 -1.5095
| 47> H 8.7445 0.0033 -0.5505
| 48> H 2.9572 -0.7224 -2.4548
| 49> H 0.9399 -0.0452 -3.2177
| 50> H -1.6694 2.7458 0.8902
| 51> H -4.6258 4.1174 0.2374
| 52> H -3.9779 2.9577 1.4414
| 53> H -6.9884 3.4870 -0.7819
| 54> H -4.8847 -3.2104 2.3059
| 55> H -3.7425 -2.9174 0.9308
| 56> H -3.5997 -1.9921 2.4802
| 57> H -8.5383 -1.7822 -1.2605
| 58> H -9.2870 -0.3274 -0.4904
| 59> H -9.1692 -1.8570 0.4378
| 60> H 2.7524 2.5302 0.3755
| 61> *
| 62>
| 63>                          ****END OF INPUT****

CARTESIAN COORDINATES (ANGSTROEM)
---------------------------------
  C      6.354000   -2.209900    0.713200
  C      7.689400   -1.458800    0.636000
  C      8.843700   -2.460100    0.497600
  C      7.727200   -0.442300   -0.523800
  O      6.817000    0.640000   -0.308800
  C      5.440300    0.686000   -0.600200
  C      4.795200   -0.164200   -1.526800
  F      5.470300   -1.090400   -2.247300
  C      3.419200   -0.044500   -1.751100
  C      2.657500    0.925000   -1.075100
  C      1.196900    1.071500   -1.310500
  C      0.516000    0.529700   -2.406800
  S     -1.106700    0.952300   -2.279800
  C     -0.880800    1.813000   -0.851600
  N     -1.907500    2.455400   -0.084600
  C     -3.234300    2.710900   -0.569000
  O     -3.479700    2.694000   -1.806000
  C     -4.330900    3.058300    0.394000
  C     -5.516100    2.161700    0.191800
  C     -6.723100    2.506700   -0.408100
  O     -7.515600    1.452000   -0.466100
  C     -6.869500    0.439400    0.065300
  C     -5.633500    0.816400    0.485300
  C     -4.774800   -0.114900    1.053700
  O     -3.618700    0.228000    1.425000
  N     -5.214200   -1.412000    1.193400
  C     -4.313600   -2.434400    1.752400
  C     -6.470800   -1.775000    0.737600
  O     -6.844800   -2.979600    0.817400
  N     -7.319000   -0.837900    0.189700
  C     -8.646500   -1.218700   -0.308900
  N      0.407900    1.778100   -0.452400
  C      3.305700    1.769000   -0.159700
  C      4.679500    1.653600    0.067700
  F      5.278000    2.486600    0.955200
  H      5.528300   -1.514000    0.966100
  H      6.131300   -2.717400   -0.249300
  H      6.391900   -2.976500    1.516100
  H      7.831000   -0.904700    1.590900
  H      9.817600   -1.925200    0.472600
  H      8.737700   -3.055800   -0.435300
  H      8.857100   -3.153100    1.366300
  H      7.596500   -0.925500   -1.509500
  H      8.744500    0.003300   -0.550500
  H      2.957200   -0.722400   -2.454800
  H      0.939900   -0.045200   -3.217700
  H     -1.669400    2.745800    0.890200
  H     -4.625800    4.117400    0.237400
  H     -3.977900    2.957700    1.441400
  H     -6.988400    3.487000   -0.781900
  H     -4.884700   -3.210400    2.305900
  H     -3.742500   -2.917400    0.930800
  H     -3.599700   -1.992100    2.480200
  H     -8.538300   -1.782200   -1.260500
  H     -9.287000   -0.327400   -0.490400
  H     -9.169200   -1.857000    0.437800
  H      2.752400    2.530200    0.375500

 Total Charge           Charge          ....    0
 Multiplicity           Mult            ....    1
 Number of Electrons    NEL             ....  262
 Basis Dimension        Dim             ....  538

ORBITAL ENERGIES
----------------

  NO   OCC          E(Eh)            E(eV)
   0   2.0000     -88.895792     -2418.9775
   1   2.0000     -24.709658      -672.3840
   2   2.0000     -24.692752      -671.9240
   3   2.0000     -19.255567      -523.9706
   4   2.0000     -19.162164      -521.4290
   5   2.0000     -19.127105      -520.4750
   6   2.0000     -19.119547      -520.2693
   7   2.0000     -19.112925      -520.0891
   8   2.0000     -14.418628      -392.3508
   9   2.0000     -14.400101      -391.8467
  10   2.0000     -14.386031      -391.4638
  11   2.0000     -14.324492      -389.7892
  12   2.0000     -10.335746      -281.2499
  13   2.0000     -10.308239      -280.5014
  14   2.0000     -10.305796      -280.4350
  15   2.0000     -10.294051      -280.1154
  16   2.0000     -10.282428      -279.7991
  17   2.0000     -10.273032      -279.5434
  18   2.0000     -10.267282      -279.3869
  19   2.0000     -10.256353      -279.0895
  20   2.0000     -10.248778      -278.8834
  21   2.0000     -10.243770      -278.7471
  22   2.0000     -10.227994      -278.3179
  23   2.0000     -10.221620      -278.1444
  24   2.0000     -10.220624      -278.1173
  25   2.0000     -10.214987      -277.9639
  26   2.0000     -10.209538      -277.8157
  27   2.0000     -10.200570      -277.5716
  28   2.0000     -10.199456      -277.5413
  29   2.0000     -10.192184      -277.3434
  30   2.0000     -10.188818      -277.2518
  31   2.0000     -10.182757      -277.0869
  32   2.0000     -10.180423      -277.0234
  33   2.0000     -10.168809      -276.7073
  34   2.0000     -10.161417      -276.5062
  35   2.0000      -7.972187      -216.9342
  36   2.0000      -5.935323      -161.5084
  37   2.0000      -5.931078      -161.3928
  38   2.0000      -5.929135      -161.3400
  39   2.0000      -1.223073       -33.2815
  40   2.0000      -1.205230       -32.7960
  41   2.0000      -1.184019       -32.2188
  42   2.0000      -1.072511       -29.1845
  43   2.0000      -1.037224       -28.2243
  44   2.0000      -1.028324       -27.9821
  45   2.0000      -1.022974       -27.8365
  46   2.0000      -0.980628       -26.6842
  47   2.0000      -0.970320       -26.4037
  48   2.0000      -0.942866       -25.6567
  49   2.0000      -0.908656       -24.7258
  50   2.0000      -0.860476       -23.4147
  51   2.0000      -0.857899       -23.3446
  52   2.0000      -0.803677       -21.8692
  53   2.0000      -0.798520       -21.7288
  54   2.0000      -0.797575       -21.7031
  55   2.0000      -0.772699       -21.0262
  56   2.0000      -0.760947       -20.7064
  57   2.0000      -0.748750       -20.3745
  58   2.0000      -0.746233       -20.3060
  59   2.0000      -0.724238       -19.7075
  60   2.0000      -0.717415       -19.5219
  61   2.0000      -0.676979       -18.4215
  62   2.0000      -0.672606       -18.3025
  63   2.0000      -0.669233       -18.2108
  64   2.0000      -0.649812       -17.6823
  65   2.0000      -0.631143       -17.1743
  66   2.0000      -0.624191       -16.9851
  67   2.0000      -0.618202       -16.8221
  68   2.0000      -0.614101       -16.7105
  69   2.0000      -0.586049       -15.9472
  70   2.0000      -0.575505       -15.6603
  71   2.0000      -0.565195       -15.3797
  72   2.0000      -0.558297       -15.1920
  73   2.0000      -0.549328       -14.9480
  74   2.0000      -0.534045       -14.5321
  75   2.0000      -0.530465       -14.4347
  76   2.0000      -0.521402       -14.1881
  77   2.0000      -0.517539       -14.0830
  78   2.0000      -0.512544       -13.9470
  79   2.0000      -0.505898       -13.7662
  80   2.0000      -0.494339       -13.4517
  81   2.0000      -0.491333       -13.3698
  82   2.0000      -0.482950       -13.1417
  83   2.0000      -0.479337       -13.0434
  84   2.0000      -0.474012       -12.8985
  85   2.0000      -0.467212       -12.7135
  86   2.0000      -0.462467       -12.5844
  87   2.0000      -0.461435       -12.5563
  88   2.0000      -0.452120       -12.3028
  89   2.0000      -0.450236       -12.2515
  90   2.0000      -0.447163       -12.1679
  91   2.0000      -0.440931       -11.9983
  92   2.0000      -0.437644       -11.9089
  93   2.0000      -0.436045       -11.8654
  94   2.0000      -0.430043       -11.7021
  95   2.0000      -0.426741       -11.6122
  96   2.0000      -0.421538       -11.4706
  97   2.0000      -0.420262       -11.4359
  98   2.0000      -0.412804       -11.2330
  99   2.0000      -0.408557       -11.1174
 100   2.0000      -0.405352       -11.0302
 101   2.0000      -0.403191       -10.9714
 102   2.0000      -0.392699       -10.6859
 103   2.0000      -0.391130       -10.6432
 104   2.0000      -0.386264       -10.5108
 105   2.0000      -0.385757       -10.4970
 106   2.0000      -0.379957       -10.3392
 107   2.0000      -0.378743       -10.3061
 108   2.0000      -0.376596       -10.2477
 109   2.0000      -0.370837       -10.0910
 110   2.0000      -0.366884        -9.9834
 111   2.0000      -0.364755        -9.9255
 112   2.0000      -0.348767        -9.4904
 113   2.0000      -0.344809        -9.3827
 114   2.0000      -0.332171        -9.0388
 115   2.0000      -0.328685        -8.9440
 116   2.0000      -0.325705        -8.8629
 117   2.0000      -0.315017        -8.5720
 118   2.0000      -0.302309        -8.2262
 119   2.0000      -0.299811        -8.1583
 120   2.0000      -0.289622        -7.8810
 121   2.0000      -0.281120        -7.6497
 122   2.0000      -0.275492        -7.4965
 123   2.0000      -0.270089        -7.3495
 124   2.0000      -0.269261        -7.3270
 125   2.0000      -0.259375        -7.0579
 126   2.0000      -0.253214        -6.8903
 127   2.0000      -0.239418        -6.5149
 128   2.0000      -0.229961        -6.2575
 129   2.0000      -0.217541        -5.9196
 130   2.0000      -0.197468        -5.3734
 131   0.0000      -0.035065        -0.9542
 132   0.0000      -0.023671        -0.6441
 133   0.0000      -0.018625        -0.5068
 134   0.0000      -0.006727        -0.1831
 135   0.0000       0.003180         0.0865

MULLIKEN ATOMIC CHARGES
-----------------------
   0 C :   -0.452155
   1 C :   -0.075873
   2 C :   -0.445523
   3 C :   -0.029437
   4 O :   -0.519647
   5 C :    0.220201
   6 C :    0.376626
   7 F :   -0.314228
   8 C :   -0.282949
   9 C :    0.149936
  10 C :    0.209647
  11 C :   -0.402691
  12 S :    0.310734
  13 C :    0.269346
  14 N :   -0.631279
  15 C :    0.585138
  16 O :   -0.462152
  17 C :   -0.433707
  18 C :    0.072798
  19 C :    0.002269
  20 O :   -0.385043
  21 C :    0.495646
  22 C :    0.030736
  23 C :    0.511484
  24 O :   -0.513758
  25 N :   -0.484932
  26 C :   -0.315444
  27 C :    0.679691
  28 O :   -0.502533
  29 N :   -0.498075
  30 C :   -0.328275
  31 N :   -0.434569
  32 C :   -0.272035
  33 C :    0.379253
  34 F :   -0.308667
  35 H :    0.153314
  36 H :    0.142766
  37 H :    0.137670
  38 H :    0.135676
  39 H :    0.138262
  40 H :    0.140275
  41 H :    0.145853
  42 H :    0.147544
  43 H :    0.143310
  44 H :    0.139551
  45 H :    0.178790
  46 H :    0.358598
  47 H :    0.178384
  48 H :    0.173869
  49 H :    0.172315
  50 H :    0.192991
  51 H :    0.180459
  52 H :    0.197096
  53 H :    0.190659
  54 H :    0.184406
  55 H :    0.200633
  56 H :    0.167046
Sum of atomic charges:   -0.0000000

LOEWDIN ATOMIC CHARGES
----------------------
   0 C :   -0.361237
   1 C :   -0.140006
   2 C :   -0.354259
   3 C :   -0.090145
   4 O :   -0.180577
   5 C :    0.035993
   6 C :    0.088034
   7 F :   -0.093490
   8 C :   -0.159255
   9 C :   -0.019656
  10 C :   -0.005682
  11 C :   -0.352120
  12 S :    0.423493
  13 C :   -0.073310
  14 N :   -0.189644
  15 C :    0.158161
  16 O :   -0.265395
  17 C :   -0.236638
  18 C :   -0.022115
  19 C :   -0.081854
  20 O :   -0.002546
  21 C :    0.099774
  22 C :   -0.112535
  23 C :    0.112452
  24 O :   -0.308064
  25 N :   -0.028243
  26 C :   -0.259725
  27 C :    0.145228
  28 O :   -0.310693
  29 N :   -0.023006
  30 C :   -0.259110
  31 N :   -0.185693
  32 C :   -0.147638
  33 C :    0.104435
  34 F :   -0.094084
  35 H :    0.128455
  36 H :    0.122493
  37 H :    0.121991
  38 H :    0.122803
  39 H :    0.120554
  40 H :    0.121444
  41 H :    0.126679
  42 H :    0.118278
  43 H :    0.123883
  44 H :    0.142539
  45 H :    0.159341
  46 H :    0.278224
  47 H :    0.154138
  48 H :    0.146449
  49 H :    0.150807
  50 H :    0.151344
  51 H :    0.141656
  52 H :    0.153908
  53 H :    0.145499
  54 H :    0.146250
  55 H :    0.154555
  56 H :    0.157860

  Mayer bond orders larger than 0.100000
B(  0-C ,  1-C ) :   1.0105 B(  0-C , 35-H ) :   0.9410 B(  0-C , 36-H ) :   0.9428
B(  0-C , 37-H ) :   0.9481 B(  1-C ,  2-C ) :   0.9949 B(  1-C ,  3-C ) :   0.9866
B(  1-C , 38-H ) :   0.9299 B(  2-C , 39-H ) :   0.9478 B(  2-C , 40-H ) :   0.9470
B(  2-C , 41-H ) :   0.9479 B(  3-C ,  4-O ) :   0.8838 B(  3-C , 42-H ) :   0.9118
B(  3-C , 43-H ) :   0.9328 B(  4-O ,  5-C ) :   0.9166 B(  5-C ,  6-C ) :   1.2767
B(  5-C , 33-C ) :   1.2966 B(  6-C ,  7-F ) :   0.8721 B(  6-C ,  8-C ) :   1.3959
B(  8-C ,  9-C ) :   1.3710 B(  8-C , 44-H ) :   0.9100 B(  9-C , 10-C ) :   1.0583
B(  9-C , 32-C ) :   1.3667 B( 10-C , 11-C ) :   1.5180 B( 10-C , 31-N ) :   1.2902
B( 11-C , 12-S ) :   1.1124 B( 11-C , 13-C ) :   0.1079 B( 11-C , 45-H ) :   0.9023
B( 12-S , 13-C ) :   1.1798 B( 13-C , 14-N ) :   0.9518 B( 13-C , 31-N ) :   1.4806
B( 14-N , 15-C ) :   1.0271 B( 14-N , 46-H ) :   0.8079 B( 15-C , 16-O ) :   1.8323
B( 15-C , 17-C ) :   0.9377 B( 17-C , 18-C ) :   1.0153 B( 17-C , 47-H ) :   0.9129
B( 17-C , 48-H ) :   0.9102 B( 18-C , 19-C ) :   1.5766 B( 18-C , 22-C ) :   1.3147
B( 19-C , 20-O ) :   0.9983 B( 19-C , 49-H ) :   0.9259 B( 20-O , 21-C ) :   1.0745
B( 21-C , 22-C ) :   1.3617 B( 21-C , 29-N ) :   0.9878 B( 22-C , 23-C ) :   1.0862
B( 23-C , 24-O ) :   1.7658 B( 23-C , 25-N ) :   0.9689 B( 25-N , 26-C ) :   0.9171
B( 25-N , 27-C ) :   1.0424 B( 26-C , 50-H ) :   0.9273 B( 26-C , 51-H ) :   0.9399
B( 26-C , 52-H ) :   0.9232 B( 27-C , 28-O ) :   1.7954 B( 27-C , 29-N ) :   1.0429
B( 29-N , 30-C ) :   0.9240 B( 30-C , 53-H ) :   0.9334 B( 30-C , 54-H ) :   0.9298
B( 30-C , 55-H ) :   0.9282 B( 32-C , 33-C ) :   1.3730 B( 32-C , 56-H ) :   0.9036
B( 33-C , 34-F ) :   0.9303

FINAL SINGLE POINT ENERGY     -2081.653321182747

DIPOLE MOMENT
-------------

Method             : SCF
Type of density    : Electron Density
Multiplicity       :   1
Irrep              :   0
Energy             : -2081.6533211827468222 Eh
Relativity type    :
Basis              : AO
                                X                 Y                 Z
Electronic contribution:    -19.626626623      21.954587917     -10.257522579
Nuclear contribution   :     17.751880050     -21.950040131      10.526408810
                        -----------------------------------------
Total Dipole Moment    :     -1.874746574       0.004547787       0.268886231
                        -----------------------------------------
Magnitude (a.u.)       :      1.893936431
Magnitude (Debye)      :      4.814003831

Rotational constants in cm-1:             0.008064             0.001140             0.001068
Rotational constants in MHz :           241.739261            34.178468            32.023469

                             ****ORCA TERMINATED NORMALLY****
TOTAL RUN TIME: 0 days 0 hours 9 minutes 11 seconds 503 msec
