                         Program Version 6.0.0  -   RELEASE  -
|  1> ! B3LYP 6-31G* SP
|  2>
|  3> * xyz 0 1
|  4> O 6.7018 1.7485 0.5599
|  5> C 6.2727 0.6196 0.1974
|  6> O 7.1100 -0.4893 0.2895
|  7> C 4.8948 0.4725 -0.3206
|  8> C 4.0418 1.5869 -0.4190
|  9> C 2.7400 1.4414 -0.9066
| 10> C 2.2737 0.1836 -1.3078
| 11> S 0.6199 -0.0100 -1.8727
| 12> O 0.5630 -1.0684 -2.9389
| 13> O 0.1244 1.2792 -2.4669
| 14> N -0.3828 -0.4594 -0.5305
| 15> C -0.6032 -1.8682 -0.1995
| 16> C -2.0362 -2.2413 -0.4618
| 17> C -2.9962 -2.1239 0.5572
| 18> C -4.3371 -2.4240 0.2991
| 19> C -4.7300 -2.8343 -0.9783
| 20> F -6.0309 -3.1239 -1.2271
| 21> C -3.7820 -2.9407 -2.0003
| 22> C -2.4403 -2.6397 -1.7463
| 23> C -0.9619 0.5715 0.2756
| 24> N -2.0721 1.2183 -0.1690
| 25> C -2.6728 2.1999 0.5531
| 26> C -2.1609 2.5715 1.8063
| 27> C -2.7872 3.6934 2.5943
| 28> F -4.1441 3.7773 2.3340
| 29> F -2.6189 3.4863 3.9525
| 30> F -2.1863 4.8875 2.2425
| 31> C -0.9937 1.9409 2.2642
| 32> C -0.3924 0.9327 1.5067
| 33> Cl 1.0787 0.1719 2.0979
| 34> C 3.1140 -0.9310 -1.2046
| 35> C 4.4167 -0.7885 -0.7180
| 36> H 8.0551 -0.3997 0.6430
| 37> H 4.3781 2.5701 -0.1148
| 38> H 2.0938 2.3083 -0.9607
| 39> H -0.3452 -2.0509 0.8656
| 40> H 0.0690 -2.5181 -0.8002
| 41> H -2.7071 -1.7942 1.5476
| 42> H -5.0717 -2.3333 1.0887
| 43> H -4.0868 -3.2517 -2.9913
| 44> H -1.7182 -2.7161 -2.5494
| 45> H -3.5478 2.6897 0.1462
| 46> H -0.5470 2.2346 3.2061
| 47> H 2.7590 -1.9121 -1.4939
| 48> H 5.0464 -1.6665 -0.6490
| 49> *
| 50>
| 51>                          ****END OF INPUT****

CARTESIAN COORDINATES (ANGSTROEM)
---------------------------------
  O      6.701800    1.748500    0.559900
  C      6.272700    0.619600    0.197400
  O      7.110000   -0.489300    0.289500
  C      4.894800    0.472500   -0.320600
  C      4.041800    1.586900   -0.419000
  C      2.740000    1.441400   -0.906600
  C      2.273700    0.183600   -1.307800
  S      0.619900   -0.010000   -1.872700
  O      0.563000   -1.068400   -2.938900
  O      0.124400    1.279200   -2.466900
  N     -0.382800   -0.459400   -0.530500
  C     -0.603200   -1.868200   -0.199500
  C     -2.036200   -2.241300   -0.461800
  C     -2.996200   -2.123900    0.557200
  C     -4.337100   -2.424000    0.299100
  C     -4.730000   -2.834300   -0.978300
  F     -6.030900   -3.123900   -1.227100
  C     -3.782000   -2.940700   -2.000300
  C     -2.440300   -2.639700   -1.746300
  C     -0.961900    0.571500    0.275600
  N     -2.072100    1.218300   -0.169000
  C     -2.672800    2.199900    0.553100
  C     -2.160900    2.571500    1.806300
  C     -2.787200    3.693400    2.594300
  F     -4.144100    3.777300    2.334000
  F     -2.618900    3.486300    3.952500
  F     -2.186300    4.887500    2.242500
  C     -0.993700    1.940900    2.264200
  C     -0.392400    0.932700    1.506700
  Cl     1.078700    0.171900    2.097900
  C      3.114000   -0.931000   -1.204600
  C      4.416700   -0.788500   -0.718000
  H      8.055100   -0.399700    0.643000
  H      4.378100    2.570100   -0.114800
  H      2.093800    2.308300   -0.960700
  H     -0.345200   -2.050900    0.865600
  H      0.069000   -2.518100   -0.800200
  H     -2.707100   -1.794200    1.547600
  H     -5.071700   -2.333300    1.088700
  H     -4.086800   -3.251700   -2.991300
  H     -1.718200   -2.716100   -2.549400
  H     -3.547800    2.689700    0.146200
  H     -0.547000    2.234600    3.206100
  H      2.759000   -1.912100   -1.493900
  H      5.046400   -1.666500   -0.649000

 Total Charge           Charge          ....    0
 Multiplicity           Mult            ....    1
 Number of Electrons    NEL             ....  248
 Basis Dimension        Dim             ....  482

ORBITAL ENERGIES
----------------

  NO   OCC          E(Eh)            E(eV)
   0   2.0000    -101.561400     -2763.6262
   1   2.0000     -89.108204     -2424.7575
   2   2.0000     -24.738998      -673.1824
   3   2.0000     -24.738898      -673.1796
   4   2.0000     -24.734766      -673.0672
   5   2.0000     -24.697844      -672.0625
   6   2.0000     -19.200334      -522.4677
   7   2.0000     -19.142311      -520.8888
   8   2.0000     -19.139209      -520.8043
   9   2.0000     -19.133797      -520.6571
  10   2.0000     -14.386230      -391.4692
  11   2.0000     -14.366602      -390.9351
  12   2.0000     -10.457474      -284.5623
  13   2.0000     -10.339901      -281.3630
  14   2.0000     -10.301848      -280.3275
  15   2.0000     -10.287964      -279.9497
  16   2.0000     -10.270008      -279.4611
  17   2.0000     -10.259521      -279.1758
  18   2.0000     -10.248238      -278.8687
  19   2.0000     -10.247486      -278.8483
  20   2.0000     -10.246776      -278.8289
  21   2.0000     -10.242599      -278.7153
  22   2.0000     -10.237262      -278.5701
  23   2.0000     -10.226481      -278.2767
  24   2.0000     -10.225210      -278.2421
  25   2.0000     -10.223109      -278.1850
  26   2.0000     -10.222432      -278.1665
  27   2.0000     -10.196583      -277.4631
  28   2.0000     -10.196131      -277.4508
  29   2.0000     -10.191699      -277.3302
  30   2.0000     -10.190747      -277.3043
  31   2.0000     -10.189587      -277.2728
  32   2.0000      -9.492647      -258.3080
  33   2.0000      -8.143857      -221.6056
  34   2.0000      -7.255921      -197.4436
  35   2.0000      -7.246246      -197.1804
  36   2.0000      -7.245799      -197.1682
  37   2.0000      -6.109040      -166.2354
  38   2.0000      -6.106871      -166.1764
  39   2.0000      -6.106384      -166.1632
  40   2.0000      -1.298554       -35.3355
  41   2.0000      -1.224042       -33.3079
  42   2.0000      -1.222274       -33.2598
  43   2.0000      -1.211130       -32.9565
  44   2.0000      -1.094044       -29.7704
  45   2.0000      -1.085087       -29.5267
  46   2.0000      -0.999298       -27.1923
  47   2.0000      -0.992662       -27.0117
  48   2.0000      -0.971940       -26.4478
  49   2.0000      -0.937040       -25.4982
  50   2.0000      -0.901148       -24.5215
  51   2.0000      -0.896009       -24.3816
  52   2.0000      -0.861313       -23.4375
  53   2.0000      -0.843624       -22.9562
  54   2.0000      -0.813896       -22.1472
  55   2.0000      -0.791002       -21.5243
  56   2.0000      -0.782118       -21.2825
  57   2.0000      -0.773421       -21.0459
  58   2.0000      -0.754791       -20.5389
  59   2.0000      -0.732805       -19.9406
  60   2.0000      -0.718143       -19.5417
  61   2.0000      -0.689460       -18.7612
  62   2.0000      -0.675364       -18.3776
  63   2.0000      -0.658702       -17.9242
  64   2.0000      -0.645218       -17.5573
  65   2.0000      -0.631568       -17.1858
  66   2.0000      -0.624270       -16.9872
  67   2.0000      -0.608570       -16.5600
  68   2.0000      -0.598104       -16.2752
  69   2.0000      -0.590408       -16.0658
  70   2.0000      -0.589147       -16.0315
  71   2.0000      -0.578302       -15.7364
  72   2.0000      -0.571280       -15.5453
  73   2.0000      -0.548517       -14.9259
  74   2.0000      -0.541210       -14.7271
  75   2.0000      -0.534947       -14.5566
  76   2.0000      -0.523234       -14.2379
  77   2.0000      -0.500404       -13.6167
  78   2.0000      -0.493178       -13.4201
  79   2.0000      -0.491726       -13.3805
  80   2.0000      -0.487587       -13.2679
  81   2.0000      -0.480504       -13.0752
  82   2.0000      -0.476554       -12.9677
  83   2.0000      -0.470290       -12.7972
  84   2.0000      -0.466091       -12.6830
  85   2.0000      -0.465288       -12.6611
  86   2.0000      -0.463093       -12.6014
  87   2.0000      -0.454177       -12.3588
  88   2.0000      -0.453406       -12.3378
  89   2.0000      -0.448800       -12.2125
  90   2.0000      -0.446843       -12.1592
  91   2.0000      -0.444751       -12.1023
  92   2.0000      -0.440197       -11.9784
  93   2.0000      -0.433428       -11.7942
  94   2.0000      -0.432028       -11.7561
  95   2.0000      -0.431290       -11.7360
  96   2.0000      -0.427883       -11.6433
  97   2.0000      -0.422359       -11.4930
  98   2.0000      -0.420312       -11.4373
  99   2.0000      -0.415891       -11.3170
 100   2.0000      -0.401744       -10.9320
 101   2.0000      -0.399712       -10.8767
 102   2.0000      -0.390594       -10.6286
 103   2.0000      -0.386157       -10.5079
 104   2.0000      -0.382038       -10.3958
 105   2.0000      -0.373991       -10.1768
 106   2.0000      -0.372140       -10.1265
 107   2.0000      -0.355853        -9.6833
 108   2.0000      -0.346926        -9.4403
 109   2.0000      -0.343062        -9.3352
 110   2.0000      -0.339653        -9.2424
 111   2.0000      -0.326555        -8.8860
 112   2.0000      -0.320666        -8.7258
 113   2.0000      -0.312650        -8.5076
 114   2.0000      -0.301027        -8.1914
 115   2.0000      -0.296704        -8.0737
 116   2.0000      -0.289291        -7.8720
 117   2.0000      -0.283934        -7.7262
 118   2.0000      -0.282091        -7.6761
 119   2.0000      -0.279460        -7.6045
 120   2.0000      -0.277763        -7.5583
 121   2.0000      -0.267744        -7.2857
 122   2.0000      -0.257375        -7.0035
 123   2.0000      -0.239829        -6.5261
 124   0.0000      -0.089562        -2.4371
 125   0.0000      -0.073951        -2.0123
 126   0.0000      -0.058543        -1.5930
 127   0.0000      -0.036209        -0.9853
 128   0.0000      -0.013033        -0.3546

MULLIKEN ATOMIC CHARGES
-----------------------
   0 O :   -0.442817
   1 C :    0.529080
   2 O :   -0.623743
   3 C :    0.082415
   4 C :   -0.136768
   5 C :   -0.145718
   6 C :   -0.108196
   7 S :    1.206763
   8 O :   -0.543606
   9 O :   -0.527947
  10 N :   -0.591213
  11 C :   -0.261381
  12 C :    0.168145
  13 C :   -0.156539
  14 C :   -0.209124
  15 C :    0.413658
  16 F :   -0.317377
  17 C :   -0.208160
  18 C :   -0.149914
  19 C :    0.383342
  20 N :   -0.328026
  21 C :   -0.005078
  22 C :   -0.025232
  23 C :    0.905956
  24 F :   -0.298964
  25 F :   -0.300902
  26 F :   -0.289051
  27 C :   -0.133007
  28 C :   -0.095748
  29 Cl:    0.023710
  30 C :   -0.145257
  31 C :   -0.146444
  32 H :    0.435262
  33 H :    0.182582
  34 H :    0.186463
  35 H :    0.166023
  36 H :    0.187310
  37 H :    0.129235
  38 H :    0.143347
  39 H :    0.149860
  40 H :    0.169063
  41 H :    0.189008
  42 H :    0.189642
  43 H :    0.175241
  44 H :    0.174105
Sum of atomic charges:    0.0000000

LOEWDIN ATOMIC CHARGES
----------------------
   0 O :   -0.259029
   1 C :    0.179943
   2 O :   -0.334449
   3 C :   -0.038164
   4 C :   -0.083160
   5 C :   -0.102690
   6 C :   -0.173064
   7 S :    1.269359
   8 O :   -0.567640
   9 O :   -0.557613
  10 N :   -0.280630
  11 C :   -0.148075
  12 C :   -0.041763
  13 C :   -0.125290
  14 C :   -0.157498
  15 C :    0.120043
  16 F :   -0.103506
  17 C :   -0.151531
  18 C :   -0.107873
  19 C :    0.053557
  20 N :   -0.079752
  21 C :   -0.043940
  22 C :   -0.072844
  23 C :    0.313081
  24 F :   -0.106643
  25 F :   -0.109729
  26 F :   -0.106830
  27 C :   -0.093350
  28 C :   -0.099663
  29 Cl:    0.060701
  30 C :   -0.105925
  31 C :   -0.098043
  32 H :    0.350562
  33 H :    0.161473
  34 H :    0.160884
  35 H :    0.129966
  36 H :    0.150453
  37 H :    0.131727
  38 H :    0.142615
  39 H :    0.145710
  40 H :    0.150392
  41 H :    0.155498
  42 H :    0.162953
  43 H :    0.154428
  44 H :    0.155347

  Mayer bond orders larger than 0.100000
B(  0-O ,  1-C ) :   1.8636 B(  1-C ,  2-O ) :   1.0257 B(  1-C ,  3-C ) :   1.0076
B(  2-O , 32-H ) :   0.7411 B(  3-C ,  4-C ) :   1.4025 B(  3-C , 31-C ) :   1.3843
B(  4-C ,  5-C ) :   1.4195 B(  4-C , 33-H ) :   0.9089 B(  5-C ,  6-C ) :   1.3832
B(  5-C , 34-H ) :   0.9090 B(  6-C ,  7-S ) :   0.8180 B(  6-C , 30-C ) :   1.3890
B(  7-S ,  8-O ) :   1.6152 B(  7-S ,  9-O ) :   1.6534 B(  7-S , 10-N ) :   0.8000
B( 10-N , 11-C ) :   0.9112 B( 10-N , 19-C ) :   0.9403 B( 11-C , 12-C ) :   0.9533
B( 11-C , 35-H ) :   0.9191 B( 11-C , 36-H ) :   0.9158 B( 12-C , 13-C ) :   1.4312
B( 12-C , 18-C ) :   1.4362 B( 13-C , 14-C ) :   1.4219 B( 13-C , 37-H ) :   0.9247
B( 14-C , 15-C ) :   1.3972 B( 14-C , 38-H ) :   0.9206 B( 15-C , 16-F ) :   0.9190
B( 15-C , 17-C ) :   1.3877 B( 17-C , 18-C ) :   1.4256 B( 17-C , 39-H ) :   0.9201
B( 18-C , 40-H ) :   0.9112 B( 19-C , 20-N ) :   1.3994 B( 19-C , 28-C ) :   1.3349
B( 20-N , 21-C ) :   1.4129 B( 21-C , 22-C ) :   1.3531 B( 21-C , 41-H ) :   0.9163
B( 22-C , 23-C ) :   0.9709 B( 22-C , 27-C ) :   1.4145 B( 23-C , 24-F ) :   0.9518
B( 23-C , 25-F ) :   0.9513 B( 23-C , 26-F ) :   0.9922 B( 27-C , 28-C ) :   1.3888
B( 27-C , 42-H ) :   0.9076 B( 28-C , 29-Cl) :   1.0459 B( 30-C , 31-C ) :   1.4215
B( 30-C , 43-H ) :   0.9124 B( 31-C , 44-H ) :   0.9143

FINAL SINGLE POINT ENERGY     -2437.033788198261

DIPOLE MOMENT
-------------

Method             : SCF
Type of density    : Electron Density
Multiplicity       :   1
Irrep              :   0
Energy             : -2437.0337881982609360 Eh
Relativity type    :
Basis              : AO
                                X                 Y                 Z
Electronic contribution:    -16.444633188      18.457265003      14.268015959
Nuclear contribution   :     17.636417584     -19.384823612     -12.500257332
                        -----------------------------------------
Total Dipole Moment    :      1.191784396      -0.927558609       1.767758627
                        -----------------------------------------
Magnitude (a.u.)       :      2.325013029
Magnitude (Debye)      :      5.909713467

Rotational constants in cm-1:             0.004662             0.002669             0.001922
Rotational constants in MHz :           139.777832            80.018898            57.606696

                             ****ORCA TERMINATED NORMALLY****
TOTAL RUN TIME: 0 days 0 hours 2 minutes 46 seconds 222 msec
