                         Program Version 6.0.0  -   RELEASE  -
|  1> ! B3LYP 6-31G* SP
|  2>
|  3> * xyz 0 1
|  4> C -0.6505 4.0328 1.7581
|  5> C -2.0817 3.4822 1.8753
|  6> C -2.9897 4.1511 0.8347
|  7> C -2.1250 1.9675 1.7122
|  8> N -1.1653 1.3892 0.9562
|  9> C -1.0768 0.0653 0.6993
| 10> N 0.0132 -0.3552 -0.1345
| 11> C -0.1550 -0.3324 -1.5994
| 12> C 0.4990 0.8681 -2.2470
| 13> C 1.5220 0.6899 -3.1932
| 14> C 2.1408 1.7918 -3.7887
| 15> C 1.7362 3.0985 -3.4574
| 16> O 2.3312 4.2417 -4.0160
| 17> C 3.3920 4.2347 -4.9703
| 18> F 4.5056 3.6059 -4.4402
| 19> F 2.9902 3.5868 -6.1264
| 20> F 3.7241 5.5392 -5.2805
| 21> C 0.6932 3.2760 -2.5400
| 22> C 0.0682 2.1728 -1.9509
| 23> S 1.6093 -0.3904 0.5696
| 24> O 2.4264 0.7531 0.0359
| 25> O 1.4979 -0.2230 2.0605
| 26> C 2.4339 -1.9136 0.2299
| 27> C 2.5914 -2.8828 1.2308
| 28> C 3.2610 -4.0795 0.9566
| 29> C 3.7959 -4.3203 -0.3212
| 30> C 4.5158 -5.5788 -0.6147
| 31> O 4.6883 -6.4419 0.2879
| 32> O 5.0176 -5.8184 -1.8903
| 33> C 3.6494 -3.3387 -1.3152
| 34> C 2.9801 -2.1449 -1.0367
| 35> C -2.0243 -0.8354 1.2711
| 36> C -1.8988 -2.3698 1.1431
| 37> C -1.1316 -2.9366 2.3420
| 38> C -1.3257 -2.9212 -0.1686
| 39> C -3.0543 -0.2657 2.0977
| 40> C -4.0111 -1.0661 2.7780
| 41> C -5.0425 -0.4930 3.5191
| 42> C -5.1482 0.8861 3.6225
| 43> C -4.2011 1.7044 3.0155
| 44> C -3.1325 1.1510 2.2720
| 45> H -0.6428 5.1181 1.9892
| 46> H 0.0160 3.5220 2.4863
| 47> H -0.2487 3.8886 0.7309
| 48> H -2.4229 3.7664 2.8936
| 49> H -4.0407 3.8181 0.9634
| 50> H -2.9591 5.2534 0.9512
| 51> H -2.6580 3.8909 -0.1928
| 52> H -1.2358 -0.3182 -1.8634
| 53> H 0.2647 -1.2705 -2.0222
| 54> H 1.8311 -0.3021 -3.4907
| 55> H 2.9307 1.6110 -4.5031
| 56> H 0.3559 4.2759 -2.2979
| 57> H -0.7759 2.3396 -1.3022
| 58> H 2.2157 -2.7110 2.2301
| 59> H 3.3662 -4.8128 1.7470
| 60> H 5.5183 -6.6738 -2.1009
| 61> H 4.0632 -3.4844 -2.3050
| 62> H 2.9086 -1.3935 -1.8052
| 63> H -2.9126 -2.8129 1.1446
| 64> H -1.1200 -4.0468 2.3057
| 65> H -0.0901 -2.5636 2.3436
| 66> H -1.6102 -2.6281 3.2950
| 67> H -1.8198 -2.4442 -1.0396
| 68> H -0.2236 -2.8184 -0.2162
| 69> H -1.5354 -4.0106 -0.2347
| 70> H -3.9874 -2.1424 2.7779
| 71> H -5.7661 -1.1268 4.0166
| 72> H -5.9603 1.3255 4.1884
| 73> H -4.3292 2.7699 3.1338
| 74> *
| 75>
| 76>                          ****END OF INPUT****

CARTESIAN COORDINATES (ANGSTROEM)
---------------------------------
  C     -0.650500    4.032800    1.758100
  C     -2.081700    3.482200    1.875300
  C     -2.989700    4.151100    0.834700
  C     -2.125000    1.967500    1.712200
  N     -1.165300    1.389200    0.956200
  C     -1.076800    0.065300    0.699300
  N      0.013200   -0.355200   -0.134500
  C     -0.155000   -0.332400   -1.599400
  C      0.499000    0.868100   -2.247000
  C      1.522000    0.689900   -3.193200
  C      2.140800    1.791800   -3.788700
  C      1.736200    3.098500   -3.457400
  O      2.331200    4.241700   -4.016000
  C      3.392000    4.234700   -4.970300
  F      4.505600    3.605900   -4.440200
  F      2.990200    3.586800   -6.126400
  F      3.724100    5.539200   -5.280500
  C      0.693200    3.276000   -2.540000
  C      0.068200    2.172800   -1.950900
  S      1.609300   -0.390400    0.569600
  O      2.426400    0.753100    0.035900
  O      1.497900   -0.223000    2.060500
  C      2.433900   -1.913600    0.229900
  C      2.591400   -2.882800    1.230800
  C      3.261000   -4.079500    0.956600
  C      3.795900   -4.320300   -0.321200
  C      4.515800   -5.578800   -0.614700
  O      4.688300   -6.441900    0.287900
  O      5.017600   -5.818400   -1.890300
  C      3.649400   -3.338700   -1.315200
  C      2.980100   -2.144900   -1.036700
  C     -2.024300   -0.835400    1.271100
  C     -1.898800   -2.369800    1.143100
  C     -1.131600   -2.936600    2.342000
  C     -1.325700   -2.921200   -0.168600
  C     -3.054300   -0.265700    2.097700
  C     -4.011100   -1.066100    2.778000
  C     -5.042500   -0.493000    3.519100
  C     -5.148200    0.886100    3.622500
  C     -4.201100    1.704400    3.015500
  C     -3.132500    1.151000    2.272000
  H     -0.642800    5.118100    1.989200
  H      0.016000    3.522000    2.486300
  H     -0.248700    3.888600    0.730900
  H     -2.422900    3.766400    2.893600
  H     -4.040700    3.818100    0.963400
  H     -2.959100    5.253400    0.951200
  H     -2.658000    3.890900   -0.192800
  H     -1.235800   -0.318200   -1.863400
  H      0.264700   -1.270500   -2.022200
  H      1.831100   -0.302100   -3.490700
  H      2.930700    1.611000   -4.503100
  H      0.355900    4.275900   -2.297900
  H     -0.775900    2.339600   -1.302200
  H      2.215700   -2.711000    2.230100
  H      3.366200   -4.812800    1.747000
  H      5.518300   -6.673800   -2.100900
  H      4.063200   -3.484400   -2.305000
  H      2.908600   -1.393500   -1.805200
  H     -2.912600   -2.812900    1.144600
  H     -1.120000   -4.046800    2.305700
  H     -0.090100   -2.563600    2.343600
  H     -1.610200   -2.628100    3.295000
  H     -1.819800   -2.444200   -1.039600
  H     -0.223600   -2.818400   -0.216200
  H     -1.535400   -4.010600   -0.234700
  H     -3.987400   -2.142400    2.777900
  H     -5.766100   -1.126800    4.016600
  H     -5.960300    1.325500    4.188400
  H     -4.329200    2.769900    3.133800

 Total Charge           Charge          ....    0
 Multiplicity           Mult            ....    1
 Number of Electrons    NEL             ....  306
 Basis Dimension        Dim             ....  636

ORBITAL ENERGIES
----------------

  NO   OCC          E(Eh)            E(eV)
   0   2.0000     -89.094498     -2424.3845
   1   2.0000     -24.734436      -673.0582
   2   2.0000     -24.732144      -672.9959
   3   2.0000     -24.730681      -672.9560
   4   2.0000     -19.203526      -522.5545
   5   2.0000     -19.198397      -522.4149
   6   2.0000     -19.139851      -520.8218
   7   2.0000     -19.122671      -520.3543
   8   2.0000     -19.116944      -520.1985
   9   2.0000     -14.366641      -390.9362
  10   2.0000     -14.321761      -389.7149
  11   2.0000     -10.496241      -285.6172
  12   2.0000     -10.337322      -281.2928
  13   2.0000     -10.258476      -279.1473
  14   2.0000     -10.257698      -279.1262
  15   2.0000     -10.245407      -278.7917
  16   2.0000     -10.235823      -278.5309
  17   2.0000     -10.233974      -278.4806
  18   2.0000     -10.227542      -278.3056
  19   2.0000     -10.222161      -278.1591
  20   2.0000     -10.221678      -278.1460
  21   2.0000     -10.219720      -278.0927
  22   2.0000     -10.219299      -278.0813
  23   2.0000     -10.209705      -277.8202
  24   2.0000     -10.209194      -277.8063
  25   2.0000     -10.200876      -277.5799
  26   2.0000     -10.197555      -277.4896
  27   2.0000     -10.195060      -277.4217
  28   2.0000     -10.194952      -277.4188
  29   2.0000     -10.194605      -277.4093
  30   2.0000     -10.192824      -277.3608
  31   2.0000     -10.189391      -277.2674
  32   2.0000     -10.188899      -277.2540
  33   2.0000     -10.188089      -277.2320
  34   2.0000     -10.186165      -277.1796
  35   2.0000     -10.185642      -277.1654
  36   2.0000     -10.181323      -277.0479
  37   2.0000     -10.174578      -276.8643
  38   2.0000     -10.173581      -276.8372
  39   2.0000     -10.172555      -276.8093
  40   2.0000     -10.156052      -276.3602
  41   2.0000      -8.130170      -221.2332
  42   2.0000      -6.095221      -165.8594
  43   2.0000      -6.093275      -165.8065
  44   2.0000      -6.092716      -165.7912
  45   2.0000      -1.296302       -35.2742
  46   2.0000      -1.217624       -33.1332
  47   2.0000      -1.216602       -33.1054
  48   2.0000      -1.083217       -29.4758
  49   2.0000      -1.078477       -29.3469
  50   2.0000      -1.073071       -29.1997
  51   2.0000      -0.997075       -27.1318
  52   2.0000      -0.958861       -26.0919
  53   2.0000      -0.956114       -26.0172
  54   2.0000      -0.911081       -24.7918
  55   2.0000      -0.892548       -24.2875
  56   2.0000      -0.862147       -23.4602
  57   2.0000      -0.853662       -23.2293
  58   2.0000      -0.822518       -22.3819
  59   2.0000      -0.808551       -22.0018
  60   2.0000      -0.797124       -21.6908
  61   2.0000      -0.779127       -21.2011
  62   2.0000      -0.776722       -21.1357
  63   2.0000      -0.768482       -20.9115
  64   2.0000      -0.759392       -20.6641
  65   2.0000      -0.748279       -20.3617
  66   2.0000      -0.728883       -19.8339
  67   2.0000      -0.723188       -19.6790
  68   2.0000      -0.701049       -19.0765
  69   2.0000      -0.683593       -18.6015
  70   2.0000      -0.674490       -18.3538
  71   2.0000      -0.672088       -18.2884
  72   2.0000      -0.658672       -17.9234
  73   2.0000      -0.649021       -17.6608
  74   2.0000      -0.637983       -17.3604
  75   2.0000      -0.625639       -17.0245
  76   2.0000      -0.621172       -16.9030
  77   2.0000      -0.619506       -16.8576
  78   2.0000      -0.612127       -16.6568
  79   2.0000      -0.594402       -16.1745
  80   2.0000      -0.588471       -16.0131
  81   2.0000      -0.584429       -15.9031
  82   2.0000      -0.579694       -15.7743
  83   2.0000      -0.566431       -15.4134
  84   2.0000      -0.558974       -15.2105
  85   2.0000      -0.553447       -15.0601
  86   2.0000      -0.540817       -14.7164
  87   2.0000      -0.531622       -14.4662
  88   2.0000      -0.515250       -14.0207
  89   2.0000      -0.495207       -13.4753
  90   2.0000      -0.491171       -13.3654
  91   2.0000      -0.485639       -13.2149
  92   2.0000      -0.483891       -13.1674
  93   2.0000      -0.477014       -12.9802
  94   2.0000      -0.474900       -12.9227
  95   2.0000      -0.469507       -12.7759
  96   2.0000      -0.463703       -12.6180
  97   2.0000      -0.462848       -12.5947
  98   2.0000      -0.462249       -12.5784
  99   2.0000      -0.458791       -12.4843
 100   2.0000      -0.453644       -12.3443
 101   2.0000      -0.452209       -12.3052
 102   2.0000      -0.450616       -12.2619
 103   2.0000      -0.448676       -12.2091
 104   2.0000      -0.444317       -12.0905
 105   2.0000      -0.441007       -12.0004
 106   2.0000      -0.437432       -11.9031
 107   2.0000      -0.435297       -11.8450
 108   2.0000      -0.430828       -11.7234
 109   2.0000      -0.428213       -11.6523
 110   2.0000      -0.426240       -11.5986
 111   2.0000      -0.422612       -11.4999
 112   2.0000      -0.419676       -11.4200
 113   2.0000      -0.416125       -11.3233
 114   2.0000      -0.413844       -11.2613
 115   2.0000      -0.409226       -11.1356
 116   2.0000      -0.406713       -11.0672
 117   2.0000      -0.402628       -10.9561
 118   2.0000      -0.397464       -10.8155
 119   2.0000      -0.396082       -10.7779
 120   2.0000      -0.388330       -10.5670
 121   2.0000      -0.385622       -10.4933
 122   2.0000      -0.384586       -10.4651
 123   2.0000      -0.378766       -10.3068
 124   2.0000      -0.375340       -10.2135
 125   2.0000      -0.373216       -10.1557
 126   2.0000      -0.370854       -10.0914
 127   2.0000      -0.369493       -10.0544
 128   2.0000      -0.366455        -9.9717
 129   2.0000      -0.351943        -9.5769
 130   2.0000      -0.348103        -9.4724
 131   2.0000      -0.345380        -9.3983
 132   2.0000      -0.341643        -9.2966
 133   2.0000      -0.339427        -9.2363
 134   2.0000      -0.331589        -9.0230
 135   2.0000      -0.330243        -8.9864
 136   2.0000      -0.327656        -8.9160
 137   2.0000      -0.325537        -8.8583
 138   2.0000      -0.321861        -8.7583
 139   2.0000      -0.316149        -8.6029
 140   2.0000      -0.304979        -8.2989
 141   2.0000      -0.291210        -7.9242
 142   2.0000      -0.287095        -7.8123
 143   2.0000      -0.281028        -7.6472
 144   2.0000      -0.280243        -7.6258
 145   2.0000      -0.276658        -7.5283
 146   2.0000      -0.266677        -7.2567
 147   2.0000      -0.264291        -7.1917
 148   2.0000      -0.250961        -6.8290
 149   2.0000      -0.247597        -6.7375
 150   2.0000      -0.242678        -6.6036
 151   2.0000      -0.226587        -6.1658
 152   2.0000      -0.218935        -5.9575
 153   0.0000      -0.085439        -2.3249
 154   0.0000      -0.059896        -1.6299
 155   0.0000      -0.034388        -0.9358
 156   0.0000      -0.030998        -0.8435
 157   0.0000      -0.006217        -0.1692

MULLIKEN ATOMIC CHARGES
-----------------------
   0 C :   -0.430447
   1 C :   -0.133883
   2 C :   -0.442527
   3 C :    0.195740
   4 N :   -0.402804
   5 C :    0.296821
   6 N :   -0.608010
   7 C :   -0.255867
   8 C :    0.176684
   9 C :   -0.173359
  10 C :   -0.183835
  11 C :    0.354953
  12 O :   -0.546520
  13 C :    1.085810
  14 F :   -0.291020
  15 F :   -0.294068
  16 F :   -0.280203
  17 C :   -0.173861
  18 C :   -0.134097
  19 S :    1.221094
  20 O :   -0.520371
  21 O :   -0.551764
  22 C :   -0.133331
  23 C :   -0.147156
  24 C :   -0.138902
  25 C :    0.083511
  26 C :    0.528156
  27 O :   -0.443332
  28 O :   -0.623277
  29 C :   -0.147547
  30 C :   -0.150698
  31 C :    0.076981
  32 C :   -0.144803
  33 C :   -0.447211
  34 C :   -0.439360
  35 C :    0.114702
  36 C :   -0.204352
  37 C :   -0.117897
  38 C :   -0.124344
  39 C :   -0.205006
  40 C :    0.099836
  41 H :    0.127210
  42 H :    0.162065
  43 H :    0.163512
  44 H :    0.134440
  45 H :    0.140617
  46 H :    0.147344
  47 H :    0.151687
  48 H :    0.181724
  49 H :    0.153825
  50 H :    0.121456
  51 H :    0.145578
  52 H :    0.144621
  53 H :    0.154934
  54 H :    0.195849
  55 H :    0.182058
  56 H :    0.434838
  57 H :    0.172032
  58 H :    0.178586
  59 H :    0.133063
  60 H :    0.137350
  61 H :    0.166408
  62 H :    0.149842
  63 H :    0.137659
  64 H :    0.147664
  65 H :    0.137023
  66 H :    0.141202
  67 H :    0.135444
  68 H :    0.134267
  69 H :    0.143262
Sum of atomic charges:   -0.0000000

LOEWDIN ATOMIC CHARGES
----------------------
   0 C :   -0.346578
   1 C :   -0.130176
   2 C :   -0.347974
   3 C :    0.051479
   4 N :   -0.119124
   5 C :    0.032390
   6 N :   -0.284635
   7 C :   -0.144960
   8 C :   -0.035714
   9 C :   -0.129288
  10 C :   -0.159657
  11 C :    0.088548
  12 O :   -0.160586
  13 C :    0.360398
  14 F :   -0.105029
  15 F :   -0.107857
  16 F :   -0.088446
  17 C :   -0.136478
  18 C :   -0.104767
  19 S :    1.262612
  20 O :   -0.554679
  21 O :   -0.573566
  22 C :   -0.170981
  23 C :   -0.101752
  24 C :   -0.085215
  25 C :   -0.038423
  26 C :    0.179446
  27 O :   -0.259501
  28 O :   -0.333964
  29 C :   -0.099196
  30 C :   -0.112131
  31 C :   -0.006354
  32 C :   -0.123973
  33 C :   -0.353090
  34 C :   -0.353058
  35 C :   -0.001360
  36 C :   -0.126064
  37 C :   -0.120557
  38 C :   -0.126450
  39 C :   -0.117637
  40 C :   -0.025907
  41 H :    0.117186
  42 H :    0.135337
  43 H :    0.133439
  44 H :    0.124402
  45 H :    0.120494
  46 H :    0.126220
  47 H :    0.125854
  48 H :    0.148105
  49 H :    0.124584
  50 H :    0.126266
  51 H :    0.139243
  52 H :    0.143335
  53 H :    0.144153
  54 H :    0.163652
  55 H :    0.161337
  56 H :    0.350343
  57 H :    0.154471
  58 H :    0.154311
  59 H :    0.123929
  60 H :    0.121526
  61 H :    0.131485
  62 H :    0.126657
  63 H :    0.121384
  64 H :    0.123377
  65 H :    0.120994
  66 H :    0.138582
  67 H :    0.135404
  68 H :    0.134662
  69 H :    0.139521

  Mayer bond orders larger than 0.100000
B(  0-C ,  1-C ) :   1.0045 B(  0-C , 41-H ) :   0.9432 B(  0-C , 42-H ) :   0.9460
B(  0-C , 43-H ) :   0.9388 B(  1-C ,  2-C ) :   0.9914 B(  1-C ,  3-C ) :   0.9810
B(  1-C , 44-H ) :   0.9214 B(  2-C , 45-H ) :   0.9447 B(  2-C , 46-H ) :   0.9448
B(  2-C , 47-H ) :   0.9435 B(  3-C ,  4-N ) :   1.4379 B(  3-C , 40-C ) :   1.2312
B(  4-N ,  5-C ) :   1.2813 B(  5-C ,  6-N ) :   0.9028 B(  5-C , 31-C ) :   1.4323
B(  6-N ,  7-C ) :   0.9184 B(  6-N , 19-S ) :   0.8000 B(  7-C ,  8-C ) :   0.9504
B(  7-C , 48-H ) :   0.9170 B(  7-C , 49-H ) :   0.9239 B(  8-C ,  9-C ) :   1.4337
B(  8-C , 18-C ) :   1.4263 B(  9-C , 10-C ) :   1.4278 B(  9-C , 50-H ) :   0.9176
B( 10-C , 11-C ) :   1.4045 B( 10-C , 51-H ) :   0.9099 B( 11-C , 12-O ) :   0.8198
B( 11-C , 17-C ) :   1.4073 B( 12-O , 13-C ) :   0.9942 B( 13-C , 14-F ) :   0.9684
B( 13-C , 15-F ) :   0.9655 B( 13-C , 16-F ) :   1.0068 B( 17-C , 18-C ) :   1.4450
B( 17-C , 52-H ) :   0.9190 B( 18-C , 53-H ) :   0.8981 B( 19-S , 20-O ) :   1.6716
B( 19-S , 21-O ) :   1.5937 B( 19-S , 22-C ) :   0.8078 B( 22-C , 23-C ) :   1.3893
B( 22-C , 30-C ) :   1.3898 B( 23-C , 24-C ) :   1.4169 B( 23-C , 54-H ) :   0.9025
B( 24-C , 25-C ) :   1.4013 B( 24-C , 55-H ) :   0.9089 B( 25-C , 26-C ) :   1.0070
B( 25-C , 29-C ) :   1.3861 B( 26-C , 27-O ) :   1.8640 B( 26-C , 28-O ) :   1.0262
B( 28-O , 56-H ) :   0.7413 B( 29-C , 30-C ) :   1.4212 B( 29-C , 57-H ) :   0.9148
B( 30-C , 58-H ) :   0.8987 B( 31-C , 32-C ) :   0.9929 B( 31-C , 35-C ) :   1.2428
B( 32-C , 33-C ) :   0.9960 B( 32-C , 34-C ) :   0.9983 B( 32-C , 59-H ) :   0.9164
B( 33-C , 60-H ) :   0.9438 B( 33-C , 61-H ) :   0.9254 B( 33-C , 62-H ) :   0.9436
B( 34-C , 63-H ) :   0.9425 B( 34-C , 64-H ) :   0.9354 B( 34-C , 65-H ) :   0.9436
B( 35-C , 36-C ) :   1.2759 B( 35-C , 40-C ) :   1.2792 B( 36-C , 37-C ) :   1.5179
B( 36-C , 39-C ) :   0.1045 B( 36-C , 66-H ) :   0.9146 B( 37-C , 38-C ) :   1.3585
B( 37-C , 67-H ) :   0.9286 B( 38-C , 39-C ) :   1.5127 B( 38-C , 68-H ) :   0.9286
B( 39-C , 40-C ) :   1.2888 B( 39-C , 69-H ) :   0.9147

FINAL SINGLE POINT ENERGY     -2342.715795268008

DIPOLE MOMENT
-------------

Method             : SCF
Type of density    : Electron Density
Multiplicity       :   1
Irrep              :   0
Energy             : -2342.7157952680081507 Eh
Relativity type    :
Basis              : AO
                                X                 Y                 Z
Electronic contribution:     44.596116254      18.031830702     -39.130731318
Nuclear contribution   :    -46.553088005     -19.678580421      38.597875301
                        -----------------------------------------
Total Dipole Moment    :     -1.956971751      -1.646749720      -0.532856017
                        -----------------------------------------
Magnitude (a.u.)       :      2.612557867
Magnitude (Debye)      :      6.640594362

Rotational constants in cm-1:             0.002462             0.002111             0.001235
Rotational constants in MHz :            73.810476            63.286677            37.029101

                             ****ORCA TERMINATED NORMALLY****
TOTAL RUN TIME: 0 days 0 hours 10 minutes 8 seconds 269 msec
