                         Program Version 6.0.0  -   RELEASE  -
|  1> ! B3LYP 6-31G* SP
|  2>
|  3> * xyz 0 1
|  4> C 2.3802 1.0374 2.2371
|  5> C 1.7963 -0.0622 1.3330
|  6> C 2.4244 -0.1073 -0.0528
|  7> C 2.7804 1.0675 -0.7447
|  8> C 3.2870 1.0001 -2.0460
|  9> F 3.6158 2.1386 -2.7036
| 10> C 3.4430 -0.2355 -2.6751
| 11> C 3.0818 -1.4061 -2.0109
| 12> F 3.2227 -2.6034 -2.6309
| 13> C 2.5690 -1.3466 -0.7107
| 14> F 2.1982 -2.4969 -0.1015
| 15> N 0.3234 0.0412 1.2402
| 16> C -0.2733 1.2585 0.7472
| 17> O -0.6842 2.1202 1.5706
| 18> C -0.4007 1.5152 -0.7063
| 19> C -0.3565 0.4583 -1.6334
| 20> C -0.4143 0.7172 -3.0051
| 21> C -0.5198 2.0321 -3.4662
| 22> C -0.5771 3.0909 -2.5554
| 23> C -0.5196 2.8348 -1.1818
| 24> C -0.5146 -1.0273 1.8289
| 25> C -0.7196 -0.8230 3.3103
| 26> N -1.0841 -1.9295 4.1367
| 27> O -0.6190 0.3245 3.8210
| 28> C -1.8402 -1.1903 1.1017
| 29> C -2.9296 -0.3310 1.3563
| 30> C -4.1315 -0.4820 0.6566
| 31> C -4.2598 -1.4869 -0.3044
| 32> C -3.1870 -2.3366 -0.5732
| 33> C -1.9824 -2.1935 0.1248
| 34> H 2.0011 0.9083 3.2734
| 35> H 2.0963 2.0535 1.8937
| 36> H 3.4884 0.9604 2.2631
| 37> H 2.0661 -1.0111 1.8488
| 38> H 2.6429 2.0413 -0.2982
| 39> H 3.8375 -0.2854 -3.6818
| 40> H -0.2675 -0.5652 -1.3044
| 41> H -0.3731 -0.1027 -3.7121
| 42> H -0.5533 2.2316 -4.5289
| 43> H -0.6379 4.1133 -2.9154
| 44> H -0.5311 3.6713 -0.4917
| 45> H 0.0342 -1.9898 1.7299
| 46> H -1.2582 -1.7880 5.1560
| 47> H -1.2076 -2.8818 3.7262
| 48> H -2.8493 0.4570 2.0918
| 49> H -4.9611 0.1811 0.8585
| 50> H -5.1910 -1.6004 -0.8458
| 51> H -3.2867 -3.1106 -1.3212
| 52> H -1.1583 -2.8614 -0.1041
| 53> *
| 54>
| 55>                          ****END OF INPUT****

CARTESIAN COORDINATES (ANGSTROEM)
---------------------------------
  C      2.380200    1.037400    2.237100
  C      1.796300   -0.062200    1.333000
  C      2.424400   -0.107300   -0.052800
  C      2.780400    1.067500   -0.744700
  C      3.287000    1.000100   -2.046000
  F      3.615800    2.138600   -2.703600
  C      3.443000   -0.235500   -2.675100
  C      3.081800   -1.406100   -2.010900
  F      3.222700   -2.603400   -2.630900
  C      2.569000   -1.346600   -0.710700
  F      2.198200   -2.496900   -0.101500
  N      0.323400    0.041200    1.240200
  C     -0.273300    1.258500    0.747200
  O     -0.684200    2.120200    1.570600
  C     -0.400700    1.515200   -0.706300
  C     -0.356500    0.458300   -1.633400
  C     -0.414300    0.717200   -3.005100
  C     -0.519800    2.032100   -3.466200
  C     -0.577100    3.090900   -2.555400
  C     -0.519600    2.834800   -1.181800
  C     -0.514600   -1.027300    1.828900
  C     -0.719600   -0.823000    3.310300
  N     -1.084100   -1.929500    4.136700
  O     -0.619000    0.324500    3.821000
  C     -1.840200   -1.190300    1.101700
  C     -2.929600   -0.331000    1.356300
  C     -4.131500   -0.482000    0.656600
  C     -4.259800   -1.486900   -0.304400
  C     -3.187000   -2.336600   -0.573200
  C     -1.982400   -2.193500    0.124800
  H      2.001100    0.908300    3.273400
  H      2.096300    2.053500    1.893700
  H      3.488400    0.960400    2.263100
  H      2.066100   -1.011100    1.848800
  H      2.642900    2.041300   -0.298200
  H      3.837500   -0.285400   -3.681800
  H     -0.267500   -0.565200   -1.304400
  H     -0.373100   -0.102700   -3.712100
  H     -0.553300    2.231600   -4.528900
  H     -0.637900    4.113300   -2.915400
  H     -0.531100    3.671300   -0.491700
  H      0.034200   -1.989800    1.729900
  H     -1.258200   -1.788000    5.156000
  H     -1.207600   -2.881800    3.726200
  H     -2.849300    0.457000    2.091800
  H     -4.961100    0.181100    0.858500
  H     -5.191000   -1.600400   -0.845800
  H     -3.286700   -3.110600   -1.321200
  H     -1.158300   -2.861400   -0.104100

 Total Charge           Charge          ....    0
 Multiplicity           Mult            ....    1
 Number of Electrons    NEL             ....  214
 Basis Dimension        Dim             ....  458

ORBITAL ENERGIES
----------------

  NO   OCC          E(Eh)            E(eV)
   0   2.0000     -24.716369      -672.5666
   1   2.0000     -24.712422      -672.4592
   2   2.0000     -24.705271      -672.2646
   3   2.0000     -19.122157      -520.3404
   4   2.0000     -19.101214      -519.7705
   5   2.0000     -14.350277      -390.4909
   6   2.0000     -14.328862      -389.9082
   7   2.0000     -10.288371      -279.9608
   8   2.0000     -10.286383      -279.9067
   9   2.0000     -10.281560      -279.7755
  10   2.0000     -10.279714      -279.7252
  11   2.0000     -10.279087      -279.7082
  12   2.0000     -10.238566      -278.6055
  13   2.0000     -10.233545      -278.4689
  14   2.0000     -10.212840      -277.9055
  15   2.0000     -10.203260      -277.6448
  16   2.0000     -10.200451      -277.5684
  17   2.0000     -10.197642      -277.4919
  18   2.0000     -10.193664      -277.3837
  19   2.0000     -10.190301      -277.2922
  20   2.0000     -10.190057      -277.2855
  21   2.0000     -10.187810      -277.2244
  22   2.0000     -10.187380      -277.2127
  23   2.0000     -10.186826      -277.1976
  24   2.0000     -10.186140      -277.1790
  25   2.0000     -10.185705      -277.1671
  26   2.0000     -10.185603      -277.1643
  27   2.0000     -10.184213      -277.1265
  28   2.0000     -10.183046      -277.0948
  29   2.0000     -10.164602      -276.5929
  30   2.0000      -1.234048       -33.5802
  31   2.0000      -1.220627       -33.2149
  32   2.0000      -1.218505       -33.1572
  33   2.0000      -1.015494       -27.6330
  34   2.0000      -0.999627       -27.2012
  35   2.0000      -0.915921       -24.9235
  36   2.0000      -0.875628       -23.8270
  37   2.0000      -0.872534       -23.7429
  38   2.0000      -0.854306       -23.2469
  39   2.0000      -0.853412       -23.2225
  40   2.0000      -0.797713       -21.7069
  41   2.0000      -0.768432       -20.9101
  42   2.0000      -0.758793       -20.6478
  43   2.0000      -0.755478       -20.5576
  44   2.0000      -0.746167       -20.3042
  45   2.0000      -0.745367       -20.2825
  46   2.0000      -0.727918       -19.8077
  47   2.0000      -0.700897       -19.0724
  48   2.0000      -0.658908       -17.9298
  49   2.0000      -0.635427       -17.2908
  50   2.0000      -0.627972       -17.0880
  51   2.0000      -0.609905       -16.5964
  52   2.0000      -0.608959       -16.5706
  53   2.0000      -0.600951       -16.3527
  54   2.0000      -0.594989       -16.1905
  55   2.0000      -0.575730       -15.6664
  56   2.0000      -0.559090       -15.2136
  57   2.0000      -0.546334       -14.8665
  58   2.0000      -0.537217       -14.6184
  59   2.0000      -0.536394       -14.5960
  60   2.0000      -0.522441       -14.2163
  61   2.0000      -0.519697       -14.1417
  62   2.0000      -0.505817       -13.7640
  63   2.0000      -0.500404       -13.6167
  64   2.0000      -0.489788       -13.3278
  65   2.0000      -0.483620       -13.1600
  66   2.0000      -0.475725       -12.9451
  67   2.0000      -0.474517       -12.9123
  68   2.0000      -0.459092       -12.4925
  69   2.0000      -0.458031       -12.4636
  70   2.0000      -0.454957       -12.3800
  71   2.0000      -0.451108       -12.2753
  72   2.0000      -0.449794       -12.2395
  73   2.0000      -0.443536       -12.0692
  74   2.0000      -0.439388       -11.9563
  75   2.0000      -0.437165       -11.8959
  76   2.0000      -0.431916       -11.7530
  77   2.0000      -0.423002       -11.5105
  78   2.0000      -0.421500       -11.4696
  79   2.0000      -0.417528       -11.3615
  80   2.0000      -0.408995       -11.1293
  81   2.0000      -0.405981       -11.0473
  82   2.0000      -0.391003       -10.6397
  83   2.0000      -0.384836       -10.4719
  84   2.0000      -0.379922       -10.3382
  85   2.0000      -0.378696       -10.3048
  86   2.0000      -0.371685       -10.1141
  87   2.0000      -0.366050        -9.9607
  88   2.0000      -0.361147        -9.8273
  89   2.0000      -0.357920        -9.7395
  90   2.0000      -0.354714        -9.6523
  91   2.0000      -0.352519        -9.5925
  92   2.0000      -0.349097        -9.4994
  93   2.0000      -0.343925        -9.3587
  94   2.0000      -0.340942        -9.2775
  95   2.0000      -0.337644        -9.1878
  96   2.0000      -0.329108        -8.9555
  97   2.0000      -0.268994        -7.3197
  98   2.0000      -0.259270        -7.0551
  99   2.0000      -0.254706        -6.9309
 100   2.0000      -0.253142        -6.8883
 101   2.0000      -0.250331        -6.8119
 102   2.0000      -0.248959        -6.7745
 103   2.0000      -0.243309        -6.6208
 104   2.0000      -0.241400        -6.5688
 105   2.0000      -0.232875        -6.3368
 106   2.0000      -0.208726        -5.6797
 107   0.0000      -0.057197        -1.5564
 108   0.0000      -0.022528        -0.6130
 109   0.0000      -0.012000        -0.3265
 110   0.0000      -0.005692        -0.1549
 111   0.0000      -0.001640        -0.0446

MULLIKEN ATOMIC CHARGES
-----------------------
   0 C :   -0.441323
   1 C :   -0.062904
   2 C :    0.093479
   3 C :   -0.255697
   4 C :    0.440560
   5 F :   -0.315811
   6 C :   -0.299216
   7 C :    0.364094
   8 F :   -0.310266
   9 C :    0.279762
  10 F :   -0.312505
  11 N :   -0.422045
  12 C :    0.427620
  13 O :   -0.405859
  14 C :    0.114745
  15 C :   -0.148109
  16 C :   -0.135424
  17 C :   -0.114668
  18 C :   -0.131076
  19 C :   -0.156913
  20 C :   -0.134955
  21 C :    0.572285
  22 N :   -0.768481
  23 O :   -0.459495
  24 C :    0.119326
  25 C :   -0.168214
  26 C :   -0.127755
  27 C :   -0.120264
  28 C :   -0.126108
  29 C :   -0.191843
  30 H :    0.182706
  31 H :    0.158530
  32 H :    0.135597
  33 H :    0.156996
  34 H :    0.158867
  35 H :    0.165463
  36 H :    0.144546
  37 H :    0.131912
  38 H :    0.134029
  39 H :    0.135838
  40 H :    0.156696
  41 H :    0.145645
  42 H :    0.349363
  43 H :    0.328979
  44 H :    0.179673
  45 H :    0.137615
  46 H :    0.130956
  47 H :    0.130617
  48 H :    0.133033
Sum of atomic charges:   -0.0000000

LOEWDIN ATOMIC CHARGES
----------------------
   0 C :   -0.361880
   1 C :   -0.043527
   2 C :   -0.033614
   3 C :   -0.155570
   4 C :    0.121037
   5 F :   -0.098922
   6 C :   -0.183286
   7 C :    0.096157
   8 F :   -0.094419
   9 C :    0.074235
  10 F :   -0.098222
  11 N :   -0.133703
  12 C :    0.156701
  13 O :   -0.205902
  14 C :   -0.055049
  15 C :   -0.100979
  16 C :   -0.133011
  17 C :   -0.111331
  18 C :   -0.130774
  19 C :   -0.096402
  20 C :   -0.064235
  21 C :    0.125503
  22 N :   -0.406906
  23 O :   -0.273011
  24 C :   -0.029039
  25 C :   -0.121348
  26 C :   -0.123156
  27 C :   -0.123836
  28 C :   -0.130369
  29 C :   -0.135920
  30 H :    0.146837
  31 H :    0.130147
  32 H :    0.121904
  33 H :    0.137055
  34 H :    0.151516
  35 H :    0.157450
  36 H :    0.141722
  37 H :    0.133036
  38 H :    0.133924
  39 H :    0.134860
  40 H :    0.147259
  41 H :    0.134384
  42 H :    0.264269
  43 H :    0.248814
  44 H :    0.154672
  45 H :    0.136034
  46 H :    0.132657
  47 H :    0.132629
  48 H :    0.131611

  Mayer bond orders larger than 0.100000
B(  0-C ,  1-C ) :   1.0009 B(  0-C , 30-H ) :   0.9303 B(  0-C , 31-H ) :   0.9321
B(  0-C , 32-H ) :   0.9384 B(  1-C ,  2-C ) :   0.9461 B(  1-C , 11-N ) :   0.9574
B(  1-C , 33-H ) :   0.9183 B(  2-C ,  3-C ) :   1.3868 B(  2-C ,  9-C ) :   1.3451
B(  3-C ,  4-C ) :   1.3871 B(  3-C , 34-H ) :   0.9087 B(  4-C ,  5-F ) :   0.9068
B(  4-C ,  6-C ) :   1.3706 B(  6-C ,  7-C ) :   1.3649 B(  6-C , 35-H ) :   0.9110
B(  7-C ,  8-F ) :   0.9151 B(  7-C ,  9-C ) :   1.2995 B(  9-C , 10-F ) :   0.9162
B( 11-N , 12-C ) :   0.9217 B( 11-N , 20-C ) :   1.0014 B( 12-C , 13-O ) :   1.8712
B( 12-C , 14-C ) :   0.9990 B( 14-C , 15-C ) :   1.3833 B( 14-C , 19-C ) :   1.3814
B( 15-C , 16-C ) :   1.4370 B( 15-C , 36-H ) :   0.9057 B( 16-C , 17-C ) :   1.4442
B( 16-C , 37-H ) :   0.9297 B( 17-C , 18-C ) :   1.4372 B( 17-C , 38-H ) :   0.9298
B( 18-C , 19-C ) :   1.4378 B( 18-C , 39-H ) :   0.9296 B( 19-C , 40-H ) :   0.9153
B( 20-C , 21-C ) :   0.8775 B( 20-C , 24-C ) :   0.9769 B( 20-C , 41-H ) :   0.8999
B( 21-C , 22-N ) :   1.0622 B( 21-C , 23-O ) :   1.8452 B( 22-N , 42-H ) :   0.8237
B( 22-N , 43-H ) :   0.8324 B( 24-C , 25-C ) :   1.4273 B( 24-C , 29-C ) :   1.4224
B( 25-C , 26-C ) :   1.4320 B( 25-C , 44-H ) :   0.9025 B( 26-C , 27-C ) :   1.4500
B( 26-C , 45-H ) :   0.9290 B( 27-C , 28-C ) :   1.4557 B( 27-C , 46-H ) :   0.9300
B( 28-C , 29-C ) :   1.4365 B( 28-C , 47-H ) :   0.9292 B( 29-C , 48-H ) :   0.9224

FINAL SINGLE POINT ENERGY     -1446.491088156648

DIPOLE MOMENT
-------------

Method             : SCF
Type of density    : Electron Density
Multiplicity       :   1
Irrep              :   0
Energy             : -1446.4910881566484022 Eh
Relativity type    :
Basis              : AO
                                X                 Y                 Z
Electronic contribution:     18.329054524      -5.194803759     -10.972960278
Nuclear contribution   :    -18.650085976       3.873134046      10.233248077
                        -----------------------------------------
Total Dipole Moment    :     -0.321031452      -1.321669714      -0.739712202
                        -----------------------------------------
Magnitude (a.u.)       :      1.548239699
Magnitude (Debye)      :      3.935312571

Rotational constants in cm-1:             0.007218             0.004479             0.004085
Rotational constants in MHz :           216.392140           134.279690           122.460801

                             ****ORCA TERMINATED NORMALLY****
TOTAL RUN TIME: 0 days 0 hours 9 minutes 48 seconds 807 msec
