                         Program Version 6.0.0  -   RELEASE  -
|  1> ! B3LYP 6-31G* SP
|  2>
|  3> * xyz 0 1
|  4> N 6.2886 -2.2906 -7.2080
|  5> C 5.4862 -2.0540 -6.4081
|  6> C 4.4949 -1.7584 -5.4078
|  7> C 3.4510 -0.8682 -5.6912
|  8> C 2.5010 -0.5631 -4.7087
|  9> C 2.5771 -1.1552 -3.4382
| 10> N 1.6000 -0.8101 -2.4408
| 11> C 1.1720 -1.7035 -1.3969
| 12> O 1.3511 -2.9455 -1.5307
| 13> N 0.5140 -1.1954 -0.2146
| 14> C 0.5885 0.2411 0.0967
| 15> C -0.0238 0.5573 1.4660
| 16> C -1.4224 -0.0953 1.6393
| 17> C -2.4893 0.5544 0.7090
| 18> C -2.7423 2.0300 1.0526
| 19> C -2.9103 2.2386 2.5358
| 20> C -3.5016 3.4166 3.0115
| 21> C -3.6521 3.6228 4.3852
| 22> C -3.2061 2.6599 5.2934
| 23> C -2.6014 1.4873 4.8318
| 24> Cl -2.0386 0.2906 5.9884
| 25> C -2.4406 1.2767 3.4545
| 26> O -1.8313 0.0999 2.9989
| 27> C -1.3543 -1.6334 1.3644
| 28> C -0.0119 -2.1267 0.7975
| 29> C 3.6420 -2.0313 -3.1525
| 30> C 4.5901 -2.3358 -4.1361
| 31> H 3.3755 -0.4031 -6.6668
| 32> H 1.7058 0.1339 -4.9378
| 33> H 1.0940 0.0942 -2.5575
| 34> H 0.0486 0.8231 -0.6782
| 35> H 1.6510 0.5681 0.0942
| 36> H -0.0641 1.6568 1.6116
| 37> H 0.6559 0.1689 2.2564
| 38> H -2.2050 0.4608 -0.3605
| 39> H -3.4537 0.0127 0.8364
| 40> H -3.6588 2.3667 0.5215
| 41> H -1.9029 2.6575 0.6863
| 42> H -3.8494 4.1719 2.3181
| 43> H -4.1158 4.5303 4.7462
| 44> H -3.3285 2.8271 6.3560
| 45> H -1.5489 -2.1966 2.3044
| 46> H -2.1559 -1.9459 0.6577
| 47> H 0.7293 -2.2223 1.6203
| 48> H -0.1695 -3.1406 0.3716
| 49> H 3.7574 -2.4620 -2.1665
| 50> H 5.4045 -3.0104 -3.9000
| 51> *
| 52>
| 53>                          ****END OF INPUT****

CARTESIAN COORDINATES (ANGSTROEM)
---------------------------------
  N      6.288600   -2.290600   -7.208000
  C      5.486200   -2.054000   -6.408100
  C      4.494900   -1.758400   -5.407800
  C      3.451000   -0.868200   -5.691200
  C      2.501000   -0.563100   -4.708700
  C      2.577100   -1.155200   -3.438200
  N      1.600000   -0.810100   -2.440800
  C      1.172000   -1.703500   -1.396900
  O      1.351100   -2.945500   -1.530700
  N      0.514000   -1.195400   -0.214600
  C      0.588500    0.241100    0.096700
  C     -0.023800    0.557300    1.466000
  C     -1.422400   -0.095300    1.639300
  C     -2.489300    0.554400    0.709000
  C     -2.742300    2.030000    1.052600
  C     -2.910300    2.238600    2.535800
  C     -3.501600    3.416600    3.011500
  C     -3.652100    3.622800    4.385200
  C     -3.206100    2.659900    5.293400
  C     -2.601400    1.487300    4.831800
  Cl    -2.038600    0.290600    5.988400
  C     -2.440600    1.276700    3.454500
  O     -1.831300    0.099900    2.998900
  C     -1.354300   -1.633400    1.364400
  C     -0.011900   -2.126700    0.797500
  C      3.642000   -2.031300   -3.152500
  C      4.590100   -2.335800   -4.136100
  H      3.375500   -0.403100   -6.666800
  H      1.705800    0.133900   -4.937800
  H      1.094000    0.094200   -2.557500
  H      0.048600    0.823100   -0.678200
  H      1.651000    0.568100    0.094200
  H     -0.064100    1.656800    1.611600
  H      0.655900    0.168900    2.256400
  H     -2.205000    0.460800   -0.360500
  H     -3.453700    0.012700    0.836400
  H     -3.658800    2.366700    0.521500
  H     -1.902900    2.657500    0.686300
  H     -3.849400    4.171900    2.318100
  H     -4.115800    4.530300    4.746200
  H     -3.328500    2.827100    6.356000
  H     -1.548900   -2.196600    2.304400
  H     -2.155900   -1.945900    0.657700
  H      0.729300   -2.222300    1.620300
  H     -0.169500   -3.140600    0.371600
  H      3.757400   -2.462000   -2.166500
  H      5.404500   -3.010400   -3.900000

 Total Charge           Charge          ....    0
 Multiplicity           Mult            ....    1
 Number of Electrons    NEL             ....  200
 Basis Dimension        Dim             ....  422

ORBITAL ENERGIES
----------------

  NO   OCC          E(Eh)            E(eV)
   0   2.0000    -101.526327     -2762.6718
   1   2.0000     -19.175843      -521.8012
   2   2.0000     -19.112849      -520.0871
   3   2.0000     -14.383621      -391.3982
   4   2.0000     -14.369782      -391.0217
   5   2.0000     -14.322738      -389.7415
   6   2.0000     -10.327501      -281.0256
   7   2.0000     -10.268295      -279.4145
   8   2.0000     -10.261759      -279.2367
   9   2.0000     -10.254314      -279.0341
  10   2.0000     -10.246987      -278.8347
  11   2.0000     -10.241025      -278.6725
  12   2.0000     -10.226695      -278.2825
  13   2.0000     -10.224090      -278.2116
  14   2.0000     -10.213153      -277.9140
  15   2.0000     -10.209474      -277.8139
  16   2.0000     -10.206198      -277.7248
  17   2.0000     -10.204888      -277.6891
  18   2.0000     -10.204359      -277.6747
  19   2.0000     -10.203858      -277.6611
  20   2.0000     -10.203055      -277.6392
  21   2.0000     -10.200145      -277.5601
  22   2.0000     -10.198140      -277.5055
  23   2.0000     -10.198000      -277.5017
  24   2.0000     -10.196030      -277.4481
  25   2.0000     -10.193334      -277.3747
  26   2.0000     -10.190580      -277.2998
  27   2.0000      -9.457695      -257.3570
  28   2.0000      -7.220908      -196.4909
  29   2.0000      -7.211340      -196.2305
  30   2.0000      -7.210884      -196.2181
  31   2.0000      -1.062466       -28.9112
  32   2.0000      -1.029399       -28.0114
  33   2.0000      -0.935484       -25.4558
  34   2.0000      -0.930335       -25.3157
  35   2.0000      -0.896845       -24.4044
  36   2.0000      -0.886708       -24.1285
  37   2.0000      -0.861739       -23.4491
  38   2.0000      -0.843478       -22.9522
  39   2.0000      -0.823402       -22.4059
  40   2.0000      -0.790897       -21.5214
  41   2.0000      -0.778879       -21.1944
  42   2.0000      -0.770090       -20.9552
  43   2.0000      -0.764069       -20.7914
  44   2.0000      -0.739654       -20.1270
  45   2.0000      -0.732727       -19.9385
  46   2.0000      -0.678578       -18.4650
  47   2.0000      -0.659947       -17.9581
  48   2.0000      -0.653266       -17.7763
  49   2.0000      -0.643776       -17.5180
  50   2.0000      -0.635537       -17.2938
  51   2.0000      -0.605218       -16.4688
  52   2.0000      -0.604231       -16.4420
  53   2.0000      -0.573913       -15.6170
  54   2.0000      -0.559224       -15.2173
  55   2.0000      -0.556281       -15.1372
  56   2.0000      -0.548733       -14.9318
  57   2.0000      -0.531117       -14.4524
  58   2.0000      -0.521700       -14.1962
  59   2.0000      -0.505923       -13.7669
  60   2.0000      -0.491334       -13.3699
  61   2.0000      -0.483826       -13.1656
  62   2.0000      -0.473604       -12.8874
  63   2.0000      -0.469680       -12.7807
  64   2.0000      -0.460479       -12.5303
  65   2.0000      -0.456702       -12.4275
  66   2.0000      -0.454012       -12.3543
  67   2.0000      -0.446582       -12.1521
  68   2.0000      -0.439490       -11.9591
  69   2.0000      -0.439087       -11.9482
  70   2.0000      -0.423428       -11.5221
  71   2.0000      -0.416860       -11.3433
  72   2.0000      -0.414888       -11.2897
  73   2.0000      -0.411487       -11.1971
  74   2.0000      -0.405851       -11.0438
  75   2.0000      -0.402662       -10.9570
  76   2.0000      -0.399600       -10.8737
  77   2.0000      -0.397204       -10.8085
  78   2.0000      -0.387222       -10.5368
  79   2.0000      -0.383117       -10.4251
  80   2.0000      -0.379147       -10.3171
  81   2.0000      -0.372989       -10.1496
  82   2.0000      -0.365269        -9.9395
  83   2.0000      -0.361151        -9.8274
  84   2.0000      -0.357872        -9.7382
  85   2.0000      -0.347451        -9.4546
  86   2.0000      -0.346946        -9.4409
  87   2.0000      -0.343359        -9.3433
  88   2.0000      -0.325506        -8.8575
  89   2.0000      -0.321607        -8.7514
  90   2.0000      -0.318153        -8.6574
  91   2.0000      -0.311165        -8.4672
  92   2.0000      -0.304206        -8.2779
  93   2.0000      -0.298706        -8.1282
  94   2.0000      -0.271661        -7.3923
  95   2.0000      -0.259271        -7.0551
  96   2.0000      -0.245928        -6.6920
  97   2.0000      -0.240224        -6.5368
  98   2.0000      -0.230247        -6.2654
  99   2.0000      -0.226992        -6.1768
 100   0.0000      -0.040968        -1.1148
 101   0.0000      -0.018774        -0.5109
 102   0.0000      -0.017449        -0.4748
 103   0.0000      -0.001657        -0.0451
 104   0.0000       0.021351         0.5810

MULLIKEN ATOMIC CHARGES
-----------------------
   0 N :   -0.310829
   1 C :    0.075105
   2 C :    0.117792
   3 C :   -0.139632
   4 C :   -0.192213
   5 C :    0.367496
   6 N :   -0.727214
   7 C :    0.687061
   8 O :   -0.489305
   9 N :   -0.448409
  10 C :   -0.129442
  11 C :   -0.328513
  12 C :    0.377722
  13 C :   -0.315928
  14 C :   -0.353873
  15 C :    0.117044
  16 C :   -0.183700
  17 C :   -0.124598
  18 C :   -0.132653
  19 C :   -0.142581
  20 Cl:   -0.007613
  21 C :    0.327263
  22 O :   -0.543476
  23 C :   -0.332476
  24 C :   -0.130764
  25 C :   -0.141651
  26 C :   -0.148535
  27 H :    0.156849
  28 H :    0.133708
  29 H :    0.330905
  30 H :    0.130087
  31 H :    0.158131
  32 H :    0.157052
  33 H :    0.167143
  34 H :    0.142271
  35 H :    0.157306
  36 H :    0.157153
  37 H :    0.151316
  38 H :    0.129008
  39 H :    0.133794
  40 H :    0.152750
  41 H :    0.174094
  42 H :    0.153606
  43 H :    0.150625
  44 H :    0.192737
  45 H :    0.164589
  46 H :    0.160797
Sum of atomic charges:    0.0000000

LOEWDIN ATOMIC CHARGES
----------------------
   0 N :   -0.104759
   1 C :   -0.009550
   2 C :   -0.068144
   3 C :   -0.096251
   4 C :   -0.150069
   5 C :    0.060804
   6 N :   -0.224784
   7 C :    0.164560
   8 O :   -0.306065
   9 N :   -0.128131
  10 C :   -0.155294
  11 C :   -0.237836
  12 C :    0.084605
  13 C :   -0.234609
  14 C :   -0.226369
  15 C :   -0.051887
  16 C :   -0.127790
  17 C :   -0.139626
  18 C :   -0.130359
  19 C :   -0.109360
  20 Cl:    0.040376
  21 C :    0.074982
  22 O :   -0.165685
  23 C :   -0.233400
  24 C :   -0.146517
  25 C :   -0.124389
  26 C :   -0.094588
  27 H :    0.147732
  28 H :    0.135203
  29 H :    0.255847
  30 H :    0.107422
  31 H :    0.126865
  32 H :    0.136688
  33 H :    0.138013
  34 H :    0.126928
  35 H :    0.132238
  36 H :    0.136959
  37 H :    0.126870
  38 H :    0.133035
  39 H :    0.135552
  40 H :    0.146323
  41 H :    0.146838
  42 H :    0.130040
  43 H :    0.119084
  44 H :    0.155876
  45 H :    0.153005
  46 H :    0.149616

  Mayer bond orders larger than 0.100000
B(  0-N ,  1-C ) :   3.0243 B(  1-C ,  2-C ) :   0.9860 B(  2-C ,  3-C ) :   1.4031
B(  2-C , 26-C ) :   1.3872 B(  3-C ,  4-C ) :   1.4454 B(  3-C , 27-H ) :   0.9222
B(  4-C ,  5-C ) :   1.3912 B(  4-C , 28-H ) :   0.9226 B(  5-C ,  6-N ) :   0.8955
B(  5-C , 25-C ) :   1.4034 B(  6-N ,  7-C ) :   0.9792 B(  6-N , 29-H ) :   0.8183
B(  7-C ,  8-O ) :   1.7902 B(  7-C ,  9-N ) :   1.0686 B(  9-N , 10-C ) :   0.9352
B(  9-N , 24-C ) :   0.9302 B( 10-C , 11-C ) :   0.9955 B( 10-C , 30-H ) :   0.9201
B( 10-C , 31-H ) :   0.9236 B( 11-C , 12-C ) :   0.9874 B( 11-C , 32-H ) :   0.9234
B( 11-C , 33-H ) :   0.9234 B( 12-C , 13-C ) :   0.9753 B( 12-C , 22-O ) :   0.8329
B( 12-C , 23-C ) :   0.9612 B( 13-C , 14-C ) :   0.9924 B( 13-C , 34-H ) :   0.9269
B( 13-C , 35-H ) :   0.9298 B( 14-C , 15-C ) :   0.9786 B( 14-C , 36-H ) :   0.9313
B( 14-C , 37-H ) :   0.9220 B( 15-C , 16-C ) :   1.4204 B( 15-C , 21-C ) :   1.3648
B( 16-C , 17-C ) :   1.4374 B( 16-C , 38-H ) :   0.9269 B( 17-C , 18-C ) :   1.4449
B( 17-C , 39-H ) :   0.9283 B( 18-C , 19-C ) :   1.4260 B( 18-C , 40-H ) :   0.9227
B( 19-C , 20-Cl) :   1.0274 B( 19-C , 21-C ) :   1.3233 B( 21-C , 22-O ) :   0.9382
B( 23-C , 24-C ) :   0.9877 B( 23-C , 41-H ) :   0.9212 B( 23-C , 42-H ) :   0.9339
B( 24-C , 43-H ) :   0.9308 B( 24-C , 44-H ) :   0.9169 B( 25-C , 26-C ) :   1.4464
B( 25-C , 45-H ) :   0.9086 B( 26-C , 46-H ) :   0.9221

FINAL SINGLE POINT ENERGY     -1586.402920970977

DIPOLE MOMENT
-------------

Method             : SCF
Type of density    : Electron Density
Multiplicity       :   1
Irrep              :   0
Energy             : -1586.4029209709769930 Eh
Relativity type    :
Basis              : AO
                                X                 Y                 Z
Electronic contribution:      5.297425134      -5.193946497       8.781959228
Nuclear contribution   :     -7.294023110       7.482787730      -7.725391269
                        -----------------------------------------
Total Dipole Moment    :     -1.996597976       2.288841233       1.056567959
                        -----------------------------------------
Magnitude (a.u.)       :      3.215825480
Magnitude (Debye)      :      8.173978774

Rotational constants in cm-1:             0.019459             0.001778             0.001696
Rotational constants in MHz :           583.351812            53.290945            50.856698

                             ****ORCA TERMINATED NORMALLY****
TOTAL RUN TIME: 0 days 0 hours 4 minutes 44 seconds 664 msec
