                         Program Version 6.0.0  -   RELEASE  -
|  1> ! B3LYP 6-31G* SP
|  2>
|  3> * xyz 0 1
|  4> O 7.1923 -1.4097 -1.8315
|  5> C 6.3614 -2.2746 -1.4405
|  6> O 6.5591 -3.6119 -1.7774
|  7> C 5.1885 -1.8738 -0.6320
|  8> C 4.2860 -2.8423 -0.1609
|  9> C 3.1765 -2.4658 0.6022
| 10> C 2.9554 -1.1174 0.9072
| 11> S 1.5481 -0.6257 1.8408
| 12> O 0.8824 -1.8185 2.4691
| 13> O 1.9869 0.3073 2.9355
| 14> N 0.4225 0.1698 0.7857
| 15> C -0.1897 -0.5780 -0.3133
| 16> C -1.7098 -0.6236 -0.1381
| 17> C -2.3710 -1.4336 -1.2567
| 18> C -3.8656 -1.4510 -1.0820
| 19> C -4.6564 -0.4361 -1.6470
| 20> C -6.0416 -0.4356 -1.4589
| 21> C -6.6449 -1.4396 -0.6966
| 22> C -5.8633 -2.4423 -0.1165
| 23> C -4.4776 -2.4462 -0.3021
| 24> C 0.2944 1.5953 0.8380
| 25> N 0.8291 2.3515 -0.1585
| 26> C 0.7381 3.7067 -0.1640
| 27> C 0.0851 4.3768 0.8824
| 28> C -0.0726 5.8755 0.8584
| 29> F 0.9947 6.4695 0.2080
| 30> F -1.2411 6.1984 0.1960
| 31> F -0.1295 6.3801 2.1460
| 32> C -0.5069 3.6113 1.8987
| 33> C -0.3992 2.2184 1.8869
| 34> Cl -1.1835 1.2805 3.1514
| 35> C 3.8461 -0.1474 0.4358
| 36> C 4.9570 -0.5212 -0.3253
| 37> H 7.3542 -3.8955 -2.3364
| 38> H 4.4356 -3.8916 -0.3816
| 39> H 2.4910 -3.2272 0.9501
| 40> H 0.2061 -1.6168 -0.3342
| 41> H 0.0699 -0.0981 -1.2822
| 42> H -1.9474 -1.0861 0.8456
| 43> H -2.1124 0.4133 -0.1467
| 44> H -1.9786 -2.4744 -1.2498
| 45> H -2.1148 -0.9884 -2.2437
| 46> H -4.1999 0.3521 -2.2330
| 47> H -6.6467 0.3436 -1.9036
| 48> H -7.7173 -1.4380 -0.5525
| 49> H -6.3311 -3.2148 0.4801
| 50> H -3.8825 -3.2236 0.1605
| 51> H 1.1731 4.2584 -0.9878
| 52> H -1.0603 4.0933 2.6950
| 53> H 3.6787 0.8990 0.6552
| 54> H 5.6316 0.2482 -0.6754
| 55> *
| 56>
| 57>                          ****END OF INPUT****

CARTESIAN COORDINATES (ANGSTROEM)
---------------------------------
  O      7.192300   -1.409700   -1.831500
  C      6.361400   -2.274600   -1.440500
  O      6.559100   -3.611900   -1.777400
  C      5.188500   -1.873800   -0.632000
  C      4.286000   -2.842300   -0.160900
  C      3.176500   -2.465800    0.602200
  C      2.955400   -1.117400    0.907200
  S      1.548100   -0.625700    1.840800
  O      0.882400   -1.818500    2.469100
  O      1.986900    0.307300    2.935500
  N      0.422500    0.169800    0.785700
  C     -0.189700   -0.578000   -0.313300
  C     -1.709800   -0.623600   -0.138100
  C     -2.371000   -1.433600   -1.256700
  C     -3.865600   -1.451000   -1.082000
  C     -4.656400   -0.436100   -1.647000
  C     -6.041600   -0.435600   -1.458900
  C     -6.644900   -1.439600   -0.696600
  C     -5.863300   -2.442300   -0.116500
  C     -4.477600   -2.446200   -0.302100
  C      0.294400    1.595300    0.838000
  N      0.829100    2.351500   -0.158500
  C      0.738100    3.706700   -0.164000
  C      0.085100    4.376800    0.882400
  C     -0.072600    5.875500    0.858400
  F      0.994700    6.469500    0.208000
  F     -1.241100    6.198400    0.196000
  F     -0.129500    6.380100    2.146000
  C     -0.506900    3.611300    1.898700
  C     -0.399200    2.218400    1.886900
  Cl    -1.183500    1.280500    3.151400
  C      3.846100   -0.147400    0.435800
  C      4.957000   -0.521200   -0.325300
  H      7.354200   -3.895500   -2.336400
  H      4.435600   -3.891600   -0.381600
  H      2.491000   -3.227200    0.950100
  H      0.206100   -1.616800   -0.334200
  H      0.069900   -0.098100   -1.282200
  H     -1.947400   -1.086100    0.845600
  H     -2.112400    0.413300   -0.146700
  H     -1.978600   -2.474400   -1.249800
  H     -2.114800   -0.988400   -2.243700
  H     -4.199900    0.352100   -2.233000
  H     -6.646700    0.343600   -1.903600
  H     -7.717300   -1.438000   -0.552500
  H     -6.331100   -3.214800    0.480100
  H     -3.882500   -3.223600    0.160500
  H      1.173100    4.258400   -0.987800
  H     -1.060300    4.093300    2.695000
  H      3.678700    0.899000    0.655200
  H      5.631600    0.248200   -0.675400

 Total Charge           Charge          ....    0
 Multiplicity           Mult            ....    1
 Number of Electrons    NEL             ....  256
 Basis Dimension        Dim             ....  506

ORBITAL ENERGIES
----------------

  NO   OCC          E(Eh)            E(eV)
   0   2.0000    -101.540488     -2763.0571
   1   2.0000     -89.105386     -2424.6808
   2   2.0000     -24.736199      -673.1062
   3   2.0000     -24.734660      -673.0643
   4   2.0000     -24.732369      -673.0020
   5   2.0000     -19.199249      -522.4381
   6   2.0000     -19.141287      -520.8609
   7   2.0000     -19.132972      -520.6346
   8   2.0000     -19.132832      -520.6308
   9   2.0000     -14.383625      -391.3983
  10   2.0000     -14.366604      -390.9352
  11   2.0000     -10.453871      -284.4643
  12   2.0000     -10.338753      -281.3318
  13   2.0000     -10.297360      -280.2054
  14   2.0000     -10.278571      -279.6941
  15   2.0000     -10.257623      -279.1241
  16   2.0000     -10.246648      -278.8255
  17   2.0000     -10.242214      -278.7048
  18   2.0000     -10.239691      -278.6362
  19   2.0000     -10.235840      -278.5314
  20   2.0000     -10.235743      -278.5287
  21   2.0000     -10.224416      -278.2205
  22   2.0000     -10.223962      -278.2082
  23   2.0000     -10.220992      -278.1273
  24   2.0000     -10.220770      -278.1213
  25   2.0000     -10.189219      -277.2627
  26   2.0000     -10.188314      -277.2381
  27   2.0000     -10.187577      -277.2181
  28   2.0000     -10.180275      -277.0194
  29   2.0000     -10.179885      -277.0088
  30   2.0000     -10.179379      -276.9950
  31   2.0000     -10.178687      -276.9761
  32   2.0000     -10.177946      -276.9560
  33   2.0000      -9.471539      -257.7337
  34   2.0000      -8.141100      -221.5306
  35   2.0000      -7.235049      -196.8757
  36   2.0000      -7.225059      -196.6038
  37   2.0000      -7.224536      -196.5896
  38   2.0000      -6.106321      -166.1614
  39   2.0000      -6.104003      -166.0984
  40   2.0000      -6.103667      -166.0892
  41   2.0000      -1.295602       -35.2551
  42   2.0000      -1.220759       -33.2185
  43   2.0000      -1.219583       -33.1865
  44   2.0000      -1.090883       -29.6844
  45   2.0000      -1.083681       -29.4885
  46   2.0000      -0.998048       -27.1583
  47   2.0000      -0.989257       -26.9191
  48   2.0000      -0.969026       -26.3685
  49   2.0000      -0.932738       -25.3811
  50   2.0000      -0.894720       -24.3466
  51   2.0000      -0.885554       -24.0971
  52   2.0000      -0.852125       -23.1875
  53   2.0000      -0.838867       -22.8267
  54   2.0000      -0.812525       -22.1099
  55   2.0000      -0.801010       -21.7966
  56   2.0000      -0.780356       -21.2346
  57   2.0000      -0.777616       -21.1600
  58   2.0000      -0.749573       -20.3969
  59   2.0000      -0.739847       -20.1323
  60   2.0000      -0.730596       -19.8805
  61   2.0000      -0.708770       -19.2866
  62   2.0000      -0.685772       -18.6608
  63   2.0000      -0.667603       -18.1664
  64   2.0000      -0.654580       -17.8120
  65   2.0000      -0.644306       -17.5325
  66   2.0000      -0.630711       -17.1625
  67   2.0000      -0.612347       -16.6628
  68   2.0000      -0.603144       -16.4124
  69   2.0000      -0.601923       -16.3791
  70   2.0000      -0.586366       -15.9558
  71   2.0000      -0.586245       -15.9525
  72   2.0000      -0.574916       -15.6443
  73   2.0000      -0.573121       -15.5954
  74   2.0000      -0.569383       -15.4937
  75   2.0000      -0.547207       -14.8903
  76   2.0000      -0.527975       -14.3669
  77   2.0000      -0.523603       -14.2480
  78   2.0000      -0.503779       -13.7085
  79   2.0000      -0.494821       -13.4648
  80   2.0000      -0.490210       -13.3393
  81   2.0000      -0.482985       -13.1427
  82   2.0000      -0.475837       -12.9482
  83   2.0000      -0.473257       -12.8780
  84   2.0000      -0.464404       -12.6371
  85   2.0000      -0.463728       -12.6187
  86   2.0000      -0.462387       -12.5822
  87   2.0000      -0.460728       -12.5370
  88   2.0000      -0.456170       -12.4130
  89   2.0000      -0.452050       -12.3009
  90   2.0000      -0.445830       -12.1317
  91   2.0000      -0.443451       -12.0669
  92   2.0000      -0.440088       -11.9754
  93   2.0000      -0.435909       -11.8617
  94   2.0000      -0.430788       -11.7223
  95   2.0000      -0.429264       -11.6809
  96   2.0000      -0.425992       -11.5918
  97   2.0000      -0.423184       -11.5154
  98   2.0000      -0.418776       -11.3955
  99   2.0000      -0.417550       -11.3621
 100   2.0000      -0.412861       -11.2345
 101   2.0000      -0.398374       -10.8403
 102   2.0000      -0.396236       -10.7821
 103   2.0000      -0.394978       -10.7479
 104   2.0000      -0.389967       -10.6116
 105   2.0000      -0.388904       -10.5826
 106   2.0000      -0.373425       -10.1614
 107   2.0000      -0.371513       -10.1094
 108   2.0000      -0.361375        -9.8335
 109   2.0000      -0.349794        -9.5184
 110   2.0000      -0.349374        -9.5070
 111   2.0000      -0.339416        -9.2360
 112   2.0000      -0.334428        -9.1003
 113   2.0000      -0.331121        -9.0103
 114   2.0000      -0.328998        -8.9525
 115   2.0000      -0.324374        -8.8267
 116   2.0000      -0.316421        -8.6102
 117   2.0000      -0.309631        -8.4255
 118   2.0000      -0.300902        -8.1880
 119   2.0000      -0.288634        -7.8541
 120   2.0000      -0.286500        -7.7961
 121   2.0000      -0.283912        -7.7256
 122   2.0000      -0.282639        -7.6910
 123   2.0000      -0.277564        -7.5529
 124   2.0000      -0.271017        -7.3748
 125   2.0000      -0.260361        -7.0848
 126   2.0000      -0.245864        -6.6903
 127   2.0000      -0.235884        -6.4187
 128   0.0000      -0.089597        -2.4380
 129   0.0000      -0.067219        -1.8291
 130   0.0000      -0.053061        -1.4439
 131   0.0000      -0.034310        -0.9336
 132   0.0000       0.001448         0.0394

MULLIKEN ATOMIC CHARGES
-----------------------
   0 O :   -0.442967
   1 C :    0.529115
   2 O :   -0.623697
   3 C :    0.084243
   4 C :   -0.145988
   5 C :   -0.150140
   6 C :   -0.123485
   7 S :    1.220018
   8 O :   -0.538580
   9 O :   -0.546563
  10 N :   -0.608048
  11 C :   -0.141935
  12 C :   -0.247584
  13 C :   -0.356656
  14 C :    0.167479
  15 C :   -0.173217
  16 C :   -0.126786
  17 C :   -0.126583
  18 C :   -0.126617
  19 C :   -0.172262
  20 C :    0.389891
  21 N :   -0.385674
  22 C :   -0.011726
  23 C :   -0.024824
  24 C :    0.904217
  25 F :   -0.300591
  26 F :   -0.290816
  27 F :   -0.299396
  28 C :   -0.132770
  29 C :   -0.068169
  30 Cl:    0.055616
  31 C :   -0.136872
  32 C :   -0.140544
  33 H :    0.435176
  34 H :    0.174297
  35 H :    0.186547
  36 H :    0.163340
  37 H :    0.168578
  38 H :    0.174885
  39 H :    0.144173
  40 H :    0.141435
  41 H :    0.138789
  42 H :    0.119468
  43 H :    0.126854
  44 H :    0.126241
  45 H :    0.128590
  46 H :    0.125678
  47 H :    0.180761
  48 H :    0.191493
  49 H :    0.183429
  50 H :    0.182183
Sum of atomic charges:   -0.0000000

LOEWDIN ATOMIC CHARGES
----------------------
   0 O :   -0.259288
   1 C :    0.180786
   2 O :   -0.334586
   3 C :   -0.037572
   4 C :   -0.098905
   5 C :   -0.107048
   6 C :   -0.175781
   7 S :    1.266459
   8 O :   -0.567256
   9 O :   -0.565550
  10 N :   -0.280633
  11 C :   -0.154260
  12 C :   -0.229026
  13 C :   -0.222109
  14 C :   -0.014946
  15 C :   -0.137880
  16 C :   -0.127224
  17 C :   -0.134556
  18 C :   -0.125952
  19 C :   -0.135566
  20 C :    0.055415
  21 N :   -0.121677
  22 C :   -0.054203
  23 C :   -0.074847
  24 C :    0.312288
  25 F :   -0.108085
  26 F :   -0.108159
  27 F :   -0.108350
  28 C :   -0.087693
  29 C :   -0.080719
  30 Cl:    0.084021
  31 C :   -0.097226
  32 C :   -0.084544
  33 H :    0.350422
  34 H :    0.155440
  35 H :    0.160715
  36 H :    0.137474
  37 H :    0.130898
  38 H :    0.140106
  39 H :    0.124924
  40 H :    0.124812
  41 H :    0.123304
  42 H :    0.127517
  43 H :    0.130630
  44 H :    0.130576
  45 H :    0.131466
  46 H :    0.130383
  47 H :    0.150808
  48 H :    0.164463
  49 H :    0.159355
  50 H :    0.161377

  Mayer bond orders larger than 0.100000
B(  0-O ,  1-C ) :   1.8630 B(  1-C ,  2-O ) :   1.0256 B(  1-C ,  3-C ) :   1.0070
B(  2-O , 33-H ) :   0.7412 B(  3-C ,  4-C ) :   1.3892 B(  3-C , 32-C ) :   1.3978
B(  4-C ,  5-C ) :   1.4088 B(  4-C , 34-H ) :   0.9145 B(  5-C ,  6-C ) :   1.4003
B(  5-C , 35-H ) :   0.9085 B(  6-C ,  7-S ) :   0.8118 B(  6-C , 31-C ) :   1.3760
B(  7-S ,  8-O ) :   1.6453 B(  7-S ,  9-O ) :   1.6315 B(  7-S , 10-N ) :   0.7975
B( 10-N , 11-C ) :   0.9014 B( 10-N , 20-C ) :   0.9463 B( 11-C , 12-C ) :   0.9829
B( 11-C , 36-H ) :   0.9211 B( 11-C , 37-H ) :   0.9229 B( 12-C , 13-C ) :   0.9859
B( 12-C , 38-H ) :   0.9286 B( 12-C , 39-H ) :   0.9347 B( 13-C , 14-C ) :   0.9821
B( 13-C , 40-H ) :   0.9326 B( 13-C , 41-H ) :   0.9328 B( 14-C , 15-C ) :   1.4321
B( 14-C , 19-C ) :   1.4339 B( 15-C , 16-C ) :   1.4416 B( 15-C , 42-H ) :   0.9265
B( 16-C , 17-C ) :   1.4540 B( 16-C , 43-H ) :   0.9298 B( 17-C , 18-C ) :   1.4543
B( 17-C , 44-H ) :   0.9306 B( 18-C , 19-C ) :   1.4408 B( 18-C , 45-H ) :   0.9295
B( 19-C , 46-H ) :   0.9256 B( 20-C , 21-N ) :   1.3836 B( 20-C , 29-C ) :   1.3366
B( 21-N , 22-C ) :   1.4099 B( 22-C , 23-C ) :   1.3630 B( 22-C , 47-H ) :   0.9182
B( 23-C , 24-C ) :   0.9723 B( 23-C , 28-C ) :   1.4082 B( 24-C , 25-F ) :   0.9503
B( 24-C , 26-F ) :   0.9905 B( 24-C , 27-F ) :   0.9533 B( 28-C , 29-C ) :   1.3891
B( 28-C , 48-H ) :   0.9075 B( 29-C , 30-Cl) :   1.0812 B( 31-C , 32-C ) :   1.4326
B( 31-C , 49-H ) :   0.9094 B( 32-C , 50-H ) :   0.9091

FINAL SINGLE POINT ENERGY     -2416.406440217142

DIPOLE MOMENT
-------------

Method             : SCF
Type of density    : Electron Density
Multiplicity       :   1
Irrep              :   0
Energy             : -2416.4064402171416077 Eh
Relativity type    :
Basis              : AO
                                X                 Y                 Z
Electronic contribution:     15.303237069      39.902865348      18.826270817
Nuclear contribution   :    -15.446068434     -40.513081220     -20.557471858
                        -----------------------------------------
Total Dipole Moment    :     -0.142831365      -0.610215872      -1.731201040
                        -----------------------------------------
Magnitude (a.u.)       :      1.841146722
Magnitude (Debye)      :      4.679823055

Rotational constants in cm-1:             0.003369             0.002345             0.001629
Rotational constants in MHz :           100.989889            70.315439            48.826135

                             ****ORCA TERMINATED NORMALLY****
TOTAL RUN TIME: 0 days 0 hours 5 minutes 50 seconds 976 msec
