                         Program Version 6.0.0  -   RELEASE  -
|  1> ! B3LYP 6-31G* SP
|  2>
|  3> * xyz 0 1
|  4> O 2.8983 4.7855 -1.4484
|  5> C 2.5150 3.6805 -1.9194
|  6> O 2.2385 3.5787 -3.2804
|  7> C 2.3519 2.5056 -1.0362
|  8> C 2.6089 2.6030 0.3433
|  9> C 2.4115 1.5009 1.1803
| 10> C 1.9526 0.2865 0.6528
| 11> S 1.5887 -1.0735 1.7137
| 12> O 1.9914 -0.7589 3.1275
| 13> O 2.3708 -2.2732 1.2563
| 14> N -0.1149 -1.4258 1.6756
| 15> C -1.0746 -0.4934 2.2787
| 16> C -1.0981 0.8085 1.5247
| 17> C -0.7115 2.0155 2.1646
| 18> C -0.6660 3.2239 1.4463
| 19> C -1.0107 3.1904 0.0988
| 20> C -1.0268 4.1827 -0.8525
| 21> C -1.4352 3.5421 -2.0177
| 22> O -1.6504 2.2590 -1.7878
| 23> C -1.3975 2.0357 -0.5218
| 24> C -1.4683 0.8248 0.1608
| 25> C -0.5744 -2.5871 0.9707
| 26> N -0.3105 -2.7078 -0.3579
| 27> C -0.7199 -3.7806 -1.0837
| 28> C -1.4505 -4.8111 -0.4724
| 29> C -1.8654 -6.0324 -1.2518
| 30> F -2.0565 -5.7213 -2.5870
| 31> F -3.0497 -6.5468 -0.7525
| 32> F -0.8778 -6.9941 -1.1507
| 33> C -1.6956 -4.7275 0.9066
| 34> C -1.2654 -3.6154 1.6351
| 35> Cl -1.5406 -3.5712 3.3713
| 36> C 1.7237 0.1761 -0.7237
| 37> C 1.9180 1.2770 -1.5627
| 38> H 2.3353 4.3798 -3.8923
| 39> H 2.9432 3.5360 0.7795
| 40> H 2.5892 1.6078 2.2425
| 41> H -2.0998 -0.9213 2.2623
| 42> H -0.8055 -0.3346 3.3448
| 43> H -0.4232 2.0140 3.2080
| 44> H -0.3535 4.1440 1.9223
| 45> H -0.7696 5.2262 -0.7271
| 46> H -1.5602 4.0145 -2.9828
| 47> H -1.7650 -0.0795 -0.3545
| 48> H -0.4708 -3.8279 -2.1352
| 49> H -2.2105 -5.5306 1.4194
| 50> H 1.3712 -0.7546 -1.1460
| 51> H 1.7102 1.1698 -2.6195
| 52> *
| 53>
| 54>                          ****END OF INPUT****

CARTESIAN COORDINATES (ANGSTROEM)
---------------------------------
  O      2.898300    4.785500   -1.448400
  C      2.515000    3.680500   -1.919400
  O      2.238500    3.578700   -3.280400
  C      2.351900    2.505600   -1.036200
  C      2.608900    2.603000    0.343300
  C      2.411500    1.500900    1.180300
  C      1.952600    0.286500    0.652800
  S      1.588700   -1.073500    1.713700
  O      1.991400   -0.758900    3.127500
  O      2.370800   -2.273200    1.256300
  N     -0.114900   -1.425800    1.675600
  C     -1.074600   -0.493400    2.278700
  C     -1.098100    0.808500    1.524700
  C     -0.711500    2.015500    2.164600
  C     -0.666000    3.223900    1.446300
  C     -1.010700    3.190400    0.098800
  C     -1.026800    4.182700   -0.852500
  C     -1.435200    3.542100   -2.017700
  O     -1.650400    2.259000   -1.787800
  C     -1.397500    2.035700   -0.521800
  C     -1.468300    0.824800    0.160800
  C     -0.574400   -2.587100    0.970700
  N     -0.310500   -2.707800   -0.357900
  C     -0.719900   -3.780600   -1.083700
  C     -1.450500   -4.811100   -0.472400
  C     -1.865400   -6.032400   -1.251800
  F     -2.056500   -5.721300   -2.587000
  F     -3.049700   -6.546800   -0.752500
  F     -0.877800   -6.994100   -1.150700
  C     -1.695600   -4.727500    0.906600
  C     -1.265400   -3.615400    1.635100
  Cl    -1.540600   -3.571200    3.371300
  C      1.723700    0.176100   -0.723700
  C      1.918000    1.277000   -1.562700
  H      2.335300    4.379800   -3.892300
  H      2.943200    3.536000    0.779500
  H      2.589200    1.607800    2.242500
  H     -2.099800   -0.921300    2.262300
  H     -0.805500   -0.334600    3.344800
  H     -0.423200    2.014000    3.208000
  H     -0.353500    4.144000    1.922300
  H     -0.769600    5.226200   -0.727100
  H     -1.560200    4.014500   -2.982800
  H     -1.765000   -0.079500   -0.354500
  H     -0.470800   -3.827900   -2.135200
  H     -2.210500   -5.530600    1.419400
  H      1.371200   -0.754600   -1.146000
  H      1.710200    1.169800   -2.619500

 Total Charge           Charge          ....    0
 Multiplicity           Mult            ....    1
 Number of Electrons    NEL             ....  260
 Basis Dimension        Dim             ....  512

ORBITAL ENERGIES
----------------

  NO   OCC          E(Eh)            E(eV)
   0   2.0000    -101.551963     -2763.3694
   1   2.0000     -89.103553     -2424.6309
   2   2.0000     -24.736318      -673.1094
   3   2.0000     -24.735133      -673.0772
   4   2.0000     -24.730499      -672.9511
   5   2.0000     -19.227979      -523.2199
   6   2.0000     -19.195470      -522.3353
   7   2.0000     -19.136016      -520.7175
   8   2.0000     -19.131829      -520.6035
   9   2.0000     -19.128440      -520.5113
  10   2.0000     -14.387708      -391.5094
  11   2.0000     -14.366918      -390.9437
  12   2.0000     -10.453540      -284.4553
  13   2.0000     -10.333361      -281.1851
  14   2.0000     -10.302368      -280.3417
  15   2.0000     -10.281691      -279.7790
  16   2.0000     -10.258475      -279.1473
  17   2.0000     -10.249403      -278.9004
  18   2.0000     -10.242416      -278.7103
  19   2.0000     -10.242095      -278.7016
  20   2.0000     -10.241928      -278.6970
  21   2.0000     -10.240885      -278.6686
  22   2.0000     -10.238589      -278.6062
  23   2.0000     -10.226834      -278.2863
  24   2.0000     -10.215404      -277.9753
  25   2.0000     -10.212899      -277.9071
  26   2.0000     -10.212030      -277.8835
  27   2.0000     -10.211239      -277.8619
  28   2.0000     -10.202813      -277.6326
  29   2.0000     -10.196710      -277.4666
  30   2.0000     -10.190774      -277.3051
  31   2.0000     -10.190357      -277.2937
  32   2.0000     -10.183737      -277.1136
  33   2.0000     -10.183209      -277.0992
  34   2.0000      -9.483188      -258.0507
  35   2.0000      -8.139088      -221.4758
  36   2.0000      -7.246540      -197.1884
  37   2.0000      -7.236772      -196.9226
  38   2.0000      -7.236275      -196.9091
  39   2.0000      -6.104541      -166.1130
  40   2.0000      -6.101948      -166.0425
  41   2.0000      -6.101508      -166.0305
  42   2.0000      -1.294986       -35.2384
  43   2.0000      -1.220910       -33.2226
  44   2.0000      -1.218342       -33.1528
  45   2.0000      -1.158477       -31.5238
  46   2.0000      -1.088265       -29.6132
  47   2.0000      -1.079716       -29.3806
  48   2.0000      -0.993622       -27.0378
  49   2.0000      -0.990611       -26.9559
  50   2.0000      -0.965824       -26.2814
  51   2.0000      -0.935221       -25.4487
  52   2.0000      -0.893659       -24.3177
  53   2.0000      -0.885440       -24.0941
  54   2.0000      -0.868756       -23.6401
  55   2.0000      -0.840264       -22.8648
  56   2.0000      -0.816489       -22.2178
  57   2.0000      -0.804048       -21.8793
  58   2.0000      -0.785604       -21.3774
  59   2.0000      -0.773206       -21.0400
  60   2.0000      -0.769615       -20.9423
  61   2.0000      -0.749010       -20.3816
  62   2.0000      -0.728120       -19.8131
  63   2.0000      -0.715198       -19.4615
  64   2.0000      -0.690657       -18.7937
  65   2.0000      -0.672373       -18.2962
  66   2.0000      -0.653114       -17.7721
  67   2.0000      -0.646740       -17.5987
  68   2.0000      -0.635870       -17.3029
  69   2.0000      -0.623723       -16.9724
  70   2.0000      -0.612123       -16.6567
  71   2.0000      -0.601504       -16.3678
  72   2.0000      -0.588150       -16.0044
  73   2.0000      -0.585876       -15.9425
  74   2.0000      -0.585214       -15.9245
  75   2.0000      -0.574349       -15.6288
  76   2.0000      -0.564838       -15.3700
  77   2.0000      -0.541187       -14.7265
  78   2.0000      -0.537124       -14.6159
  79   2.0000      -0.533531       -14.5181
  80   2.0000      -0.521084       -14.1794
  81   2.0000      -0.512937       -13.9577
  82   2.0000      -0.491411       -13.3720
  83   2.0000      -0.488220       -13.2851
  84   2.0000      -0.483944       -13.1688
  85   2.0000      -0.480458       -13.0739
  86   2.0000      -0.472722       -12.8634
  87   2.0000      -0.467967       -12.7340
  88   2.0000      -0.467211       -12.7135
  89   2.0000      -0.462095       -12.5742
  90   2.0000      -0.461652       -12.5622
  91   2.0000      -0.458361       -12.4726
  92   2.0000      -0.451031       -12.2732
  93   2.0000      -0.445340       -12.1183
  94   2.0000      -0.443400       -12.0655
  95   2.0000      -0.441601       -12.0166
  96   2.0000      -0.439487       -11.9590
  97   2.0000      -0.436259       -11.8712
  98   2.0000      -0.430234       -11.7073
  99   2.0000      -0.428258       -11.6535
 100   2.0000      -0.426569       -11.6075
 101   2.0000      -0.421614       -11.4727
 102   2.0000      -0.413595       -11.2545
 103   2.0000      -0.412466       -11.2238
 104   2.0000      -0.403534       -10.9807
 105   2.0000      -0.398012       -10.8305
 106   2.0000      -0.394466       -10.7340
 107   2.0000      -0.392739       -10.6870
 108   2.0000      -0.382198       -10.4001
 109   2.0000      -0.372506       -10.1364
 110   2.0000      -0.368311       -10.0223
 111   2.0000      -0.364779        -9.9261
 112   2.0000      -0.354065        -9.6346
 113   2.0000      -0.349340        -9.5060
 114   2.0000      -0.336735        -9.1630
 115   2.0000      -0.332822        -9.0566
 116   2.0000      -0.324941        -8.8421
 117   2.0000      -0.317992        -8.6530
 118   2.0000      -0.308537        -8.3957
 119   2.0000      -0.305699        -8.3185
 120   2.0000      -0.295926        -8.0526
 121   2.0000      -0.291754        -7.9390
 122   2.0000      -0.289358        -7.8738
 123   2.0000      -0.281450        -7.6587
 124   2.0000      -0.275482        -7.4962
 125   2.0000      -0.272847        -7.4245
 126   2.0000      -0.270242        -7.3537
 127   2.0000      -0.256299        -6.9742
 128   2.0000      -0.243332        -6.6214
 129   2.0000      -0.218854        -5.9553
 130   0.0000      -0.081931        -2.2294
 131   0.0000      -0.066268        -1.8033
 132   0.0000      -0.055221        -1.5026
 133   0.0000      -0.036087        -0.9820
 134   0.0000      -0.023780        -0.6471

MULLIKEN ATOMIC CHARGES
-----------------------
   0 O :   -0.451449
   1 C :    0.530521
   2 O :   -0.625889
   3 C :    0.086484
   4 C :   -0.136555
   5 C :   -0.136323
   6 C :   -0.125521
   7 S :    1.211830
   8 O :   -0.532379
   9 O :   -0.530982
  10 N :   -0.605124
  11 C :   -0.249824
  12 C :    0.126266
  13 C :   -0.195474
  14 C :   -0.187493
  15 C :    0.149089
  16 C :   -0.233706
  17 C :    0.050726
  18 O :   -0.392964
  19 C :    0.298964
  20 C :   -0.234989
  21 C :    0.434894
  22 N :   -0.388200
  23 C :    0.002292
  24 C :   -0.033619
  25 C :    0.903746
  26 F :   -0.301754
  27 F :   -0.301639
  28 F :   -0.288637
  29 C :   -0.126366
  30 C :   -0.101418
  31 Cl:    0.039858
  32 C :   -0.138034
  33 C :   -0.150248
  34 H :    0.430723
  35 H :    0.174755
  36 H :    0.185273
  37 H :    0.185791
  38 H :    0.192842
  39 H :    0.137690
  40 H :    0.136201
  41 H :    0.151516
  42 H :    0.162794
  43 H :    0.143276
  44 H :    0.182313
  45 H :    0.190351
  46 H :    0.191775
  47 H :    0.168614
Sum of atomic charges:    0.0000000

LOEWDIN ATOMIC CHARGES
----------------------
   0 O :   -0.265743
   1 C :    0.180347
   2 O :   -0.336080
   3 C :   -0.038499
   4 C :   -0.086161
   5 C :   -0.095413
   6 C :   -0.170517
   7 S :    1.275088
   8 O :   -0.565543
   9 O :   -0.560826
  10 N :   -0.276181
  11 C :   -0.147181
  12 C :   -0.050561
  13 C :   -0.141241
  14 C :   -0.123845
  15 C :   -0.046465
  16 C :   -0.179736
  17 C :   -0.048107
  18 O :   -0.013699
  19 C :    0.045793
  20 C :   -0.140969
  21 C :    0.066861
  22 N :   -0.120471
  23 C :   -0.046862
  24 C :   -0.081123
  25 C :    0.312575
  26 F :   -0.109010
  27 F :   -0.110459
  28 F :   -0.106892
  29 C :   -0.086637
  30 C :   -0.098029
  31 Cl:    0.070922
  32 C :   -0.098662
  33 C :   -0.103163
  34 H :    0.347363
  35 H :    0.157777
  36 H :    0.160850
  37 H :    0.150695
  38 H :    0.146345
  39 H :    0.135435
  40 H :    0.136612
  41 H :    0.145654
  42 H :    0.143970
  43 H :    0.142198
  44 H :    0.152058
  45 H :    0.163824
  46 H :    0.160853
  47 H :    0.152856

  Mayer bond orders larger than 0.100000
B(  0-O ,  1-C ) :   1.8574 B(  1-C ,  2-O ) :   1.0188 B(  1-C ,  3-C ) :   1.0100
B(  2-O , 34-H ) :   0.7439 B(  3-C ,  4-C ) :   1.4038 B(  3-C , 33-C ) :   1.3766
B(  4-C ,  5-C ) :   1.4127 B(  4-C , 35-H ) :   0.9109 B(  5-C ,  6-C ) :   1.3907
B(  5-C , 36-H ) :   0.9087 B(  6-C ,  7-S ) :   0.8150 B(  6-C , 32-C ) :   1.3914
B(  7-S ,  8-O ) :   1.6458 B(  7-S ,  9-O ) :   1.6623 B(  7-S , 10-N ) :   0.7713
B( 10-N , 11-C ) :   0.9015 B( 10-N , 21-C ) :   0.9450 B( 11-C , 12-C ) :   0.9534
B( 11-C , 37-H ) :   0.9177 B( 11-C , 38-H ) :   0.9188 B( 12-C , 13-C ) :   1.3797
B( 12-C , 20-C ) :   1.4224 B( 13-C , 14-C ) :   1.4520 B( 13-C , 39-H ) :   0.9222
B( 14-C , 15-C ) :   1.3492 B( 14-C , 20-C ) :   0.1036 B( 14-C , 40-H ) :   0.9246
B( 15-C , 16-C ) :   1.2633 B( 15-C , 19-C ) :   1.3119 B( 16-C , 17-C ) :   1.5877
B( 16-C , 41-H ) :   0.9246 B( 17-C , 18-O ) :   1.0646 B( 17-C , 42-H ) :   0.9316
B( 18-O , 19-C ) :   0.9991 B( 19-C , 20-C ) :   1.3802 B( 20-C , 43-H ) :   0.9075
B( 21-C , 22-N ) :   1.3638 B( 21-C , 30-C ) :   1.3317 B( 22-N , 23-C ) :   1.4055
B( 23-C , 24-C ) :   1.3642 B( 23-C , 44-H ) :   0.9170 B( 24-C , 25-C ) :   0.9747
B( 24-C , 29-C ) :   1.4030 B( 25-C , 26-F ) :   0.9483 B( 25-C , 27-F ) :   0.9508
B( 25-C , 28-F ) :   0.9937 B( 29-C , 30-C ) :   1.3998 B( 29-C , 45-H ) :   0.9074
B( 30-C , 31-Cl) :   1.0556 B( 32-C , 33-C ) :   1.4243 B( 32-C , 46-H ) :   0.8937
B( 33-C , 47-H ) :   0.9160

FINAL SINGLE POINT ENERGY     -2489.165033361423

DIPOLE MOMENT
-------------

Method             : SCF
Type of density    : Electron Density
Multiplicity       :   1
Irrep              :   0
Energy             : -2489.1650333614234114 Eh
Relativity type    :
Basis              : AO
                                X                 Y                 Z
Electronic contribution:    -10.208229590     -41.948426565      -0.429062175
Nuclear contribution   :      8.513782792      43.225705020      -0.936649048
                        -----------------------------------------
Total Dipole Moment    :     -1.694446797       1.277278454      -1.365711224
                        -----------------------------------------
Magnitude (a.u.)       :      2.523441568
Magnitude (Debye)      :      6.414078730

Rotational constants in cm-1:             0.006323             0.002192             0.002045
Rotational constants in MHz :           189.553451            65.720790            61.312497

                             ****ORCA TERMINATED NORMALLY****
TOTAL RUN TIME: 0 days 0 hours 6 minutes 46 seconds 511 msec
