                         Program Version 6.0.0  -   RELEASE  -
|  1> ! B3LYP 6-31G* SP
|  2>
|  3> * xyz 0 1
|  4> O 6.7943 -0.0792 -1.3975
|  5> C 6.1452 -1.0219 -0.8690
|  6> O 6.8263 -1.9933 -0.1394
|  7> C 4.6757 -1.0984 -1.0224
|  8> C 3.9533 -2.1468 -0.4260
|  9> C 2.5645 -2.2202 -0.5673
| 10> C 1.8792 -1.2531 -1.3116
| 11> S 0.1275 -1.3252 -1.4456
| 12> O -0.3267 -0.5994 -2.6815
| 13> O -0.3174 -2.7571 -1.5544
| 14> N -0.5745 -0.5845 -0.0427
| 15> C -0.9450 -1.3872 1.1240
| 16> C -2.4419 -1.4413 1.2573
| 17> C -3.1204 -0.4723 2.0151
| 18> C -4.5161 -0.4923 2.0959
| 19> C -5.2431 -1.4731 1.4156
| 20> C -4.5756 -2.4324 0.6488
| 21> C -3.1799 -2.4149 0.5644
| 22> C -0.7592 0.8343 -0.0300
| 23> N -1.8295 1.3715 -0.6738
| 24> C -2.0660 2.7094 -0.6875
| 25> C -1.2008 3.5884 -0.0175
| 26> C -1.4295 5.0773 -0.0710
| 27> F -0.8770 5.6993 1.0354
| 28> F -2.7844 5.3591 -0.0947
| 29> F -0.8431 5.5871 -1.2146
| 30> C -0.0703 3.0551 0.6213
| 31> C 0.1520 1.6758 0.6270
| 32> Cl 1.5802 1.0357 1.4283
| 33> C 2.5908 -0.2017 -1.9025
| 34> C 3.9794 -0.1247 -1.7618
| 35> H 7.8322 -1.9500 -0.0273
| 36> H 4.4591 -2.9079 0.1549
| 37> H 2.0233 -3.0277 -0.0900
| 38> H -0.5388 -2.4174 1.0313
| 39> H -0.4908 -0.9534 2.0406
| 40> H -2.5695 0.3013 2.5359
| 41> H -5.0345 0.2560 2.6816
| 42> H -6.3236 -1.4864 1.4778
| 43> H -5.1401 -3.1870 0.1163
| 44> H -2.6760 -3.1580 -0.0408
| 45> H -2.9284 3.0851 -1.2229
| 46> H 0.6412 3.7079 1.1116
| 47> H 2.0716 0.5649 -2.4634
| 48> H 4.5063 0.6983 -2.2281
| 49> *
| 50>
| 51>                          ****END OF INPUT****

CARTESIAN COORDINATES (ANGSTROEM)
---------------------------------
  O      6.794300   -0.079200   -1.397500
  C      6.145200   -1.021900   -0.869000
  O      6.826300   -1.993300   -0.139400
  C      4.675700   -1.098400   -1.022400
  C      3.953300   -2.146800   -0.426000
  C      2.564500   -2.220200   -0.567300
  C      1.879200   -1.253100   -1.311600
  S      0.127500   -1.325200   -1.445600
  O     -0.326700   -0.599400   -2.681500
  O     -0.317400   -2.757100   -1.554400
  N     -0.574500   -0.584500   -0.042700
  C     -0.945000   -1.387200    1.124000
  C     -2.441900   -1.441300    1.257300
  C     -3.120400   -0.472300    2.015100
  C     -4.516100   -0.492300    2.095900
  C     -5.243100   -1.473100    1.415600
  C     -4.575600   -2.432400    0.648800
  C     -3.179900   -2.414900    0.564400
  C     -0.759200    0.834300   -0.030000
  N     -1.829500    1.371500   -0.673800
  C     -2.066000    2.709400   -0.687500
  C     -1.200800    3.588400   -0.017500
  C     -1.429500    5.077300   -0.071000
  F     -0.877000    5.699300    1.035400
  F     -2.784400    5.359100   -0.094700
  F     -0.843100    5.587100   -1.214600
  C     -0.070300    3.055100    0.621300
  C      0.152000    1.675800    0.627000
  Cl     1.580200    1.035700    1.428300
  C      2.590800   -0.201700   -1.902500
  C      3.979400   -0.124700   -1.761800
  H      7.832200   -1.950000   -0.027300
  H      4.459100   -2.907900    0.154900
  H      2.023300   -3.027700   -0.090000
  H     -0.538800   -2.417400    1.031300
  H     -0.490800   -0.953400    2.040600
  H     -2.569500    0.301300    2.535900
  H     -5.034500    0.256000    2.681600
  H     -6.323600   -1.486400    1.477800
  H     -5.140100   -3.187000    0.116300
  H     -2.676000   -3.158000   -0.040800
  H     -2.928400    3.085100   -1.222900
  H      0.641200    3.707900    1.111600
  H      2.071600    0.564900   -2.463400
  H      4.506300    0.698300   -2.228100

 Total Charge           Charge          ....    0
 Multiplicity           Mult            ....    1
 Number of Electrons    NEL             ....  240
 Basis Dimension        Dim             ....  470

ORBITAL ENERGIES
----------------

  NO   OCC          E(Eh)            E(eV)
   0   2.0000    -101.559083     -2763.5631
   1   2.0000     -89.105644     -2424.6878
   2   2.0000     -24.738105      -673.1581
   3   2.0000     -24.737361      -673.1378
   4   2.0000     -24.733411      -673.0303
   5   2.0000     -19.199183      -522.4363
   6   2.0000     -19.140867      -520.8495
   7   2.0000     -19.136485      -520.7302
   8   2.0000     -19.131001      -520.5810
   9   2.0000     -14.383246      -391.3880
  10   2.0000     -14.364070      -390.8662
  11   2.0000     -10.455983      -284.5218
  12   2.0000     -10.338328      -281.3202
  13   2.0000     -10.299197      -280.2554
  14   2.0000     -10.285810      -279.8911
  15   2.0000     -10.257323      -279.1159
  16   2.0000     -10.246217      -278.8137
  17   2.0000     -10.245502      -278.7943
  18   2.0000     -10.244856      -278.7767
  19   2.0000     -10.237898      -278.5874
  20   2.0000     -10.235386      -278.5190
  21   2.0000     -10.224610      -278.2258
  22   2.0000     -10.223345      -278.1914
  23   2.0000     -10.221319      -278.1362
  24   2.0000     -10.220668      -278.1185
  25   2.0000     -10.190635      -277.3013
  26   2.0000     -10.184042      -277.1219
  27   2.0000     -10.181816      -277.0613
  28   2.0000     -10.180635      -277.0292
  29   2.0000     -10.179555      -276.9998
  30   2.0000     -10.178309      -276.9659
  31   2.0000      -9.490332      -258.2451
  32   2.0000      -8.141277      -221.5354
  33   2.0000      -7.253604      -197.3806
  34   2.0000      -7.243935      -197.1175
  35   2.0000      -7.243484      -197.1052
  36   2.0000      -6.106450      -166.1650
  37   2.0000      -6.104292      -166.1062
  38   2.0000      -6.103822      -166.0934
  39   2.0000      -1.297184       -35.2982
  40   2.0000      -1.222826       -33.2748
  41   2.0000      -1.220841       -33.2208
  42   2.0000      -1.091370       -29.6977
  43   2.0000      -1.083711       -29.4893
  44   2.0000      -0.997984       -27.1565
  45   2.0000      -0.990068       -26.9411
  46   2.0000      -0.969265       -26.3750
  47   2.0000      -0.934027       -25.4162
  48   2.0000      -0.898871       -24.4595
  49   2.0000      -0.894038       -24.3280
  50   2.0000      -0.850958       -23.1557
  51   2.0000      -0.840879       -22.8815
  52   2.0000      -0.811766       -22.0893
  53   2.0000      -0.787891       -21.4396
  54   2.0000      -0.780262       -21.2320
  55   2.0000      -0.768724       -20.9180
  56   2.0000      -0.740905       -20.1610
  57   2.0000      -0.730606       -19.8808
  58   2.0000      -0.715263       -19.4633
  59   2.0000      -0.686326       -18.6759
  60   2.0000      -0.673163       -18.3177
  61   2.0000      -0.656696       -17.8696
  62   2.0000      -0.643215       -17.5028
  63   2.0000      -0.629213       -17.1218
  64   2.0000      -0.607816       -16.5395
  65   2.0000      -0.602457       -16.3937
  66   2.0000      -0.589766       -16.0483
  67   2.0000      -0.587752       -15.9935
  68   2.0000      -0.586706       -15.9651
  69   2.0000      -0.576447       -15.6859
  70   2.0000      -0.568714       -15.4755
  71   2.0000      -0.546285       -14.8652
  72   2.0000      -0.534023       -14.5315
  73   2.0000      -0.523614       -14.2483
  74   2.0000      -0.506732       -13.7889
  75   2.0000      -0.496440       -13.5088
  76   2.0000      -0.488696       -13.2981
  77   2.0000      -0.481924       -13.1138
  78   2.0000      -0.475950       -12.9512
  79   2.0000      -0.471781       -12.8378
  80   2.0000      -0.465923       -12.6784
  81   2.0000      -0.464907       -12.6508
  82   2.0000      -0.463454       -12.6112
  83   2.0000      -0.462359       -12.5814
  84   2.0000      -0.452299       -12.3077
  85   2.0000      -0.452285       -12.3073
  86   2.0000      -0.445146       -12.1130
  87   2.0000      -0.443374       -12.0648
  88   2.0000      -0.438846       -11.9416
  89   2.0000      -0.432132       -11.7589
  90   2.0000      -0.429450       -11.6859
  91   2.0000      -0.427462       -11.6318
  92   2.0000      -0.421726       -11.4757
  93   2.0000      -0.418025       -11.3750
  94   2.0000      -0.416550       -11.3349
  95   2.0000      -0.414593       -11.2816
  96   2.0000      -0.402150       -10.9431
  97   2.0000      -0.399924       -10.8825
  98   2.0000      -0.393807       -10.7160
  99   2.0000      -0.388390       -10.5686
 100   2.0000      -0.372278       -10.1302
 101   2.0000      -0.370462       -10.0808
 102   2.0000      -0.359247        -9.7756
 103   2.0000      -0.352014        -9.5788
 104   2.0000      -0.343318        -9.3422
 105   2.0000      -0.338952        -9.2234
 106   2.0000      -0.337190        -9.1754
 107   2.0000      -0.324664        -8.8346
 108   2.0000      -0.318526        -8.6675
 109   2.0000      -0.310315        -8.4441
 110   2.0000      -0.298620        -8.1259
 111   2.0000      -0.293849        -7.9960
 112   2.0000      -0.286682        -7.8010
 113   2.0000      -0.282268        -7.6809
 114   2.0000      -0.279549        -7.6069
 115   2.0000      -0.277825        -7.5600
 116   2.0000      -0.275537        -7.4978
 117   2.0000      -0.264824        -7.2062
 118   2.0000      -0.246261        -6.7011
 119   2.0000      -0.241021        -6.5585
 120   0.0000      -0.087448        -2.3796
 121   0.0000      -0.071821        -1.9543
 122   0.0000      -0.056556        -1.5390
 123   0.0000      -0.034260        -0.9323
 124   0.0000      -0.010412        -0.2833

MULLIKEN ATOMIC CHARGES
-----------------------
   0 O :   -0.443082
   1 C :    0.528867
   2 O :   -0.623955
   3 C :    0.082584
   4 C :   -0.147021
   5 C :   -0.143501
   6 C :   -0.108433
   7 S :    1.206801
   8 O :   -0.527973
   9 O :   -0.543339
  10 N :   -0.591462
  11 C :   -0.260893
  12 C :    0.178414
  13 C :   -0.168759
  14 C :   -0.127375
  15 C :   -0.121629
  16 C :   -0.126695
  17 C :   -0.163815
  18 C :    0.381765
  19 N :   -0.326273
  20 C :   -0.004520
  21 C :   -0.025282
  22 C :    0.905780
  23 F :   -0.301191
  24 F :   -0.299203
  25 F :   -0.289545
  26 C :   -0.133802
  27 C :   -0.094180
  28 Cl:    0.023134
  29 C :   -0.146457
  30 C :   -0.136786
  31 H :    0.434875
  32 H :    0.173575
  33 H :    0.174790
  34 H :    0.186758
  35 H :    0.164724
  36 H :    0.118351
  37 H :    0.127229
  38 H :    0.128834
  39 H :    0.133753
  40 H :    0.159243
  41 H :    0.187701
  42 H :    0.188946
  43 H :    0.186951
  44 H :    0.182096
Sum of atomic charges:   -0.0000000

LOEWDIN ATOMIC CHARGES
----------------------
   0 O :   -0.259259
   1 C :    0.179904
   2 O :   -0.334791
   3 C :   -0.038474
   4 C :   -0.098271
   5 C :   -0.105053
   6 C :   -0.172683
   7 S :    1.269347
   8 O :   -0.558113
   9 O :   -0.567020
  10 N :   -0.279967
  11 C :   -0.147789
  12 C :   -0.033094
  13 C :   -0.134073
  14 C :   -0.128504
  15 C :   -0.125748
  16 C :   -0.123273
  17 C :   -0.117729
  18 C :    0.053747
  19 N :   -0.078602
  20 C :   -0.043629
  21 C :   -0.073290
  22 C :    0.313192
  23 F :   -0.109657
  24 F :   -0.107270
  25 F :   -0.107279
  26 C :   -0.094468
  27 C :   -0.099239
  28 Cl:    0.060441
  29 C :   -0.103402
  30 C :   -0.083392
  31 H :    0.350297
  32 H :    0.155095
  33 H :    0.154298
  34 H :    0.150204
  35 H :    0.129672
  36 H :    0.126141
  37 H :    0.130898
  38 H :    0.131733
  39 H :    0.134013
  40 H :    0.145175
  41 H :    0.154831
  42 H :    0.162685
  43 H :    0.161171
  44 H :    0.161224

  Mayer bond orders larger than 0.100000
B(  0-O ,  1-C ) :   1.8637 B(  1-C ,  2-O ) :   1.0251 B(  1-C ,  3-C ) :   1.0077
B(  2-O , 31-H ) :   0.7413 B(  3-C ,  4-C ) :   1.3835 B(  3-C , 30-C ) :   1.4028
B(  4-C ,  5-C ) :   1.4227 B(  4-C , 32-H ) :   0.9144 B(  5-C ,  6-C ) :   1.3883
B(  5-C , 33-H ) :   0.9126 B(  6-C ,  7-S ) :   0.8178 B(  6-C , 29-C ) :   1.3846
B(  7-S ,  8-O ) :   1.6543 B(  7-S ,  9-O ) :   1.6147 B(  7-S , 10-N ) :   0.8008
B( 10-N , 11-C ) :   0.9110 B( 10-N , 18-C ) :   0.9408 B( 11-C , 12-C ) :   0.9515
B( 11-C , 34-H ) :   0.9157 B( 11-C , 35-H ) :   0.9195 B( 12-C , 13-C ) :   1.4307
B( 12-C , 17-C ) :   1.4389 B( 13-C , 14-C ) :   1.4419 B( 13-C , 36-H ) :   0.9255
B( 14-C , 15-C ) :   1.4579 B( 14-C , 37-H ) :   0.9295 B( 15-C , 16-C ) :   1.4483
B( 15-C , 38-H ) :   0.9303 B( 16-C , 17-C ) :   1.4437 B( 16-C , 39-H ) :   0.9292
B( 17-C , 40-H ) :   0.9128 B( 18-C , 19-N ) :   1.3988 B( 18-C , 27-C ) :   1.3361
B( 19-N , 20-C ) :   1.4146 B( 20-C , 21-C ) :   1.3510 B( 20-C , 41-H ) :   0.9168
B( 21-C , 22-C ) :   0.9713 B( 21-C , 26-C ) :   1.4162 B( 22-C , 23-F ) :   0.9503
B( 22-C , 24-F ) :   0.9527 B( 22-C , 25-F ) :   0.9914 B( 26-C , 27-C ) :   1.3867
B( 26-C , 42-H ) :   0.9076 B( 27-C , 28-Cl) :   1.0458 B( 29-C , 30-C ) :   1.4184
B( 29-C , 43-H ) :   0.9087 B( 30-C , 44-H ) :   0.9090

FINAL SINGLE POINT ENERGY     -2337.832301331880

DIPOLE MOMENT
-------------

Method             : SCF
Type of density    : Electron Density
Multiplicity       :   1
Irrep              :   0
Energy             : -2337.8323013318795347 Eh
Relativity type    :
Basis              : AO
                                X                 Y                 Z
Electronic contribution:      4.482773041      30.749379017      -2.655904215
Nuclear contribution   :     -3.623655480     -30.699312645       4.547605580
                        -----------------------------------------
Total Dipole Moment    :      0.859117561       0.050066372       1.891701365
                        -----------------------------------------
Magnitude (a.u.)       :      2.078250148
Magnitude (Debye)      :      5.282492070

Rotational constants in cm-1:             0.005064             0.002985             0.002149
Rotational constants in MHz :           151.801346            89.495186            64.425949

                             ****ORCA TERMINATED NORMALLY****
TOTAL RUN TIME: 0 days 0 hours 5 minutes 27 seconds 10 msec
