                         Program Version 6.0.0  -   RELEASE  -
|  1> ! B3LYP 6-31G* SP
|  2>
|  3> * xyz 0 1
|  4> C 5.2833 -3.5325 -1.5268
|  5> O 4.3101 -2.5323 -1.8108
|  6> C 3.5844 -1.8343 -0.8346
|  7> C 3.7560 -2.0676 0.5429
|  8> C 3.0122 -1.3417 1.4748
|  9> C 2.0942 -0.3795 1.0468
| 10> C 1.8969 -0.1461 -0.3247
| 11> C 0.9214 0.9050 -0.8083
| 12> N -0.3535 0.8855 -0.0591
| 13> C -0.9893 2.1400 0.3049
| 14> O -2.2449 2.2083 0.3874
| 15> C -0.2147 3.3683 0.5855
| 16> C 0.8949 3.3413 1.4458
| 17> C 1.6101 4.5129 1.7128
| 18> C 1.2161 5.7213 1.1331
| 19> C 0.0997 5.7614 0.2948
| 20> C -0.6181 4.5918 0.0249
| 21> C -1.0939 -0.3990 0.0411
| 22> C -1.3454 -0.7839 1.4908
| 23> O -1.3267 0.1147 2.3773
| 24> N -1.6562 -2.1429 1.8727
| 25> C -2.1345 -2.4038 3.2349
| 26> C -1.4847 -3.2552 0.9314
| 27> C -2.3519 -0.3870 -0.8173
| 28> C -3.6479 -0.2987 -0.2641
| 29> C -4.7724 -0.2737 -1.0941
| 30> C -4.6227 -0.3329 -2.4805
| 31> C -3.3476 -0.4187 -3.0407
| 32> C -2.2190 -0.4444 -2.2162
| 33> C 2.6580 -0.8718 -1.2565
| 34> H 5.6952 -3.9185 -2.4813
| 35> H 4.8156 -4.3751 -0.9750
| 36> H 6.1139 -3.0989 -0.9301
| 37> H 4.4617 -2.8037 0.9025
| 38> H 3.1484 -1.5232 2.5332
| 39> H 1.5256 0.1628 1.7877
| 40> H 0.6934 0.7517 -1.8846
| 41> H 1.4288 1.8874 -0.7408
| 42> H 1.1993 2.4211 1.9204
| 43> H 2.4682 4.4848 2.3703
| 44> H 1.7714 6.6273 1.3400
| 45> H -0.2087 6.6987 -0.1494
| 46> H -1.4787 4.6374 -0.6300
| 47> H -0.4585 -1.2041 -0.3820
| 48> H -2.3906 -3.4743 3.3875
| 49> H -3.0469 -1.8008 3.4316
| 50> H -1.3461 -2.1257 3.9681
| 51> H -1.7725 -4.2266 1.3850
| 52> H -0.4187 -3.3270 0.6284
| 53> H -2.1205 -3.0982 0.0350
| 54> H -3.7971 -0.2342 0.8062
| 55> H -5.7624 -0.1963 -0.6614
| 56> H -5.4955 -0.3091 -3.1205
| 57> H -3.2326 -0.4585 -4.1154
| 58> H -1.2390 -0.5090 -2.6702
| 59> H 2.5323 -0.6928 -2.3176
| 60> *
| 61>
| 62>                          ****END OF INPUT****

CARTESIAN COORDINATES (ANGSTROEM)
---------------------------------
  C      5.283300   -3.532500   -1.526800
  O      4.310100   -2.532300   -1.810800
  C      3.584400   -1.834300   -0.834600
  C      3.756000   -2.067600    0.542900
  C      3.012200   -1.341700    1.474800
  C      2.094200   -0.379500    1.046800
  C      1.896900   -0.146100   -0.324700
  C      0.921400    0.905000   -0.808300
  N     -0.353500    0.885500   -0.059100
  C     -0.989300    2.140000    0.304900
  O     -2.244900    2.208300    0.387400
  C     -0.214700    3.368300    0.585500
  C      0.894900    3.341300    1.445800
  C      1.610100    4.512900    1.712800
  C      1.216100    5.721300    1.133100
  C      0.099700    5.761400    0.294800
  C     -0.618100    4.591800    0.024900
  C     -1.093900   -0.399000    0.041100
  C     -1.345400   -0.783900    1.490800
  O     -1.326700    0.114700    2.377300
  N     -1.656200   -2.142900    1.872700
  C     -2.134500   -2.403800    3.234900
  C     -1.484700   -3.255200    0.931400
  C     -2.351900   -0.387000   -0.817300
  C     -3.647900   -0.298700   -0.264100
  C     -4.772400   -0.273700   -1.094100
  C     -4.622700   -0.332900   -2.480500
  C     -3.347600   -0.418700   -3.040700
  C     -2.219000   -0.444400   -2.216200
  C      2.658000   -0.871800   -1.256500
  H      5.695200   -3.918500   -2.481300
  H      4.815600   -4.375100   -0.975000
  H      6.113900   -3.098900   -0.930100
  H      4.461700   -2.803700    0.902500
  H      3.148400   -1.523200    2.533200
  H      1.525600    0.162800    1.787700
  H      0.693400    0.751700   -1.884600
  H      1.428800    1.887400   -0.740800
  H      1.199300    2.421100    1.920400
  H      2.468200    4.484800    2.370300
  H      1.771400    6.627300    1.340000
  H     -0.208700    6.698700   -0.149400
  H     -1.478700    4.637400   -0.630000
  H     -0.458500   -1.204100   -0.382000
  H     -2.390600   -3.474300    3.387500
  H     -3.046900   -1.800800    3.431600
  H     -1.346100   -2.125700    3.968100
  H     -1.772500   -4.226600    1.385000
  H     -0.418700   -3.327000    0.628400
  H     -2.120500   -3.098200    0.035000
  H     -3.797100   -0.234200    0.806200
  H     -5.762400   -0.196300   -0.661400
  H     -5.495500   -0.309100   -3.120500
  H     -3.232600   -0.458500   -4.115400
  H     -1.239000   -0.509000   -2.670200
  H      2.532300   -0.692800   -2.317600

 Total Charge           Charge          ....    0
 Multiplicity           Mult            ....    1
 Number of Electrons    NEL             ....  214
 Basis Dimension        Dim             ....  472

ORBITAL ENERGIES
----------------

  NO   OCC          E(Eh)            E(eV)
   0   2.0000     -19.166095      -521.5360
   1   2.0000     -19.101903      -519.7892
   2   2.0000     -19.094475      -519.5871
   3   2.0000     -14.353373      -390.5751
   4   2.0000     -14.348345      -390.4383
   5   2.0000     -10.278516      -279.6926
   6   2.0000     -10.274646      -279.5873
   7   2.0000     -10.248306      -278.8706
   8   2.0000     -10.239356      -278.6270
   9   2.0000     -10.232850      -278.4500
  10   2.0000     -10.219876      -278.0970
  11   2.0000     -10.214267      -277.9443
  12   2.0000     -10.207006      -277.7468
  13   2.0000     -10.194526      -277.4072
  14   2.0000     -10.189477      -277.2698
  15   2.0000     -10.186944      -277.2008
  16   2.0000     -10.184846      -277.1437
  17   2.0000     -10.181469      -277.0519
  18   2.0000     -10.181302      -277.0473
  19   2.0000     -10.180911      -277.0367
  20   2.0000     -10.180665      -277.0300
  21   2.0000     -10.180460      -277.0244
  22   2.0000     -10.179334      -276.9938
  23   2.0000     -10.178976      -276.9840
  24   2.0000     -10.174575      -276.8643
  25   2.0000     -10.173689      -276.8401
  26   2.0000     -10.172493      -276.8076
  27   2.0000     -10.170698      -276.7588
  28   2.0000     -10.170238      -276.7462
  29   2.0000     -10.169490      -276.7259
  30   2.0000      -1.044012       -28.4090
  31   2.0000      -1.005943       -27.3731
  32   2.0000      -0.991934       -26.9919
  33   2.0000      -0.910798       -24.7841
  34   2.0000      -0.907133       -24.6843
  35   2.0000      -0.850137       -23.1334
  36   2.0000      -0.847967       -23.0744
  37   2.0000      -0.838904       -22.8277
  38   2.0000      -0.777647       -21.1609
  39   2.0000      -0.759851       -20.6766
  40   2.0000      -0.753051       -20.4915
  41   2.0000      -0.744800       -20.2670
  42   2.0000      -0.739120       -20.1125
  43   2.0000      -0.731860       -19.9149
  44   2.0000      -0.716514       -19.4973
  45   2.0000      -0.700908       -19.0727
  46   2.0000      -0.689875       -18.7724
  47   2.0000      -0.676679       -18.4134
  48   2.0000      -0.658164       -17.9096
  49   2.0000      -0.618117       -16.8198
  50   2.0000      -0.603820       -16.4308
  51   2.0000      -0.599572       -16.3152
  52   2.0000      -0.595367       -16.2008
  53   2.0000      -0.583008       -15.8644
  54   2.0000      -0.577320       -15.7097
  55   2.0000      -0.555791       -15.1239
  56   2.0000      -0.526987       -14.3400
  57   2.0000      -0.523090       -14.2340
  58   2.0000      -0.516775       -14.0622
  59   2.0000      -0.503754       -13.7078
  60   2.0000      -0.486256       -13.2317
  61   2.0000      -0.484109       -13.1733
  62   2.0000      -0.482354       -13.1255
  63   2.0000      -0.468046       -12.7362
  64   2.0000      -0.464387       -12.6366
  65   2.0000      -0.461509       -12.5583
  66   2.0000      -0.458342       -12.4721
  67   2.0000      -0.449083       -12.2202
  68   2.0000      -0.447515       -12.1775
  69   2.0000      -0.443127       -12.0581
  70   2.0000      -0.441638       -12.0176
  71   2.0000      -0.432156       -11.7596
  72   2.0000      -0.428329       -11.6554
  73   2.0000      -0.424355       -11.5473
  74   2.0000      -0.417991       -11.3741
  75   2.0000      -0.414976       -11.2921
  76   2.0000      -0.410358       -11.1664
  77   2.0000      -0.406367       -11.0578
  78   2.0000      -0.404827       -11.0159
  79   2.0000      -0.403279       -10.9738
  80   2.0000      -0.394544       -10.7361
  81   2.0000      -0.385986       -10.5032
  82   2.0000      -0.384445       -10.4613
  83   2.0000      -0.371885       -10.1195
  84   2.0000      -0.370368       -10.0782
  85   2.0000      -0.362885        -9.8746
  86   2.0000      -0.360889        -9.8203
  87   2.0000      -0.354173        -9.6375
  88   2.0000      -0.348611        -9.4862
  89   2.0000      -0.348042        -9.4707
  90   2.0000      -0.344921        -9.3858
  91   2.0000      -0.339692        -9.2435
  92   2.0000      -0.334652        -9.1064
  93   2.0000      -0.327662        -8.9161
  94   2.0000      -0.322144        -8.7660
  95   2.0000      -0.315539        -8.5862
  96   2.0000      -0.310772        -8.4565
  97   2.0000      -0.258934        -7.0460
  98   2.0000      -0.250158        -6.8072
  99   2.0000      -0.244578        -6.6553
 100   2.0000      -0.242353        -6.5948
 101   2.0000      -0.238052        -6.4777
 102   2.0000      -0.236255        -6.4288
 103   2.0000      -0.224674        -6.1137
 104   2.0000      -0.221344        -6.0231
 105   2.0000      -0.215302        -5.8587
 106   2.0000      -0.211712        -5.7610
 107   0.0000      -0.022531        -0.6131
 108   0.0000      -0.004851        -0.1320
 109   0.0000      -0.000018        -0.0005
 110   0.0000       0.003117         0.0848
 111   0.0000       0.006483         0.1764

MULLIKEN ATOMIC CHARGES
-----------------------
   0 C :   -0.194192
   1 O :   -0.513827
   2 C :    0.375460
   3 C :   -0.207629
   4 C :   -0.125621
   5 C :   -0.194753
   6 C :    0.133308
   7 C :   -0.225897
   8 N :   -0.429431
   9 C :    0.491483
  10 O :   -0.462304
  11 C :    0.059220
  12 C :   -0.153124
  13 C :   -0.133247
  14 C :   -0.118517
  15 C :   -0.132848
  16 C :   -0.144509
  17 C :   -0.146372
  18 C :    0.549245
  19 O :   -0.482276
  20 N :   -0.403151
  21 C :   -0.292898
  22 C :   -0.325499
  23 C :    0.168770
  24 C :   -0.131623
  25 C :   -0.135042
  26 C :   -0.122397
  27 C :   -0.128806
  28 C :   -0.178544
  29 C :   -0.238660
  30 H :    0.168988
  31 H :    0.145040
  32 H :    0.147321
  33 H :    0.128995
  34 H :    0.134224
  35 H :    0.163848
  36 H :    0.149692
  37 H :    0.188048
  38 H :    0.152116
  39 H :    0.131136
  40 H :    0.129578
  41 H :    0.131882
  42 H :    0.150771
  43 H :    0.166533
  44 H :    0.145419
  45 H :    0.171013
  46 H :    0.168850
  47 H :    0.160118
  48 H :    0.166012
  49 H :    0.171117
  50 H :    0.149251
  51 H :    0.127190
  52 H :    0.122904
  53 H :    0.123171
  54 H :    0.118679
  55 H :    0.131784
Sum of atomic charges:    0.0000000

LOEWDIN ATOMIC CHARGES
----------------------
   0 C :   -0.199002
   1 O :   -0.195118
   2 C :    0.090124
   3 C :   -0.179699
   4 C :   -0.119476
   5 C :   -0.155740
   6 C :   -0.029156
   7 C :   -0.148526
   8 N :   -0.099630
   9 C :    0.157604
  10 O :   -0.258296
  11 C :   -0.042255
  12 C :   -0.119571
  13 C :   -0.130539
  14 C :   -0.122789
  15 C :   -0.129965
  16 C :   -0.101906
  17 C :   -0.062866
  18 C :    0.144779
  19 O :   -0.282528
  20 N :   -0.121694
  21 C :   -0.263666
  22 C :   -0.279731
  23 C :   -0.014228
  24 C :   -0.108451
  25 C :   -0.129195
  26 C :   -0.130577
  27 C :   -0.132862
  28 C :   -0.136702
  29 C :   -0.159511
  30 H :    0.135276
  31 H :    0.115233
  32 H :    0.116439
  33 H :    0.133663
  34 H :    0.134308
  35 H :    0.142236
  36 H :    0.118365
  37 H :    0.152939
  38 H :    0.140952
  39 H :    0.132799
  40 H :    0.131880
  41 H :    0.133348
  42 H :    0.144725
  43 H :    0.150868
  44 H :    0.125905
  45 H :    0.133408
  46 H :    0.131743
  47 H :    0.134298
  48 H :    0.126151
  49 H :    0.131302
  50 H :    0.142270
  51 H :    0.131175
  52 H :    0.129016
  53 H :    0.129228
  54 H :    0.125642
  55 H :    0.138001

  Mayer bond orders larger than 0.100000
B(  0-C ,  1-O ) :   0.9212 B(  0-C , 30-H ) :   0.9452 B(  0-C , 31-H ) :   0.9309
B(  0-C , 32-H ) :   0.9307 B(  1-O ,  2-C ) :   0.9160 B(  2-C ,  3-C ) :   1.3737
B(  2-C , 29-C ) :   1.3834 B(  3-C ,  4-C ) :   1.4339 B(  3-C , 33-H ) :   0.9196
B(  4-C ,  5-C ) :   1.4431 B(  4-C , 34-H ) :   0.9294 B(  5-C ,  6-C ) :   1.4177
B(  5-C , 35-H ) :   0.9023 B(  6-C ,  7-C ) :   0.9592 B(  6-C , 29-C ) :   1.4213
B(  7-C ,  8-N ) :   0.9506 B(  7-C , 36-H ) :   0.9189 B(  7-C , 37-H ) :   0.9037
B(  8-N ,  9-C ) :   1.0058 B(  8-N , 17-C ) :   0.9417 B(  9-C , 10-O ) :   1.8159
B(  9-C , 11-C ) :   0.9631 B( 11-C , 12-C ) :   1.4052 B( 11-C , 16-C ) :   1.4145
B( 12-C , 13-C ) :   1.4345 B( 12-C , 38-H ) :   0.9124 B( 13-C , 14-C ) :   1.4526
B( 13-C , 39-H ) :   0.9297 B( 14-C , 15-C ) :   1.4446 B( 14-C , 40-H ) :   0.9306
B( 15-C , 16-C ) :   1.4362 B( 15-C , 41-H ) :   0.9299 B( 16-C , 42-H ) :   0.9201
B( 17-C , 18-C ) :   0.9196 B( 17-C , 23-C ) :   0.9421 B( 17-C , 43-H ) :   0.8953
B( 18-C , 19-O ) :   1.7871 B( 18-C , 20-N ) :   1.0858 B( 20-N , 21-C ) :   0.9481
B( 20-N , 22-C ) :   0.9516 B( 21-C , 44-H ) :   0.9419 B( 21-C , 45-H ) :   0.9379
B( 21-C , 46-H ) :   0.9362 B( 22-C , 47-H ) :   0.9442 B( 22-C , 48-H ) :   0.9334
B( 22-C , 49-H ) :   0.9253 B( 23-C , 24-C ) :   1.4311 B( 23-C , 28-C ) :   1.4194
B( 24-C , 25-C ) :   1.4409 B( 24-C , 50-H ) :   0.9106 B( 25-C , 26-C ) :   1.4479
B( 25-C , 51-H ) :   0.9299 B( 26-C , 27-C ) :   1.4581 B( 26-C , 52-H ) :   0.9309
B( 27-C , 28-C ) :   1.4405 B( 27-C , 53-H ) :   0.9301 B( 28-C , 54-H ) :   0.9241
B( 29-C , 55-H ) :   0.9146

FINAL SINGLE POINT ENERGY     -1302.644073463656

DIPOLE MOMENT
-------------

Method             : SCF
Type of density    : Electron Density
Multiplicity       :   1
Irrep              :   0
Energy             : -1302.6440734636560137 Eh
Relativity type    :
Basis              : AO
                                X                 Y                 Z
Electronic contribution:     -3.665257831      13.808963709      -1.294521384
Nuclear contribution   :      5.022387300     -15.397530125       0.859996589
                        -----------------------------------------
Total Dipole Moment    :      1.357129469      -1.588566416      -0.434524795
                        -----------------------------------------
Magnitude (a.u.)       :      2.134046731
Magnitude (Debye)      :      5.424315713

Rotational constants in cm-1:             0.005140             0.004275             0.003092
Rotational constants in MHz :           154.099120           128.174779            92.683794

                             ****ORCA TERMINATED NORMALLY****
TOTAL RUN TIME: 0 days 0 hours 9 minutes 39 seconds 847 msec
