                         Program Version 6.0.0  -   RELEASE  -
|  1> ! B3LYP 6-31G* SP
|  2>
|  3> * xyz 0 1
|  4> O 0.6731 1.4180 2.3034
|  5> C 1.0778 0.5542 1.4774
|  6> N 0.1886 -0.4920 1.0488
|  7> C -1.2411 -0.4909 1.3877
|  8> C -2.0430 0.5803 0.6627
|  9> C -3.3807 0.7899 1.0381
| 10> C -4.1555 1.7679 0.4102
| 11> C -3.6074 2.5677 -0.6074
| 12> C -4.4282 3.6296 -1.2990
| 13> F -4.4719 3.3680 -2.6565
| 14> F -3.8455 4.8674 -1.0961
| 15> F -5.7258 3.6702 -0.8181
| 16> C -2.2656 2.3711 -0.9783
| 17> F -1.7034 3.1287 -1.9545
| 18> C -1.4916 1.3918 -0.3489
| 19> C -1.8376 -1.8844 1.2370
| 20> N -2.0777 -2.5583 2.3984
| 21> C -2.6086 -3.8048 2.4358
| 22> C -2.9415 -4.4511 1.2539
| 23> C -2.7107 -3.8120 0.0394
| 24> C -2.1291 -2.5281 -0.0076
| 25> C -1.9379 -1.8777 -1.3681
| 26> F -1.9561 -2.8211 -2.3818
| 27> F -2.9639 -0.9817 -1.6007
| 28> F -0.7254 -1.2261 -1.4490
| 29> C 2.4657 0.6329 0.9641
| 30> C 3.4539 1.3047 1.7073
| 31> C 4.7658 1.3946 1.2327
| 32> C 5.1073 0.8210 0.0017
| 33> C 6.4132 0.8972 -0.5000
| 34> C 6.7164 0.3197 -1.7349
| 35> C 5.7107 -0.3277 -2.4569
| 36> N 4.4471 -0.3953 -1.9589
| 37> C 4.1210 0.1555 -0.7580
| 38> C 2.8097 0.0671 -0.2781
| 39> H 0.6040 -1.3451 0.6115
| 40> H -1.3129 -0.2315 2.4688
| 41> H -3.8272 0.1889 1.8209
| 42> H -5.1830 1.8942 0.7258
| 43> H -0.4666 1.2681 -0.6695
| 44> H -2.7795 -4.2892 3.3879
| 45> H -3.3795 -5.4407 1.2772
| 46> H -2.9941 -4.3314 -0.8670
| 47> H 3.2137 1.7529 2.6636
| 48> H 5.5105 1.9116 1.8262
| 49> H 7.1932 1.4009 0.0583
| 50> H 7.7225 0.3743 -2.1302
| 51> H 5.9353 -0.7771 -3.4149
| 52> H 2.0616 -0.4224 -0.8887
| 53> *
| 54>
| 55>                          ****END OF INPUT****

CARTESIAN COORDINATES (ANGSTROEM)
---------------------------------
  O      0.673100    1.418000    2.303400
  C      1.077800    0.554200    1.477400
  N      0.188600   -0.492000    1.048800
  C     -1.241100   -0.490900    1.387700
  C     -2.043000    0.580300    0.662700
  C     -3.380700    0.789900    1.038100
  C     -4.155500    1.767900    0.410200
  C     -3.607400    2.567700   -0.607400
  C     -4.428200    3.629600   -1.299000
  F     -4.471900    3.368000   -2.656500
  F     -3.845500    4.867400   -1.096100
  F     -5.725800    3.670200   -0.818100
  C     -2.265600    2.371100   -0.978300
  F     -1.703400    3.128700   -1.954500
  C     -1.491600    1.391800   -0.348900
  C     -1.837600   -1.884400    1.237000
  N     -2.077700   -2.558300    2.398400
  C     -2.608600   -3.804800    2.435800
  C     -2.941500   -4.451100    1.253900
  C     -2.710700   -3.812000    0.039400
  C     -2.129100   -2.528100   -0.007600
  C     -1.937900   -1.877700   -1.368100
  F     -1.956100   -2.821100   -2.381800
  F     -2.963900   -0.981700   -1.600700
  F     -0.725400   -1.226100   -1.449000
  C      2.465700    0.632900    0.964100
  C      3.453900    1.304700    1.707300
  C      4.765800    1.394600    1.232700
  C      5.107300    0.821000    0.001700
  C      6.413200    0.897200   -0.500000
  C      6.716400    0.319700   -1.734900
  C      5.710700   -0.327700   -2.456900
  N      4.447100   -0.395300   -1.958900
  C      4.121000    0.155500   -0.758000
  C      2.809700    0.067100   -0.278100
  H      0.604000   -1.345100    0.611500
  H     -1.312900   -0.231500    2.468800
  H     -3.827200    0.188900    1.820900
  H     -5.183000    1.894200    0.725800
  H     -0.466600    1.268100   -0.669500
  H     -2.779500   -4.289200    3.387900
  H     -3.379500   -5.440700    1.277200
  H     -2.994100   -4.331400   -0.867000
  H      3.213700    1.752900    2.663600
  H      5.510500    1.911600    1.826200
  H      7.193200    1.400900    0.058300
  H      7.722500    0.374300   -2.130200
  H      5.935300   -0.777100   -3.414900
  H      2.061600   -0.422400   -0.888700

 Total Charge           Charge          ....    0
 Multiplicity           Mult            ....    1
 Number of Electrons    NEL             ....  250
 Basis Dimension        Dim             ....  518

ORBITAL ENERGIES
----------------

  NO   OCC          E(Eh)            E(eV)
   0   2.0000     -24.738419      -673.1666
   1   2.0000     -24.733442      -673.0312
   2   2.0000     -24.728181      -672.8880
   3   2.0000     -24.714145      -672.5061
   4   2.0000     -24.705569      -672.2727
   5   2.0000     -24.705128      -672.2607
   6   2.0000     -24.702460      -672.1881
   7   2.0000     -19.116554      -520.1879
   8   2.0000     -14.364106      -390.8672
   9   2.0000     -14.354157      -390.5965
  10   2.0000     -14.330244      -389.9458
  11   2.0000     -10.453184      -284.4456
  12   2.0000     -10.427993      -283.7601
  13   2.0000     -10.296303      -280.1766
  14   2.0000     -10.279234      -279.7122
  15   2.0000     -10.267212      -279.3850
  16   2.0000     -10.247487      -278.8483
  17   2.0000     -10.246489      -278.8212
  18   2.0000     -10.242053      -278.7004
  19   2.0000     -10.232042      -278.4280
  20   2.0000     -10.227585      -278.3067
  21   2.0000     -10.226377      -278.2739
  22   2.0000     -10.217646      -278.0363
  23   2.0000     -10.212085      -277.8850
  24   2.0000     -10.210242      -277.8348
  25   2.0000     -10.210223      -277.8343
  26   2.0000     -10.207728      -277.7664
  27   2.0000     -10.203060      -277.6394
  28   2.0000     -10.201789      -277.6048
  29   2.0000     -10.200251      -277.5630
  30   2.0000     -10.199497      -277.5424
  31   2.0000     -10.197434      -277.4863
  32   2.0000     -10.196948      -277.4731
  33   2.0000     -10.192575      -277.3541
  34   2.0000     -10.191454      -277.3236
  35   2.0000      -1.296594       -35.2821
  36   2.0000      -1.269834       -34.5539
  37   2.0000      -1.222462       -33.2649
  38   2.0000      -1.216350       -33.0986
  39   2.0000      -1.215013       -33.0622
  40   2.0000      -1.196198       -32.5502
  41   2.0000      -1.191843       -32.4317
  42   2.0000      -1.016736       -27.6668
  43   2.0000      -0.961558       -26.1653
  44   2.0000      -0.940559       -25.5939
  45   2.0000      -0.915072       -24.9004
  46   2.0000      -0.868302       -23.6277
  47   2.0000      -0.857892       -23.3444
  48   2.0000      -0.837511       -22.7898
  49   2.0000      -0.817276       -22.2392
  50   2.0000      -0.810792       -22.0628
  51   2.0000      -0.788305       -21.4509
  52   2.0000      -0.769865       -20.9491
  53   2.0000      -0.754321       -20.5261
  54   2.0000      -0.748586       -20.3701
  55   2.0000      -0.732735       -19.9387
  56   2.0000      -0.712941       -19.4001
  57   2.0000      -0.680126       -18.5072
  58   2.0000      -0.667078       -18.1521
  59   2.0000      -0.652142       -17.7457
  60   2.0000      -0.644099       -17.5268
  61   2.0000      -0.635775       -17.3003
  62   2.0000      -0.624298       -16.9880
  63   2.0000      -0.614365       -16.7177
  64   2.0000      -0.608312       -16.5530
  65   2.0000      -0.586708       -15.9651
  66   2.0000      -0.584308       -15.8998
  67   2.0000      -0.582416       -15.8483
  68   2.0000      -0.575540       -15.6612
  69   2.0000      -0.560407       -15.2494
  70   2.0000      -0.559247       -15.2179
  71   2.0000      -0.559179       -15.2160
  72   2.0000      -0.549365       -14.9490
  73   2.0000      -0.529294       -14.4028
  74   2.0000      -0.524170       -14.2634
  75   2.0000      -0.520026       -14.1506
  76   2.0000      -0.515465       -14.0265
  77   2.0000      -0.506794       -13.7906
  78   2.0000      -0.501479       -13.6459
  79   2.0000      -0.483627       -13.1602
  80   2.0000      -0.473366       -12.8809
  81   2.0000      -0.467538       -12.7223
  82   2.0000      -0.465226       -12.6594
  83   2.0000      -0.460640       -12.5347
  84   2.0000      -0.457913       -12.4604
  85   2.0000      -0.453114       -12.3299
  86   2.0000      -0.451108       -12.2753
  87   2.0000      -0.450278       -12.2527
  88   2.0000      -0.442730       -12.0473
  89   2.0000      -0.438428       -11.9302
  90   2.0000      -0.437291       -11.8993
  91   2.0000      -0.436753       -11.8846
  92   2.0000      -0.433078       -11.7847
  93   2.0000      -0.431123       -11.7315
  94   2.0000      -0.422407       -11.4943
  95   2.0000      -0.419524       -11.4158
  96   2.0000      -0.416947       -11.3457
  97   2.0000      -0.412979       -11.2377
  98   2.0000      -0.411506       -11.1977
  99   2.0000      -0.410568       -11.1721
 100   2.0000      -0.406789       -11.0693
 101   2.0000      -0.406518       -11.0619
 102   2.0000      -0.403861       -10.9896
 103   2.0000      -0.397345       -10.8123
 104   2.0000      -0.392301       -10.6751
 105   2.0000      -0.387992       -10.5578
 106   2.0000      -0.387071       -10.5327
 107   2.0000      -0.379254       -10.3200
 108   2.0000      -0.372487       -10.1359
 109   2.0000      -0.367759       -10.0072
 110   2.0000      -0.359760        -9.7896
 111   2.0000      -0.351962        -9.5774
 112   2.0000      -0.347582        -9.4582
 113   2.0000      -0.336663        -9.1611
 114   2.0000      -0.310159        -8.4399
 115   2.0000      -0.309944        -8.4340
 116   2.0000      -0.292308        -7.9541
 117   2.0000      -0.273888        -7.4529
 118   2.0000      -0.265471        -7.2238
 119   2.0000      -0.257394        -7.0040
 120   2.0000      -0.255995        -6.9660
 121   2.0000      -0.252765        -6.8781
 122   2.0000      -0.248326        -6.7573
 123   2.0000      -0.244864        -6.6631
 124   2.0000      -0.234867        -6.3910
 125   0.0000      -0.072686        -1.9779
 126   0.0000      -0.057681        -1.5696
 127   0.0000      -0.053186        -1.4473
 128   0.0000      -0.036884        -1.0037
 129   0.0000      -0.023356        -0.6355

MULLIKEN ATOMIC CHARGES
-----------------------
   0 O :   -0.474739
   1 C :    0.497039
   2 N :   -0.651766
   3 C :   -0.033562
   4 C :    0.157976
   5 C :   -0.174940
   6 C :   -0.153367
   7 C :   -0.114766
   8 C :    0.916971
   9 F :   -0.299777
  10 F :   -0.298512
  11 F :   -0.307743
  12 C :    0.392000
  13 F :   -0.301797
  14 C :   -0.242230
  15 C :    0.191667
  16 N :   -0.403592
  17 C :    0.027823
  18 C :   -0.131244
  19 C :   -0.127811
  20 C :   -0.068074
  21 C :    0.926255
  22 F :   -0.302795
  23 F :   -0.286791
  24 F :   -0.297605
  25 C :    0.081834
  26 C :   -0.155198
  27 C :   -0.207487
  28 C :    0.170681
  29 C :   -0.152467
  30 C :   -0.144444
  31 C :    0.015844
  32 N :   -0.433291
  33 C :    0.211863
  34 C :   -0.204820
  35 H :    0.332040
  36 H :    0.208904
  37 H :    0.142082
  38 H :    0.158486
  39 H :    0.156566
  40 H :    0.165540
  41 H :    0.151422
  42 H :    0.172594
  43 H :    0.163663
  44 H :    0.140973
  45 H :    0.145675
  46 H :    0.138062
  47 H :    0.153399
  48 H :    0.149457
Sum of atomic charges:   -0.0000000

LOEWDIN ATOMIC CHARGES
----------------------
   0 O :   -0.279009
   1 C :    0.141851
   2 N :   -0.236940
   3 C :   -0.049918
   4 C :   -0.005191
   5 C :   -0.136765
   6 C :   -0.107389
   7 C :   -0.099159
   8 C :    0.313612
   9 F :   -0.112833
  10 F :   -0.112057
  11 F :   -0.112859
  12 C :    0.136352
  13 F :   -0.093406
  14 C :   -0.147181
  15 C :    0.043612
  16 N :   -0.124220
  17 C :   -0.053176
  18 C :   -0.137861
  19 C :   -0.086801
  20 C :   -0.081181
  21 C :    0.311313
  22 F :   -0.109520
  23 F :   -0.099674
  24 F :   -0.101053
  25 C :   -0.045696
  26 C :   -0.099732
  27 C :   -0.117455
  28 C :   -0.021930
  29 C :   -0.092528
  30 C :   -0.144608
  31 C :   -0.061923
  32 N :   -0.129348
  33 C :    0.013683
  34 C :   -0.110341
  35 H :    0.253042
  36 H :    0.168336
  37 H :    0.138557
  38 H :    0.147511
  39 H :    0.151243
  40 H :    0.143115
  41 H :    0.144218
  42 H :    0.152670
  43 H :    0.152468
  44 H :    0.137547
  45 H :    0.139866
  46 H :    0.137675
  47 H :    0.137409
  48 H :    0.145676

  Mayer bond orders larger than 0.100000
B(  0-O ,  1-C ) :   1.8022 B(  1-C ,  2-N ) :   1.0324 B(  1-C , 25-C ) :   0.9853
B(  2-N ,  3-C ) :   0.8891 B(  2-N , 35-H ) :   0.8147 B(  3-C ,  4-C ) :   0.9507
B(  3-C , 15-C ) :   0.9579 B(  3-C , 36-H ) :   0.8887 B(  4-C ,  5-C ) :   1.4115
B(  4-C , 14-C ) :   1.4015 B(  5-C ,  6-C ) :   1.4317 B(  5-C , 37-H ) :   0.9206
B(  6-C ,  7-C ) :   1.4095 B(  6-C , 38-H ) :   0.9184 B(  7-C ,  8-C ) :   0.9672
B(  7-C , 12-C ) :   1.3255 B(  8-C ,  9-F ) :   0.9705 B(  8-C , 10-F ) :   0.9732
B(  8-C , 11-F ) :   0.9444 B( 12-C , 13-F ) :   0.9492 B( 12-C , 14-C ) :   1.3744
B( 14-C , 39-H ) :   0.9012 B( 15-C , 16-N ) :   1.3925 B( 15-C , 20-C ) :   1.3433
B( 16-N , 17-C ) :   1.4142 B( 17-C , 18-C ) :   1.4225 B( 17-C , 40-H ) :   0.9260
B( 18-C , 19-C ) :   1.4352 B( 18-C , 41-H ) :   0.9224 B( 19-C , 20-C ) :   1.4070
B( 19-C , 42-H ) :   0.9152 B( 20-C , 21-C ) :   0.9662 B( 21-C , 22-F ) :   0.9427
B( 21-C , 23-F ) :   0.9732 B( 21-C , 24-F ) :   0.9211 B( 25-C , 26-C ) :   1.3125
B( 25-C , 34-C ) :   1.4374 B( 26-C , 27-C ) :   1.4975 B( 26-C , 43-H ) :   0.9144
B( 27-C , 28-C ) :   1.2724 B( 27-C , 44-H ) :   0.9241 B( 28-C , 29-C ) :   1.3051
B( 28-C , 33-C ) :   1.2570 B( 29-C , 30-C ) :   1.5113 B( 29-C , 45-H ) :   0.9236
B( 30-C , 31-C ) :   1.3254 B( 30-C , 46-H ) :   0.9245 B( 31-C , 32-N ) :   1.5121
B( 31-C , 47-H ) :   0.9295 B( 32-N , 33-C ) :   1.2502 B( 33-C , 34-C ) :   1.2874
B( 34-C , 48-H ) :   0.9032

FINAL SINGLE POINT ENERGY     -1860.386517034231

DIPOLE MOMENT
-------------

Method             : SCF
Type of density    : Electron Density
Multiplicity       :   1
Irrep              :   0
Energy             : -1860.3865170342312467 Eh
Relativity type    :
Basis              : AO
                                X                 Y                 Z
Electronic contribution:    -34.034698670      16.391089877     -18.623323616
Nuclear contribution   :     35.132386458     -18.946007623      19.195336489
                        -----------------------------------------
Total Dipole Moment    :      1.097687788      -2.554917747       0.572012873
                        -----------------------------------------
Magnitude (a.u.)       :      2.838964935
Magnitude (Debye)      :      7.216075393

Rotational constants in cm-1:             0.004524             0.002427             0.001939
Rotational constants in MHz :           135.621769            72.752152            58.141290

                             ****ORCA TERMINATED NORMALLY****
TOTAL RUN TIME: 0 days 0 hours 5 minutes 55 seconds 160 msec
