                         Program Version 6.0.0  -   RELEASE  -
|  1> ! B3LYP 6-31G* SP
|  2>
|  3> * xyz 0 1
|  4> C 2.6585 1.7838 -1.5935
|  5> C 2.7953 0.2640 -1.6781
|  6> N 3.2526 -0.3023 -0.4003
|  7> C 4.6212 -0.0390 0.0557
|  8> C 2.4700 -1.2904 0.3025
|  9> O 3.0554 -2.2619 0.8537
| 10> C 0.9993 -1.1911 0.4203
| 11> S 0.0806 0.2133 0.2894
| 12> C -1.3806 -0.5560 0.6312
| 13> C -2.7097 0.0946 0.6879
| 14> C -2.8529 1.4727 0.4375
| 15> C -4.1138 2.0750 0.4937
| 16> C -5.2427 1.3118 0.7991
| 17> C -5.1133 -0.0559 1.0491
| 18> C -3.8551 -0.6636 0.9943
| 19> N -1.1840 -1.8749 0.8601
| 20> C 0.1258 -2.2269 0.7510
| 21> O 0.5477 -3.5369 0.9542
| 22> H 2.1861 2.1660 -2.5228
| 23> H 3.6543 2.2614 -1.4869
| 24> H 2.0289 2.0735 -0.7278
| 25> H 3.5227 0.0054 -2.4778
| 26> H 1.8202 -0.1735 -1.9806
| 27> H 5.1516 0.6544 -0.6302
| 28> H 5.2006 -0.9857 0.0927
| 29> H 4.5947 0.4152 1.0684
| 30> H -1.9954 2.0877 0.1981
| 31> H -4.2154 3.1350 0.2999
| 32> H -6.2175 1.7802 0.8420
| 33> H -5.9889 -0.6467 1.2857
| 34> H -3.7798 -1.7255 1.1918
| 35> H -0.1165 -4.2636 1.1918
| 36> *
| 37>
| 38>                          ****END OF INPUT****

CARTESIAN COORDINATES (ANGSTROEM)
---------------------------------
  C      2.658500    1.783800   -1.593500
  C      2.795300    0.264000   -1.678100
  N      3.252600   -0.302300   -0.400300
  C      4.621200   -0.039000    0.055700
  C      2.470000   -1.290400    0.302500
  O      3.055400   -2.261900    0.853700
  C      0.999300   -1.191100    0.420300
  S      0.080600    0.213300    0.289400
  C     -1.380600   -0.556000    0.631200
  C     -2.709700    0.094600    0.687900
  C     -2.852900    1.472700    0.437500
  C     -4.113800    2.075000    0.493700
  C     -5.242700    1.311800    0.799100
  C     -5.113300   -0.055900    1.049100
  C     -3.855100   -0.663600    0.994300
  N     -1.184000   -1.874900    0.860100
  C      0.125800   -2.226900    0.751000
  O      0.547700   -3.536900    0.954200
  H      2.186100    2.166000   -2.522800
  H      3.654300    2.261400   -1.486900
  H      2.028900    2.073500   -0.727800
  H      3.522700    0.005400   -2.477800
  H      1.820200   -0.173500   -1.980600
  H      5.151600    0.654400   -0.630200
  H      5.200600   -0.985700    0.092700
  H      4.594700    0.415200    1.068400
  H     -1.995400    2.087700    0.198100
  H     -4.215400    3.135000    0.299900
  H     -6.217500    1.780200    0.842000
  H     -5.988900   -0.646700    1.285700
  H     -3.779800   -1.725500    1.191800
  H     -0.116500   -4.263600    1.191800

 Total Charge           Charge          ....    0
 Multiplicity           Mult            ....    1
 Number of Electrons    NEL             ....  138
 Basis Dimension        Dim             ....  284

ORBITAL ENERGIES
----------------

  NO   OCC          E(Eh)            E(eV)
   0   2.0000     -88.903265     -2419.1808
   1   2.0000     -19.169558      -521.6302
   2   2.0000     -19.099933      -519.7356
   3   2.0000     -14.339923      -390.2091
   4   2.0000     -14.334789      -390.0695
   5   2.0000     -10.285517      -279.8831
   6   2.0000     -10.285276      -279.8766
   7   2.0000     -10.260962      -279.2150
   8   2.0000     -10.216443      -278.0036
   9   2.0000     -10.214551      -277.9521
  10   2.0000     -10.213663      -277.9279
  11   2.0000     -10.203053      -277.6392
  12   2.0000     -10.197957      -277.5005
  13   2.0000     -10.193501      -277.3793
  14   2.0000     -10.192690      -277.3572
  15   2.0000     -10.192567      -277.3538
  16   2.0000     -10.191459      -277.3237
  17   2.0000     -10.172935      -276.8196
  18   2.0000      -7.980312      -217.1553
  19   2.0000      -5.943213      -161.7231
  20   2.0000      -5.939261      -161.6155
  21   2.0000      -5.937437      -161.5659
  22   2.0000      -1.040605       -28.3163
  23   2.0000      -0.999456       -27.1966
  24   2.0000      -0.961522       -26.1643
  25   2.0000      -0.904758       -24.6197
  26   2.0000      -0.863052       -23.4848
  27   2.0000      -0.816210       -22.2102
  28   2.0000      -0.783396       -21.3173
  29   2.0000      -0.752720       -20.4826
  30   2.0000      -0.750424       -20.4201
  31   2.0000      -0.729453       -19.8494
  32   2.0000      -0.689519       -18.7628
  33   2.0000      -0.640293       -17.4233
  34   2.0000      -0.628807       -17.1107
  35   2.0000      -0.615910       -16.7598
  36   2.0000      -0.593307       -16.1447
  37   2.0000      -0.577661       -15.7190
  38   2.0000      -0.546512       -14.8713
  39   2.0000      -0.523238       -14.2380
  40   2.0000      -0.510752       -13.8983
  41   2.0000      -0.495213       -13.4754
  42   2.0000      -0.474511       -12.9121
  43   2.0000      -0.465344       -12.6627
  44   2.0000      -0.448502       -12.2044
  45   2.0000      -0.445660       -12.1270
  46   2.0000      -0.437990       -11.9183
  47   2.0000      -0.433516       -11.7966
  48   2.0000      -0.428059       -11.6481
  49   2.0000      -0.421803       -11.4779
  50   2.0000      -0.400451       -10.8968
  51   2.0000      -0.390210       -10.6181
  52   2.0000      -0.386408       -10.5147
  53   2.0000      -0.380886       -10.3644
  54   2.0000      -0.373713       -10.1692
  55   2.0000      -0.364264        -9.9121
  56   2.0000      -0.361248        -9.8300
  57   2.0000      -0.355568        -9.6755
  58   2.0000      -0.353620        -9.6225
  59   2.0000      -0.347955        -9.4683
  60   2.0000      -0.345999        -9.4151
  61   2.0000      -0.345543        -9.4027
  62   2.0000      -0.287428        -7.8213
  63   2.0000      -0.279588        -7.6080
  64   2.0000      -0.264396        -7.1946
  65   2.0000      -0.257257        -7.0003
  66   2.0000      -0.238793        -6.4979
  67   2.0000      -0.214674        -5.8416
  68   2.0000      -0.213101        -5.7988
  69   0.0000      -0.065248        -1.7755
  70   0.0000      -0.009986        -0.2717
  71   0.0000      -0.001882        -0.0512
  72   0.0000       0.024516         0.6671
  73   0.0000       0.041442         1.1277

MULLIKEN ATOMIC CHARGES
-----------------------
   0 C :   -0.438683
   1 C :   -0.148516
   2 N :   -0.413759
   3 C :   -0.302737
   4 C :    0.507902
   5 O :   -0.454649
   6 C :   -0.268787
   7 S :    0.282946
   8 C :   -0.027138
   9 C :    0.141363
  10 C :   -0.188427
  11 C :   -0.132971
  12 C :   -0.117342
  13 C :   -0.127884
  14 C :   -0.152432
  15 N :   -0.426228
  16 C :    0.507448
  17 O :   -0.618930
  18 H :    0.139660
  19 H :    0.144772
  20 H :    0.162709
  21 H :    0.146537
  22 H :    0.160575
  23 H :    0.148556
  24 H :    0.179385
  25 H :    0.160440
  26 H :    0.146809
  27 H :    0.136231
  28 H :    0.134611
  29 H :    0.137182
  30 H :    0.159366
  31 H :    0.421993
Sum of atomic charges:    0.0000000

LOEWDIN ATOMIC CHARGES
----------------------
   0 C :   -0.370928
   1 C :   -0.158103
   2 N :   -0.132339
   3 C :   -0.266788
   4 C :    0.136159
   5 O :   -0.263018
   6 C :   -0.274751
   7 S :    0.399670
   8 C :   -0.111245
   9 C :   -0.029881
  10 C :   -0.122359
  11 C :   -0.125963
  12 C :   -0.120402
  13 C :   -0.125014
  14 C :   -0.104192
  15 N :   -0.185432
  16 C :    0.110674
  17 O :   -0.314375
  18 H :    0.124785
  19 H :    0.122712
  20 H :    0.129351
  21 H :    0.119653
  22 H :    0.132587
  23 H :    0.127346
  24 H :    0.137181
  25 H :    0.128329
  26 H :    0.139335
  27 H :    0.135415
  28 H :    0.134498
  29 H :    0.135921
  30 H :    0.148549
  31 H :    0.342627

  Mayer bond orders larger than 0.100000
B(  0-C ,  1-C ) :   0.9990 B(  0-C , 18-H ) :   0.9454 B(  0-C , 19-H ) :   0.9476
B(  0-C , 20-H ) :   0.9391 B(  1-C ,  2-N ) :   0.9590 B(  1-C , 21-H ) :   0.9318
B(  1-C , 22-H ) :   0.9313 B(  2-N ,  3-C ) :   0.9450 B(  2-N ,  4-C ) :   1.0395
B(  3-C , 23-H ) :   0.9424 B(  3-C , 24-H ) :   0.9285 B(  3-C , 25-H ) :   0.9439
B(  4-C ,  5-O ) :   1.8304 B(  4-C ,  6-C ) :   0.9812 B(  6-C ,  7-S ) :   1.0661
B(  6-C ,  8-C ) :   0.1190 B(  6-C , 16-C ) :   1.4171 B(  7-S ,  8-C ) :   1.1574
B(  8-C ,  9-C ) :   1.0220 B(  8-C , 15-N ) :   1.4386 B(  9-C , 10-C ) :   1.3912
B(  9-C , 14-C ) :   1.4054 B( 10-C , 11-C ) :   1.4504 B( 10-C , 26-H ) :   0.9164
B( 11-C , 12-C ) :   1.4454 B( 11-C , 27-H ) :   0.9287 B( 12-C , 13-C ) :   1.4424
B( 12-C , 28-H ) :   0.9294 B( 13-C , 14-C ) :   1.4374 B( 13-C , 29-H ) :   0.9291
B( 14-C , 30-H ) :   0.9126 B( 15-N , 16-C ) :   1.2919 B( 16-C , 17-O ) :   1.0187
B( 17-O , 31-H ) :   0.7562

FINAL SINGLE POINT ENERGY     -1161.397079520375

DIPOLE MOMENT
-------------

Method             : SCF
Type of density    : Electron Density
Multiplicity       :   1
Irrep              :   0
Energy             : -1161.3970795203745183 Eh
Relativity type    :
Basis              : AO
                                X                 Y                 Z
Electronic contribution:     -8.811785154     -10.026748315       6.881684964
Nuclear contribution   :      7.761879588      11.163367259      -7.478187242
                        -----------------------------------------
Total Dipole Moment    :     -1.049905566       1.136618943      -0.596502277
                        -----------------------------------------
Magnitude (a.u.)       :      1.658318210
Magnitude (Debye)      :      4.215109910

Rotational constants in cm-1:             0.025579             0.006897             0.005601
Rotational constants in MHz :           766.830058           206.776803           167.905023

                             ****ORCA TERMINATED NORMALLY****
TOTAL RUN TIME: 0 days 0 hours 2 minutes 57 seconds 484 msec
