                         Program Version 6.0.0  -   RELEASE  -
|  1> ! B3LYP def2-TZVP SP
|  2>
|  3> * xyz 0 1
|  4> O 3.6531 -6.4640 0.5927
|  5> C 4.0979 -5.3786 0.1299
|  6> O 5.2624 -5.3897 -0.6341
|  7> C 3.3921 -4.1056 0.3949
|  8> C 3.8839 -2.8983 -0.1313
|  9> C 3.2187 -1.6944 0.1172
| 10> C 2.0540 -1.6781 0.8932
| 11> S 1.2216 -0.1526 1.1807
| 12> O 0.0360 -0.3642 2.0806
| 13> O 2.1863 0.7823 1.8558
| 14> N 0.6809 0.5374 -0.3258
| 15> C 0.1310 -0.3450 -1.3601
| 16> C -1.2845 -0.7173 -1.0158
| 17> C -1.5783 -1.9756 -0.4697
| 18> C -2.8880 -2.2990 -0.1039
| 19> C -3.9259 -1.3628 -0.2775
| 20> O -5.2582 -1.6318 0.0755
| 21> C -5.7266 -2.8461 0.6577
| 22> F -7.0871 -2.7438 0.8747
| 23> F -5.4897 -3.9076 -0.1969
| 24> F -5.0975 -3.0672 1.8695
| 25> C -3.6269 -0.1080 -0.8214
| 26> C -2.3173 0.2163 -1.1849
| 27> C 0.6118 1.9660 -0.4941
| 28> C 0.2187 2.8002 0.5608
| 29> C 0.1429 4.1901 0.3680
| 30> C -0.2469 5.0593 1.4134
| 31> Cl -0.6577 4.4745 3.0250
| 32> C -0.3135 6.4371 1.1851
| 33> C 0.0018 6.9629 -0.0664
| 34> C 0.3877 6.1189 -1.1077
| 35> C 0.4618 4.7281 -0.9068
| 36> C 0.8400 3.8480 -1.9417
| 37> Br 1.2874 4.4488 -3.7073
| 38> N 0.8994 2.5128 -1.7044
| 39> C 1.5587 -2.8768 1.4222
| 40> C 2.2214 -4.0825 1.1745
| 41> H 5.7534 -6.2556 -0.8214
| 42> H 4.7815 -2.8828 -0.7365
| 43> H 3.6080 -0.7740 -0.3000
| 44> H 0.1482 0.1505 -2.3547
| 45> H 0.7633 -1.2518 -1.4633
| 46> H -0.7936 -2.7068 -0.3235
| 47> H -3.0782 -3.2770 0.3144
| 48> H -4.4143 0.6224 -0.9575
| 49> H -2.1071 1.1974 -1.5928
| 50> H -0.0455 2.3598 1.5115
| 51> H -0.6114 7.1064 1.9825
| 52> H -0.0532 8.0314 -0.2308
| 53> H 0.6228 6.5654 -2.0639
| 54> H 0.6579 -2.8834 2.0217
| 55> H 1.8168 -4.9956 1.5930
| 56> *
| 57>
| 58>                          ****END OF INPUT****

CARTESIAN COORDINATES (ANGSTROEM)
---------------------------------
  O      3.653100   -6.464000    0.592700
  C      4.097900   -5.378600    0.129900
  O      5.262400   -5.389700   -0.634100
  C      3.392100   -4.105600    0.394900
  C      3.883900   -2.898300   -0.131300
  C      3.218700   -1.694400    0.117200
  C      2.054000   -1.678100    0.893200
  S      1.221600   -0.152600    1.180700
  O      0.036000   -0.364200    2.080600
  O      2.186300    0.782300    1.855800
  N      0.680900    0.537400   -0.325800
  C      0.131000   -0.345000   -1.360100
  C     -1.284500   -0.717300   -1.015800
  C     -1.578300   -1.975600   -0.469700
  C     -2.888000   -2.299000   -0.103900
  C     -3.925900   -1.362800   -0.277500
  O     -5.258200   -1.631800    0.075500
  C     -5.726600   -2.846100    0.657700
  F     -7.087100   -2.743800    0.874700
  F     -5.489700   -3.907600   -0.196900
  F     -5.097500   -3.067200    1.869500
  C     -3.626900   -0.108000   -0.821400
  C     -2.317300    0.216300   -1.184900
  C      0.611800    1.966000   -0.494100
  C      0.218700    2.800200    0.560800
  C      0.142900    4.190100    0.368000
  C     -0.246900    5.059300    1.413400
  Cl    -0.657700    4.474500    3.025000
  C     -0.313500    6.437100    1.185100
  C      0.001800    6.962900   -0.066400
  C      0.387700    6.118900   -1.107700
  C      0.461800    4.728100   -0.906800
  C      0.840000    3.848000   -1.941700
  Br     1.287400    4.448800   -3.707300
  N      0.899400    2.512800   -1.704400
  C      1.558700   -2.876800    1.422200
  C      2.221400   -4.082500    1.174500
  H      5.753400   -6.255600   -0.821400
  H      4.781500   -2.882800   -0.736500
  H      3.608000   -0.774000   -0.300000
  H      0.148200    0.150500   -2.354700
  H      0.763300   -1.251800   -1.463300
  H     -0.793600   -2.706800   -0.323500
  H     -3.078200   -3.277000    0.314400
  H     -4.414300    0.622400   -0.957500
  H     -2.107100    1.197400   -1.592800
  H     -0.045500    2.359800    1.511500
  H     -0.611400    7.106400    1.982500
  H     -0.053200    8.031400   -0.230800
  H      0.622800    6.565400   -2.063900
  H      0.657900   -2.883400    2.021700
  H      1.816800   -4.995600    1.593000

 Total Charge           Charge          ....    0
 Multiplicity           Mult            ....    1
 Number of Electrons    NEL             ....  308
 Basis Dimension        Dim             .... 1266

ORBITAL ENERGIES
----------------

  NO   OCC          E(Eh)            E(eV)
   0   2.0000    -482.875372    -13139.7069
   1   2.0000    -101.536207     -2762.9407
   2   2.0000     -89.078098     -2423.9383
   3   2.0000     -62.522623     -1701.3271
   4   2.0000     -56.338267     -1533.0422
   5   2.0000     -56.335628     -1532.9704
   6   2.0000     -56.335445     -1532.9654
   7   2.0000     -24.738004      -673.1553
   8   2.0000     -24.735654      -673.0914
   9   2.0000     -24.734704      -673.0655
  10   2.0000     -19.203464      -522.5528
  11   2.0000     -19.194871      -522.3190
  12   2.0000     -19.132742      -520.6284
  13   2.0000     -19.122202      -520.3416
  14   2.0000     -19.120599      -520.2979
  15   2.0000     -14.381423      -391.3384
  16   2.0000     -14.343707      -390.3121
  17   2.0000     -10.502445      -285.7861
  18   2.0000     -10.341234      -281.3993
  19   2.0000     -10.288461      -279.9632
  20   2.0000     -10.278385      -279.6891
  21   2.0000     -10.265304      -279.3331
  22   2.0000     -10.257005      -279.1073
  23   2.0000     -10.253032      -278.9992
  24   2.0000     -10.240914      -278.6694
  25   2.0000     -10.237133      -278.5665
  26   2.0000     -10.228617      -278.3348
  27   2.0000     -10.227324      -278.2996
  28   2.0000     -10.225202      -278.2419
  29   2.0000     -10.224732      -278.2291
  30   2.0000     -10.222477      -278.1678
  31   2.0000     -10.218827      -278.0684
  32   2.0000     -10.205705      -277.7113
  33   2.0000     -10.201049      -277.5847
  34   2.0000     -10.200489      -277.5694
  35   2.0000     -10.198361      -277.5115
  36   2.0000     -10.195126      -277.4235
  37   2.0000     -10.194247      -277.3996
  38   2.0000     -10.193650      -277.3833
  39   2.0000     -10.193429      -277.3773
  40   2.0000     -10.193096      -277.3682
  41   2.0000      -9.467649      -257.6278
  42   2.0000      -8.713374      -237.1030
  43   2.0000      -8.122173      -221.0156
  44   2.0000      -7.229347      -196.7205
  45   2.0000      -7.220743      -196.4864
  46   2.0000      -7.220350      -196.4757
  47   2.0000      -6.543031      -178.0449
  48   2.0000      -6.532080      -177.7469
  49   2.0000      -6.531249      -177.7243
  50   2.0000      -6.086552      -165.6235
  51   2.0000      -6.084132      -165.5576
  52   2.0000      -6.083308      -165.5352
  53   2.0000      -2.657634       -72.3179
  54   2.0000      -2.654687       -72.2377
  55   2.0000      -2.654043       -72.2202
  56   2.0000      -2.645001       -71.9741
  57   2.0000      -2.644991       -71.9739
  58   2.0000      -1.318124       -35.8680
  59   2.0000      -1.239851       -33.7381
  60   2.0000      -1.239087       -33.7173
  61   2.0000      -1.098545       -29.8929
  62   2.0000      -1.095287       -29.8043
  63   2.0000      -1.092368       -29.7248
  64   2.0000      -1.013261       -27.5722
  65   2.0000      -0.986319       -26.8391
  66   2.0000      -0.976853       -26.5815
  67   2.0000      -0.940140       -25.5825
  68   2.0000      -0.909134       -24.7388
  69   2.0000      -0.904354       -24.6087
  70   2.0000      -0.873401       -23.7665
  71   2.0000      -0.854905       -23.2632
  72   2.0000      -0.830289       -22.5933
  73   2.0000      -0.822956       -22.3938
  74   2.0000      -0.804944       -21.9036
  75   2.0000      -0.795665       -21.6512
  76   2.0000      -0.793989       -21.6056
  77   2.0000      -0.767392       -20.8818
  78   2.0000      -0.766241       -20.8505
  79   2.0000      -0.747521       -20.3411
  80   2.0000      -0.739449       -20.1214
  81   2.0000      -0.718587       -19.5537
  82   2.0000      -0.693104       -18.8603
  83   2.0000      -0.678941       -18.4749
  84   2.0000      -0.666445       -18.1349
  85   2.0000      -0.654727       -17.8160
  86   2.0000      -0.645846       -17.5744
  87   2.0000      -0.638607       -17.3774
  88   2.0000      -0.631915       -17.1953
  89   2.0000      -0.612819       -16.6757
  90   2.0000      -0.612777       -16.6745
  91   2.0000      -0.610025       -16.5996
  92   2.0000      -0.606770       -16.5111
  93   2.0000      -0.584452       -15.9037
  94   2.0000      -0.574940       -15.6449
  95   2.0000      -0.557420       -15.1682
  96   2.0000      -0.550191       -14.9715
  97   2.0000      -0.534089       -14.5333
  98   2.0000      -0.521118       -14.1803
  99   2.0000      -0.515037       -14.0149
 100   2.0000      -0.510452       -13.8901
 101   2.0000      -0.506782       -13.7902
 102   2.0000      -0.499842       -13.6014
 103   2.0000      -0.491499       -13.3744
 104   2.0000      -0.488986       -13.3060
 105   2.0000      -0.488219       -13.2851
 106   2.0000      -0.482333       -13.1249
 107   2.0000      -0.480857       -13.0848
 108   2.0000      -0.475795       -12.9470
 109   2.0000      -0.468191       -12.7401
 110   2.0000      -0.464973       -12.6526
 111   2.0000      -0.463416       -12.6102
 112   2.0000      -0.463245       -12.6055
 113   2.0000      -0.461604       -12.5609
 114   2.0000      -0.457197       -12.4410
 115   2.0000      -0.451847       -12.2954
 116   2.0000      -0.447076       -12.1656
 117   2.0000      -0.446076       -12.1384
 118   2.0000      -0.444202       -12.0874
 119   2.0000      -0.439045       -11.9470
 120   2.0000      -0.435881       -11.8609
 121   2.0000      -0.433256       -11.7895
 122   2.0000      -0.431274       -11.7356
 123   2.0000      -0.421091       -11.4585
 124   2.0000      -0.420297       -11.4369
 125   2.0000      -0.414046       -11.2668
 126   2.0000      -0.406040       -11.0489
 127   2.0000      -0.403651       -10.9839
 128   2.0000      -0.396206       -10.7813
 129   2.0000      -0.395735       -10.7685
 130   2.0000      -0.387907       -10.5555
 131   2.0000      -0.384671       -10.4674
 132   2.0000      -0.380508       -10.3541
 133   2.0000      -0.364655        -9.9228
 134   2.0000      -0.360735        -9.8161
 135   2.0000      -0.356582        -9.7031
 136   2.0000      -0.344329        -9.3697
 137   2.0000      -0.343037        -9.3345
 138   2.0000      -0.338711        -9.2168
 139   2.0000      -0.329552        -8.9676
 140   2.0000      -0.323870        -8.8130
 141   2.0000      -0.322549        -8.7770
 142   2.0000      -0.309043        -8.4095
 143   2.0000      -0.308277        -8.3886
 144   2.0000      -0.303468        -8.2578
 145   2.0000      -0.299896        -8.1606
 146   2.0000      -0.297271        -8.0891
 147   2.0000      -0.293401        -7.9838
 148   2.0000      -0.287688        -7.8284
 149   2.0000      -0.286628        -7.7996
 150   2.0000      -0.272959        -7.4276
 151   2.0000      -0.267526        -7.2798
 152   2.0000      -0.251131        -6.8336
 153   2.0000      -0.230247        -6.2653
 154   0.0000      -0.110336        -3.0024
 155   0.0000      -0.086973        -2.3667
 156   0.0000      -0.058860        -1.6017
 157   0.0000      -0.054521        -1.4836
 158   0.0000      -0.031795        -0.8652

MULLIKEN ATOMIC CHARGES
-----------------------
   0 O :   -0.348161
   1 C :    0.347615
   2 O :   -0.414185
   3 C :    0.076197
   4 C :   -0.156732
   5 C :   -0.133528
   6 C :    0.046021
   7 S :    0.785682
   8 O :   -0.476239
   9 O :   -0.464057
  10 N :   -0.085629
  11 C :   -0.249476
  12 C :    0.161001
  13 C :   -0.191021
  14 C :   -0.181902
  15 C :    0.277740
  16 O :   -0.264635
  17 C :    0.589386
  18 F :   -0.156523
  19 F :   -0.174310
  20 F :   -0.172021
  21 C :   -0.178281
  22 C :   -0.166261
  23 C :    0.117483
  24 C :   -0.159396
  25 C :    0.081557
  26 C :    0.080998
  27 Cl:   -0.081259
  28 C :   -0.157748
  29 C :   -0.093119
  30 C :   -0.163576
  31 C :    0.012244
  32 C :    0.118811
  33 Br:   -0.037724
  34 N :   -0.248826
  35 C :   -0.141188
  36 C :   -0.134650
  37 H :    0.349176
  38 H :    0.148666
  39 H :    0.145296
  40 H :    0.164800
  41 H :    0.154239
  42 H :    0.136776
  43 H :    0.120130
  44 H :    0.118834
  45 H :    0.130422
  46 H :    0.155611
  47 H :    0.125820
  48 H :    0.121248
  49 H :    0.129452
  50 H :    0.177978
  51 H :    0.157261
Sum of atomic charges:   -0.0000000

LOEWDIN ATOMIC CHARGES
----------------------
   0 O :    0.050092
   1 C :   -0.363434
   2 O :    0.038861
   3 C :   -0.109158
   4 C :   -0.067635
   5 C :   -0.101028
   6 C :   -0.269721
   7 S :    0.819023
   8 O :   -0.311711
   9 O :   -0.303891
  10 N :    0.045968
  11 C :   -0.243449
  12 C :   -0.156049
  13 C :   -0.104314
  14 C :   -0.115336
  15 C :   -0.200564
  16 O :    0.258292
  17 C :   -0.616875
  18 F :    0.165284
  19 F :    0.154117
  20 F :    0.155979
  21 C :   -0.102115
  22 C :   -0.094415
  23 C :   -0.272996
  24 C :   -0.072393
  25 C :   -0.095010
  26 C :   -0.345337
  27 Cl:    0.401456
  28 C :   -0.127749
  29 C :   -0.127936
  30 C :   -0.092830
  31 C :   -0.118664
  32 C :   -0.387161
  33 Br:    0.359510
  34 N :    0.147913
  35 C :   -0.101340
  36 C :   -0.053929
  37 H :    0.223367
  38 H :    0.158524
  39 H :    0.158278
  40 H :    0.158708
  41 H :    0.143822
  42 H :    0.145818
  43 H :    0.146829
  44 H :    0.150728
  45 H :    0.151075
  46 H :    0.153788
  47 H :    0.149386
  48 H :    0.147675
  49 H :    0.146526
  50 H :    0.161265
  51 H :    0.162755

  Mayer bond orders larger than 0.100000
B(  0-O ,  1-C ) :   2.0106 B(  1-C ,  2-O ) :   1.2342 B(  1-C ,  3-C ) :   1.0103
B(  2-O ,  3-C ) :  -0.1041 B(  2-O , 37-H ) :   0.8354 B(  3-C ,  4-C ) :   1.3375
B(  3-C , 36-C ) :   1.3679 B(  4-C ,  5-C ) :   1.3716 B(  4-C , 38-H ) :   0.9654
B(  5-C ,  6-C ) :   1.3511 B(  5-C , 39-H ) :   0.9719 B(  6-C ,  7-S ) :   0.8932
B(  6-C , 35-C ) :   1.3210 B(  7-S ,  8-O ) :   1.7799 B(  7-S ,  9-O ) :   1.7851
B(  7-S , 10-N ) :   0.9554 B( 10-N , 11-C ) :   0.8669 B( 10-N , 23-C ) :   1.0554
B( 11-C , 12-C ) :   0.8631 B( 11-C , 40-H ) :   0.9689 B( 11-C , 41-H ) :   0.9887
B( 12-C , 13-C ) :   1.3909 B( 12-C , 22-C ) :   1.3734 B( 13-C , 14-C ) :   1.4249
B( 13-C , 42-H ) :   0.9393 B( 14-C , 15-C ) :   1.3524 B( 14-C , 43-H ) :   0.9452
B( 15-C , 16-O ) :   0.9727 B( 15-C , 21-C ) :   1.3845 B( 16-O , 17-C ) :   1.1285
B( 17-C , 18-F ) :   1.1587 B( 17-C , 19-F ) :   1.1021 B( 17-C , 20-F ) :   1.1059
B( 21-C , 22-C ) :   1.4133 B( 21-C , 44-H ) :   0.9798 B( 22-C , 45-H ) :   0.9605
B( 23-C , 24-C ) :   1.4912 B( 23-C , 34-N ) :   1.2973 B( 24-C , 25-C ) :   1.2408
B( 24-C , 46-H ) :   0.9220 B( 25-C , 26-C ) :   1.1853 B( 25-C , 31-C ) :   1.1485
B( 26-C , 27-Cl) :   1.0716 B( 26-C , 28-C ) :   1.4669 B( 28-C , 29-C ) :   1.3060
B( 28-C , 47-H ) :   0.9646 B( 29-C , 30-C ) :   1.4946 B( 29-C , 48-H ) :   0.9694
B( 30-C , 31-C ) :   1.2853 B( 30-C , 49-H ) :   0.9518 B( 31-C , 32-C ) :   1.2258
B( 32-C , 33-Br) :   1.1094 B( 32-C , 34-N ) :   1.5894 B( 35-C , 36-C ) :   1.3524
B( 35-C , 50-H ) :   0.9550 B( 36-C , 51-H ) :   0.9647

FINAL SINGLE POINT ENERGY     -5140.817334984162

DIPOLE MOMENT
-------------

Method             : SCF
Type of density    : Electron Density
Multiplicity       :   1
Irrep              :   0
Energy             : -5140.8173349841617892 Eh
Relativity type    :
Basis              : AO
                                X                 Y                 Z
Electronic contribution:    -10.985036829      38.271297966     -26.451644851
Nuclear contribution   :     12.069610640     -37.863056078      24.910886968
                        -----------------------------------------
Total Dipole Moment    :      1.084573811       0.408241888      -1.540757883
                        -----------------------------------------
Magnitude (a.u.)       :      1.927925477
Magnitude (Debye)      :      4.900397121

Rotational constants in cm-1:             0.002422             0.001650             0.001225
Rotational constants in MHz :            72.616202            49.475007            36.723673

                             ****ORCA TERMINATED NORMALLY****
TOTAL RUN TIME: 0 days 0 hours 25 minutes 26 seconds 694 msec
