                         Program Version 6.0.0  -   RELEASE  -
|  1> ! B3LYP 6-31G* SP
|  2>
|  3> * xyz 0 1
|  4> C -2.9356 2.9904 1.4051
|  5> N -3.2738 1.6835 0.8062
|  6> C -2.5757 0.5644 1.1742
|  7> O -1.6524 0.6738 2.0263
|  8> C -2.8895 -0.6989 0.6154
|  9> C -2.1651 -1.9041 0.9196
| 10> C -0.9516 -1.9720 1.8346
| 11> C 0.2811 -1.3198 1.2589
| 12> O 1.2037 -0.9892 2.0544
| 13> N 0.4406 -1.1228 -0.1605
| 14> C 1.6146 -0.5552 -0.7571
| 15> N 2.7551 -0.2787 -0.0853
| 16> C 3.7196 0.2359 -0.9003
| 17> C 5.0676 0.6058 -0.3865
| 18> C 6.1701 0.6949 -1.2624
| 19> C 7.4379 1.0334 -0.7795
| 20> C 7.6273 1.2884 0.5796
| 21> C 6.5503 1.1987 1.4628
| 22> F 6.7421 1.4449 2.7837
| 23> C 5.2755 0.8586 0.9896
| 24> F 4.2474 0.7991 1.8758
| 25> C 3.3305 0.3679 -2.2379
| 26> S 1.7473 -0.1815 -2.3866
| 27> C -2.5512 -3.1112 0.3117
| 28> C -3.6181 -3.1584 -0.5695
| 29> C -4.3273 -2.0045 -0.8724
| 30> C -3.9843 -0.7561 -0.2957
| 31> N -4.6962 0.3870 -0.6013
| 32> C -5.8469 0.3281 -1.5305
| 33> C -4.3372 1.5925 -0.0494
| 34> O -4.9977 2.6364 -0.3276
| 35> H -1.8650 3.0467 1.6838
| 36> H -3.1050 3.8212 0.6930
| 37> H -3.5521 3.1545 2.3097
| 38> H -1.2006 -1.5343 2.8241
| 39> H -0.6864 -3.0283 2.0622
| 40> H -0.3384 -1.3777 -0.8100
| 41> H 6.0654 0.4857 -2.3191
| 42> H 8.2771 1.0925 -1.4605
| 43> H 8.6102 1.5557 0.9479
| 44> H 3.9206 0.7712 -3.0487
| 45> H -2.0179 -4.0331 0.5155
| 46> H -3.8962 -4.1011 -1.0271
| 47> H -5.1471 -2.1133 -1.5680
| 48> H -6.3550 1.3052 -1.6696
| 49> H -5.5030 -0.0028 -2.5335
| 50> H -6.6147 -0.3735 -1.1404
| 51> *
| 52>
| 53>                          ****END OF INPUT****

CARTESIAN COORDINATES (ANGSTROEM)
---------------------------------
  C     -2.935600    2.990400    1.405100
  N     -3.273800    1.683500    0.806200
  C     -2.575700    0.564400    1.174200
  O     -1.652400    0.673800    2.026300
  C     -2.889500   -0.698900    0.615400
  C     -2.165100   -1.904100    0.919600
  C     -0.951600   -1.972000    1.834600
  C      0.281100   -1.319800    1.258900
  O      1.203700   -0.989200    2.054400
  N      0.440600   -1.122800   -0.160500
  C      1.614600   -0.555200   -0.757100
  N      2.755100   -0.278700   -0.085300
  C      3.719600    0.235900   -0.900300
  C      5.067600    0.605800   -0.386500
  C      6.170100    0.694900   -1.262400
  C      7.437900    1.033400   -0.779500
  C      7.627300    1.288400    0.579600
  C      6.550300    1.198700    1.462800
  F      6.742100    1.444900    2.783700
  C      5.275500    0.858600    0.989600
  F      4.247400    0.799100    1.875800
  C      3.330500    0.367900   -2.237900
  S      1.747300   -0.181500   -2.386600
  C     -2.551200   -3.111200    0.311700
  C     -3.618100   -3.158400   -0.569500
  C     -4.327300   -2.004500   -0.872400
  C     -3.984300   -0.756100   -0.295700
  N     -4.696200    0.387000   -0.601300
  C     -5.846900    0.328100   -1.530500
  C     -4.337200    1.592500   -0.049400
  O     -4.997700    2.636400   -0.327600
  H     -1.865000    3.046700    1.683800
  H     -3.105000    3.821200    0.693000
  H     -3.552100    3.154500    2.309700
  H     -1.200600   -1.534300    2.824100
  H     -0.686400   -3.028300    2.062200
  H     -0.338400   -1.377700   -0.810000
  H      6.065400    0.485700   -2.319100
  H      8.277100    1.092500   -1.460500
  H      8.610200    1.555700    0.947900
  H      3.920600    0.771200   -3.048700
  H     -2.017900   -4.033100    0.515500
  H     -3.896200   -4.101100   -1.027100
  H     -5.147100   -2.113300   -1.568000
  H     -6.355000    1.305200   -1.669600
  H     -5.503000   -0.002800   -2.533500
  H     -6.614700   -0.373500   -1.140400

 Total Charge           Charge          ....    0
 Multiplicity           Mult            ....    1
 Number of Electrons    NEL             ....  228
 Basis Dimension        Dim             ....  470

ORBITAL ENERGIES
----------------

  NO   OCC          E(Eh)            E(eV)
   0   2.0000     -88.901907     -2419.1439
   1   2.0000     -24.693092      -671.9332
   2   2.0000     -24.682284      -671.6391
   3   2.0000     -19.115553      -520.1606
   4   2.0000     -19.113733      -520.1111
   5   2.0000     -19.101976      -519.7912
   6   2.0000     -14.409062      -392.0905
   7   2.0000     -14.400079      -391.8461
   8   2.0000     -14.384684      -391.4271
   9   2.0000     -14.315598      -389.5472
  10   2.0000     -10.330254      -281.1005
  11   2.0000     -10.298132      -280.2264
  12   2.0000     -10.292507      -280.0734
  13   2.0000     -10.282153      -279.7916
  14   2.0000     -10.267579      -279.3950
  15   2.0000     -10.267548      -279.3942
  16   2.0000     -10.267074      -279.3813
  17   2.0000     -10.239253      -278.6242
  18   2.0000     -10.229751      -278.3657
  19   2.0000     -10.223442      -278.1940
  20   2.0000     -10.221309      -278.1360
  21   2.0000     -10.217815      -278.0409
  22   2.0000     -10.213910      -277.9346
  23   2.0000     -10.209902      -277.8256
  24   2.0000     -10.205819      -277.7145
  25   2.0000     -10.204662      -277.6830
  26   2.0000     -10.202689      -277.6293
  27   2.0000     -10.200267      -277.5634
  28   2.0000     -10.189762      -277.2775
  29   2.0000     -10.189689      -277.2755
  30   2.0000     -10.188350      -277.2391
  31   2.0000      -7.979695      -217.1385
  32   2.0000      -5.942731      -161.7099
  33   2.0000      -5.938707      -161.6004
  34   2.0000      -5.936517      -161.5409
  35   2.0000      -1.208071       -32.8733
  36   2.0000      -1.190654       -32.3993
  37   2.0000      -1.072092       -29.1731
  38   2.0000      -1.025720       -27.9113
  39   2.0000      -1.005814       -27.3696
  40   2.0000      -0.975734       -26.5511
  41   2.0000      -0.965088       -26.2614
  42   2.0000      -0.942894       -25.6574
  43   2.0000      -0.905241       -24.6329
  44   2.0000      -0.877283       -23.8721
  45   2.0000      -0.858829       -23.3699
  46   2.0000      -0.806611       -21.9490
  47   2.0000      -0.802919       -21.8485
  48   2.0000      -0.793082       -21.5808
  49   2.0000      -0.773370       -21.0445
  50   2.0000      -0.750160       -20.4129
  51   2.0000      -0.743729       -20.2379
  52   2.0000      -0.732239       -19.9252
  53   2.0000      -0.718302       -19.5460
  54   2.0000      -0.706847       -19.2343
  55   2.0000      -0.660421       -17.9710
  56   2.0000      -0.658975       -17.9316
  57   2.0000      -0.636358       -17.3162
  58   2.0000      -0.621637       -16.9156
  59   2.0000      -0.614839       -16.7306
  60   2.0000      -0.599538       -16.3142
  61   2.0000      -0.588299       -16.0084
  62   2.0000      -0.579809       -15.7774
  63   2.0000      -0.554284       -15.0828
  64   2.0000      -0.549621       -14.9560
  65   2.0000      -0.530871       -14.4457
  66   2.0000      -0.522691       -14.2231
  67   2.0000      -0.517577       -14.0840
  68   2.0000      -0.507642       -13.8136
  69   2.0000      -0.499508       -13.5923
  70   2.0000      -0.494395       -13.4532
  71   2.0000      -0.493003       -13.4153
  72   2.0000      -0.478942       -13.0327
  73   2.0000      -0.475160       -12.9298
  74   2.0000      -0.465849       -12.6764
  75   2.0000      -0.464441       -12.6381
  76   2.0000      -0.461420       -12.5559
  77   2.0000      -0.459560       -12.5053
  78   2.0000      -0.452962       -12.3257
  79   2.0000      -0.444138       -12.0856
  80   2.0000      -0.436606       -11.8807
  81   2.0000      -0.431573       -11.7437
  82   2.0000      -0.426261       -11.5991
  83   2.0000      -0.424321       -11.5463
  84   2.0000      -0.418344       -11.3837
  85   2.0000      -0.413994       -11.2654
  86   2.0000      -0.406254       -11.0547
  87   2.0000      -0.404712       -11.0128
  88   2.0000      -0.402850       -10.9621
  89   2.0000      -0.395622       -10.7654
  90   2.0000      -0.390497       -10.6260
  91   2.0000      -0.389086       -10.5876
  92   2.0000      -0.386718       -10.5231
  93   2.0000      -0.379636       -10.3304
  94   2.0000      -0.376364       -10.2414
  95   2.0000      -0.372105       -10.1255
  96   2.0000      -0.364571        -9.9205
  97   2.0000      -0.364504        -9.9186
  98   2.0000      -0.357212        -9.7202
  99   2.0000      -0.344502        -9.3744
 100   2.0000      -0.339222        -9.2307
 101   2.0000      -0.322705        -8.7812
 102   2.0000      -0.296073        -8.0566
 103   2.0000      -0.285493        -7.7687
 104   2.0000      -0.276485        -7.5235
 105   2.0000      -0.275977        -7.5097
 106   2.0000      -0.268445        -7.3048
 107   2.0000      -0.264261        -7.1909
 108   2.0000      -0.251627        -6.8471
 109   2.0000      -0.247778        -6.7424
 110   2.0000      -0.238974        -6.5028
 111   2.0000      -0.234277        -6.3750
 112   2.0000      -0.219743        -5.9795
 113   2.0000      -0.206313        -5.6141
 114   0.0000      -0.065799        -1.7905
 115   0.0000      -0.033976        -0.9245
 116   0.0000      -0.028017        -0.7624
 117   0.0000      -0.011063        -0.3010
 118   0.0000       0.005670         0.1543

MULLIKEN ATOMIC CHARGES
-----------------------
   0 C :   -0.317232
   1 N :   -0.465444
   2 C :    0.505012
   3 O :   -0.479695
   4 C :    0.009192
   5 C :    0.054424
   6 C :   -0.412518
   7 C :    0.598728
   8 O :   -0.423974
   9 N :   -0.673348
  10 C :    0.252912
  11 N :   -0.354354
  12 C :    0.227208
  13 C :    0.033140
  14 C :   -0.175314
  15 C :   -0.126889
  16 C :   -0.202976
  17 C :    0.348425
  18 F :   -0.309949
  19 C :    0.298905
  20 F :   -0.279378
  21 C :   -0.392002
  22 S :    0.237318
  23 C :   -0.196431
  24 C :   -0.106684
  25 C :   -0.199301
  26 C :    0.316277
  27 N :   -0.511350
  28 C :   -0.336613
  29 C :    0.672457
  30 O :   -0.508589
  31 H :    0.205147
  32 H :    0.194209
  33 H :    0.179699
  34 H :    0.221863
  35 H :    0.174682
  36 H :    0.340336
  37 H :    0.132832
  38 H :    0.136559
  39 H :    0.149662
  40 H :    0.178924
  41 H :    0.142934
  42 H :    0.146799
  43 H :    0.144072
  44 H :    0.226025
  45 H :    0.171369
  46 H :    0.172933
Sum of atomic charges:    0.0000000

LOEWDIN ATOMIC CHARGES
----------------------
   0 C :   -0.259540
   1 N :   -0.020361
   2 C :    0.112747
   3 O :   -0.273204
   4 C :   -0.079051
   5 C :    0.016765
   6 C :   -0.235673
   7 C :    0.164386
   8 O :   -0.233058
   9 N :   -0.214731
  10 C :   -0.080327
  11 N :   -0.142652
  12 C :   -0.000119
  13 C :   -0.037525
  14 C :   -0.130214
  15 C :   -0.132508
  16 C :   -0.153247
  17 C :    0.094933
  18 F :   -0.095783
  19 C :    0.109838
  20 F :   -0.072697
  21 C :   -0.350036
  22 S :    0.378959
  23 C :   -0.154396
  24 C :   -0.101854
  25 C :   -0.166417
  26 C :    0.052210
  27 N :   -0.028548
  28 C :   -0.265372
  29 C :    0.138053
  30 O :   -0.317705
  31 H :    0.157457
  32 H :    0.151961
  33 H :    0.142026
  34 H :    0.176681
  35 H :    0.148369
  36 H :    0.263092
  37 H :    0.134934
  38 H :    0.136319
  39 H :    0.146385
  40 H :    0.158978
  41 H :    0.138415
  42 H :    0.141293
  43 H :    0.141588
  44 H :    0.169059
  45 H :    0.134765
  46 H :    0.135802

  Mayer bond orders larger than 0.100000
B(  0-C ,  1-N ) :   0.9143 B(  0-C , 31-H ) :   0.9208 B(  0-C , 32-H ) :   0.9271
B(  0-C , 33-H ) :   0.9405 B(  1-N ,  2-C ) :   0.9936 B(  1-N , 29-C ) :   1.0443
B(  2-C ,  3-O ) :   1.7615 B(  2-C ,  4-C ) :   1.0539 B(  4-C ,  5-C ) :   1.3459
B(  4-C , 26-C ) :   1.2885 B(  5-C ,  6-C ) :   0.9714 B(  5-C , 23-C ) :   1.4266
B(  6-C ,  7-C ) :   0.9529 B(  6-C , 34-H ) :   0.8934 B(  6-C , 35-H ) :   0.9112
B(  7-C ,  8-O ) :   1.8778 B(  7-C ,  9-N ) :   0.9720 B(  9-N , 10-C ) :   0.9573
B(  9-N , 36-H ) :   0.8082 B( 10-C , 11-N ) :   1.5118 B( 10-C , 21-C ) :   0.1097
B( 10-C , 22-S ) :   1.1307 B( 11-N , 12-C ) :   1.2681 B( 12-C , 13-C ) :   1.0298
B( 12-C , 21-C ) :   1.5158 B( 13-C , 14-C ) :   1.3990 B( 13-C , 19-C ) :   1.2936
B( 14-C , 15-C ) :   1.4511 B( 14-C , 37-H ) :   0.9216 B( 15-C , 16-C ) :   1.4252
B( 15-C , 38-H ) :   0.9292 B( 16-C , 17-C ) :   1.3944 B( 16-C , 39-H ) :   0.9199
B( 17-C , 18-F ) :   0.9188 B( 17-C , 19-C ) :   1.2900 B( 19-C , 20-F ) :   0.9653
B( 21-C , 22-S ) :   1.1167 B( 21-C , 40-H ) :   0.9035 B( 23-C , 24-C ) :   1.4040
B( 23-C , 41-H ) :   0.9218 B( 24-C , 25-C ) :   1.4705 B( 24-C , 42-H ) :   0.9255
B( 25-C , 26-C ) :   1.3410 B( 25-C , 43-H ) :   0.9142 B( 26-C , 27-N ) :   0.9741
B( 27-N , 28-C ) :   0.9336 B( 27-N , 29-C ) :   1.0398 B( 28-C , 44-H ) :   0.9133
B( 28-C , 45-H ) :   0.9325 B( 28-C , 46-H ) :   0.9314 B( 29-C , 30-O ) :   1.7850

FINAL SINGLE POINT ENERGY     -1851.538523068138

DIPOLE MOMENT
-------------

Method             : SCF
Type of density    : Electron Density
Multiplicity       :   1
Irrep              :   0
Energy             : -1851.5385230681376925 Eh
Relativity type    :
Basis              : AO
                                X                 Y                 Z
Electronic contribution:     28.033528915       3.034955534       8.244392777
Nuclear contribution   :    -29.721361209      -4.396781482     -10.774158883
                        -----------------------------------------
Total Dipole Moment    :     -1.687832294      -1.361825947      -2.529766105
                        -----------------------------------------
Magnitude (a.u.)       :      3.332126095
Magnitude (Debye)      :      8.469591443

Rotational constants in cm-1:             0.009418             0.002002             0.001958
Rotational constants in MHz :           282.333342            60.023958            58.711497

                             ****ORCA TERMINATED NORMALLY****
TOTAL RUN TIME: 0 days 0 hours 8 minutes 17 seconds 32 msec
