                         Program Version 6.0.0  -   RELEASE  -
|  1> ! B3LYP 6-31G* SP
|  2>
|  3> * xyz 0 1
|  4> O 2.4685 -1.6989 1.0367
|  5> C 1.9365 -0.6627 0.5514
|  6> N 2.7640 0.4558 0.1785
|  7> C 4.1985 0.3962 0.0985
|  8> C 4.8596 -0.7491 -0.3778
|  9> C 6.2544 -0.7732 -0.4705
| 10> C 7.0123 0.3571 -0.1198
| 11> C 8.5189 0.3136 -0.1736
| 12> F 9.0365 1.5760 -0.4082
| 13> F 8.9478 -0.5248 -1.1885
| 14> F 9.0039 -0.1552 1.0333
| 15> C 6.3489 1.4993 0.3600
| 16> C 4.9544 1.5229 0.4510
| 17> N 0.5023 -0.6081 0.3991
| 18> C -0.1938 0.6836 0.2905
| 19> C -1.6926 0.5367 0.5857
| 20> C -2.3884 -0.5456 -0.2948
| 21> C -2.9054 0.0544 -1.6319
| 22> C -4.0717 1.0382 -1.4400
| 23> C -5.0955 0.5289 -0.4611
| 24> C -6.3740 1.1065 -0.4228
| 25> C -7.3245 0.6518 0.4956
| 26> C -7.0031 -0.3766 1.3851
| 27> C -5.7276 -0.9484 1.3637
| 28> F -5.4203 -1.9419 2.2344
| 29> C -4.7680 -0.4922 0.4516
| 30> O -3.4959 -1.0753 0.4432
| 31> C -1.4264 -1.7289 -0.6133
| 32> C -0.2819 -1.8516 0.3950
| 33> H 2.3197 1.3867 0.0201
| 34> H 4.3006 -1.6182 -0.6977
| 35> H 6.7402 -1.6744 -0.8230
| 36> H 6.9086 2.3747 0.6651
| 37> H 4.4611 2.4166 0.8125
| 38> H 0.2252 1.3985 1.0318
| 39> H -0.0478 1.0992 -0.7296
| 40> H -1.7952 0.2492 1.6561
| 41> H -2.1810 1.5270 0.4913
| 42> H -3.2646 -0.7737 -2.2835
| 43> H -2.0794 0.5679 -2.1706
| 44> H -4.5546 1.2060 -2.4275
| 45> H -3.6943 2.0222 -1.0924
| 46> H -6.6339 1.9065 -1.1051
| 47> H -8.3106 1.0972 0.5181
| 48> H -7.7423 -0.7275 2.0937
| 49> H -0.9644 -1.5986 -1.6180
| 50> H -1.9925 -2.6858 -0.6446
| 51> H 0.3513 -2.7163 0.0979
| 52> H -0.6834 -2.0457 1.4131
| 53> *
| 54>
| 55>                          ****END OF INPUT****

CARTESIAN COORDINATES (ANGSTROEM)
---------------------------------
  O      2.468500   -1.698900    1.036700
  C      1.936500   -0.662700    0.551400
  N      2.764000    0.455800    0.178500
  C      4.198500    0.396200    0.098500
  C      4.859600   -0.749100   -0.377800
  C      6.254400   -0.773200   -0.470500
  C      7.012300    0.357100   -0.119800
  C      8.518900    0.313600   -0.173600
  F      9.036500    1.576000   -0.408200
  F      8.947800   -0.524800   -1.188500
  F      9.003900   -0.155200    1.033300
  C      6.348900    1.499300    0.360000
  C      4.954400    1.522900    0.451000
  N      0.502300   -0.608100    0.399100
  C     -0.193800    0.683600    0.290500
  C     -1.692600    0.536700    0.585700
  C     -2.388400   -0.545600   -0.294800
  C     -2.905400    0.054400   -1.631900
  C     -4.071700    1.038200   -1.440000
  C     -5.095500    0.528900   -0.461100
  C     -6.374000    1.106500   -0.422800
  C     -7.324500    0.651800    0.495600
  C     -7.003100   -0.376600    1.385100
  C     -5.727600   -0.948400    1.363700
  F     -5.420300   -1.941900    2.234400
  C     -4.768000   -0.492200    0.451600
  O     -3.495900   -1.075300    0.443200
  C     -1.426400   -1.728900   -0.613300
  C     -0.281900   -1.851600    0.395000
  H      2.319700    1.386700    0.020100
  H      4.300600   -1.618200   -0.697700
  H      6.740200   -1.674400   -0.823000
  H      6.908600    2.374700    0.665100
  H      4.461100    2.416600    0.812500
  H      0.225200    1.398500    1.031800
  H     -0.047800    1.099200   -0.729600
  H     -1.795200    0.249200    1.656100
  H     -2.181000    1.527000    0.491300
  H     -3.264600   -0.773700   -2.283500
  H     -2.079400    0.567900   -2.170600
  H     -4.554600    1.206000   -2.427500
  H     -3.694300    2.022200   -1.092400
  H     -6.633900    1.906500   -1.105100
  H     -8.310600    1.097200    0.518100
  H     -7.742300   -0.727500    2.093700
  H     -0.964400   -1.598600   -1.618000
  H     -1.992500   -2.685800   -0.644600
  H      0.351300   -2.716300    0.097900
  H     -0.683400   -2.045700    1.413100

 Total Charge           Charge          ....    0
 Multiplicity           Mult            ....    1
 Number of Electrons    NEL             ....  212
 Basis Dimension        Dim             ....  446

ORBITAL ENERGIES
----------------

  NO   OCC          E(Eh)            E(eV)
   0   2.0000     -24.711371      -672.4306
   1   2.0000     -24.710824      -672.4157
   2   2.0000     -24.706061      -672.2861
   3   2.0000     -24.695845      -672.0081
   4   2.0000     -19.170482      -521.6553
   5   2.0000     -19.103485      -519.8323
   6   2.0000     -14.374415      -391.1477
   7   2.0000     -14.357759      -390.6945
   8   2.0000     -10.425100      -283.6814
   9   2.0000     -10.319565      -280.8097
  10   2.0000     -10.268245      -279.4132
  11   2.0000     -10.263208      -279.2761
  12   2.0000     -10.252996      -278.9982
  13   2.0000     -10.241899      -278.6962
  14   2.0000     -10.237494      -278.5764
  15   2.0000     -10.218941      -278.0715
  16   2.0000     -10.202330      -277.6195
  17   2.0000     -10.200821      -277.5784
  18   2.0000     -10.198776      -277.5228
  19   2.0000     -10.198060      -277.5033
  20   2.0000     -10.197984      -277.5013
  21   2.0000     -10.196797      -277.4689
  22   2.0000     -10.194640      -277.4102
  23   2.0000     -10.194501      -277.4065
  24   2.0000     -10.193348      -277.3751
  25   2.0000     -10.189587      -277.2727
  26   2.0000     -10.187625      -277.2194
  27   2.0000     -10.186286      -277.1829
  28   2.0000     -10.185832      -277.1706
  29   2.0000      -1.270295       -34.5665
  30   2.0000      -1.208514       -32.8853
  31   2.0000      -1.196453       -32.5571
  32   2.0000      -1.194184       -32.4954
  33   2.0000      -1.056836       -28.7580
  34   2.0000      -1.020570       -27.7711
  35   2.0000      -0.927662       -25.2430
  36   2.0000      -0.920982       -25.0612
  37   2.0000      -0.860950       -23.4276
  38   2.0000      -0.855290       -23.2736
  39   2.0000      -0.824346       -22.4316
  40   2.0000      -0.789793       -21.4914
  41   2.0000      -0.774937       -21.0871
  42   2.0000      -0.768714       -20.9178
  43   2.0000      -0.754016       -20.5178
  44   2.0000      -0.743335       -20.2272
  45   2.0000      -0.733544       -19.9607
  46   2.0000      -0.689161       -18.7530
  47   2.0000      -0.667073       -18.1520
  48   2.0000      -0.656681       -17.8692
  49   2.0000      -0.645971       -17.5778
  50   2.0000      -0.627365       -17.0715
  51   2.0000      -0.619472       -16.8567
  52   2.0000      -0.611291       -16.6341
  53   2.0000      -0.595187       -16.1959
  54   2.0000      -0.569280       -15.4909
  55   2.0000      -0.561273       -15.2730
  56   2.0000      -0.560733       -15.2583
  57   2.0000      -0.552833       -15.0433
  58   2.0000      -0.549176       -14.9438
  59   2.0000      -0.545142       -14.8341
  60   2.0000      -0.532853       -14.4997
  61   2.0000      -0.520425       -14.1615
  62   2.0000      -0.513167       -13.9640
  63   2.0000      -0.496197       -13.5022
  64   2.0000      -0.483083       -13.1454
  65   2.0000      -0.473870       -12.8947
  66   2.0000      -0.464714       -12.6455
  67   2.0000      -0.461679       -12.5629
  68   2.0000      -0.457733       -12.4555
  69   2.0000      -0.456331       -12.4174
  70   2.0000      -0.454189       -12.3591
  71   2.0000      -0.447942       -12.1891
  72   2.0000      -0.440154       -11.9772
  73   2.0000      -0.437118       -11.8946
  74   2.0000      -0.434518       -11.8238
  75   2.0000      -0.430955       -11.7269
  76   2.0000      -0.421661       -11.4740
  77   2.0000      -0.415771       -11.3137
  78   2.0000      -0.414439       -11.2774
  79   2.0000      -0.412403       -11.2221
  80   2.0000      -0.409464       -11.1421
  81   2.0000      -0.403850       -10.9893
  82   2.0000      -0.399114       -10.8604
  83   2.0000      -0.396102       -10.7785
  84   2.0000      -0.393334       -10.7032
  85   2.0000      -0.389325       -10.5941
  86   2.0000      -0.385958       -10.5025
  87   2.0000      -0.381684       -10.3861
  88   2.0000      -0.378647       -10.3035
  89   2.0000      -0.373143       -10.1537
  90   2.0000      -0.366943        -9.9850
  91   2.0000      -0.359684        -9.7875
  92   2.0000      -0.356735        -9.7072
  93   2.0000      -0.355735        -9.6800
  94   2.0000      -0.354574        -9.6484
  95   2.0000      -0.338762        -9.2182
  96   2.0000      -0.335869        -9.1394
  97   2.0000      -0.313709        -8.5365
  98   2.0000      -0.302788        -8.2393
  99   2.0000      -0.296486        -8.0678
 100   2.0000      -0.262660        -7.1473
 101   2.0000      -0.251063        -6.8318
 102   2.0000      -0.242010        -6.5854
 103   2.0000      -0.230698        -6.2776
 104   2.0000      -0.225420        -6.1340
 105   2.0000      -0.221246        -6.0204
 106   0.0000      -0.022529        -0.6131
 107   0.0000      -0.008241        -0.2242
 108   0.0000      -0.006910        -0.1880
 109   0.0000       0.006346         0.1727
 110   0.0000       0.036216         0.9855

MULLIKEN ATOMIC CHARGES
-----------------------
   0 O :   -0.491181
   1 C :    0.687274
   2 N :   -0.728877
   3 C :    0.351643
   4 C :   -0.129660
   5 C :   -0.172970
   6 C :   -0.017141
   7 C :    0.891637
   8 F :   -0.308315
   9 F :   -0.307333
  10 F :   -0.297448
  11 C :   -0.163481
  12 C :   -0.182965
  13 N :   -0.440210
  14 C :   -0.142443
  15 C :   -0.325891
  16 C :    0.367391
  17 C :   -0.310799
  18 C :   -0.353540
  19 C :    0.116121
  20 C :   -0.188052
  21 C :   -0.120841
  22 C :   -0.213161
  23 C :    0.354871
  24 F :   -0.311888
  25 C :    0.240386
  26 O :   -0.549328
  27 C :   -0.318377
  28 C :   -0.126658
  29 H :    0.329979
  30 H :    0.159196
  31 H :    0.154080
  32 H :    0.150411
  33 H :    0.129180
  34 H :    0.149115
  35 H :    0.136826
  36 H :    0.172487
  37 H :    0.151957
  38 H :    0.153449
  39 H :    0.137893
  40 H :    0.156729
  41 H :    0.153629
  42 H :    0.125009
  43 H :    0.131859
  44 H :    0.145580
  45 H :    0.148421
  46 H :    0.168958
  47 H :    0.177618
  48 H :    0.158859
Sum of atomic charges:   -0.0000000

LOEWDIN ATOMIC CHARGES
----------------------
   0 O :   -0.308096
   1 C :    0.166639
   2 N :   -0.229323
   3 C :    0.052429
   4 C :   -0.121983
   5 C :   -0.109382
   6 C :   -0.081224
   7 C :    0.309040
   8 F :   -0.116361
   9 F :   -0.115533
  10 F :   -0.115369
  11 C :   -0.111242
  12 C :   -0.148487
  13 N :   -0.132066
  14 C :   -0.157821
  15 C :   -0.237738
  16 C :    0.083117
  17 C :   -0.232753
  18 C :   -0.225647
  19 C :   -0.051642
  20 C :   -0.137154
  21 C :   -0.138088
  22 C :   -0.156491
  23 C :    0.098642
  24 F :   -0.099803
  25 C :    0.053239
  26 O :   -0.170683
  27 C :   -0.232500
  28 C :   -0.143743
  29 H :    0.254369
  30 H :    0.150726
  31 H :    0.144962
  32 H :    0.143260
  33 H :    0.132991
  34 H :    0.124766
  35 H :    0.108287
  36 H :    0.140686
  37 H :    0.133168
  38 H :    0.130123
  39 H :    0.125687
  40 H :    0.136839
  41 H :    0.128179
  42 H :    0.131289
  43 H :    0.134084
  44 H :    0.145021
  45 H :    0.129307
  46 H :    0.144819
  47 H :    0.147500
  48 H :    0.123965

  Mayer bond orders larger than 0.100000
B(  0-O ,  1-C ) :   1.7873 B(  1-C ,  2-N ) :   0.9907 B(  1-C , 13-N ) :   1.0592
B(  2-N ,  3-C ) :   0.8774 B(  2-N , 29-H ) :   0.8173 B(  3-C ,  4-C ) :   1.4166
B(  3-C , 12-C ) :   1.4036 B(  4-C ,  5-C ) :   1.4363 B(  4-C , 30-H ) :   0.9105
B(  5-C ,  6-C ) :   1.3969 B(  5-C , 31-H ) :   0.9199 B(  6-C ,  7-C ) :   0.9835
B(  6-C , 11-C ) :   1.4123 B(  7-C ,  8-F ) :   0.9452 B(  7-C ,  9-F ) :   0.9463
B(  7-C , 10-F ) :   0.9859 B( 11-C , 12-C ) :   1.4383 B( 11-C , 32-H ) :   0.9196
B( 12-C , 33-H ) :   0.9244 B( 13-N , 14-C ) :   0.9450 B( 13-N , 28-C ) :   0.9356
B( 14-C , 15-C ) :   0.9993 B( 14-C , 34-H ) :   0.9250 B( 14-C , 35-H ) :   0.9182
B( 15-C , 16-C ) :   0.9761 B( 15-C , 36-H ) :   0.9232 B( 15-C , 37-H ) :   0.9248
B( 16-C , 17-C ) :   0.9768 B( 16-C , 26-O ) :   0.8440 B( 16-C , 27-C ) :   0.9719
B( 17-C , 18-C ) :   0.9930 B( 17-C , 38-H ) :   0.9325 B( 17-C , 39-H ) :   0.9284
B( 18-C , 19-C ) :   0.9806 B( 18-C , 40-H ) :   0.9318 B( 18-C , 41-H ) :   0.9212
B( 19-C , 20-C ) :   1.4168 B( 19-C , 25-C ) :   1.3696 B( 20-C , 21-C ) :   1.4467
B( 20-C , 42-H ) :   0.9274 B( 21-C , 22-C ) :   1.4215 B( 21-C , 43-H ) :   0.9301
B( 22-C , 23-C ) :   1.4095 B( 22-C , 44-H ) :   0.9200 B( 23-C , 24-F ) :   0.9340
B( 23-C , 25-C ) :   1.2912 B( 25-C , 26-O ) :   0.9080 B( 27-C , 28-C ) :   0.9917
B( 27-C , 45-H ) :   0.9287 B( 27-C , 46-H ) :   0.9230 B( 28-C , 47-H ) :   0.9225
B( 28-C , 48-H ) :   0.9263

FINAL SINGLE POINT ENERGY     -1470.782988943773

DIPOLE MOMENT
-------------

Method             : SCF
Type of density    : Electron Density
Multiplicity       :   1
Irrep              :   0
Energy             : -1470.7829889437728070 Eh
Relativity type    :
Basis              : AO
                                X                 Y                 Z
Electronic contribution:     48.642031330      -4.500459137       7.216704931
Nuclear contribution   :    -50.707424211       6.205886711      -8.376231855
                        -----------------------------------------
Total Dipole Moment    :     -2.065392881       1.705427574      -1.159526924
                        -----------------------------------------
Magnitude (a.u.)       :      2.918704104
Magnitude (Debye)      :      7.418756255

Rotational constants in cm-1:             0.022208             0.001370             0.001341
Rotational constants in MHz :           665.775752            41.070362            40.216094

                             ****ORCA TERMINATED NORMALLY****
TOTAL RUN TIME: 0 days 0 hours 4 minutes 12 seconds 210 msec
