                         Program Version 6.0.0  -   RELEASE  -
|  1> ! B3LYP 6-31G* SP
|  2>
|  3> * xyz 0 1
|  4> N -2.6521 -0.0980 -2.7981
|  5> C -1.4533 -0.3726 -2.0723
|  6> O -0.4026 -0.6537 -2.7076
|  7> C -1.4709 -0.3763 -0.5588
|  8> C -1.8967 -1.7133 0.0223
|  9> C -2.5373 -1.7373 1.2751
| 10> C -2.9012 -2.9513 1.8644
| 11> C -2.6216 -4.1560 1.2165
| 12> C -1.9734 -4.1495 -0.0201
| 13> C -1.6067 -2.9386 -0.6147
| 14> N -0.1852 0.0864 0.0244
| 15> C -0.1430 1.3467 0.7455
| 16> O 0.6326 1.4783 1.7312
| 17> C -0.9761 2.5067 0.3544
| 18> C -1.5488 3.3233 1.3448
| 19> C -2.3302 4.4262 0.9865
| 20> C -2.5366 4.7300 -0.3614
| 21> C -1.9560 3.9354 -1.3529
| 22> C -1.1738 2.8322 -0.9987
| 23> C 1.0113 -0.7947 0.0161
| 24> C 1.1180 -1.5752 1.3483
| 25> C 2.4778 -2.2542 1.4816
| 26> C 3.5827 -1.2019 1.5302
| 27> C 3.5013 -0.2479 0.3656
| 28> C 4.6504 0.4761 0.0076
| 29> C 4.6133 1.3880 -1.0475
| 30> C 3.4292 1.5893 -1.7541
| 31> C 2.2749 0.8889 -1.4005
| 32> C 2.2815 -0.0137 -0.3199
| 33> H -3.5454 0.1073 -2.2981
| 34> H -2.6483 -0.1043 -3.8421
| 35> H -2.2728 0.3395 -0.2742
| 36> H -2.7481 -0.8134 1.7998
| 37> H -3.3954 -2.9578 2.8272
| 38> H -2.9018 -5.0952 1.6758
| 39> H -1.7484 -5.0847 -0.5163
| 40> H -1.0888 -2.9658 -1.5637
| 41> H -1.4022 3.0991 2.3943
| 42> H -2.7758 5.0454 1.7542
| 43> H -3.1409 5.5844 -0.6374
| 44> H -2.1063 4.1783 -2.3969
| 45> H -0.7112 2.2478 -1.7808
| 46> H 0.9053 -1.5585 -0.7827
| 47> H 0.9585 -0.9103 2.2220
| 48> H 0.3368 -2.3606 1.3914
| 49> H 2.6447 -2.9415 0.6228
| 50> H 2.5022 -2.8554 2.4161
| 51> H 3.5018 -0.6211 2.4747
| 52> H 4.5653 -1.7223 1.5292
| 53> H 5.5791 0.3304 0.5458
| 54> H 5.5057 1.9365 -1.3203
| 55> H 3.4049 2.2895 -2.5791
| 56> H 1.3736 1.0597 -1.9698
| 57> *
| 58>
| 59>                          ****END OF INPUT****

CARTESIAN COORDINATES (ANGSTROEM)
---------------------------------
  N     -2.652100   -0.098000   -2.798100
  C     -1.453300   -0.372600   -2.072300
  O     -0.402600   -0.653700   -2.707600
  C     -1.470900   -0.376300   -0.558800
  C     -1.896700   -1.713300    0.022300
  C     -2.537300   -1.737300    1.275100
  C     -2.901200   -2.951300    1.864400
  C     -2.621600   -4.156000    1.216500
  C     -1.973400   -4.149500   -0.020100
  C     -1.606700   -2.938600   -0.614700
  N     -0.185200    0.086400    0.024400
  C     -0.143000    1.346700    0.745500
  O      0.632600    1.478300    1.731200
  C     -0.976100    2.506700    0.354400
  C     -1.548800    3.323300    1.344800
  C     -2.330200    4.426200    0.986500
  C     -2.536600    4.730000   -0.361400
  C     -1.956000    3.935400   -1.352900
  C     -1.173800    2.832200   -0.998700
  C      1.011300   -0.794700    0.016100
  C      1.118000   -1.575200    1.348300
  C      2.477800   -2.254200    1.481600
  C      3.582700   -1.201900    1.530200
  C      3.501300   -0.247900    0.365600
  C      4.650400    0.476100    0.007600
  C      4.613300    1.388000   -1.047500
  C      3.429200    1.589300   -1.754100
  C      2.274900    0.888900   -1.400500
  C      2.281500   -0.013700   -0.319900
  H     -3.545400    0.107300   -2.298100
  H     -2.648300   -0.104300   -3.842100
  H     -2.272800    0.339500   -0.274200
  H     -2.748100   -0.813400    1.799800
  H     -3.395400   -2.957800    2.827200
  H     -2.901800   -5.095200    1.675800
  H     -1.748400   -5.084700   -0.516300
  H     -1.088800   -2.965800   -1.563700
  H     -1.402200    3.099100    2.394300
  H     -2.775800    5.045400    1.754200
  H     -3.140900    5.584400   -0.637400
  H     -2.106300    4.178300   -2.396900
  H     -0.711200    2.247800   -1.780800
  H      0.905300   -1.558500   -0.782700
  H      0.958500   -0.910300    2.222000
  H      0.336800   -2.360600    1.391400
  H      2.644700   -2.941500    0.622800
  H      2.502200   -2.855400    2.416100
  H      3.501800   -0.621100    2.474700
  H      4.565300   -1.722300    1.529200
  H      5.579100    0.330400    0.545800
  H      5.505700    1.936500   -1.320300
  H      3.404900    2.289500   -2.579100
  H      1.373600    1.059700   -1.969800

 Total Charge           Charge          ....    0
 Multiplicity           Mult            ....    1
 Number of Electrons    NEL             ....  204
 Basis Dimension        Dim             ....  454

ORBITAL ENERGIES
----------------

  NO   OCC          E(Eh)            E(eV)
   0   2.0000     -19.119810      -520.2765
   1   2.0000     -19.106166      -519.9052
   2   2.0000     -14.364815      -390.8865
   3   2.0000     -14.349661      -390.4741
   4   2.0000     -10.299825      -280.2725
   5   2.0000     -10.282408      -279.7985
   6   2.0000     -10.243757      -278.7468
   7   2.0000     -10.207809      -277.7686
   8   2.0000     -10.203161      -277.6421
   9   2.0000     -10.198938      -277.5272
  10   2.0000     -10.191534      -277.3257
  11   2.0000     -10.191193      -277.3165
  12   2.0000     -10.190622      -277.3009
  13   2.0000     -10.190422      -277.2955
  14   2.0000     -10.189488      -277.2701
  15   2.0000     -10.188976      -277.2561
  16   2.0000     -10.188747      -277.2499
  17   2.0000     -10.188302      -277.2378
  18   2.0000     -10.188005      -277.2297
  19   2.0000     -10.187685      -277.2210
  20   2.0000     -10.168235      -276.6917
  21   2.0000     -10.166351      -276.6405
  22   2.0000     -10.158990      -276.4402
  23   2.0000     -10.158163      -276.4177
  24   2.0000     -10.157307      -276.3944
  25   2.0000     -10.156108      -276.3617
  26   2.0000     -10.156013      -276.3592
  27   2.0000     -10.154516      -276.3184
  28   2.0000     -10.149659      -276.1863
  29   2.0000      -1.021187       -27.7879
  30   2.0000      -1.004373       -27.3304
  31   2.0000      -0.914120       -24.8745
  32   2.0000      -0.888408       -24.1748
  33   2.0000      -0.857893       -23.3445
  34   2.0000      -0.856051       -23.2943
  35   2.0000      -0.834770       -22.7153
  36   2.0000      -0.789279       -21.4774
  37   2.0000      -0.775700       -21.1079
  38   2.0000      -0.762430       -20.7468
  39   2.0000      -0.749195       -20.3866
  40   2.0000      -0.748948       -20.3799
  41   2.0000      -0.737874       -20.0786
  42   2.0000      -0.713811       -19.4238
  43   2.0000      -0.706810       -19.2333
  44   2.0000      -0.687128       -18.6977
  45   2.0000      -0.638042       -17.3620
  46   2.0000      -0.616131       -16.7658
  47   2.0000      -0.612218       -16.6593
  48   2.0000      -0.604751       -16.4561
  49   2.0000      -0.603772       -16.4295
  50   2.0000      -0.584247       -15.8982
  51   2.0000      -0.579949       -15.7812
  52   2.0000      -0.575173       -15.6513
  53   2.0000      -0.549110       -14.9420
  54   2.0000      -0.533422       -14.5152
  55   2.0000      -0.530193       -14.4273
  56   2.0000      -0.521901       -14.2016
  57   2.0000      -0.505920       -13.7668
  58   2.0000      -0.492473       -13.4009
  59   2.0000      -0.485995       -13.2246
  60   2.0000      -0.477489       -12.9931
  61   2.0000      -0.467031       -12.7086
  62   2.0000      -0.455376       -12.3914
  63   2.0000      -0.454382       -12.3644
  64   2.0000      -0.447445       -12.1756
  65   2.0000      -0.442763       -12.0482
  66   2.0000      -0.438603       -11.9350
  67   2.0000      -0.435620       -11.8538
  68   2.0000      -0.430581       -11.7167
  69   2.0000      -0.425462       -11.5774
  70   2.0000      -0.422840       -11.5061
  71   2.0000      -0.411203       -11.1894
  72   2.0000      -0.405743       -11.0408
  73   2.0000      -0.399114       -10.8604
  74   2.0000      -0.396617       -10.7925
  75   2.0000      -0.387598       -10.5471
  76   2.0000      -0.382475       -10.4077
  77   2.0000      -0.378200       -10.2913
  78   2.0000      -0.368384       -10.0243
  79   2.0000      -0.366419        -9.9708
  80   2.0000      -0.362062        -9.8522
  81   2.0000      -0.358091        -9.7441
  82   2.0000      -0.355752        -9.6805
  83   2.0000      -0.350592        -9.5401
  84   2.0000      -0.348247        -9.4763
  85   2.0000      -0.345323        -9.3967
  86   2.0000      -0.340728        -9.2717
  87   2.0000      -0.328881        -8.9493
  88   2.0000      -0.322545        -8.7769
  89   2.0000      -0.312688        -8.5087
  90   2.0000      -0.300121        -8.1667
  91   2.0000      -0.287581        -7.8255
  92   2.0000      -0.272195        -7.4068
  93   2.0000      -0.263461        -7.1691
  94   2.0000      -0.259968        -7.0741
  95   2.0000      -0.255297        -6.9470
  96   2.0000      -0.254893        -6.9360
  97   2.0000      -0.249120        -6.7789
  98   2.0000      -0.234021        -6.3680
  99   2.0000      -0.227217        -6.1829
 100   2.0000      -0.216070        -5.8796
 101   2.0000      -0.207028        -5.6335
 102   0.0000      -0.038323        -1.0428
 103   0.0000      -0.018341        -0.4991
 104   0.0000      -0.007734        -0.2105
 105   0.0000      -0.006984        -0.1900
 106   0.0000       0.007326         0.1993

MULLIKEN ATOMIC CHARGES
-----------------------
   0 N :   -0.764207
   1 C :    0.581819
   2 O :   -0.480773
   3 C :   -0.162000
   4 C :    0.147287
   5 C :   -0.166459
   6 C :   -0.127063
   7 C :   -0.121818
   8 C :   -0.129189
   9 C :   -0.174817
  10 N :   -0.429702
  11 C :    0.458380
  12 O :   -0.462143
  13 C :    0.073232
  14 C :   -0.147507
  15 C :   -0.133173
  16 C :   -0.118103
  17 C :   -0.136017
  18 C :   -0.170608
  19 C :   -0.013519
  20 C :   -0.276864
  21 C :   -0.270604
  22 C :   -0.329575
  23 C :    0.121082
  24 C :   -0.183238
  25 C :   -0.122758
  26 C :   -0.126301
  27 C :   -0.175745
  28 C :    0.085189
  29 H :    0.338054
  30 H :    0.352351
  31 H :    0.153676
  32 H :    0.133657
  33 H :    0.134153
  34 H :    0.132356
  35 H :    0.135418
  36 H :    0.158648
  37 H :    0.153885
  38 H :    0.135618
  39 H :    0.133106
  40 H :    0.133174
  41 H :    0.161008
  42 H :    0.177344
  43 H :    0.163346
  44 H :    0.136973
  45 H :    0.125304
  46 H :    0.123682
  47 H :    0.156548
  48 H :    0.130839
  49 H :    0.113896
  50 H :    0.114949
  51 H :    0.114796
  52 H :    0.142413
Sum of atomic charges:   -0.0000000

LOEWDIN ATOMIC CHARGES
----------------------
   0 N :   -0.397826
   1 C :    0.137906
   2 O :   -0.289432
   3 C :   -0.071581
   4 C :   -0.024898
   5 C :   -0.124646
   6 C :   -0.126605
   7 C :   -0.125356
   8 C :   -0.126669
   9 C :   -0.132490
  10 N :   -0.087329
  11 C :    0.146922
  12 O :   -0.263724
  13 C :   -0.049580
  14 C :   -0.099452
  15 C :   -0.129506
  16 C :   -0.119766
  17 C :   -0.131547
  18 C :   -0.122103
  19 C :   -0.042974
  20 C :   -0.240257
  21 C :   -0.228020
  22 C :   -0.223900
  23 C :   -0.014820
  24 C :   -0.134900
  25 C :   -0.132910
  26 C :   -0.137200
  27 C :   -0.127217
  28 C :   -0.019359
  29 H :    0.254087
  30 H :    0.265861
  31 H :    0.143292
  32 H :    0.133859
  33 H :    0.134361
  34 H :    0.133351
  35 H :    0.134737
  36 H :    0.144621
  37 H :    0.146300
  38 H :    0.134972
  39 H :    0.133456
  40 H :    0.133541
  41 H :    0.143792
  42 H :    0.147105
  43 H :    0.133842
  44 H :    0.123987
  45 H :    0.113346
  46 H :    0.117871
  47 H :    0.133505
  48 H :    0.121793
  49 H :    0.126180
  50 H :    0.125378
  51 H :    0.125571
  52 H :    0.134432

  Mayer bond orders larger than 0.100000
B(  0-N ,  1-C ) :   1.0804 B(  0-N , 29-H ) :   0.8287 B(  0-N , 30-H ) :   0.8215
B(  1-C ,  2-O ) :   1.7934 B(  1-C ,  3-C ) :   0.8983 B(  3-C ,  4-C ) :   0.9540
B(  3-C , 10-N ) :   0.9837 B(  3-C , 31-H ) :   0.8996 B(  4-C ,  5-C ) :   1.4160
B(  4-C ,  9-C ) :   1.4305 B(  5-C ,  6-C ) :   1.4465 B(  5-C , 32-H ) :   0.9242
B(  6-C ,  7-C ) :   1.4477 B(  6-C , 33-H ) :   0.9286 B(  7-C ,  8-C ) :   1.4544
B(  7-C , 34-H ) :   0.9297 B(  8-C ,  9-C ) :   1.4300 B(  8-C , 35-H ) :   0.9290
B(  9-C , 36-H ) :   0.9069 B( 10-N , 11-C ) :   1.0311 B( 10-N , 19-C ) :   0.8794
B( 11-C , 12-O ) :   1.7946 B( 11-C , 13-C ) :   0.9707 B( 13-C , 14-C ) :   1.4061
B( 13-C , 18-C ) :   1.3964 B( 14-C , 15-C ) :   1.4373 B( 14-C , 37-H ) :   0.9184
B( 15-C , 16-C ) :   1.4418 B( 15-C , 38-H ) :   0.9295 B( 16-C , 17-C ) :   1.4527
B( 16-C , 39-H ) :   0.9300 B( 17-C , 18-C ) :   1.4362 B( 17-C , 40-H ) :   0.9295
B( 18-C , 41-H ) :   0.9070 B( 19-C , 20-C ) :   0.9794 B( 19-C , 28-C ) :   0.9784
B( 19-C , 42-H ) :   0.9013 B( 20-C , 21-C ) :   0.9989 B( 20-C , 43-H ) :   0.9221
B( 20-C , 44-H ) :   0.9286 B( 21-C , 22-C ) :   1.0060 B( 21-C , 45-H ) :   0.9403
B( 21-C , 46-H ) :   0.9397 B( 22-C , 23-C ) :   0.9864 B( 22-C , 47-H ) :   0.9219
B( 22-C , 48-H ) :   0.9356 B( 23-C , 24-C ) :   1.4077 B( 23-C , 28-C ) :   1.4431
B( 24-C , 25-C ) :   1.4478 B( 24-C , 49-H ) :   0.9273 B( 25-C , 26-C ) :   1.4420
B( 25-C , 50-H ) :   0.9313 B( 26-C , 27-C ) :   1.4414 B( 26-C , 51-H ) :   0.9323
B( 27-C , 28-C ) :   1.4048 B( 27-C , 52-H ) :   0.9059

FINAL SINGLE POINT ENERGY     -1226.293288160870

DIPOLE MOMENT
-------------

Method             : SCF
Type of density    : Electron Density
Multiplicity       :   1
Irrep              :   0
Energy             : -1226.2932881608696789 Eh
Relativity type    :
Basis              : AO
                                X                 Y                 Z
Electronic contribution:     -3.879731330       5.986178213      -3.655891703
Nuclear contribution   :      1.521306478      -6.154978015       3.203155352
                        -----------------------------------------
Total Dipole Moment    :     -2.358424853      -0.168799802      -0.452736351
                        -----------------------------------------
Magnitude (a.u.)       :      2.407411756
Magnitude (Debye)      :      6.119154386

Rotational constants in cm-1:             0.005956             0.005802             0.003880
Rotational constants in MHz :           178.547455           173.943433           116.305261

                             ****ORCA TERMINATED NORMALLY****
TOTAL RUN TIME: 0 days 0 hours 9 minutes 42 seconds 263 msec
