                         Program Version 6.0.0  -   RELEASE  -
|  1> ! B3LYP 6-31G* SP
|  2>
|  3> * xyz 0 1
|  4> N -1.8557 -2.1350 -2.4047
|  5> C -0.9269 -1.1662 -1.9174
|  6> O -0.5238 -0.2554 -2.6899
|  7> C -0.4315 -1.2498 -0.4898
|  8> C 0.4449 -2.4649 -0.2195
|  9> C 0.5459 -2.9533 1.0965
| 10> C 1.3536 -4.0566 1.3865
| 11> C 2.0723 -4.6859 0.3684
| 12> C 1.9850 -4.2127 -0.9422
| 13> C 1.1794 -3.1093 -1.2385
| 14> N 0.2283 0.0086 -0.0572
| 15> C -0.1574 0.6038 1.2394
| 16> C -1.6481 0.8338 1.3703
| 17> C -2.2626 0.6763 2.6248
| 18> C -3.6307 0.9187 2.7792
| 19> C -4.3966 1.3320 1.6868
| 20> C -3.7946 1.5075 0.4385
| 21> F -4.5385 1.9103 -0.6211
| 22> C -2.4260 1.2679 0.2803
| 23> C 1.4600 0.4504 -0.6854
| 24> O 2.2221 -0.3915 -1.2316
| 25> C 1.8677 1.8749 -0.7081
| 26> C 0.9196 2.8978 -0.8812
| 27> C 1.3211 4.2366 -0.9158
| 28> C 2.6727 4.5661 -0.7902
| 29> C 3.6255 3.5565 -0.6354
| 30> C 3.2277 2.2164 -0.6001
| 31> H -2.1962 -2.9040 -1.7858
| 32> H -2.1999 -2.0870 -3.3892
| 33> H -1.3514 -1.4057 0.1149
| 34> H -0.0077 -2.4836 1.8997
| 35> H 1.4219 -4.4239 2.4022
| 36> H 2.6976 -5.5396 0.5951
| 37> H 2.5454 -4.6995 -1.7301
| 38> H 1.1406 -2.7579 -2.2614
| 39> H 0.3469 1.5766 1.4083
| 40> H 0.1962 -0.0694 2.0491
| 41> H -1.6828 0.3646 3.4849
| 42> H -4.0968 0.7889 3.7474
| 43> H -5.4558 1.5189 1.8093
| 44> H -1.9849 1.4004 -0.6967
| 45> H -0.1260 2.6638 -1.0051
| 46> H 0.5843 5.0188 -1.0465
| 47> H 2.9820 5.6029 -0.8183
| 48> H 4.6733 3.8119 -0.5438
| 49> H 3.9800 1.4471 -0.4766
| 50> *
| 51>
| 52>                          ****END OF INPUT****

CARTESIAN COORDINATES (ANGSTROEM)
---------------------------------
  N     -1.855700   -2.135000   -2.404700
  C     -0.926900   -1.166200   -1.917400
  O     -0.523800   -0.255400   -2.689900
  C     -0.431500   -1.249800   -0.489800
  C      0.444900   -2.464900   -0.219500
  C      0.545900   -2.953300    1.096500
  C      1.353600   -4.056600    1.386500
  C      2.072300   -4.685900    0.368400
  C      1.985000   -4.212700   -0.942200
  C      1.179400   -3.109300   -1.238500
  N      0.228300    0.008600   -0.057200
  C     -0.157400    0.603800    1.239400
  C     -1.648100    0.833800    1.370300
  C     -2.262600    0.676300    2.624800
  C     -3.630700    0.918700    2.779200
  C     -4.396600    1.332000    1.686800
  C     -3.794600    1.507500    0.438500
  F     -4.538500    1.910300   -0.621100
  C     -2.426000    1.267900    0.280300
  C      1.460000    0.450400   -0.685400
  O      2.222100   -0.391500   -1.231600
  C      1.867700    1.874900   -0.708100
  C      0.919600    2.897800   -0.881200
  C      1.321100    4.236600   -0.915800
  C      2.672700    4.566100   -0.790200
  C      3.625500    3.556500   -0.635400
  C      3.227700    2.216400   -0.600100
  H     -2.196200   -2.904000   -1.785800
  H     -2.199900   -2.087000   -3.389200
  H     -1.351400   -1.405700    0.114900
  H     -0.007700   -2.483600    1.899700
  H      1.421900   -4.423900    2.402200
  H      2.697600   -5.539600    0.595100
  H      2.545400   -4.699500   -1.730100
  H      1.140600   -2.757900   -2.261400
  H      0.346900    1.576600    1.408300
  H      0.196200   -0.069400    2.049100
  H     -1.682800    0.364600    3.484900
  H     -4.096800    0.788900    3.747400
  H     -5.455800    1.518900    1.809300
  H     -1.984900    1.400400   -0.696700
  H     -0.126000    2.663800   -1.005100
  H      0.584300    5.018800   -1.046500
  H      2.982000    5.602900   -0.818300
  H      4.673300    3.811900   -0.543800
  H      3.980000    1.447100   -0.476600

 Total Charge           Charge          ....    0
 Multiplicity           Mult            ....    1
 Number of Electrons    NEL             ....  190
 Basis Dimension        Dim             ....  416

ORBITAL ENERGIES
----------------

  NO   OCC          E(Eh)            E(eV)
   0   2.0000     -24.699487      -672.1072
   1   2.0000     -19.109634      -519.9996
   2   2.0000     -19.101751      -519.7851
   3   2.0000     -14.354843      -390.6151
   4   2.0000     -14.351828      -390.5331
   5   2.0000     -10.292274      -280.0670
   6   2.0000     -10.280981      -279.7597
   7   2.0000     -10.272185      -279.5204
   8   2.0000     -10.239399      -278.6282
   9   2.0000     -10.227547      -278.3057
  10   2.0000     -10.205488      -277.7054
  11   2.0000     -10.196302      -277.4555
  12   2.0000     -10.192603      -277.3548
  13   2.0000     -10.191722      -277.3308
  14   2.0000     -10.190555      -277.2991
  15   2.0000     -10.190098      -277.2867
  16   2.0000     -10.189673      -277.2751
  17   2.0000     -10.184162      -277.1251
  18   2.0000     -10.184098      -277.1234
  19   2.0000     -10.183380      -277.1039
  20   2.0000     -10.182005      -277.0664
  21   2.0000     -10.181629      -277.0562
  22   2.0000     -10.179294      -276.9927
  23   2.0000     -10.176573      -276.9186
  24   2.0000     -10.174809      -276.8706
  25   2.0000     -10.173916      -276.8463
  26   2.0000     -10.173202      -276.8269
  27   2.0000      -1.212804       -33.0021
  28   2.0000      -1.012583       -27.5538
  29   2.0000      -0.998713       -27.1764
  30   2.0000      -0.917124       -24.9562
  31   2.0000      -0.879401       -23.9297
  32   2.0000      -0.861367       -23.4390
  33   2.0000      -0.850784       -23.1510
  34   2.0000      -0.843022       -22.9398
  35   2.0000      -0.783187       -21.3116
  36   2.0000      -0.766105       -20.8468
  37   2.0000      -0.751035       -20.4367
  38   2.0000      -0.748415       -20.3654
  39   2.0000      -0.741755       -20.1842
  40   2.0000      -0.735771       -20.0213
  41   2.0000      -0.706976       -19.2378
  42   2.0000      -0.680637       -18.5211
  43   2.0000      -0.628848       -17.1118
  44   2.0000      -0.616696       -16.7812
  45   2.0000      -0.605308       -16.4713
  46   2.0000      -0.601307       -16.3624
  47   2.0000      -0.599704       -16.3188
  48   2.0000      -0.591713       -16.1013
  49   2.0000      -0.574770       -15.6403
  50   2.0000      -0.543607       -14.7923
  51   2.0000      -0.532941       -14.5021
  52   2.0000      -0.524388       -14.2693
  53   2.0000      -0.519327       -14.1316
  54   2.0000      -0.504841       -13.7374
  55   2.0000      -0.498633       -13.5685
  56   2.0000      -0.488676       -13.2975
  57   2.0000      -0.488226       -13.2853
  58   2.0000      -0.469531       -12.7766
  59   2.0000      -0.460321       -12.5260
  60   2.0000      -0.455557       -12.3963
  61   2.0000      -0.451711       -12.2917
  62   2.0000      -0.447450       -12.1757
  63   2.0000      -0.438115       -11.9217
  64   2.0000      -0.437765       -11.9122
  65   2.0000      -0.433494       -11.7960
  66   2.0000      -0.427169       -11.6238
  67   2.0000      -0.420347       -11.4382
  68   2.0000      -0.416898       -11.3444
  69   2.0000      -0.412833       -11.2337
  70   2.0000      -0.409204       -11.1350
  71   2.0000      -0.400547       -10.8995
  72   2.0000      -0.391809       -10.6617
  73   2.0000      -0.384012       -10.4495
  74   2.0000      -0.375082       -10.2065
  75   2.0000      -0.370520       -10.0824
  76   2.0000      -0.364323        -9.9137
  77   2.0000      -0.356261        -9.6944
  78   2.0000      -0.352445        -9.5905
  79   2.0000      -0.351518        -9.5653
  80   2.0000      -0.345910        -9.4127
  81   2.0000      -0.341122        -9.2824
  82   2.0000      -0.339595        -9.2409
  83   2.0000      -0.333400        -9.0723
  84   2.0000      -0.330207        -8.9854
  85   2.0000      -0.267302        -7.2737
  86   2.0000      -0.259564        -7.0631
  87   2.0000      -0.254573        -6.9273
  88   2.0000      -0.249507        -6.7894
  89   2.0000      -0.247542        -6.7360
  90   2.0000      -0.244317        -6.6482
  91   2.0000      -0.243200        -6.6178
  92   2.0000      -0.241784        -6.5793
  93   2.0000      -0.223384        -6.0786
  94   2.0000      -0.218723        -5.9518
  95   0.0000      -0.032144        -0.8747
  96   0.0000      -0.017059        -0.4642
  97   0.0000      -0.005410        -0.1472
  98   0.0000      -0.000001        -0.0000
  99   0.0000       0.001970         0.0536

MULLIKEN ATOMIC CHARGES
-----------------------
   0 N :   -0.765046
   1 C :    0.574301
   2 O :   -0.473115
   3 C :   -0.148094
   4 C :    0.164036
   5 C :   -0.183588
   6 C :   -0.128626
   7 C :   -0.122767
   8 C :   -0.136021
   9 C :   -0.128724
  10 N :   -0.435184
  11 C :   -0.217218
  12 C :    0.132416
  13 C :   -0.190829
  14 C :   -0.112701
  15 C :   -0.208837
  16 C :    0.414940
  17 F :   -0.316175
  18 C :   -0.271354
  19 C :    0.489953
  20 O :   -0.458506
  21 C :    0.062983
  22 C :   -0.152646
  23 C :   -0.134749
  24 C :   -0.117168
  25 C :   -0.132852
  26 C :   -0.146138
  27 H :    0.335209
  28 H :    0.353673
  29 H :    0.166977
  30 H :    0.117469
  31 H :    0.123776
  32 H :    0.124641
  33 H :    0.129568
  34 H :    0.153795
  35 H :    0.189204
  36 H :    0.153768
  37 H :    0.127497
  38 H :    0.139220
  39 H :    0.143506
  40 H :    0.179682
  41 H :    0.151386
  42 H :    0.133395
  43 H :    0.131522
  44 H :    0.133394
  45 H :    0.154024
Sum of atomic charges:    0.0000000

LOEWDIN ATOMIC CHARGES
----------------------
   0 N :   -0.401025
   1 C :    0.144173
   2 O :   -0.280222
   3 C :   -0.066040
   4 C :   -0.021894
   5 C :   -0.139831
   6 C :   -0.133571
   7 C :   -0.129373
   8 C :   -0.129074
   9 C :   -0.106024
  10 N :   -0.106463
  11 C :   -0.147864
  12 C :   -0.027226
  13 C :   -0.147651
  14 C :   -0.118159
  15 C :   -0.161535
  16 C :    0.119062
  17 F :   -0.102622
  18 C :   -0.166946
  19 C :    0.159247
  20 O :   -0.255980
  21 C :   -0.046791
  22 C :   -0.116085
  23 C :   -0.130773
  24 C :   -0.118928
  25 C :   -0.130377
  26 C :   -0.097859
  27 H :    0.252895
  28 H :    0.267170
  29 H :    0.150985
  30 H :    0.124747
  31 H :    0.129448
  32 H :    0.129828
  33 H :    0.132311
  34 H :    0.144424
  35 H :    0.153523
  36 H :    0.121488
  37 H :    0.131520
  38 H :    0.136956
  39 H :    0.142567
  40 H :    0.153793
  41 H :    0.141199
  42 H :    0.133739
  43 H :    0.132751
  44 H :    0.134019
  45 H :    0.146472

  Mayer bond orders larger than 0.100000
B(  0-N ,  1-C ) :   1.0755 B(  0-N , 27-H ) :   0.8293 B(  0-N , 28-H ) :   0.8218
B(  1-C ,  2-O ) :   1.8373 B(  1-C ,  3-C ) :   0.9165 B(  3-C ,  4-C ) :   0.9396
B(  3-C , 10-N ) :   0.9490 B(  3-C , 29-H ) :   0.8982 B(  4-C ,  5-C ) :   1.4223
B(  4-C ,  9-C ) :   1.4325 B(  5-C ,  6-C ) :   1.4391 B(  5-C , 30-H ) :   0.9244
B(  6-C ,  7-C ) :   1.4597 B(  6-C , 31-H ) :   0.9300 B(  7-C ,  8-C ) :   1.4454
B(  7-C , 32-H ) :   0.9307 B(  8-C ,  9-C ) :   1.4428 B(  8-C , 33-H ) :   0.9297
B(  9-C , 34-H ) :   0.9106 B( 10-N , 11-C ) :   0.9510 B( 10-N , 19-C ) :   0.9883
B( 11-C , 12-C ) :   0.9643 B( 11-C , 35-H ) :   0.9035 B( 11-C , 36-H ) :   0.9171
B( 12-C , 13-C ) :   1.4239 B( 12-C , 18-C ) :   1.3964 B( 13-C , 14-C ) :   1.4405
B( 13-C , 37-H ) :   0.9245 B( 14-C , 15-C ) :   1.4360 B( 14-C , 38-H ) :   0.9292
B( 15-C , 16-C ) :   1.3913 B( 15-C , 39-H ) :   0.9213 B( 16-C , 17-F ) :   0.9161
B( 16-C , 18-C ) :   1.3797 B( 18-C , 40-H ) :   0.8914 B( 19-C , 20-O ) :   1.8256
B( 19-C , 21-C ) :   0.9749 B( 21-C , 22-C ) :   1.3990 B( 21-C , 26-C ) :   1.4061
B( 22-C , 23-C ) :   1.4359 B( 22-C , 41-H ) :   0.9111 B( 23-C , 24-C ) :   1.4512
B( 23-C , 42-H ) :   0.9294 B( 24-C , 25-C ) :   1.4417 B( 24-C , 43-H ) :   0.9303
B( 25-C , 26-C ) :   1.4368 B( 25-C , 44-H ) :   0.9300 B( 26-C , 45-H ) :   0.9181

FINAL SINGLE POINT ENERGY     -1208.834174343587

DIPOLE MOMENT
-------------

Method             : SCF
Type of density    : Electron Density
Multiplicity       :   1
Irrep              :   0
Energy             : -1208.8341743435871649 Eh
Relativity type    :
Basis              : AO
                                X                 Y                 Z
Electronic contribution:     -8.585345987       4.831549065      -5.737702273
Nuclear contribution   :      7.668982049      -5.257910522       7.124972286
                        -----------------------------------------
Total Dipole Moment    :     -0.916363938      -0.426361457       1.387270013
                        -----------------------------------------
Magnitude (a.u.)       :      1.716398860
Magnitude (Debye)      :      4.362739189

Rotational constants in cm-1:             0.006491             0.005704             0.003871
Rotational constants in MHz :           194.608977           171.004474           116.063750

                             ****ORCA TERMINATED NORMALLY****
TOTAL RUN TIME: 0 days 0 hours 6 minutes 24 seconds 902 msec
