                         Program Version 6.0.0  -   RELEASE  -
|  1> ! B3LYP 6-31G* SP
|  2>
|  3> * xyz 0 1
|  4> C 9.0045 -1.1831 -1.1738
|  5> C 7.9087 -2.1689 -1.5658
|  6> C 6.5837 -1.7508 -0.9870
|  7> C 5.7347 -0.8972 -1.7050
|  8> C 4.5188 -0.4827 -1.1544
|  9> C 4.1290 -0.9084 0.1294
| 10> C 2.8323 -0.4529 0.6970
| 11> C 2.2304 -1.0034 1.8341
| 12> S 0.7774 -0.2003 2.1007
| 13> C 0.9717 0.8181 0.7755
| 14> N 0.0343 1.8051 0.3230
| 15> C -1.1365 2.2071 1.0510
| 16> O -1.2440 1.9568 2.2823
| 17> C -2.2103 3.0027 0.3637
| 18> C -3.5936 2.4763 0.7074
| 19> C -4.3207 3.2174 1.6521
| 20> C -5.5895 2.8267 2.0443
| 21> C -6.1647 1.6823 1.5134
| 22> C -5.4763 0.8831 0.5693
| 23> C -4.1696 1.2780 0.1590
| 24> C -3.5062 0.4475 -0.7770
| 25> O -2.3335 0.7155 -1.1527
| 26> N -4.1217 -0.6637 -1.2835
| 27> C -3.4013 -1.5194 -2.2474
| 28> C -5.3637 -1.0332 -0.8463
| 29> O -5.8804 -2.1009 -1.2846
| 30> N -6.0486 -0.2651 0.0614
| 31> C -7.4008 -0.6848 0.4926
| 32> N 2.1178 0.5519 0.1149
| 33> C 4.9962 -1.7505 0.8531
| 34> C 6.2117 -2.1640 0.3001
| 35> H 9.9715 -1.5086 -1.6117
| 36> H 9.1098 -1.1435 -0.0683
| 37> H 8.7645 -0.1676 -1.5560
| 38> H 8.1810 -3.1837 -1.2021
| 39> H 7.8431 -2.2219 -2.6746
| 40> H 6.0145 -0.5514 -2.6926
| 41> H 3.8819 0.1695 -1.7386
| 42> H 2.6001 -1.8198 2.4376
| 43> H 0.2073 2.2373 -0.6123
| 44> H -2.0661 3.0292 -0.7357
| 45> H -2.0970 4.0615 0.6828
| 46> H -3.9019 4.1133 2.0945
| 47> H -6.1336 3.4167 2.7710
| 48> H -7.1558 1.4346 1.8641
| 49> H -2.7452 -0.9167 -2.9113
| 50> H -2.7830 -2.2601 -1.6981
| 51> H -4.1016 -2.0571 -2.9215
| 52> H -8.1411 0.1034 0.2376
| 53> H -7.4073 -0.8735 1.5873
| 54> H -7.7515 -1.6169 0.0046
| 55> H 4.7537 -2.0805 1.8530
| 56> H 6.8668 -2.8034 0.8789
| 57> *
| 58>
| 59>                          ****END OF INPUT****

CARTESIAN COORDINATES (ANGSTROEM)
---------------------------------
  C      9.004500   -1.183100   -1.173800
  C      7.908700   -2.168900   -1.565800
  C      6.583700   -1.750800   -0.987000
  C      5.734700   -0.897200   -1.705000
  C      4.518800   -0.482700   -1.154400
  C      4.129000   -0.908400    0.129400
  C      2.832300   -0.452900    0.697000
  C      2.230400   -1.003400    1.834100
  S      0.777400   -0.200300    2.100700
  C      0.971700    0.818100    0.775500
  N      0.034300    1.805100    0.323000
  C     -1.136500    2.207100    1.051000
  O     -1.244000    1.956800    2.282300
  C     -2.210300    3.002700    0.363700
  C     -3.593600    2.476300    0.707400
  C     -4.320700    3.217400    1.652100
  C     -5.589500    2.826700    2.044300
  C     -6.164700    1.682300    1.513400
  C     -5.476300    0.883100    0.569300
  C     -4.169600    1.278000    0.159000
  C     -3.506200    0.447500   -0.777000
  O     -2.333500    0.715500   -1.152700
  N     -4.121700   -0.663700   -1.283500
  C     -3.401300   -1.519400   -2.247400
  C     -5.363700   -1.033200   -0.846300
  O     -5.880400   -2.100900   -1.284600
  N     -6.048600   -0.265100    0.061400
  C     -7.400800   -0.684800    0.492600
  N      2.117800    0.551900    0.114900
  C      4.996200   -1.750500    0.853100
  C      6.211700   -2.164000    0.300100
  H      9.971500   -1.508600   -1.611700
  H      9.109800   -1.143500   -0.068300
  H      8.764500   -0.167600   -1.556000
  H      8.181000   -3.183700   -1.202100
  H      7.843100   -2.221900   -2.674600
  H      6.014500   -0.551400   -2.692600
  H      3.881900    0.169500   -1.738600
  H      2.600100   -1.819800    2.437600
  H      0.207300    2.237300   -0.612300
  H     -2.066100    3.029200   -0.735700
  H     -2.097000    4.061500    0.682800
  H     -3.901900    4.113300    2.094500
  H     -6.133600    3.416700    2.771000
  H     -7.155800    1.434600    1.864100
  H     -2.745200   -0.916700   -2.911300
  H     -2.783000   -2.260100   -1.698100
  H     -4.101600   -2.057100   -2.921500
  H     -8.141100    0.103400    0.237600
  H     -7.407300   -0.873500    1.587300
  H     -7.751500   -1.616900    0.004600
  H      4.753700   -2.080500    1.853000
  H      6.866800   -2.803400    0.878900

 Total Charge           Charge          ....    0
 Multiplicity           Mult            ....    1
 Number of Electrons    NEL             ....  228
 Basis Dimension        Dim             ....  482

ORBITAL ENERGIES
----------------

  NO   OCC          E(Eh)            E(eV)
   0   2.0000     -88.887641     -2418.7557
   1   2.0000     -19.121781      -520.3301
   2   2.0000     -19.115797      -520.1673
   3   2.0000     -19.110097      -520.0122
   4   2.0000     -14.403406      -391.9366
   5   2.0000     -14.397193      -391.7675
   6   2.0000     -14.378494      -391.2587
   7   2.0000     -14.314995      -389.5308
   8   2.0000     -10.326115      -280.9879
   9   2.0000     -10.302406      -280.3427
  10   2.0000     -10.296466      -280.1811
  11   2.0000     -10.274674      -279.5881
  12   2.0000     -10.259867      -279.1852
  13   2.0000     -10.234113      -278.4844
  14   2.0000     -10.226032      -278.2645
  15   2.0000     -10.218657      -278.0638
  16   2.0000     -10.214620      -277.9539
  17   2.0000     -10.209632      -277.8182
  18   2.0000     -10.205529      -277.7066
  19   2.0000     -10.204892      -277.6892
  20   2.0000     -10.201457      -277.5958
  21   2.0000     -10.193474      -277.3785
  22   2.0000     -10.189604      -277.2732
  23   2.0000     -10.182487      -277.0796
  24   2.0000     -10.176074      -276.9050
  25   2.0000     -10.173431      -276.8331
  26   2.0000     -10.172668      -276.8124
  27   2.0000     -10.169976      -276.7391
  28   2.0000     -10.167891      -276.6824
  29   2.0000     -10.167332      -276.6672
  30   2.0000     -10.164606      -276.5930
  31   2.0000      -7.963974      -216.7108
  32   2.0000      -5.927103      -161.2847
  33   2.0000      -5.922884      -161.1699
  34   2.0000      -5.920925      -161.1166
  35   2.0000      -1.069498       -29.1025
  36   2.0000      -1.025709       -27.9110
  37   2.0000      -1.021428       -27.7945
  38   2.0000      -0.971148       -26.4263
  39   2.0000      -0.961951       -26.1760
  40   2.0000      -0.941251       -25.6127
  41   2.0000      -0.900493       -24.5037
  42   2.0000      -0.870264       -23.6811
  43   2.0000      -0.843607       -22.9557
  44   2.0000      -0.798919       -21.7397
  45   2.0000      -0.794467       -21.6185
  46   2.0000      -0.788240       -21.4491
  47   2.0000      -0.781195       -21.2574
  48   2.0000      -0.747394       -20.3376
  49   2.0000      -0.739765       -20.1300
  50   2.0000      -0.730874       -19.8881
  51   2.0000      -0.726224       -19.7616
  52   2.0000      -0.710710       -19.3394
  53   2.0000      -0.690496       -18.7894
  54   2.0000      -0.657369       -17.8879
  55   2.0000      -0.653704       -17.7882
  56   2.0000      -0.624906       -17.0045
  57   2.0000      -0.619890       -16.8681
  58   2.0000      -0.606262       -16.4972
  59   2.0000      -0.591573       -16.0975
  60   2.0000      -0.579718       -15.7749
  61   2.0000      -0.571183       -15.5427
  62   2.0000      -0.555982       -15.1290
  63   2.0000      -0.548970       -14.9382
  64   2.0000      -0.541770       -14.7423
  65   2.0000      -0.516120       -14.0443
  66   2.0000      -0.504626       -13.7316
  67   2.0000      -0.501272       -13.6403
  68   2.0000      -0.496091       -13.4993
  69   2.0000      -0.487209       -13.2576
  70   2.0000      -0.477883       -13.0039
  71   2.0000      -0.473529       -12.8854
  72   2.0000      -0.462309       -12.5801
  73   2.0000      -0.460919       -12.5423
  74   2.0000      -0.451038       -12.2734
  75   2.0000      -0.449899       -12.2424
  76   2.0000      -0.446595       -12.1525
  77   2.0000      -0.441784       -12.0215
  78   2.0000      -0.432737       -11.7754
  79   2.0000      -0.426227       -11.5982
  80   2.0000      -0.415815       -11.3149
  81   2.0000      -0.414332       -11.2745
  82   2.0000      -0.412958       -11.2372
  83   2.0000      -0.408652       -11.1200
  84   2.0000      -0.404039       -10.9945
  85   2.0000      -0.401648       -10.9294
  86   2.0000      -0.400195       -10.8899
  87   2.0000      -0.394509       -10.7351
  88   2.0000      -0.390159       -10.6168
  89   2.0000      -0.387030       -10.5316
  90   2.0000      -0.384827       -10.4717
  91   2.0000      -0.376307       -10.2398
  92   2.0000      -0.372306       -10.1310
  93   2.0000      -0.368795       -10.0354
  94   2.0000      -0.362745        -9.8708
  95   2.0000      -0.359073        -9.7709
  96   2.0000      -0.346273        -9.4226
  97   2.0000      -0.340699        -9.2709
  98   2.0000      -0.335852        -9.1390
  99   2.0000      -0.322260        -8.7691
 100   2.0000      -0.316837        -8.6216
 101   2.0000      -0.315052        -8.5730
 102   2.0000      -0.297821        -8.1041
 103   2.0000      -0.275792        -7.5047
 104   2.0000      -0.274940        -7.4815
 105   2.0000      -0.267334        -7.2745
 106   2.0000      -0.265285        -7.2188
 107   2.0000      -0.260892        -7.0992
 108   2.0000      -0.254064        -6.9134
 109   2.0000      -0.251479        -6.8431
 110   2.0000      -0.237396        -6.4599
 111   2.0000      -0.231780        -6.3071
 112   2.0000      -0.231243        -6.2924
 113   2.0000      -0.192296        -5.2326
 114   0.0000      -0.059542        -1.6202
 115   0.0000      -0.027292        -0.7426
 116   0.0000      -0.017480        -0.4757
 117   0.0000      -0.007072        -0.1924
 118   0.0000       0.011341         0.3086

MULLIKEN ATOMIC CHARGES
-----------------------
   0 C :   -0.423516
   1 C :   -0.336710
   2 C :    0.181109
   3 C :   -0.179560
   4 C :   -0.169472
   5 C :    0.119306
   6 C :    0.213486
   7 C :   -0.407599
   8 S :    0.302190
   9 C :    0.265302
  10 N :   -0.626911
  11 C :    0.588097
  12 O :   -0.463537
  13 C :   -0.437305
  14 C :    0.132535
  15 C :   -0.177318
  16 C :   -0.105460
  17 C :   -0.196382
  18 C :    0.319467
  19 C :    0.009165
  20 C :    0.509961
  21 O :   -0.508566
  22 N :   -0.464388
  23 C :   -0.314087
  24 C :    0.672055
  25 O :   -0.510077
  26 N :   -0.511420
  27 C :   -0.336124
  28 N :   -0.438422
  29 C :   -0.180079
  30 C :   -0.184301
  31 H :    0.137050
  32 H :    0.145513
  33 H :    0.146568
  34 H :    0.136794
  35 H :    0.137457
  36 H :    0.119552
  37 H :    0.144813
  38 H :    0.175371
  39 H :    0.355524
  40 H :    0.178497
  41 H :    0.175787
  42 H :    0.140820
  43 H :    0.145020
  44 H :    0.141444
  45 H :    0.191241
  46 H :    0.182366
  47 H :    0.196027
  48 H :    0.170865
  49 H :    0.174305
  50 H :    0.224089
  51 H :    0.120140
  52 H :    0.119320
Sum of atomic charges:    0.0000000

LOEWDIN ATOMIC CHARGES
----------------------
   0 C :   -0.351157
   1 C :   -0.225512
   2 C :   -0.015267
   3 C :   -0.136610
   4 C :   -0.114952
   5 C :   -0.023340
   6 C :   -0.005612
   7 C :   -0.356430
   8 S :    0.416265
   9 C :   -0.076048
  10 N :   -0.188988
  11 C :    0.160031
  12 O :   -0.266443
  13 C :   -0.241498
  14 C :    0.046003
  15 C :   -0.134602
  16 C :   -0.097519
  17 C :   -0.163845
  18 C :    0.053882
  19 C :   -0.072508
  20 C :    0.115824
  21 O :   -0.295360
  22 N :   -0.019493
  23 C :   -0.258347
  24 C :    0.137146
  25 O :   -0.319227
  26 N :   -0.026537
  27 C :   -0.265163
  28 N :   -0.188682
  29 C :   -0.124997
  30 C :   -0.137134
  31 H :    0.119982
  32 H :    0.123890
  33 H :    0.124499
  34 H :    0.122398
  35 H :    0.122787
  36 H :    0.128118
  37 H :    0.141928
  38 H :    0.157874
  39 H :    0.276550
  40 H :    0.147851
  41 H :    0.147656
  42 H :    0.139200
  43 H :    0.140931
  44 H :    0.140470
  45 H :    0.150414
  46 H :    0.143167
  47 H :    0.153050
  48 H :    0.134658
  49 H :    0.136431
  50 H :    0.167948
  51 H :    0.128257
  52 H :    0.128061

  Mayer bond orders larger than 0.100000
B(  0-C ,  1-C ) :   1.0041 B(  0-C , 31-H ) :   0.9476 B(  0-C , 32-H ) :   0.9512
B(  0-C , 33-H ) :   0.9510 B(  1-C ,  2-C ) :   0.9843 B(  1-C , 34-H ) :   0.9379
B(  1-C , 35-H ) :   0.9380 B(  2-C ,  3-C ) :   1.4263 B(  2-C , 30-C ) :   1.4234
B(  3-C ,  4-C ) :   1.4120 B(  3-C , 36-H ) :   0.9269 B(  4-C ,  5-C ) :   1.3990
B(  4-C , 37-H ) :   0.9139 B(  5-C ,  6-C ) :   1.0556 B(  5-C , 29-C ) :   1.4017
B(  6-C ,  7-C ) :   1.5176 B(  6-C , 28-N ) :   1.2874 B(  7-C ,  8-S ) :   1.1035
B(  7-C ,  9-C ) :   0.1087 B(  7-C , 38-H ) :   0.9024 B(  8-S ,  9-C ) :   1.1787
B(  9-C , 10-N ) :   0.9526 B(  9-C , 28-N ) :   1.4799 B( 10-N , 11-C ) :   1.0275
B( 10-N , 39-H ) :   0.8096 B( 11-C , 12-O ) :   1.8302 B( 11-C , 13-C ) :   0.9384
B( 13-C , 14-C ) :   0.9984 B( 13-C , 40-H ) :   0.9036 B( 13-C , 41-H ) :   0.9112
B( 14-C , 15-C ) :   1.4418 B( 14-C , 19-C ) :   1.3580 B( 15-C , 16-C ) :   1.4041
B( 15-C , 42-H ) :   0.9213 B( 16-C , 17-C ) :   1.4697 B( 16-C , 43-H ) :   0.9256
B( 17-C , 18-C ) :   1.3446 B( 17-C , 44-H ) :   0.9145 B( 18-C , 19-C ) :   1.2858
B( 18-C , 26-N ) :   0.9690 B( 19-C , 20-C ) :   1.0644 B( 20-C , 21-O ) :   1.7316
B( 20-C , 22-N ) :   1.0042 B( 22-N , 23-C ) :   0.9165 B( 22-N , 24-C ) :   1.0385
B( 23-C , 45-H ) :   0.9259 B( 23-C , 46-H ) :   0.9396 B( 23-C , 47-H ) :   0.9249
B( 24-C , 25-O ) :   1.7853 B( 24-C , 26-N ) :   1.0464 B( 26-N , 27-C ) :   0.9345
B( 27-C , 48-H ) :   0.9321 B( 27-C , 49-H ) :   0.9316 B( 27-C , 50-H ) :   0.9140
B( 29-C , 30-C ) :   1.4315 B( 29-C , 51-H ) :   0.9210 B( 30-C , 52-H ) :   0.9259

FINAL SINGLE POINT ENERGY     -1731.736939112192

DIPOLE MOMENT
-------------

Method             : SCF
Type of density    : Electron Density
Multiplicity       :   1
Irrep              :   0
Energy             : -1731.7369391121919762 Eh
Relativity type    :
Basis              : AO
                                X                 Y                 Z
Electronic contribution:    -23.366618307       7.602122481       9.441504992
Nuclear contribution   :     21.941817479      -6.812364974      -9.517867747
                        -----------------------------------------
Total Dipole Moment    :     -1.424800828       0.789757507      -0.076362755
                        -----------------------------------------
Magnitude (a.u.)       :      1.630829724
Magnitude (Debye)      :      4.145239732

Rotational constants in cm-1:             0.010652             0.001667             0.001548
Rotational constants in MHz :           319.328981            49.967867            46.400731

                             ****ORCA TERMINATED NORMALLY****
TOTAL RUN TIME: 0 days 0 hours 8 minutes 17 seconds 696 msec
