                         Program Version 6.0.0  -   RELEASE  -
|  1> ! B3LYP 6-31G* SP
|  2>
|  3> * xyz 0 1
|  4> C -4.2440 -4.3918 1.3362
|  5> C -3.1146 -3.5068 1.8539
|  6> C -3.3326 -2.0755 1.4522
|  7> S -4.1120 -0.9479 2.4342
|  8> C -3.9920 0.3264 1.3408
|  9> C -3.3504 -0.0978 0.1925
| 10> C -2.9860 -1.4702 0.2300
| 11> C -2.2332 -2.1909 -0.8676
| 12> C -0.7753 -1.8209 -0.8921
| 13> O -0.2407 -1.2797 0.1219
| 14> N 0.0130 -2.1408 -2.0534
| 15> C 1.3755 -1.7268 -2.2291
| 16> N 2.0461 -0.9442 -1.3582
| 17> C 3.3204 -0.6830 -1.7712
| 18> C 4.2355 0.1628 -0.9553
| 19> C 3.7556 0.7816 0.2138
| 20> C 4.5957 1.5739 0.9994
| 21> F 4.1019 2.1578 2.1200
| 22> C 5.9368 1.7677 0.6440
| 23> O 6.7218 2.5725 1.4882
| 24> C 8.1222 2.8059 1.3635
| 25> F 8.8164 1.6166 1.5029
| 26> F 8.5226 3.6743 2.3605
| 27> C 6.4269 1.1560 -0.5317
| 28> F 7.7086 1.3209 -0.9429
| 29> C 5.5822 0.3634 -1.3170
| 30> C 3.6579 -1.2710 -2.9990
| 31> S 2.3213 -2.1285 -3.5575
| 32> C -3.1258 0.8424 -0.8234
| 33> O -2.5583 0.4968 -1.8960
| 34> N -3.5249 2.1461 -0.6391
| 35> C -3.3141 3.1381 -1.7087
| 36> C -4.1830 2.5206 0.5143
| 37> O -4.5612 3.7192 0.6571
| 38> N -4.4306 1.6055 1.5109
| 39> C -5.0818 2.0026 2.7708
| 40> H -4.0571 -5.4459 1.6357
| 41> H -4.3029 -4.3413 0.2271
| 42> H -5.2159 -4.0663 1.7681
| 43> H -2.1367 -3.8719 1.4733
| 44> H -3.0821 -3.5771 2.9628
| 45> H -2.3116 -3.2898 -0.7514
| 46> H -2.6972 -1.9625 -1.8496
| 47> H -0.4319 -2.6921 -2.8216
| 48> H 2.7252 0.6562 0.5252
| 49> H 8.3509 3.2741 0.3832
| 50> H 5.9981 -0.0904 -2.2056
| 51> H 4.5997 -1.1988 -3.5264
| 52> H -3.1029 4.1440 -1.2851
| 53> H -4.2210 3.1937 -2.3481
| 54> H -2.4380 2.8800 -2.3428
| 55> H -5.6879 2.9250 2.6505
| 56> H -4.3088 2.1773 3.5492
| 57> H -5.7795 1.2105 3.1189
| 58> *
| 59>
| 60>                          ****END OF INPUT****

CARTESIAN COORDINATES (ANGSTROEM)
---------------------------------
  C     -4.244000   -4.391800    1.336200
  C     -3.114600   -3.506800    1.853900
  C     -3.332600   -2.075500    1.452200
  S     -4.112000   -0.947900    2.434200
  C     -3.992000    0.326400    1.340800
  C     -3.350400   -0.097800    0.192500
  C     -2.986000   -1.470200    0.230000
  C     -2.233200   -2.190900   -0.867600
  C     -0.775300   -1.820900   -0.892100
  O     -0.240700   -1.279700    0.121900
  N      0.013000   -2.140800   -2.053400
  C      1.375500   -1.726800   -2.229100
  N      2.046100   -0.944200   -1.358200
  C      3.320400   -0.683000   -1.771200
  C      4.235500    0.162800   -0.955300
  C      3.755600    0.781600    0.213800
  C      4.595700    1.573900    0.999400
  F      4.101900    2.157800    2.120000
  C      5.936800    1.767700    0.644000
  O      6.721800    2.572500    1.488200
  C      8.122200    2.805900    1.363500
  F      8.816400    1.616600    1.502900
  F      8.522600    3.674300    2.360500
  C      6.426900    1.156000   -0.531700
  F      7.708600    1.320900   -0.942900
  C      5.582200    0.363400   -1.317000
  C      3.657900   -1.271000   -2.999000
  S      2.321300   -2.128500   -3.557500
  C     -3.125800    0.842400   -0.823400
  O     -2.558300    0.496800   -1.896000
  N     -3.524900    2.146100   -0.639100
  C     -3.314100    3.138100   -1.708700
  C     -4.183000    2.520600    0.514300
  O     -4.561200    3.719200    0.657100
  N     -4.430600    1.605500    1.510900
  C     -5.081800    2.002600    2.770800
  H     -4.057100   -5.445900    1.635700
  H     -4.302900   -4.341300    0.227100
  H     -5.215900   -4.066300    1.768100
  H     -2.136700   -3.871900    1.473300
  H     -3.082100   -3.577100    2.962800
  H     -2.311600   -3.289800   -0.751400
  H     -2.697200   -1.962500   -1.849600
  H     -0.431900   -2.692100   -2.821600
  H      2.725200    0.656200    0.525200
  H      8.350900    3.274100    0.383200
  H      5.998100   -0.090400   -2.205600
  H      4.599700   -1.198800   -3.526400
  H     -3.102900    4.144000   -1.285100
  H     -4.221000    3.193700   -2.348100
  H     -2.438000    2.880000   -2.342800
  H     -5.687900    2.925000    2.650500
  H     -4.308800    2.177300    3.549200
  H     -5.779500    1.210500    3.118900

 Total Charge           Charge          ....    0
 Multiplicity           Mult            ....    1
 Number of Electrons    NEL             ....  278
 Basis Dimension        Dim             ....  548

ORBITAL ENERGIES
----------------

  NO   OCC          E(Eh)            E(eV)
   0   2.0000     -88.908362     -2419.3195
   1   2.0000     -88.907380     -2419.2928
   2   2.0000     -24.717289      -672.5916
   3   2.0000     -24.706982      -672.3112
   4   2.0000     -24.700585      -672.1371
   5   2.0000     -24.700460      -672.1337
   6   2.0000     -19.194984      -522.3221
   7   2.0000     -19.115985      -520.1724
   8   2.0000     -19.110341      -520.0188
   9   2.0000     -19.107832      -519.9505
  10   2.0000     -14.409225      -392.0949
  11   2.0000     -14.393384      -391.6639
  12   2.0000     -14.393342      -391.6628
  13   2.0000     -14.327079      -389.8596
  14   2.0000     -10.404090      -283.1097
  15   2.0000     -10.326196      -280.9901
  16   2.0000     -10.303313      -280.3674
  17   2.0000     -10.291567      -280.0478
  18   2.0000     -10.288944      -279.9764
  19   2.0000     -10.284456      -279.8543
  20   2.0000     -10.278491      -279.6920
  21   2.0000     -10.271451      -279.5004
  22   2.0000     -10.265561      -279.3401
  23   2.0000     -10.237535      -278.5775
  24   2.0000     -10.232103      -278.4297
  25   2.0000     -10.219889      -278.0973
  26   2.0000     -10.215828      -277.9868
  27   2.0000     -10.214031      -277.9379
  28   2.0000     -10.212015      -277.8831
  29   2.0000     -10.211078      -277.8575
  30   2.0000     -10.208505      -277.7876
  31   2.0000     -10.205880      -277.7161
  32   2.0000     -10.199890      -277.5531
  33   2.0000     -10.195889      -277.4443
  34   2.0000     -10.191188      -277.3163
  35   2.0000     -10.186710      -277.1945
  36   2.0000      -7.985568      -217.2984
  37   2.0000      -7.985227      -217.2891
  38   2.0000      -5.948826      -161.8758
  39   2.0000      -5.948312      -161.8618
  40   2.0000      -5.944640      -161.7619
  41   2.0000      -5.944190      -161.7496
  42   2.0000      -5.942213      -161.6958
  43   2.0000      -5.941997      -161.6900
  44   2.0000      -1.245816       -33.9004
  45   2.0000      -1.230151       -33.4741
  46   2.0000      -1.212824       -33.0026
  47   2.0000      -1.188352       -32.3367
  48   2.0000      -1.066385       -29.0178
  49   2.0000      -1.065694       -28.9990
  50   2.0000      -1.018273       -27.7086
  51   2.0000      -1.015540       -27.6342
  52   2.0000      -0.978980       -26.6394
  53   2.0000      -0.974396       -26.5147
  54   2.0000      -0.935925       -25.4678
  55   2.0000      -0.913967       -24.8703
  56   2.0000      -0.902954       -24.5706
  57   2.0000      -0.870263       -23.6811
  58   2.0000      -0.814096       -22.1527
  59   2.0000      -0.805321       -21.9139
  60   2.0000      -0.798851       -21.7378
  61   2.0000      -0.786577       -21.4038
  62   2.0000      -0.769894       -20.9499
  63   2.0000      -0.755821       -20.5669
  64   2.0000      -0.739707       -20.1284
  65   2.0000      -0.729939       -19.8626
  66   2.0000      -0.719136       -19.5687
  67   2.0000      -0.703465       -19.1423
  68   2.0000      -0.689559       -18.7639
  69   2.0000      -0.654192       -17.8015
  70   2.0000      -0.641787       -17.4639
  71   2.0000      -0.638502       -17.3745
  72   2.0000      -0.632913       -17.2224
  73   2.0000      -0.623127       -16.9562
  74   2.0000      -0.605339       -16.4721
  75   2.0000      -0.599768       -16.3205
  76   2.0000      -0.575020       -15.6471
  77   2.0000      -0.569725       -15.5030
  78   2.0000      -0.563124       -15.3234
  79   2.0000      -0.557182       -15.1617
  80   2.0000      -0.553863       -15.0714
  81   2.0000      -0.548274       -14.9193
  82   2.0000      -0.530333       -14.4311
  83   2.0000      -0.523218       -14.2375
  84   2.0000      -0.514439       -13.9986
  85   2.0000      -0.509352       -13.8602
  86   2.0000      -0.504982       -13.7413
  87   2.0000      -0.497288       -13.5319
  88   2.0000      -0.491753       -13.3813
  89   2.0000      -0.488870       -13.3028
  90   2.0000      -0.477877       -13.0037
  91   2.0000      -0.471065       -12.8183
  92   2.0000      -0.468262       -12.7420
  93   2.0000      -0.460912       -12.5420
  94   2.0000      -0.458526       -12.4771
  95   2.0000      -0.454154       -12.3581
  96   2.0000      -0.451519       -12.2865
  97   2.0000      -0.447053       -12.1649
  98   2.0000      -0.436970       -11.8905
  99   2.0000      -0.434415       -11.8210
 100   2.0000      -0.430975       -11.7274
 101   2.0000      -0.429849       -11.6968
 102   2.0000      -0.422885       -11.5073
 103   2.0000      -0.422286       -11.4910
 104   2.0000      -0.419509       -11.4154
 105   2.0000      -0.415514       -11.3067
 106   2.0000      -0.409292       -11.1374
 107   2.0000      -0.405374       -11.0308
 108   2.0000      -0.400113       -10.8876
 109   2.0000      -0.397979       -10.8296
 110   2.0000      -0.397821       -10.8253
 111   2.0000      -0.391792       -10.6612
 112   2.0000      -0.390939       -10.6380
 113   2.0000      -0.386284       -10.5113
 114   2.0000      -0.383011       -10.4222
 115   2.0000      -0.379674       -10.3314
 116   2.0000      -0.379176       -10.3179
 117   2.0000      -0.378463       -10.2985
 118   2.0000      -0.372604       -10.1391
 119   2.0000      -0.369663       -10.0590
 120   2.0000      -0.362578        -9.8662
 121   2.0000      -0.360533        -9.8106
 122   2.0000      -0.358078        -9.7438
 123   2.0000      -0.347583        -9.4582
 124   2.0000      -0.344274        -9.3682
 125   2.0000      -0.338965        -9.2237
 126   2.0000      -0.306559        -8.3419
 127   2.0000      -0.302537        -8.2324
 128   2.0000      -0.288983        -7.8636
 129   2.0000      -0.281191        -7.6516
 130   2.0000      -0.271431        -7.3860
 131   2.0000      -0.263937        -7.1821
 132   2.0000      -0.259832        -7.0704
 133   2.0000      -0.248591        -6.7645
 134   2.0000      -0.246872        -6.7177
 135   2.0000      -0.244681        -6.6581
 136   2.0000      -0.235916        -6.4196
 137   2.0000      -0.211093        -5.7441
 138   2.0000      -0.209754        -5.7077
 139   0.0000      -0.040071        -1.0904
 140   0.0000      -0.028535        -0.7765
 141   0.0000      -0.022543        -0.6134
 142   0.0000      -0.012281        -0.3342
 143   0.0000      -0.004237        -0.1153

MULLIKEN ATOMIC CHARGES
-----------------------
   0 C :   -0.427714
   1 C :   -0.317486
   2 C :   -0.166496
   3 S :    0.258342
   4 C :    0.029292
   5 C :    0.056800
   6 C :    0.156951
   7 C :   -0.466515
   8 C :    0.601660
   9 O :   -0.434389
  10 N :   -0.663670
  11 C :    0.264645
  12 N :   -0.378661
  13 C :    0.224012
  14 C :    0.148650
  15 C :   -0.280099
  16 C :    0.393404
  17 F :   -0.302862
  18 C :    0.214083
  19 O :   -0.523946
  20 C :    0.693252
  21 F :   -0.303635
  22 F :   -0.296308
  23 C :    0.378553
  24 F :   -0.313030
  25 C :   -0.283977
  26 C :   -0.398519
  27 S :    0.253020
  28 C :    0.524217
  29 O :   -0.515301
  30 N :   -0.477742
  31 C :   -0.315304
  32 C :    0.681365
  33 O :   -0.508735
  34 N :   -0.458429
  35 C :   -0.340542
  36 H :    0.147149
  37 H :    0.149153
  38 H :    0.152597
  39 H :    0.170139
  40 H :    0.155877
  41 H :    0.166027
  42 H :    0.193250
  43 H :    0.343813
  44 H :    0.201042
  45 H :    0.140227
  46 H :    0.142778
  47 H :    0.182745
  48 H :    0.193897
  49 H :    0.173780
  50 H :    0.198571
  51 H :    0.217532
  52 H :    0.187704
  53 H :    0.178832
Sum of atomic charges:    0.0000000

LOEWDIN ATOMIC CHARGES
----------------------
   0 C :   -0.353426
   1 C :   -0.227928
   2 C :   -0.192216
   3 S :    0.397584
   4 C :   -0.117969
   5 C :   -0.099508
   6 C :   -0.008812
   7 C :   -0.250338
   8 C :    0.167854
   9 O :   -0.248620
  10 N :   -0.208458
  11 C :   -0.074136
  12 N :   -0.152924
  13 C :   -0.000816
  14 C :   -0.012372
  15 C :   -0.140894
  16 C :    0.113266
  17 F :   -0.088725
  18 C :    0.034868
  19 O :   -0.169696
  20 C :    0.238387
  21 F :   -0.135370
  22 F :   -0.118849
  23 C :    0.092377
  24 F :   -0.093753
  25 C :   -0.156681
  26 C :   -0.348161
  27 S :    0.388501
  28 C :    0.118826
  29 O :   -0.306911
  30 N :   -0.025501
  31 C :   -0.259616
  32 C :    0.143160
  33 O :   -0.318075
  34 N :   -0.024197
  35 C :   -0.263666
  36 H :    0.125337
  37 H :    0.123606
  38 H :    0.128208
  39 H :    0.140512
  40 H :    0.136076
  41 H :    0.143240
  42 H :    0.157435
  43 H :    0.265831
  44 H :    0.172693
  45 H :    0.112402
  46 H :    0.144170
  47 H :    0.159778
  48 H :    0.151670
  49 H :    0.138226
  50 H :    0.154500
  51 H :    0.165458
  52 H :    0.142502
  53 H :    0.141153

  Mayer bond orders larger than 0.100000
B(  0-C ,  1-C ) :   0.9997 B(  0-C , 36-H ) :   0.9452 B(  0-C , 37-H ) :   0.9483
B(  0-C , 38-H ) :   0.9492 B(  1-C ,  2-C ) :   0.9902 B(  1-C , 39-H ) :   0.9262
B(  1-C , 40-H ) :   0.9323 B(  2-C ,  3-S ) :   1.0546 B(  2-C ,  6-C ) :   1.5681
B(  3-S ,  4-C ) :   1.1382 B(  4-C ,  5-C ) :   1.3617 B(  4-C , 34-N ) :   0.9807
B(  5-C ,  6-C ) :   1.2867 B(  5-C , 28-C ) :   1.0903 B(  6-C ,  7-C ) :   1.0098
B(  7-C ,  8-C ) :   0.9350 B(  7-C , 41-H ) :   0.9060 B(  7-C , 42-H ) :   0.8976
B(  8-C ,  9-O ) :   1.9027 B(  8-C , 10-N ) :   0.9654 B( 10-N , 11-C ) :   0.9562
B( 10-N , 43-H ) :   0.8220 B( 11-C , 12-N ) :   1.5101 B( 11-C , 26-C ) :   0.1064
B( 11-C , 27-S ) :   1.1384 B( 12-N , 13-C ) :   1.2676 B( 13-C , 14-C ) :   1.0645
B( 13-C , 26-C ) :   1.5117 B( 14-C , 15-C ) :   1.3685 B( 14-C , 25-C ) :   1.3675
B( 15-C , 16-C ) :   1.3698 B( 15-C , 44-H ) :   0.8931 B( 16-C , 17-F ) :   0.9360
B( 16-C , 18-C ) :   1.3046 B( 18-C , 19-O ) :   0.8674 B( 18-C , 23-C ) :   1.2895
B( 19-O , 20-C ) :   0.9436 B( 20-C , 21-F ) :   0.9637 B( 20-C , 22-F ) :   0.9880
B( 20-C , 45-H ) :   0.9075 B( 23-C , 24-F ) :   0.8844 B( 23-C , 25-C ) :   1.4006
B( 25-C , 46-H ) :   0.9093 B( 26-C , 27-S ) :   1.1145 B( 26-C , 47-H ) :   0.9008
B( 28-C , 29-O ) :   1.7438 B( 28-C , 30-N ) :   0.9808 B( 30-N , 31-C ) :   0.9187
B( 30-N , 32-C ) :   1.0432 B( 31-C , 48-H ) :   0.9272 B( 31-C , 49-H ) :   0.9415
B( 31-C , 50-H ) :   0.9222 B( 32-C , 33-O ) :   1.7845 B( 32-C , 34-N ) :   1.0422
B( 34-N , 35-C ) :   0.9297 B( 35-C , 51-H ) :   0.9179 B( 35-C , 52-H ) :   0.9316
B( 35-C , 53-H ) :   0.9245

FINAL SINGLE POINT ENERGY     -2563.725821557131

DIPOLE MOMENT
-------------

Method             : SCF
Type of density    : Electron Density
Multiplicity       :   1
Irrep              :   0
Energy             : -2563.7258215571305300 Eh
Relativity type    :
Basis              : AO
                                X                 Y                 Z
Electronic contribution:     62.839405031      18.719501382       2.876523215
Nuclear contribution   :    -64.620402663     -20.658913676      -3.970051285
                        -----------------------------------------
Total Dipole Moment    :     -1.780997632      -1.939412294      -1.093528070
                        -----------------------------------------
Magnitude (a.u.)       :      2.851153495
Magnitude (Debye)      :      7.247056251

Rotational constants in cm-1:             0.004472             0.001312             0.001178
Rotational constants in MHz :           134.075878            39.346848            35.328306

                             ****ORCA TERMINATED NORMALLY****
TOTAL RUN TIME: 0 days 0 hours 6 minutes 59 seconds 879 msec
