                         Program Version 6.0.0  -   RELEASE  -
|  1> ! B3LYP 6-31G* SP
|  2>
|  3> * xyz 0 1
|  4> C -0.0987 2.5251 -2.6299
|  5> C -0.3862 1.8692 -1.2707
|  6> C 0.4685 2.4199 -0.1362
|  7> C -0.0602 2.4352 1.1682
|  8> C 0.7242 2.8449 2.2499
|  9> C 2.0470 3.2420 2.0453
| 10> F 2.8101 3.6267 3.0976
| 11> C 2.5865 3.2333 0.7575
| 12> C 1.8072 2.8230 -0.3281
| 13> N -0.2897 0.3930 -1.3744
| 14> C 1.0292 -0.2702 -1.2989
| 15> C 1.4862 -0.4679 0.1304
| 16> C 0.5812 -0.8112 1.1493
| 17> C 1.0239 -0.9676 2.4633
| 18> C 2.3722 -0.7912 2.7773
| 19> C 3.2984 -0.4654 1.7731
| 20> C 4.7259 -0.2700 2.1102
| 21> O 5.5578 0.0362 1.2137
| 22> O 5.1636 -0.4198 3.4237
| 23> C 2.8474 -0.3195 0.4485
| 24> C -1.4715 -0.3578 -1.7579
| 25> O -2.4754 0.2564 -2.2150
| 26> C -1.5222 -1.8674 -1.6997
| 27> C -2.9034 -2.3590 -1.3506
| 28> C -3.8084 -2.7162 -2.3644
| 29> C -5.0992 -3.1425 -2.0377
| 30> C -5.4989 -3.2078 -0.7000
| 31> C -4.6087 -2.8423 0.3152
| 32> Cl -5.1144 -2.9130 1.9933
| 33> C -3.3159 -2.4153 -0.0084
| 34> H -0.8833 2.2347 -3.3605
| 35> H -0.1084 3.6318 -2.5324
| 36> H 0.8805 2.2027 -3.0394
| 37> H -1.4358 2.1475 -1.0238
| 38> H -1.0757 2.1058 1.3514
| 39> H 0.3080 2.8426 3.2489
| 40> H 3.6152 3.5309 0.6004
| 41> H 2.2646 2.7989 -1.3069
| 42> H 1.0272 -1.2483 -1.8210
| 43> H 1.7723 0.3424 -1.8517
| 44> H -0.4725 -0.9246 0.9415
| 45> H 0.3166 -1.2166 3.2437
| 46> H 2.6880 -0.9093 3.8060
| 47> H 6.1385 -0.2876 3.6653
| 48> H 3.5510 -0.0680 -0.3361
| 49> H -0.8131 -2.2636 -0.9454
| 50> H -1.2075 -2.2720 -2.6856
| 51> H -3.5153 -2.6625 -3.4055
| 52> H -5.7914 -3.4198 -2.8224
| 53> H -6.5002 -3.5382 -0.4542
| 54> H -2.6352 -2.1276 0.7830
| 55> *
| 56>
| 57>                          ****END OF INPUT****

CARTESIAN COORDINATES (ANGSTROEM)
---------------------------------
  C     -0.098700    2.525100   -2.629900
  C     -0.386200    1.869200   -1.270700
  C      0.468500    2.419900   -0.136200
  C     -0.060200    2.435200    1.168200
  C      0.724200    2.844900    2.249900
  C      2.047000    3.242000    2.045300
  F      2.810100    3.626700    3.097600
  C      2.586500    3.233300    0.757500
  C      1.807200    2.823000   -0.328100
  N     -0.289700    0.393000   -1.374400
  C      1.029200   -0.270200   -1.298900
  C      1.486200   -0.467900    0.130400
  C      0.581200   -0.811200    1.149300
  C      1.023900   -0.967600    2.463300
  C      2.372200   -0.791200    2.777300
  C      3.298400   -0.465400    1.773100
  C      4.725900   -0.270000    2.110200
  O      5.557800    0.036200    1.213700
  O      5.163600   -0.419800    3.423700
  C      2.847400   -0.319500    0.448500
  C     -1.471500   -0.357800   -1.757900
  O     -2.475400    0.256400   -2.215000
  C     -1.522200   -1.867400   -1.699700
  C     -2.903400   -2.359000   -1.350600
  C     -3.808400   -2.716200   -2.364400
  C     -5.099200   -3.142500   -2.037700
  C     -5.498900   -3.207800   -0.700000
  C     -4.608700   -2.842300    0.315200
  Cl    -5.114400   -2.913000    1.993300
  C     -3.315900   -2.415300   -0.008400
  H     -0.883300    2.234700   -3.360500
  H     -0.108400    3.631800   -2.532400
  H      0.880500    2.202700   -3.039400
  H     -1.435800    2.147500   -1.023800
  H     -1.075700    2.105800    1.351400
  H      0.308000    2.842600    3.248900
  H      3.615200    3.530900    0.600400
  H      2.264600    2.798900   -1.306900
  H      1.027200   -1.248300   -1.821000
  H      1.772300    0.342400   -1.851700
  H     -0.472500   -0.924600    0.941500
  H      0.316600   -1.216600    3.243700
  H      2.688000   -0.909300    3.806000
  H      6.138500   -0.287600    3.665300
  H      3.551000   -0.068000   -0.336100
  H     -0.813100   -2.263600   -0.945400
  H     -1.207500   -2.272000   -2.685600
  H     -3.515300   -2.662500   -3.405500
  H     -5.791400   -3.419800   -2.822400
  H     -6.500200   -3.538200   -0.454200
  H     -2.635200   -2.127600    0.783000

 Total Charge           Charge          ....    0
 Multiplicity           Mult            ....    1
 Number of Electrons    NEL             ....  222
 Basis Dimension        Dim             ....  466

ORBITAL ENERGIES
----------------

  NO   OCC          E(Eh)            E(eV)
   0   2.0000    -101.527032     -2762.6910
   1   2.0000     -24.699068      -672.0958
   2   2.0000     -19.183484      -522.0091
   3   2.0000     -19.124579      -520.4062
   4   2.0000     -19.113850      -520.1143
   5   2.0000     -14.364159      -390.8686
   6   2.0000     -10.322118      -280.8791
   7   2.0000     -10.295043      -280.1423
   8   2.0000     -10.269900      -279.4582
   9   2.0000     -10.246628      -278.8249
  10   2.0000     -10.237566      -278.5783
  11   2.0000     -10.228167      -278.3226
  12   2.0000     -10.210904      -277.8528
  13   2.0000     -10.208878      -277.7977
  14   2.0000     -10.206726      -277.7391
  15   2.0000     -10.205366      -277.7021
  16   2.0000     -10.198776      -277.5228
  17   2.0000     -10.198391      -277.5123
  18   2.0000     -10.197134      -277.4781
  19   2.0000     -10.196160      -277.4516
  20   2.0000     -10.195401      -277.4310
  21   2.0000     -10.194035      -277.3938
  22   2.0000     -10.193886      -277.3897
  23   2.0000     -10.193390      -277.3762
  24   2.0000     -10.193273      -277.3731
  25   2.0000     -10.192467      -277.3511
  26   2.0000     -10.191224      -277.3173
  27   2.0000     -10.190514      -277.2980
  28   2.0000     -10.188468      -277.2423
  29   2.0000     -10.173094      -276.8240
  30   2.0000      -9.458984      -257.3920
  31   2.0000      -7.221965      -196.5197
  32   2.0000      -7.212587      -196.2645
  33   2.0000      -7.212322      -196.2572
  34   2.0000      -1.211983       -32.9797
  35   2.0000      -1.068489       -29.0751
  36   2.0000      -1.014477       -27.6053
  37   2.0000      -0.982562       -26.7369
  38   2.0000      -0.927457       -25.2374
  39   2.0000      -0.887637       -24.1538
  40   2.0000      -0.866605       -23.5815
  41   2.0000      -0.859515       -23.3886
  42   2.0000      -0.839909       -22.8551
  43   2.0000      -0.795809       -21.6551
  44   2.0000      -0.786330       -21.3971
  45   2.0000      -0.771740       -21.0001
  46   2.0000      -0.764774       -20.8106
  47   2.0000      -0.755062       -20.5463
  48   2.0000      -0.737849       -20.0779
  49   2.0000      -0.724320       -19.7097
  50   2.0000      -0.712307       -19.3829
  51   2.0000      -0.691480       -18.8161
  52   2.0000      -0.663348       -18.0506
  53   2.0000      -0.642275       -17.4772
  54   2.0000      -0.620865       -16.8946
  55   2.0000      -0.613485       -16.6938
  56   2.0000      -0.605059       -16.4645
  57   2.0000      -0.600330       -16.3358
  58   2.0000      -0.595074       -16.1928
  59   2.0000      -0.580385       -15.7931
  60   2.0000      -0.548748       -14.9322
  61   2.0000      -0.539947       -14.6927
  62   2.0000      -0.527510       -14.3543
  63   2.0000      -0.515621       -14.0308
  64   2.0000      -0.505254       -13.7487
  65   2.0000      -0.496136       -13.5005
  66   2.0000      -0.495338       -13.4788
  67   2.0000      -0.485642       -13.2150
  68   2.0000      -0.481470       -13.1015
  69   2.0000      -0.464396       -12.6368
  70   2.0000      -0.463594       -12.6150
  71   2.0000      -0.455182       -12.3861
  72   2.0000      -0.454829       -12.3765
  73   2.0000      -0.452442       -12.3116
  74   2.0000      -0.449846       -12.2409
  75   2.0000      -0.442045       -12.0287
  76   2.0000      -0.437124       -11.8947
  77   2.0000      -0.431771       -11.7491
  78   2.0000      -0.429489       -11.6870
  79   2.0000      -0.428900       -11.6710
  80   2.0000      -0.423145       -11.5144
  81   2.0000      -0.421164       -11.4605
  82   2.0000      -0.413420       -11.2497
  83   2.0000      -0.410264       -11.1638
  84   2.0000      -0.399832       -10.8800
  85   2.0000      -0.392875       -10.6907
  86   2.0000      -0.388404       -10.5690
  87   2.0000      -0.384373       -10.4593
  88   2.0000      -0.379234       -10.3195
  89   2.0000      -0.374032       -10.1779
  90   2.0000      -0.368237       -10.0202
  91   2.0000      -0.362991        -9.8775
  92   2.0000      -0.360037        -9.7971
  93   2.0000      -0.355793        -9.6816
  94   2.0000      -0.351521        -9.5654
  95   2.0000      -0.349767        -9.5176
  96   2.0000      -0.344479        -9.3738
  97   2.0000      -0.340635        -9.2692
  98   2.0000      -0.330663        -8.9978
  99   2.0000      -0.326099        -8.8736
 100   2.0000      -0.310469        -8.4483
 101   2.0000      -0.305637        -8.3168
 102   2.0000      -0.270639        -7.3645
 103   2.0000      -0.264173        -7.1885
 104   2.0000      -0.262137        -7.1331
 105   2.0000      -0.259063        -7.0495
 106   2.0000      -0.249828        -6.7982
 107   2.0000      -0.248204        -6.7540
 108   2.0000      -0.242243        -6.5918
 109   2.0000      -0.236464        -6.4345
 110   2.0000      -0.232411        -6.3242
 111   0.0000      -0.056412        -1.5351
 112   0.0000      -0.023598        -0.6421
 113   0.0000      -0.013976        -0.3803
 114   0.0000      -0.012468        -0.3393
 115   0.0000      -0.010350        -0.2816

MULLIKEN ATOMIC CHARGES
-----------------------
   0 C :   -0.452986
   1 C :   -0.037923
   2 C :    0.124881
   3 C :   -0.152744
   4 C :   -0.202798
   5 C :    0.413102
   6 F :   -0.317927
   7 C :   -0.206808
   8 C :   -0.160045
   9 N :   -0.414228
  10 C :   -0.249977
  11 C :    0.168318
  12 C :   -0.156247
  13 C :   -0.132052
  14 C :   -0.158525
  15 C :    0.086944
  16 C :    0.522080
  17 O :   -0.457687
  18 O :   -0.625363
  19 C :   -0.202891
  20 C :    0.550064
  21 O :   -0.474813
  22 C :   -0.471994
  23 C :    0.197021
  24 C :   -0.155036
  25 C :   -0.118989
  26 C :   -0.131040
  27 C :   -0.063137
  28 Cl:   -0.023214
  29 C :   -0.174822
  30 H :    0.175641
  31 H :    0.150374
  32 H :    0.134327
  33 H :    0.173959
  34 H :    0.140072
  35 H :    0.143965
  36 H :    0.151233
  37 H :    0.135389
  38 H :    0.178246
  39 H :    0.164056
  40 H :    0.139403
  41 H :    0.136990
  42 H :    0.157565
  43 H :    0.428913
  44 H :    0.155101
  45 H :    0.163295
  46 H :    0.182048
  47 H :    0.133631
  48 H :    0.140226
  49 H :    0.149666
  50 H :    0.144735
Sum of atomic charges:   -0.0000000

LOEWDIN ATOMIC CHARGES
----------------------
   0 C :   -0.361653
   1 C :   -0.047994
   2 C :   -0.035522
   3 C :   -0.112769
   4 C :   -0.153098
   5 C :    0.119110
   6 F :   -0.103535
   7 C :   -0.153203
   8 C :   -0.124738
   9 N :   -0.101295
  10 C :   -0.149241
  11 C :   -0.027219
  12 C :   -0.114280
  13 C :   -0.128079
  14 C :   -0.104726
  15 C :   -0.054870
  16 C :    0.179587
  17 O :   -0.274561
  18 O :   -0.337039
  19 C :   -0.091916
  20 C :    0.142502
  21 O :   -0.285302
  22 C :   -0.249081
  23 C :    0.002675
  24 C :   -0.119965
  25 C :   -0.118108
  26 C :   -0.134893
  27 C :   -0.084886
  28 Cl:    0.032578
  29 C :   -0.137461
  30 H :    0.141012
  31 H :    0.130122
  32 H :    0.116926
  33 H :    0.147803
  34 H :    0.137229
  35 H :    0.142990
  36 H :    0.146090
  37 H :    0.135190
  38 H :    0.143241
  39 H :    0.133229
  40 H :    0.132223
  41 H :    0.135878
  42 H :    0.146932
  43 H :    0.346200
  44 H :    0.147596
  45 H :    0.138608
  46 H :    0.152794
  47 H :    0.135562
  48 H :    0.138288
  49 H :    0.143570
  50 H :    0.137500

  Mayer bond orders larger than 0.100000
B(  0-C ,  1-C ) :   0.9884 B(  0-C , 30-H ) :   0.9361 B(  0-C , 31-H ) :   0.9428
B(  0-C , 32-H ) :   0.9404 B(  1-C ,  2-C ) :   0.9714 B(  1-C ,  9-N ) :   0.9138
B(  1-C , 33-H ) :   0.9099 B(  2-C ,  3-C ) :   1.4218 B(  2-C ,  8-C ) :   1.4194
B(  3-C ,  4-C ) :   1.4223 B(  3-C , 34-H ) :   0.9234 B(  4-C ,  5-C ) :   1.3910
B(  4-C , 35-H ) :   0.9205 B(  5-C ,  6-F ) :   0.9179 B(  5-C ,  7-C ) :   1.3937
B(  7-C ,  8-C ) :   1.4172 B(  7-C , 36-H ) :   0.9190 B(  8-C , 37-H ) :   0.9207
B(  9-N , 10-C ) :   0.9522 B(  9-N , 20-C ) :   1.0574 B( 10-C , 11-C ) :   0.9470
B( 10-C , 38-H ) :   0.9138 B( 10-C , 39-H ) :   0.9172 B( 11-C , 12-C ) :   1.4181
B( 11-C , 19-C ) :   1.3995 B( 12-C , 13-C ) :   1.4393 B( 12-C , 40-H ) :   0.9093
B( 13-C , 14-C ) :   1.4267 B( 13-C , 41-H ) :   0.9290 B( 14-C , 15-C ) :   1.3889
B( 14-C , 42-H ) :   0.9173 B( 15-C , 16-C ) :   1.0111 B( 15-C , 19-C ) :   1.3874
B( 16-C , 17-O ) :   1.8530 B( 16-C , 18-O ) :   1.0199 B( 18-O , 43-H ) :   0.7449
B( 19-C , 44-H ) :   0.9079 B( 20-C , 21-O ) :   1.8108 B( 20-C , 22-C ) :   0.9381
B( 22-C , 23-C ) :   0.9773 B( 22-C , 45-H ) :   0.9137 B( 22-C , 46-H ) :   0.9149
B( 23-C , 24-C ) :   1.4355 B( 23-C , 29-C ) :   1.4315 B( 24-C , 25-C ) :   1.4382
B( 24-C , 47-H ) :   0.9238 B( 25-C , 26-C ) :   1.4497 B( 25-C , 48-H ) :   0.9272
B( 26-C , 27-C ) :   1.4199 B( 26-C , 49-H ) :   0.9242 B( 27-C , 28-Cl) :   1.0076
B( 27-C , 29-C ) :   1.4080 B( 29-C , 50-H ) :   0.9147

FINAL SINGLE POINT ENERGY     -1766.804686206726

DIPOLE MOMENT
-------------

Method             : SCF
Type of density    : Electron Density
Multiplicity       :   1
Irrep              :   0
Energy             : -1766.8046862067260463 Eh
Relativity type    :
Basis              : AO
                                X                 Y                 Z
Electronic contribution:     -4.145986534      -4.100064731      19.441195701
Nuclear contribution   :      4.562637290       3.551236368     -19.649687336
                        -----------------------------------------
Total Dipole Moment    :      0.416650756      -0.548828363      -0.208491634
                        -----------------------------------------
Magnitude (a.u.)       :      0.719916096
Magnitude (Debye)      :      1.829881294

Rotational constants in cm-1:             0.007695             0.002581             0.002365
Rotational constants in MHz :           230.693973            77.365678            70.894901

                             ****ORCA TERMINATED NORMALLY****
TOTAL RUN TIME: 0 days 0 hours 6 minutes 36 seconds 123 msec
