                         Program Version 6.0.0  -   RELEASE  -
|  1> ! B3LYP 6-31G* SP
|  2>
|  3> * xyz 0 1
|  4> C -1.2502 -2.7683 1.3362
|  5> C -0.2635 -3.0105 0.2154
|  6> C 0.2894 -1.9256 -0.5076
|  7> N -0.0265 -0.5664 -0.1776
|  8> C -0.5914 0.3013 -1.2140
|  9> C -1.7358 1.1010 -0.6692
| 10> S -3.1522 0.4163 -0.0455
| 11> C -3.8796 1.8839 0.3196
| 12> C -5.1311 2.1015 0.8906
| 13> C -5.5414 3.4256 1.1048
| 14> C -4.6994 4.4971 0.7488
| 15> C -3.4417 4.2547 0.1694
| 16> C -3.0368 2.9285 -0.0364
| 17> C -1.8252 2.4967 -0.5995
| 18> Cl -0.5787 3.5934 -1.1844
| 19> S 0.7108 0.1430 1.2310
| 20> O -0.3530 0.7673 2.0908
| 21> O 1.4149 -0.9154 2.0338
| 22> C 1.8921 1.3468 0.7336
| 23> C 2.9523 0.9691 -0.0969
| 24> C 3.8915 1.9156 -0.5146
| 25> C 3.7815 3.2575 -0.1069
| 26> C 4.7699 4.2654 -0.5512
| 27> O 5.7327 3.9309 -1.2916
| 28> O 4.6462 5.5941 -0.1549
| 29> C 2.7154 3.6294 0.7299
| 30> C 1.7783 2.6797 1.1482
| 31> N 1.1321 -2.1604 -1.5481
| 32> C 1.4941 -3.4095 -1.9260
| 33> C 1.0028 -4.5211 -1.2380
| 34> C 1.3829 -5.8160 -1.6231
| 35> C 0.8939 -6.9246 -0.9329
| 36> C 0.0258 -6.7511 0.1448
| 37> C -0.3620 -5.4678 0.5385
| 38> C 0.1166 -4.3295 -0.1483
| 39> H -0.7989 -3.0764 2.3030
| 40> H -1.5562 -1.7081 1.4224
| 41> H -2.1784 -3.3499 1.1526
| 42> H -0.9820 -0.3099 -2.0556
| 43> H 0.2041 0.9561 -1.6228
| 44> H -5.7716 1.2722 1.1593
| 45> H -6.5099 3.6253 1.5454
| 46> H -5.0273 5.5153 0.9139
| 47> H -2.8042 5.0844 -0.1067
| 48> H 3.0493 -0.0586 -0.4239
| 49> H 4.7006 1.5976 -1.1593
| 50> H 5.3181 6.2920 -0.4519
| 51> H 2.6026 4.6549 1.0592
| 52> H 0.9609 2.9899 1.7861
| 53> H 2.1698 -3.5305 -2.7636
| 54> H 2.0576 -5.9694 -2.4570
| 55> H 1.1900 -7.9210 -1.2329
| 56> H -0.3479 -7.6144 0.6796
| 57> H -1.0314 -5.3826 1.3836
| 58> *
| 59>
| 60>                          ****END OF INPUT****

CARTESIAN COORDINATES (ANGSTROEM)
---------------------------------
  C     -1.250200   -2.768300    1.336200
  C     -0.263500   -3.010500    0.215400
  C      0.289400   -1.925600   -0.507600
  N     -0.026500   -0.566400   -0.177600
  C     -0.591400    0.301300   -1.214000
  C     -1.735800    1.101000   -0.669200
  S     -3.152200    0.416300   -0.045500
  C     -3.879600    1.883900    0.319600
  C     -5.131100    2.101500    0.890600
  C     -5.541400    3.425600    1.104800
  C     -4.699400    4.497100    0.748800
  C     -3.441700    4.254700    0.169400
  C     -3.036800    2.928500   -0.036400
  C     -1.825200    2.496700   -0.599500
  Cl    -0.578700    3.593400   -1.184400
  S      0.710800    0.143000    1.231000
  O     -0.353000    0.767300    2.090800
  O      1.414900   -0.915400    2.033800
  C      1.892100    1.346800    0.733600
  C      2.952300    0.969100   -0.096900
  C      3.891500    1.915600   -0.514600
  C      3.781500    3.257500   -0.106900
  C      4.769900    4.265400   -0.551200
  O      5.732700    3.930900   -1.291600
  O      4.646200    5.594100   -0.154900
  C      2.715400    3.629400    0.729900
  C      1.778300    2.679700    1.148200
  N      1.132100   -2.160400   -1.548100
  C      1.494100   -3.409500   -1.926000
  C      1.002800   -4.521100   -1.238000
  C      1.382900   -5.816000   -1.623100
  C      0.893900   -6.924600   -0.932900
  C      0.025800   -6.751100    0.144800
  C     -0.362000   -5.467800    0.538500
  C      0.116600   -4.329500   -0.148300
  H     -0.798900   -3.076400    2.303000
  H     -1.556200   -1.708100    1.422400
  H     -2.178400   -3.349900    1.152600
  H     -0.982000   -0.309900   -2.055600
  H      0.204100    0.956100   -1.622800
  H     -5.771600    1.272200    1.159300
  H     -6.509900    3.625300    1.545400
  H     -5.027300    5.515300    0.913900
  H     -2.804200    5.084400   -0.106700
  H      3.049300   -0.058600   -0.423900
  H      4.700600    1.597600   -1.159300
  H      5.318100    6.292000   -0.451900
  H      2.602600    4.654900    1.059200
  H      0.960900    2.989900    1.786100
  H      2.169800   -3.530500   -2.763600
  H      2.057600   -5.969400   -2.457000
  H      1.190000   -7.921000   -1.232900
  H     -0.347900   -7.614400    0.679600
  H     -1.031400   -5.382600    1.383600

 Total Charge           Charge          ....    0
 Multiplicity           Mult            ....    1
 Number of Electrons    NEL             ....  270
 Basis Dimension        Dim             ....  540

ORBITAL ENERGIES
----------------

  NO   OCC          E(Eh)            E(eV)
   0   2.0000    -101.536251     -2762.9418
   1   2.0000     -89.096094     -2424.4280
   2   2.0000     -88.888886     -2418.7896
   3   2.0000     -19.192934      -522.2663
   4   2.0000     -19.134443      -520.6747
   5   2.0000     -19.125449      -520.4299
   6   2.0000     -19.123921      -520.3883
   7   2.0000     -14.374274      -391.1439
   8   2.0000     -14.333111      -390.0238
   9   2.0000     -10.331774      -281.1419
  10   2.0000     -10.258261      -279.1415
  11   2.0000     -10.245368      -278.7906
  12   2.0000     -10.242618      -278.7158
  13   2.0000     -10.237075      -278.5650
  14   2.0000     -10.227476      -278.3038
  15   2.0000     -10.225315      -278.2450
  16   2.0000     -10.225289      -278.2443
  17   2.0000     -10.215532      -277.9788
  18   2.0000     -10.214242      -277.9437
  19   2.0000     -10.212738      -277.9027
  20   2.0000     -10.212548      -277.8976
  21   2.0000     -10.211749      -277.8758
  22   2.0000     -10.207992      -277.7736
  23   2.0000     -10.205018      -277.6927
  24   2.0000     -10.199645      -277.5464
  25   2.0000     -10.197093      -277.4770
  26   2.0000     -10.196720      -277.4669
  27   2.0000     -10.195069      -277.4219
  28   2.0000     -10.194549      -277.4078
  29   2.0000     -10.194540      -277.4075
  30   2.0000     -10.193378      -277.3759
  31   2.0000     -10.188208      -277.2352
  32   2.0000     -10.186611      -277.1918
  33   2.0000     -10.184942      -277.1464
  34   2.0000     -10.171642      -276.7844
  35   2.0000      -9.467265      -257.6174
  36   2.0000      -8.132037      -221.2840
  37   2.0000      -7.966284      -216.7736
  38   2.0000      -7.230439      -196.7503
  39   2.0000      -7.220793      -196.4878
  40   2.0000      -7.220701      -196.4853
  41   2.0000      -6.097242      -165.9144
  42   2.0000      -6.094918      -165.8511
  43   2.0000      -6.094593      -165.8423
  44   2.0000      -5.929610      -161.3529
  45   2.0000      -5.925693      -161.2463
  46   2.0000      -5.922475      -161.1587
  47   2.0000      -1.082837       -29.4655
  48   2.0000      -1.077819       -29.3289
  49   2.0000      -0.991999       -26.9937
  50   2.0000      -0.965375       -26.2692
  51   2.0000      -0.961039       -26.1512
  52   2.0000      -0.924800       -25.1651
  53   2.0000      -0.911184       -24.7946
  54   2.0000      -0.885645       -24.0996
  55   2.0000      -0.863717       -23.5029
  56   2.0000      -0.859048       -23.3759
  57   2.0000      -0.831498       -22.6262
  58   2.0000      -0.807437       -21.9715
  59   2.0000      -0.801531       -21.8108
  60   2.0000      -0.777207       -21.1489
  61   2.0000      -0.771256       -20.9869
  62   2.0000      -0.764158       -20.7938
  63   2.0000      -0.762118       -20.7383
  64   2.0000      -0.738970       -20.1084
  65   2.0000      -0.715236       -19.4626
  66   2.0000      -0.706817       -19.2335
  67   2.0000      -0.694603       -18.9011
  68   2.0000      -0.683807       -18.6073
  69   2.0000      -0.651320       -17.7233
  70   2.0000      -0.643010       -17.4972
  71   2.0000      -0.635058       -17.2808
  72   2.0000      -0.618025       -16.8173
  73   2.0000      -0.609789       -16.5932
  74   2.0000      -0.594362       -16.1734
  75   2.0000      -0.593447       -16.1485
  76   2.0000      -0.584508       -15.9053
  77   2.0000      -0.564981       -15.3739
  78   2.0000      -0.553466       -15.0606
  79   2.0000      -0.539159       -14.6713
  80   2.0000      -0.532198       -14.4818
  81   2.0000      -0.517687       -14.0870
  82   2.0000      -0.501716       -13.6524
  83   2.0000      -0.496119       -13.5001
  84   2.0000      -0.493928       -13.4405
  85   2.0000      -0.483869       -13.1668
  86   2.0000      -0.481526       -13.1030
  87   2.0000      -0.474367       -12.9082
  88   2.0000      -0.468788       -12.7564
  89   2.0000      -0.465788       -12.6747
  90   2.0000      -0.456261       -12.4155
  91   2.0000      -0.448822       -12.2131
  92   2.0000      -0.445703       -12.1282
  93   2.0000      -0.442704       -12.0466
  94   2.0000      -0.441544       -12.0150
  95   2.0000      -0.438901       -11.9431
  96   2.0000      -0.432567       -11.7707
  97   2.0000      -0.429036       -11.6747
  98   2.0000      -0.427180       -11.6242
  99   2.0000      -0.426341       -11.6013
 100   2.0000      -0.415867       -11.3163
 101   2.0000      -0.415550       -11.3077
 102   2.0000      -0.410981       -11.1834
 103   2.0000      -0.403591       -10.9823
 104   2.0000      -0.400431       -10.8963
 105   2.0000      -0.392073       -10.6688
 106   2.0000      -0.387362       -10.5407
 107   2.0000      -0.381804       -10.3894
 108   2.0000      -0.378235       -10.2923
 109   2.0000      -0.370277       -10.0758
 110   2.0000      -0.365066        -9.9339
 111   2.0000      -0.363581        -9.8935
 112   2.0000      -0.361114        -9.8264
 113   2.0000      -0.353769        -9.6265
 114   2.0000      -0.352354        -9.5880
 115   2.0000      -0.349218        -9.5027
 116   2.0000      -0.337472        -9.1831
 117   2.0000      -0.331702        -9.0261
 118   2.0000      -0.318800        -8.6750
 119   2.0000      -0.318097        -8.6559
 120   2.0000      -0.316446        -8.6109
 121   2.0000      -0.304076        -8.2743
 122   2.0000      -0.301717        -8.2101
 123   2.0000      -0.288298        -7.8450
 124   2.0000      -0.280250        -7.6260
 125   2.0000      -0.277900        -7.5620
 126   2.0000      -0.275820        -7.5055
 127   2.0000      -0.271045        -7.3755
 128   2.0000      -0.270455        -7.3595
 129   2.0000      -0.265142        -7.2149
 130   2.0000      -0.255915        -6.9638
 131   2.0000      -0.254732        -6.9316
 132   2.0000      -0.236248        -6.4286
 133   2.0000      -0.220342        -5.9958
 134   2.0000      -0.210322        -5.7232
 135   0.0000      -0.079602        -2.1661
 136   0.0000      -0.059919        -1.6305
 137   0.0000      -0.035376        -0.9626
 138   0.0000      -0.030315        -0.8249
 139   0.0000      -0.025490        -0.6936

MULLIKEN ATOMIC CHARGES
-----------------------
   0 C :   -0.552878
   1 C :    0.119913
   2 C :    0.308066
   3 N :   -0.619014
   4 C :   -0.216797
   5 C :   -0.124664
   6 S :    0.260268
   7 C :   -0.114198
   8 C :   -0.171206
   9 C :   -0.115026
  10 C :   -0.144587
  11 C :   -0.173247
  12 C :    0.166225
  13 C :   -0.119516
  14 Cl:   -0.002515
  15 S :    1.234089
  16 O :   -0.545705
  17 O :   -0.540859
  18 C :   -0.132167
  19 C :   -0.147451
  20 C :   -0.142016
  21 C :    0.083190
  22 C :    0.527763
  23 O :   -0.444626
  24 O :   -0.623641
  25 C :   -0.144688
  26 C :   -0.133428
  27 N :   -0.407416
  28 C :   -0.055396
  29 C :    0.137422
  30 C :   -0.202913
  31 C :   -0.126152
  32 C :   -0.120289
  33 C :   -0.195220
  34 C :    0.120824
  35 H :    0.182276
  36 H :    0.207619
  37 H :    0.149331
  38 H :    0.198331
  39 H :    0.192314
  40 H :    0.141876
  41 H :    0.133332
  42 H :    0.131645
  43 H :    0.145626
  44 H :    0.189720
  45 H :    0.179439
  46 H :    0.433443
  47 H :    0.172629
  48 H :    0.191852
  49 H :    0.151287
  50 H :    0.138151
  51 H :    0.136083
  52 H :    0.138501
  53 H :    0.144404
Sum of atomic charges:    0.0000000

LOEWDIN ATOMIC CHARGES
----------------------
   0 C :   -0.364598
   1 C :    0.003446
   2 C :    0.022423
   3 N :   -0.283969
   4 C :   -0.148886
   5 C :   -0.194544
   6 S :    0.400194
   7 C :   -0.161562
   8 C :   -0.131928
   9 C :   -0.127305
  10 C :   -0.132791
  11 C :   -0.120463
  12 C :   -0.045521
  13 C :   -0.121902
  14 Cl:    0.038079
  15 S :    1.267258
  16 O :   -0.569215
  17 O :   -0.566447
  18 C :   -0.178002
  19 C :   -0.103426
  20 C :   -0.086906
  21 C :   -0.038711
  22 C :    0.179494
  23 O :   -0.260694
  24 O :   -0.334568
  25 C :   -0.098051
  26 C :   -0.093706
  27 N :   -0.145347
  28 C :   -0.062585
  29 C :   -0.028441
  30 C :   -0.112569
  31 C :   -0.125551
  32 C :   -0.116797
  33 C :   -0.119124
  34 C :   -0.004958
  35 H :    0.149517
  36 H :    0.153987
  37 H :    0.130466
  38 H :    0.160346
  39 H :    0.146971
  40 H :    0.139983
  41 H :    0.135009
  42 H :    0.133479
  43 H :    0.141687
  44 H :    0.160944
  45 H :    0.159929
  46 H :    0.349417
  47 H :    0.154873
  48 H :    0.163971
  49 H :    0.136393
  50 H :    0.136646
  51 H :    0.135526
  52 H :    0.136984
  53 H :    0.141548

  Mayer bond orders larger than 0.100000
B(  0-C ,  1-C ) :   1.0084 B(  0-C , 35-H ) :   0.9201 B(  0-C , 36-H ) :   0.9092
B(  0-C , 37-H ) :   0.9275 B(  1-C ,  2-C ) :   1.4401 B(  1-C , 34-C ) :   1.2639
B(  2-C ,  3-N ) :   0.8967 B(  2-C , 27-N ) :   1.2711 B(  3-N ,  4-C ) :   0.9147
B(  3-N , 15-S ) :   0.7749 B(  4-C ,  5-C ) :   0.9722 B(  4-C , 38-H ) :   0.9139
B(  4-C , 39-H ) :   0.9110 B(  5-C ,  6-S ) :   1.1072 B(  5-C , 13-C ) :   1.5297
B(  6-S ,  7-C ) :   1.0546 B(  7-C ,  8-C ) :   1.3412 B(  7-C , 12-C ) :   1.3460
B(  8-C ,  9-C ) :   1.4896 B(  8-C , 11-C ) :   0.1003 B(  8-C , 40-H ) :   0.9242
B(  9-C , 10-C ) :   1.3875 B(  9-C , 41-H ) :   0.9306 B( 10-C , 11-C ) :   1.4763
B( 10-C , 42-H ) :   0.9302 B( 11-C , 12-C ) :   1.3499 B( 11-C , 43-H ) :   0.9165
B( 12-C , 13-C ) :   1.1956 B( 13-C , 14-Cl) :   1.0356 B( 15-S , 16-O ) :   1.6141
B( 15-S , 17-O ) :   1.6544 B( 15-S , 18-C ) :   0.8130 B( 18-C , 19-C ) :   1.3696
B( 18-C , 26-C ) :   1.4045 B( 19-C , 20-C ) :   1.4340 B( 19-C , 44-H ) :   0.9028
B( 20-C , 21-C ) :   1.3966 B( 20-C , 45-H ) :   0.9101 B( 21-C , 22-C ) :   1.0076
B( 21-C , 25-C ) :   1.3880 B( 22-C , 23-O ) :   1.8636 B( 22-C , 24-O ) :   1.0247
B( 24-O , 46-H ) :   0.7422 B( 25-C , 26-C ) :   1.4055 B( 25-C , 47-H ) :   0.9151
B( 26-C , 48-H ) :   0.9068 B( 27-N , 28-C ) :   1.4917 B( 28-C , 29-C ) :   1.2426
B( 28-C , 49-H ) :   0.9265 B( 29-C , 30-C ) :   1.2834 B( 29-C , 34-C ) :   1.2913
B( 30-C , 31-C ) :   1.5134 B( 30-C , 33-C ) :   0.1059 B( 30-C , 50-H ) :   0.9235
B( 31-C , 32-C ) :   1.3524 B( 31-C , 51-H ) :   0.9293 B( 32-C , 33-C ) :   1.5078
B( 32-C , 52-H ) :   0.9290 B( 33-C , 34-C ) :   1.2962 B( 33-C , 53-H ) :   0.9151

FINAL SINGLE POINT ENERGY     -2668.046533012835

DIPOLE MOMENT
-------------

Method             : SCF
Type of density    : Electron Density
Multiplicity       :   1
Irrep              :   0
Energy             : -2668.0465330128345158 Eh
Relativity type    :
Basis              : AO
                                X                 Y                 Z
Electronic contribution:      4.000575276      17.285603266      -3.785297311
Nuclear contribution   :     -4.625100647     -17.643932924       2.937370894
                        -----------------------------------------
Total Dipole Moment    :     -0.624525370      -0.358329659      -0.847926417
                        -----------------------------------------
Magnitude (a.u.)       :      1.112389901
Magnitude (Debye)      :      2.827470425

Rotational constants in cm-1:             0.003759             0.002624             0.001708
Rotational constants in MHz :           112.678174            78.653222            51.197194

                             ****ORCA TERMINATED NORMALLY****
TOTAL RUN TIME: 0 days 0 hours 7 minutes 22 seconds 179 msec
