                         Program Version 6.0.0  -   RELEASE  -
|  1> ! B3LYP 6-31G* SP
|  2>
|  3> * xyz 0 1
|  4> O 2.3448 -0.9848 2.3469
|  5> C 1.7608 -0.3102 1.4570
|  6> C 0.3346 -0.5744 1.1744
|  7> S -0.3768 -0.4904 -0.3494
|  8> C -1.8839 -1.0247 0.1828
|  9> C -3.0863 -1.2084 -0.6620
| 10> C -3.0649 -0.8864 -2.0326
| 11> C -4.2073 -1.0635 -2.8190
| 12> C -5.3806 -1.5627 -2.2496
| 13> C -5.4148 -1.8854 -0.8911
| 14> F -6.5543 -2.3709 -0.3391
| 15> C -4.2751 -1.7096 -0.0996
| 16> N -1.8593 -1.2779 1.5115
| 17> C -0.6417 -1.0335 2.0659
| 18> O -0.4340 -1.2171 3.4316
| 19> N 2.5081 0.6710 0.7111
| 20> C 3.8854 0.3833 0.2981
| 21> C 4.7126 1.6668 0.3102
| 22> C 3.9237 2.7957 -0.3566
| 23> O 2.6956 3.0040 0.3127
| 24> C 1.8624 1.8707 0.1570
| 25> H -2.1698 -0.4973 -2.4997
| 26> H -4.1825 -0.8135 -3.8719
| 27> H -6.2627 -1.6988 -2.8621
| 28> H -4.3235 -1.9673 0.9511
| 29> H 0.4326 -0.9659 3.8882
| 30> H 4.3632 -0.3589 0.9733
| 31> H 3.8728 -0.0413 -0.7291
| 32> H 5.6713 1.5035 -0.2277
| 33> H 4.9398 1.9506 1.3611
| 34> H 4.5206 3.7297 -0.2936
| 35> H 3.7643 2.5823 -1.4388
| 36> H 1.6119 1.7093 -0.9156
| 37> H 0.9129 2.0761 0.6955
| 38> *
| 39>
| 40>                          ****END OF INPUT****

CARTESIAN COORDINATES (ANGSTROEM)
---------------------------------
  O      2.344800   -0.984800    2.346900
  C      1.760800   -0.310200    1.457000
  C      0.334600   -0.574400    1.174400
  S     -0.376800   -0.490400   -0.349400
  C     -1.883900   -1.024700    0.182800
  C     -3.086300   -1.208400   -0.662000
  C     -3.064900   -0.886400   -2.032600
  C     -4.207300   -1.063500   -2.819000
  C     -5.380600   -1.562700   -2.249600
  C     -5.414800   -1.885400   -0.891100
  F     -6.554300   -2.370900   -0.339100
  C     -4.275100   -1.709600   -0.099600
  N     -1.859300   -1.277900    1.511500
  C     -0.641700   -1.033500    2.065900
  O     -0.434000   -1.217100    3.431600
  N      2.508100    0.671000    0.711100
  C      3.885400    0.383300    0.298100
  C      4.712600    1.666800    0.310200
  C      3.923700    2.795700   -0.356600
  O      2.695600    3.004000    0.312700
  C      1.862400    1.870700    0.157000
  H     -2.169800   -0.497300   -2.499700
  H     -4.182500   -0.813500   -3.871900
  H     -6.262700   -1.698800   -2.862100
  H     -4.323500   -1.967300    0.951100
  H      0.432600   -0.965900    3.888200
  H      4.363200   -0.358900    0.973300
  H      3.872800   -0.041300   -0.729100
  H      5.671300    1.503500   -0.227700
  H      4.939800    1.950600    1.361100
  H      4.520600    3.729700   -0.293600
  H      3.764300    2.582300   -1.438800
  H      1.611900    1.709300   -0.915600
  H      0.912900    2.076100    0.695500

 Total Charge           Charge          ....    0
 Multiplicity           Mult            ....    1
 Number of Electrons    NEL             ....  160
 Basis Dimension        Dim             ....  324

ORBITAL ENERGIES
----------------

  NO   OCC          E(Eh)            E(eV)
   0   2.0000     -88.911858     -2419.4146
   1   2.0000     -24.704857      -672.2533
   2   2.0000     -19.174441      -521.7631
   3   2.0000     -19.159400      -521.3538
   4   2.0000     -19.123296      -520.3713
   5   2.0000     -14.358034      -390.7020
   6   2.0000     -14.342804      -390.2875
   7   2.0000     -10.307253      -280.4746
   8   2.0000     -10.296469      -280.1812
   9   2.0000     -10.279493      -279.7192
  10   2.0000     -10.273247      -279.5493
  11   2.0000     -10.270652      -279.4786
  12   2.0000     -10.235609      -278.5251
  13   2.0000     -10.225313      -278.2449
  14   2.0000     -10.223194      -278.1873
  15   2.0000     -10.222597      -278.1710
  16   2.0000     -10.205008      -277.6924
  17   2.0000     -10.203342      -277.6470
  18   2.0000     -10.201556      -277.5984
  19   2.0000     -10.200419      -277.5675
  20   2.0000     -10.188460      -277.2421
  21   2.0000      -7.988977      -217.3911
  22   2.0000      -5.951846      -161.9580
  23   2.0000      -5.947936      -161.8516
  24   2.0000      -5.946139      -161.8027
  25   2.0000      -1.217904       -33.1408
  26   2.0000      -1.058454       -28.8020
  27   2.0000      -1.045434       -28.4477
  28   2.0000      -1.020434       -27.7674
  29   2.0000      -0.970334       -26.4041
  30   2.0000      -0.917268       -24.9601
  31   2.0000      -0.873362       -23.7654
  32   2.0000      -0.826500       -22.4902
  33   2.0000      -0.795702       -21.6522
  34   2.0000      -0.791353       -21.5338
  35   2.0000      -0.759870       -20.6771
  36   2.0000      -0.737689       -20.0735
  37   2.0000      -0.697557       -18.9815
  38   2.0000      -0.677771       -18.4431
  39   2.0000      -0.653172       -17.7737
  40   2.0000      -0.637453       -17.3460
  41   2.0000      -0.618553       -16.8317
  42   2.0000      -0.599510       -16.3135
  43   2.0000      -0.580743       -15.8028
  44   2.0000      -0.571176       -15.5425
  45   2.0000      -0.538917       -14.6647
  46   2.0000      -0.531743       -14.4695
  47   2.0000      -0.511081       -13.9072
  48   2.0000      -0.505080       -13.7439
  49   2.0000      -0.499419       -13.5899
  50   2.0000      -0.480119       -13.0647
  51   2.0000      -0.477590       -12.9959
  52   2.0000      -0.468382       -12.7453
  53   2.0000      -0.461344       -12.5538
  54   2.0000      -0.459794       -12.5116
  55   2.0000      -0.454460       -12.3665
  56   2.0000      -0.443009       -12.0549
  57   2.0000      -0.440777       -11.9941
  58   2.0000      -0.431163       -11.7325
  59   2.0000      -0.419539       -11.4162
  60   2.0000      -0.413297       -11.2464
  61   2.0000      -0.407223       -11.0811
  62   2.0000      -0.401620       -10.9286
  63   2.0000      -0.386125       -10.5070
  64   2.0000      -0.383129       -10.4255
  65   2.0000      -0.373650       -10.1675
  66   2.0000      -0.360899        -9.8206
  67   2.0000      -0.357551        -9.7295
  68   2.0000      -0.355774        -9.6811
  69   2.0000      -0.350260        -9.5311
  70   2.0000      -0.343208        -9.3392
  71   2.0000      -0.325716        -8.8632
  72   2.0000      -0.298599        -8.1253
  73   2.0000      -0.284299        -7.7362
  74   2.0000      -0.275851        -7.5063
  75   2.0000      -0.269969        -7.3462
  76   2.0000      -0.260822        -7.0973
  77   2.0000      -0.256584        -6.9820
  78   2.0000      -0.239244        -6.5102
  79   2.0000      -0.222785        -6.0623
  80   0.0000      -0.075552        -2.0559
  81   0.0000      -0.020377        -0.5545
  82   0.0000      -0.010578        -0.2878
  83   0.0000       0.022128         0.6021
  84   0.0000       0.030756         0.8369

MULLIKEN ATOMIC CHARGES
-----------------------
   0 O :   -0.476134
   1 C :    0.493836
   2 C :   -0.281184
   3 S :    0.276298
   4 C :   -0.012818
   5 C :    0.154835
   6 C :   -0.195551
   7 C :   -0.121413
   8 C :   -0.198612
   9 C :    0.420575
  10 F :   -0.313950
  11 C :   -0.243622
  12 N :   -0.398870
  13 C :    0.517141
  14 O :   -0.637869
  15 N :   -0.440629
  16 C :   -0.134607
  17 C :   -0.272495
  18 C :   -0.041981
  19 O :   -0.449817
  20 C :    0.094157
  21 H :    0.148606
  22 H :    0.146317
  23 H :    0.150869
  24 H :    0.183488
  25 H :    0.443203
  26 H :    0.187441
  27 H :    0.136230
  28 H :    0.137115
  29 H :    0.160163
  30 H :    0.150422
  31 H :    0.119035
  32 H :    0.128879
  33 H :    0.170944
Sum of atomic charges:    0.0000000

LOEWDIN ATOMIC CHARGES
----------------------
   0 O :   -0.282602
   1 C :    0.136069
   2 C :   -0.294318
   3 S :    0.398751
   4 C :   -0.106290
   5 C :   -0.022313
   6 C :   -0.132080
   7 C :   -0.117547
   8 C :   -0.147651
   9 C :    0.120970
  10 F :   -0.099355
  11 C :   -0.131660
  12 N :   -0.156550
  13 C :    0.118425
  14 O :   -0.324758
  15 N :   -0.131620
  16 C :   -0.149728
  17 C :   -0.249769
  18 C :   -0.101653
  19 O :   -0.220728
  20 C :   -0.036806
  21 H :    0.140501
  22 H :    0.140705
  23 H :    0.146252
  24 H :    0.163779
  25 H :    0.352610
  26 H :    0.149247
  27 H :    0.111973
  28 H :    0.128247
  29 H :    0.133592
  30 H :    0.126358
  31 H :    0.102514
  32 H :    0.097845
  33 H :    0.137590

  Mayer bond orders larger than 0.100000
B(  0-O ,  1-C ) :   1.7926 B(  1-C ,  2-C ) :   0.9830 B(  1-C , 15-N ) :   1.0562
B(  2-C ,  3-S ) :   1.0613 B(  2-C ,  4-C ) :   0.1163 B(  2-C , 13-C ) :   1.3725
B(  3-S ,  4-C ) :   1.1574 B(  4-C ,  5-C ) :   1.0270 B(  4-C , 12-N ) :   1.4331
B(  5-C ,  6-C ) :   1.3915 B(  5-C , 11-C ) :   1.3759 B(  6-C ,  7-C ) :   1.4483
B(  6-C , 21-H ) :   0.9159 B(  7-C ,  8-C ) :   1.4265 B(  7-C , 22-H ) :   0.9280
B(  8-C ,  9-C ) :   1.3855 B(  8-C , 23-H ) :   0.9200 B(  9-C , 10-F ) :   0.9139
B(  9-C , 11-C ) :   1.3721 B( 11-C , 24-H ) :   0.9011 B( 12-N , 13-C ) :   1.3192
B( 13-C , 14-O ) :   1.0388 B( 14-O , 25-H ) :   0.7264 B( 15-N , 16-C ) :   0.9396
B( 15-N , 20-C ) :   0.9248 B( 16-C , 17-C ) :   1.0005 B( 16-C , 26-H ) :   0.9219
B( 16-C , 27-H ) :   0.9277 B( 17-C , 18-C ) :   0.9909 B( 17-C , 28-H ) :   0.9300
B( 17-C , 29-H ) :   0.9324 B( 18-C , 19-O ) :   0.9455 B( 18-C , 30-H ) :   0.9406
B( 18-C , 31-H ) :   0.9171 B( 19-O , 20-C ) :   0.9684 B( 20-C , 32-H ) :   0.9048
B( 20-C , 33-H ) :   0.9297

FINAL SINGLE POINT ENERGY     -1373.863938312755

DIPOLE MOMENT
-------------

Method             : SCF
Type of density    : Electron Density
Multiplicity       :   1
Irrep              :   0
Energy             : -1373.8639383127551810 Eh
Relativity type    :
Basis              : AO
                                X                 Y                 Z
Electronic contribution:    -24.339911466     -12.014671442       4.852919948
Nuclear contribution   :     25.028735600      12.782423278      -6.591681897
                        -----------------------------------------
Total Dipole Moment    :      0.688824135       0.767751836      -1.738761949
                        -----------------------------------------
Magnitude (a.u.)       :      2.021686100
Magnitude (Debye)      :      5.138717685

Rotational constants in cm-1:             0.021750             0.004116             0.003629
Rotational constants in MHz :           652.043864           123.407069           108.799411

                             ****ORCA TERMINATED NORMALLY****
TOTAL RUN TIME: 0 days 0 hours 4 minutes 26 seconds 178 msec
