                         Program Version 6.0.0  -   RELEASE  -
|  1> ! B3LYP 6-31G* SP
|  2>
|  3> * xyz 0 1
|  4> O 1.4031 -0.3982 -2.4554
|  5> C 1.4533 -0.5251 -1.2008
|  6> N 0.2399 -0.4265 -0.4329
|  7> C -1.0598 -0.1716 -1.0697
|  8> C -2.2238 -0.5403 -0.1540
|  9> C -2.2291 -1.8017 0.4697
| 10> N -3.2654 -2.1816 1.2623
| 11> C -4.3393 -1.3778 1.4733
| 12> C -5.3851 -1.8042 2.3001
| 13> C -6.4938 -0.9777 2.5077
| 14> C -6.5623 0.2749 1.8894
| 15> C -5.5222 0.7084 1.0608
| 16> C -4.4047 -0.1143 0.8495
| 17> C -3.3481 0.2926 0.0258
| 18> C -1.1256 1.2403 -1.6359
| 19> N -1.5620 1.3528 -2.9229
| 20> C -1.6763 2.5425 -3.5626
| 21> C -1.3341 3.7174 -2.9069
| 22> C -0.8897 3.6582 -1.5890
| 23> C -0.8010 2.4274 -0.9084
| 24> C -0.2757 2.4315 0.5171
| 25> F -0.9363 1.5129 1.3070
| 26> F 1.0753 2.1438 0.5066
| 27> F -0.4488 3.6723 1.1071
| 28> C 2.7634 -0.7976 -0.5543
| 29> C 2.9879 -0.5102 0.8071
| 30> C 4.2292 -0.7689 1.3963
| 31> C 5.2690 -1.3146 0.6345
| 32> C 6.5225 -1.5840 1.1996
| 33> C 7.5376 -2.1262 0.4085
| 34> C 7.2898 -2.3932 -0.9403
| 35> N 6.0689 -2.1264 -1.4769
| 36> C 5.0600 -1.5983 -0.7317
| 37> C 3.8169 -1.3370 -1.3175
| 38> H 0.2661 -0.6340 0.5894
| 39> H -1.1449 -0.8767 -1.9276
| 40> H -1.4050 -2.4880 0.3229
| 41> H -5.3415 -2.7737 2.7808
| 42> H -7.3017 -1.3087 3.1475
| 43> H -7.4230 0.9106 2.0524
| 44> H -5.5899 1.6814 0.5891
| 45> H -3.4093 1.2555 -0.4645
| 46> H -2.0257 2.5724 -4.5859
| 47> H -1.4087 4.6692 -3.4171
| 48> H -0.6130 4.5854 -1.1036
| 49> H 2.2201 -0.0634 1.4218
| 50> H 4.3772 -0.5368 2.4443
| 51> H 6.7154 -1.3767 2.2454
| 52> H 8.5088 -2.3377 0.8367
| 53> H 8.0695 -2.8130 -1.5616
| 54> H 3.6718 -1.5656 -2.3668
| 55> *
| 56>
| 57>                          ****END OF INPUT****

CARTESIAN COORDINATES (ANGSTROEM)
---------------------------------
  O      1.403100   -0.398200   -2.455400
  C      1.453300   -0.525100   -1.200800
  N      0.239900   -0.426500   -0.432900
  C     -1.059800   -0.171600   -1.069700
  C     -2.223800   -0.540300   -0.154000
  C     -2.229100   -1.801700    0.469700
  N     -3.265400   -2.181600    1.262300
  C     -4.339300   -1.377800    1.473300
  C     -5.385100   -1.804200    2.300100
  C     -6.493800   -0.977700    2.507700
  C     -6.562300    0.274900    1.889400
  C     -5.522200    0.708400    1.060800
  C     -4.404700   -0.114300    0.849500
  C     -3.348100    0.292600    0.025800
  C     -1.125600    1.240300   -1.635900
  N     -1.562000    1.352800   -2.922900
  C     -1.676300    2.542500   -3.562600
  C     -1.334100    3.717400   -2.906900
  C     -0.889700    3.658200   -1.589000
  C     -0.801000    2.427400   -0.908400
  C     -0.275700    2.431500    0.517100
  F     -0.936300    1.512900    1.307000
  F      1.075300    2.143800    0.506600
  F     -0.448800    3.672300    1.107100
  C      2.763400   -0.797600   -0.554300
  C      2.987900   -0.510200    0.807100
  C      4.229200   -0.768900    1.396300
  C      5.269000   -1.314600    0.634500
  C      6.522500   -1.584000    1.199600
  C      7.537600   -2.126200    0.408500
  C      7.289800   -2.393200   -0.940300
  N      6.068900   -2.126400   -1.476900
  C      5.060000   -1.598300   -0.731700
  C      3.816900   -1.337000   -1.317500
  H      0.266100   -0.634000    0.589400
  H     -1.144900   -0.876700   -1.927600
  H     -1.405000   -2.488000    0.322900
  H     -5.341500   -2.773700    2.780800
  H     -7.301700   -1.308700    3.147500
  H     -7.423000    0.910600    2.052400
  H     -5.589900    1.681400    0.589100
  H     -3.409300    1.255500   -0.464500
  H     -2.025700    2.572400   -4.585900
  H     -1.408700    4.669200   -3.417100
  H     -0.613000    4.585400   -1.103600
  H      2.220100   -0.063400    1.421800
  H      4.377200   -0.536800    2.444300
  H      6.715400   -1.376700    2.245400
  H      8.508800   -2.337700    0.836700
  H      8.069500   -2.813000   -1.561600
  H      3.671800   -1.565600   -2.366800

 Total Charge           Charge          ....    0
 Multiplicity           Mult            ....    1
 Number of Electrons    NEL             ....  236
 Basis Dimension        Dim             ....  510

ORBITAL ENERGIES
----------------

  NO   OCC          E(Eh)            E(eV)
   0   2.0000     -24.732111      -672.9949
   1   2.0000     -24.728667      -672.9012
   2   2.0000     -24.726563      -672.8440
   3   2.0000     -19.110112      -520.0126
   4   2.0000     -14.359343      -390.7376
   5   2.0000     -14.338389      -390.1674
   6   2.0000     -14.325115      -389.8062
   7   2.0000     -14.323981      -389.7753
   8   2.0000     -10.446400      -284.2610
   9   2.0000     -10.291440      -280.0443
  10   2.0000     -10.250573      -278.9323
  11   2.0000     -10.242012      -278.6993
  12   2.0000     -10.232890      -278.4511
  13   2.0000     -10.227742      -278.3110
  14   2.0000     -10.223312      -278.1905
  15   2.0000     -10.222378      -278.1650
  16   2.0000     -10.220514      -278.1143
  17   2.0000     -10.219368      -278.0831
  18   2.0000     -10.216386      -278.0020
  19   2.0000     -10.208541      -277.7885
  20   2.0000     -10.206909      -277.7441
  21   2.0000     -10.203930      -277.6630
  22   2.0000     -10.203843      -277.6607
  23   2.0000     -10.201323      -277.5921
  24   2.0000     -10.198643      -277.5192
  25   2.0000     -10.197443      -277.4865
  26   2.0000     -10.195630      -277.4372
  27   2.0000     -10.194398      -277.4037
  28   2.0000     -10.194397      -277.4036
  29   2.0000     -10.191102      -277.3140
  30   2.0000     -10.190129      -277.2875
  31   2.0000     -10.189882      -277.2808
  32   2.0000     -10.189512      -277.2707
  33   2.0000     -10.184160      -277.1251
  34   2.0000      -1.291862       -35.1533
  35   2.0000      -1.217125       -33.1197
  36   2.0000      -1.213398       -33.0182
  37   2.0000      -1.010904       -27.5081
  38   2.0000      -0.947065       -25.7709
  39   2.0000      -0.935453       -25.4550
  40   2.0000      -0.934658       -25.4333
  41   2.0000      -0.908309       -24.7163
  42   2.0000      -0.854087       -23.2409
  43   2.0000      -0.846980       -23.0475
  44   2.0000      -0.824872       -22.4459
  45   2.0000      -0.816243       -22.2111
  46   2.0000      -0.808414       -21.9981
  47   2.0000      -0.792510       -21.5653
  48   2.0000      -0.769366       -20.9355
  49   2.0000      -0.760388       -20.6912
  50   2.0000      -0.742135       -20.1945
  51   2.0000      -0.740757       -20.1570
  52   2.0000      -0.716677       -19.5018
  53   2.0000      -0.696726       -18.9589
  54   2.0000      -0.662345       -18.0233
  55   2.0000      -0.654855       -17.8195
  56   2.0000      -0.641322       -17.4513
  57   2.0000      -0.636880       -17.3304
  58   2.0000      -0.630634       -17.1604
  59   2.0000      -0.610992       -16.6259
  60   2.0000      -0.604787       -16.4571
  61   2.0000      -0.603737       -16.4285
  62   2.0000      -0.584504       -15.9051
  63   2.0000      -0.581834       -15.8325
  64   2.0000      -0.574827       -15.6418
  65   2.0000      -0.562489       -15.3061
  66   2.0000      -0.545790       -14.8517
  67   2.0000      -0.528923       -14.3927
  68   2.0000      -0.526488       -14.3265
  69   2.0000      -0.519761       -14.1434
  70   2.0000      -0.514515       -14.0007
  71   2.0000      -0.511807       -13.9270
  72   2.0000      -0.504216       -13.7204
  73   2.0000      -0.495190       -13.4748
  74   2.0000      -0.477371       -12.9899
  75   2.0000      -0.466090       -12.6830
  76   2.0000      -0.463381       -12.6092
  77   2.0000      -0.460319       -12.5259
  78   2.0000      -0.452634       -12.3168
  79   2.0000      -0.448890       -12.2149
  80   2.0000      -0.445630       -12.1262
  81   2.0000      -0.439128       -11.9493
  82   2.0000      -0.434564       -11.8251
  83   2.0000      -0.433171       -11.7872
  84   2.0000      -0.430799       -11.7226
  85   2.0000      -0.428513       -11.6604
  86   2.0000      -0.425961       -11.5910
  87   2.0000      -0.416735       -11.3399
  88   2.0000      -0.414510       -11.2794
  89   2.0000      -0.410952       -11.1826
  90   2.0000      -0.408952       -11.1281
  91   2.0000      -0.408508       -11.1161
  92   2.0000      -0.406813       -11.0699
  93   2.0000      -0.404923       -11.0185
  94   2.0000      -0.403205       -10.9718
  95   2.0000      -0.395634       -10.7657
  96   2.0000      -0.393359       -10.7039
  97   2.0000      -0.378335       -10.2950
  98   2.0000      -0.373317       -10.1585
  99   2.0000      -0.362043        -9.8517
 100   2.0000      -0.360824        -9.8185
 101   2.0000      -0.359695        -9.7878
 102   2.0000      -0.350222        -9.5300
 103   2.0000      -0.336996        -9.1701
 104   2.0000      -0.332804        -9.0561
 105   2.0000      -0.304650        -8.2900
 106   2.0000      -0.301558        -8.2058
 107   2.0000      -0.294806        -8.0221
 108   2.0000      -0.277870        -7.5612
 109   2.0000      -0.262737        -7.1494
 110   2.0000      -0.258560        -7.0358
 111   2.0000      -0.256326        -6.9750
 112   2.0000      -0.247763        -6.7420
 113   2.0000      -0.245984        -6.6936
 114   2.0000      -0.245220        -6.6728
 115   2.0000      -0.240973        -6.5572
 116   2.0000      -0.227694        -6.1959
 117   2.0000      -0.223373        -6.0783
 118   0.0000      -0.068206        -1.8560
 119   0.0000      -0.058783        -1.5996
 120   0.0000      -0.043978        -1.1967
 121   0.0000      -0.035554        -0.9675
 122   0.0000      -0.031579        -0.8593

MULLIKEN ATOMIC CHARGES
-----------------------
   0 O :   -0.474062
   1 C :    0.513837
   2 N :   -0.656804
   3 C :   -0.048662
   4 C :    0.072201
   5 C :   -0.030963
   6 N :   -0.430941
   7 C :    0.209763
   8 C :   -0.142469
   9 C :   -0.131738
  10 C :   -0.128898
  11 C :   -0.203155
  12 C :    0.168439
  13 C :   -0.192081
  14 C :    0.242530
  15 N :   -0.398625
  16 C :    0.031263
  17 C :   -0.134582
  18 C :   -0.129224
  19 C :   -0.072532
  20 C :    0.922425
  21 F :   -0.302068
  22 F :   -0.291515
  23 F :   -0.305302
  24 C :    0.074029
  25 C :   -0.180317
  26 C :   -0.208282
  27 C :    0.173597
  28 C :   -0.153642
  29 C :   -0.144736
  30 C :    0.015679
  31 N :   -0.428479
  32 C :    0.210827
  33 C :   -0.174383
  34 H :    0.331070
  35 H :    0.206025
  36 H :    0.154464
  37 H :    0.143581
  38 H :    0.135283
  39 H :    0.132988
  40 H :    0.132181
  41 H :    0.144443
  42 H :    0.160777
  43 H :    0.144757
  44 H :    0.164804
  45 H :    0.134765
  46 H :    0.136329
  47 H :    0.142811
  48 H :    0.136254
  49 H :    0.152629
  50 H :    0.175706
Sum of atomic charges:    0.0000000

LOEWDIN ATOMIC CHARGES
----------------------
   0 O :   -0.280309
   1 C :    0.145563
   2 N :   -0.242188
   3 C :   -0.049925
   4 C :   -0.042689
   5 C :   -0.074252
   6 N :   -0.125891
   7 C :    0.014108
   8 C :   -0.114394
   9 C :   -0.123627
  10 C :   -0.127099
  11 C :   -0.120933
  12 C :   -0.026428
  13 C :   -0.094906
  14 C :    0.055340
  15 N :   -0.118262
  16 C :   -0.051685
  17 C :   -0.143425
  18 C :   -0.089817
  19 C :   -0.084362
  20 C :    0.308279
  21 F :   -0.102885
  22 F :   -0.107388
  23 F :   -0.111528
  24 C :   -0.047882
  25 C :   -0.127459
  26 C :   -0.120721
  27 C :   -0.022500
  28 C :   -0.093693
  29 C :   -0.145628
  30 C :   -0.062000
  31 N :   -0.124541
  32 C :    0.012583
  33 C :   -0.075264
  34 H :    0.249963
  35 H :    0.165727
  36 H :    0.137037
  37 H :    0.144110
  38 H :    0.135525
  39 H :    0.134070
  40 H :    0.133228
  41 H :    0.140834
  42 H :    0.140978
  43 H :    0.141091
  44 H :    0.148755
  45 H :    0.133993
  46 H :    0.135047
  47 H :    0.138418
  48 H :    0.136777
  49 H :    0.137083
  50 H :    0.163174

  Mayer bond orders larger than 0.100000
B(  0-O ,  1-C ) :   1.8063 B(  1-C ,  2-N ) :   1.0200 B(  1-C , 24-C ) :   0.9855
B(  2-N ,  3-C ) :   0.9009 B(  2-N , 34-H ) :   0.8084 B(  3-C ,  4-C ) :   0.9517
B(  3-C , 14-C ) :   0.9525 B(  3-C , 35-H ) :   0.8892 B(  4-C ,  5-C ) :   1.2827
B(  4-C , 13-C ) :   1.4838 B(  5-C ,  6-N ) :   1.5074 B(  5-C , 36-H ) :   0.9249
B(  6-N ,  7-C ) :   1.2511 B(  7-C ,  8-C ) :   1.3057 B(  7-C , 12-C ) :   1.2540
B(  8-C ,  9-C ) :   1.5173 B(  8-C , 11-C ) :   0.1084 B(  8-C , 37-H ) :   0.9177
B(  9-C , 10-C ) :   1.3470 B(  9-C , 38-H ) :   0.9296 B( 10-C , 11-C ) :   1.5158
B( 10-C , 39-H ) :   0.9300 B( 11-C , 12-C ) :   1.2785 B( 11-C , 40-H ) :   0.9242
B( 12-C , 13-C ) :   1.2885 B( 13-C , 41-H ) :   0.9066 B( 14-C , 15-N ) :   1.3832
B( 14-C , 19-C ) :   1.3444 B( 15-N , 16-C ) :   1.4174 B( 16-C , 17-C ) :   1.4218
B( 16-C , 42-H ) :   0.9269 B( 17-C , 18-C ) :   1.4378 B( 17-C , 43-H ) :   0.9235
B( 18-C , 19-C ) :   1.4032 B( 18-C , 44-H ) :   0.9174 B( 19-C , 20-C ) :   0.9681
B( 20-C , 21-F ) :   0.9239 B( 20-C , 22-F ) :   0.9652 B( 20-C , 23-F ) :   0.9424
B( 24-C , 25-C ) :   1.2983 B( 24-C , 33-C ) :   1.4507 B( 25-C , 26-C ) :   1.5049
B( 25-C , 45-H ) :   0.9147 B( 26-C , 27-C ) :   1.2865 B( 26-C , 33-C ) :   0.1014
B( 26-C , 46-H ) :   0.9236 B( 27-C , 28-C ) :   1.3027 B( 27-C , 32-C ) :   1.2508
B( 28-C , 29-C ) :   1.5141 B( 28-C , 47-H ) :   0.9241 B( 29-C , 30-C ) :   1.3208
B( 29-C , 48-H ) :   0.9247 B( 30-C , 31-N ) :   1.5172 B( 30-C , 49-H ) :   0.9297
B( 31-N , 32-C ) :   1.2432 B( 32-C , 33-C ) :   1.2676 B( 33-C , 50-H ) :   0.9038

FINAL SINGLE POINT ENERGY     -1593.855900635694

DIPOLE MOMENT
-------------

Method             : SCF
Type of density    : Electron Density
Multiplicity       :   1
Irrep              :   0
Energy             : -1593.8559006356938426 Eh
Relativity type    :
Basis              : AO
                                X                 Y                 Z
Electronic contribution:      2.024702666      10.706044061       1.738927246
Nuclear contribution   :     -2.169698550      -9.430343292      -0.519219137
                        -----------------------------------------
Total Dipole Moment    :     -0.144995885       1.275700769       1.219708109
                        -----------------------------------------
Magnitude (a.u.)       :      1.770910537
Magnitude (Debye)      :      4.501296862

Rotational constants in cm-1:             0.006971             0.002167             0.001918
Rotational constants in MHz :           208.976477            64.956778            57.489185

                             ****ORCA TERMINATED NORMALLY****
TOTAL RUN TIME: 0 days 0 hours 8 minutes 2 seconds 115 msec
