                         Program Version 6.0.0  -   RELEASE  -
|  1> ! B3LYP 6-31G* SP
|  2>
|  3> * xyz -1 1
|  4> O -3.4204 7.3719 -0.4337
|  5> C -4.0861 6.3318 -0.6889
|  6> O -5.4750 6.3933 -0.6504
|  7> C -3.4015 5.0628 -1.0211
|  8> C -1.9992 5.0069 -1.1175
|  9> C -1.3578 3.8040 -1.4284
| 10> C -2.1053 2.6384 -1.6402
| 11> S -1.2959 1.1149 -2.0040
| 12> O 0.0143 1.3775 -2.6929
| 13> O -2.1694 0.3182 -2.9342
| 14> N -1.0182 0.2082 -0.5450
| 15> C -0.2975 0.8413 0.5652
| 16> C 1.1876 0.6502 0.4031
| 17> C 1.7883 -0.5537 0.7904
| 18> C 3.1537 -0.7597 0.5883
| 19> C 3.9503 0.2271 -0.0252
| 20> C 5.4363 -0.0247 -0.2144
| 21> F 5.8500 0.4677 -1.4396
| 22> F 5.6950 -1.3897 -0.2267
| 23> C 6.2224 0.6940 0.9000
| 24> C 6.4708 -0.0953 2.1778
| 25> C 7.6106 0.1472 1.1981
| 26> C 3.3455 1.4580 -0.3838
| 27> Cl 4.2568 2.7968 -1.0791
| 28> C 1.9749 1.6527 -0.1767
| 29> C -1.1140 -1.2247 -0.6016
| 30> N -0.4073 -1.8828 -1.5590
| 31> C -0.3753 -3.2340 -1.6439
| 32> C -1.0537 -4.0119 -0.7036
| 33> C -0.9799 -5.4127 -0.7578
| 34> C -1.6376 -6.1874 0.1983
| 35> C -2.3627 -5.5720 1.2186
| 36> C -2.4463 -4.1786 1.2829
| 37> C -1.8082 -3.3740 0.3127
| 38> C -1.8895 -1.9563 0.3322
| 39> C -2.7517 -1.2336 1.3502
| 40> C -4.2477 -1.5212 1.2496
| 41> C -3.7080 -0.1859 0.7883
| 42> C -3.5027 2.6909 -1.5550
| 43> C -4.1469 3.8927 -1.2465
| 44> H -1.3971 5.8924 -0.9547
| 45> H -0.2785 3.7846 -1.5016
| 46> H -0.6209 0.4092 1.5340
| 47> H -0.5474 1.9218 0.6158
| 48> H 1.1967 -1.3379 1.2467
| 49> H 3.5845 -1.6983 0.9127
| 50> H 6.1227 1.7936 1.0286
| 51> H 6.0987 -1.1418 2.1968
| 52> H 6.5275 0.5266 3.0966
| 53> H 7.9238 -0.7614 0.6398
| 54> H 8.3420 0.9072 1.5455
| 55> H 1.5239 2.5924 -0.4662
| 56> H 0.2064 -3.6985 -2.4307
| 57> H -0.4086 -5.9070 -1.5347
| 58> H -1.5784 -7.2673 0.1528
| 59> H -2.8608 -6.1769 1.9650
| 60> H -3.0016 -3.7445 2.1031
| 61> H -2.3760 -1.0634 2.3809
| 62> H -4.7922 -1.4761 2.2160
| 63> H -4.5643 -2.1865 0.4173
| 64> H -3.9365 0.6536 1.4781
| 65> H -3.7380 -0.0779 -0.3148
| 66> H -4.0967 1.8039 -1.7304
| 67> H -5.2278 3.9038 -1.1830
| 68> *
| 69>
| 70>                          ****END OF INPUT****

CARTESIAN COORDINATES (ANGSTROEM)
---------------------------------
  O     -3.420400    7.371900   -0.433700
  C     -4.086100    6.331800   -0.688900
  O     -5.475000    6.393300   -0.650400
  C     -3.401500    5.062800   -1.021100
  C     -1.999200    5.006900   -1.117500
  C     -1.357800    3.804000   -1.428400
  C     -2.105300    2.638400   -1.640200
  S     -1.295900    1.114900   -2.004000
  O      0.014300    1.377500   -2.692900
  O     -2.169400    0.318200   -2.934200
  N     -1.018200    0.208200   -0.545000
  C     -0.297500    0.841300    0.565200
  C      1.187600    0.650200    0.403100
  C      1.788300   -0.553700    0.790400
  C      3.153700   -0.759700    0.588300
  C      3.950300    0.227100   -0.025200
  C      5.436300   -0.024700   -0.214400
  F      5.850000    0.467700   -1.439600
  F      5.695000   -1.389700   -0.226700
  C      6.222400    0.694000    0.900000
  C      6.470800   -0.095300    2.177800
  C      7.610600    0.147200    1.198100
  C      3.345500    1.458000   -0.383800
  Cl     4.256800    2.796800   -1.079100
  C      1.974900    1.652700   -0.176700
  C     -1.114000   -1.224700   -0.601600
  N     -0.407300   -1.882800   -1.559000
  C     -0.375300   -3.234000   -1.643900
  C     -1.053700   -4.011900   -0.703600
  C     -0.979900   -5.412700   -0.757800
  C     -1.637600   -6.187400    0.198300
  C     -2.362700   -5.572000    1.218600
  C     -2.446300   -4.178600    1.282900
  C     -1.808200   -3.374000    0.312700
  C     -1.889500   -1.956300    0.332200
  C     -2.751700   -1.233600    1.350200
  C     -4.247700   -1.521200    1.249600
  C     -3.708000   -0.185900    0.788300
  C     -3.502700    2.690900   -1.555000
  C     -4.146900    3.892700   -1.246500
  H     -1.397100    5.892400   -0.954700
  H     -0.278500    3.784600   -1.501600
  H     -0.620900    0.409200    1.534000
  H     -0.547400    1.921800    0.615800
  H      1.196700   -1.337900    1.246700
  H      3.584500   -1.698300    0.912700
  H      6.122700    1.793600    1.028600
  H      6.098700   -1.141800    2.196800
  H      6.527500    0.526600    3.096600
  H      7.923800   -0.761400    0.639800
  H      8.342000    0.907200    1.545500
  H      1.523900    2.592400   -0.466200
  H      0.206400   -3.698500   -2.430700
  H     -0.408600   -5.907000   -1.534700
  H     -1.578400   -7.267300    0.152800
  H     -2.860800   -6.176900    1.965000
  H     -3.001600   -3.744500    2.103100
  H     -2.376000   -1.063400    2.380900
  H     -4.792200   -1.476100    2.216000
  H     -4.564300   -2.186500    0.417300
  H     -3.936500    0.653600    1.478100
  H     -3.738000   -0.077900   -0.314800
  H     -4.096700    1.803900   -1.730400
  H     -5.227800    3.903800   -1.183000

 Total Charge           Charge          ....   -1
 Multiplicity           Mult            ....    1
 Number of Electrons    NEL             ....  302
 Basis Dimension        Dim             ....  616

ORBITAL ENERGIES
----------------

  NO   OCC          E(Eh)            E(eV)
   0   2.0000    -101.460826     -2760.8894
   1   2.0000     -89.000706     -2421.8323
   2   2.0000     -24.646135      -670.6554
   3   2.0000     -24.624614      -670.0698
   4   2.0000     -19.029482      -517.8185
   5   2.0000     -19.024645      -517.6869
   6   2.0000     -18.910102      -514.5700
   7   2.0000     -18.889584      -514.0117
   8   2.0000     -14.290818      -388.8729
   9   2.0000     -14.262137      -388.0925
  10   2.0000     -10.293351      -280.0963
  11   2.0000     -10.195505      -277.4338
  12   2.0000     -10.186715      -277.1946
  13   2.0000     -10.164263      -276.5836
  14   2.0000     -10.160769      -276.4886
  15   2.0000     -10.147484      -276.1271
  16   2.0000     -10.147009      -276.1141
  17   2.0000     -10.145452      -276.0718
  18   2.0000     -10.142953      -276.0038
  19   2.0000     -10.140010      -275.9237
  20   2.0000     -10.139589      -275.9123
  21   2.0000     -10.139187      -275.9013
  22   2.0000     -10.138056      -275.8705
  23   2.0000     -10.137919      -275.8668
  24   2.0000     -10.137314      -275.8504
  25   2.0000     -10.136536      -275.8292
  26   2.0000     -10.135519      -275.8015
  27   2.0000     -10.133969      -275.7593
  28   2.0000     -10.133933      -275.7583
  29   2.0000     -10.128753      -275.6174
  30   2.0000     -10.126527      -275.5568
  31   2.0000     -10.122663      -275.4517
  32   2.0000     -10.122001      -275.4337
  33   2.0000     -10.117776      -275.3187
  34   2.0000     -10.100130      -274.8385
  35   2.0000     -10.097227      -274.7595
  36   2.0000     -10.095565      -274.7143
  37   2.0000     -10.079522      -274.2777
  38   2.0000     -10.078784      -274.2577
  39   2.0000     -10.077206      -274.2147
  40   2.0000      -9.392576      -255.5850
  41   2.0000      -8.036592      -218.6868
  42   2.0000      -7.155746      -194.7178
  43   2.0000      -7.146274      -194.4600
  44   2.0000      -7.145647      -194.4429
  45   2.0000      -6.002101      -163.3255
  46   2.0000      -5.999541      -163.2558
  47   2.0000      -5.998732      -163.2338
  48   2.0000      -1.176476       -32.0135
  49   2.0000      -1.119533       -30.4640
  50   2.0000      -0.986952       -26.8563
  51   2.0000      -0.889881       -24.2149
  52   2.0000      -0.864674       -23.5290
  53   2.0000      -0.843488       -22.9525
  54   2.0000      -0.824731       -22.4421
  55   2.0000      -0.818834       -22.2816
  56   2.0000      -0.806656       -21.9502
  57   2.0000      -0.805542       -21.9199
  58   2.0000      -0.793658       -21.5965
  59   2.0000      -0.771567       -20.9954
  60   2.0000      -0.760838       -20.7034
  61   2.0000      -0.727957       -19.8087
  62   2.0000      -0.723529       -19.6882
  63   2.0000      -0.713501       -19.4154
  64   2.0000      -0.700391       -19.0586
  65   2.0000      -0.678279       -18.4569
  66   2.0000      -0.673823       -18.3357
  67   2.0000      -0.669422       -18.2159
  68   2.0000      -0.651613       -17.7313
  69   2.0000      -0.648064       -17.6347
  70   2.0000      -0.612688       -16.6721
  71   2.0000      -0.597443       -16.2573
  72   2.0000      -0.588803       -16.0221
  73   2.0000      -0.564628       -15.3643
  74   2.0000      -0.553188       -15.0530
  75   2.0000      -0.550029       -14.9671
  76   2.0000      -0.541833       -14.7440
  77   2.0000      -0.537073       -14.6145
  78   2.0000      -0.524498       -14.2723
  79   2.0000      -0.521665       -14.1952
  80   2.0000      -0.512118       -13.9354
  81   2.0000      -0.505683       -13.7603
  82   2.0000      -0.501704       -13.6521
  83   2.0000      -0.481821       -13.1110
  84   2.0000      -0.471052       -12.8180
  85   2.0000      -0.468580       -12.7507
  86   2.0000      -0.467719       -12.7273
  87   2.0000      -0.457749       -12.4560
  88   2.0000      -0.447180       -12.1684
  89   2.0000      -0.437973       -11.9179
  90   2.0000      -0.428927       -11.6717
  91   2.0000      -0.423510       -11.5243
  92   2.0000      -0.417399       -11.3580
  93   2.0000      -0.415197       -11.2981
  94   2.0000      -0.411633       -11.2011
  95   2.0000      -0.407260       -11.0821
  96   2.0000      -0.396562       -10.7910
  97   2.0000      -0.391330       -10.6486
  98   2.0000      -0.379781       -10.3344
  99   2.0000      -0.375724       -10.2240
 100   2.0000      -0.372779       -10.1438
 101   2.0000      -0.369527       -10.0553
 102   2.0000      -0.366999        -9.9866
 103   2.0000      -0.364467        -9.9176
 104   2.0000      -0.359144        -9.7728
 105   2.0000      -0.348508        -9.4834
 106   2.0000      -0.347144        -9.4463
 107   2.0000      -0.345021        -9.3885
 108   2.0000      -0.340906        -9.2765
 109   2.0000      -0.335548        -9.1307
 110   2.0000      -0.331262        -9.0141
 111   2.0000      -0.328159        -8.9297
 112   2.0000      -0.325412        -8.8549
 113   2.0000      -0.322861        -8.7855
 114   2.0000      -0.320387        -8.7182
 115   2.0000      -0.318365        -8.6631
 116   2.0000      -0.316488        -8.6121
 117   2.0000      -0.311692        -8.4816
 118   2.0000      -0.305350        -8.3090
 119   2.0000      -0.295610        -8.0439
 120   2.0000      -0.294883        -8.0242
 121   2.0000      -0.291487        -7.9318
 122   2.0000      -0.290101        -7.8941
 123   2.0000      -0.277898        -7.5620
 124   2.0000      -0.277320        -7.5463
 125   2.0000      -0.263431        -7.1683
 126   2.0000      -0.252823        -6.8797
 127   2.0000      -0.248611        -6.7650
 128   2.0000      -0.245394        -6.6775
 129   2.0000      -0.242226        -6.5913
 130   2.0000      -0.234649        -6.3851
 131   2.0000      -0.233679        -6.3587
 132   2.0000      -0.232004        -6.3132
 133   2.0000      -0.226595        -6.1660
 134   2.0000      -0.217197        -5.9102
 135   2.0000      -0.215689        -5.8692
 136   2.0000      -0.214936        -5.8487
 137   2.0000      -0.201902        -5.4940
 138   2.0000      -0.196551        -5.3484
 139   2.0000      -0.189462        -5.1555
 140   2.0000      -0.187704        -5.1077
 141   2.0000      -0.181517        -4.9393
 142   2.0000      -0.179198        -4.8762
 143   2.0000      -0.175935        -4.7874
 144   2.0000      -0.165341        -4.4992
 145   2.0000      -0.155808        -4.2398
 146   2.0000      -0.154065        -4.1923
 147   2.0000      -0.134306        -3.6547
 148   2.0000      -0.064110        -1.7445
 149   2.0000      -0.042452        -1.1552
 150   2.0000      -0.025936        -0.7058
 151   0.0000      -0.000524        -0.0143
 152   0.0000       0.032082         0.8730
 153   0.0000       0.042612         1.1595
 154   0.0000       0.052900         1.4395
 155   0.0000       0.061207         1.6655

MULLIKEN ATOMIC CHARGES
-----------------------
   0 O :   -0.551028
   1 C :    0.411947
   2 O :   -0.655244
   3 C :    0.106067
   4 C :   -0.157657
   5 C :   -0.165720
   6 C :   -0.162725
   7 S :    1.214809
   8 O :   -0.549555
   9 O :   -0.569117
  10 N :   -0.588890
  11 C :   -0.277138
  12 C :    0.206289
  13 C :   -0.164890
  14 C :   -0.160894
  15 C :    0.038297
  16 C :    0.672392
  17 F :   -0.325198
  18 F :   -0.342131
  19 C :   -0.176045
  20 C :   -0.308847
  21 C :   -0.315711
  22 C :   -0.118832
  23 Cl:   -0.009689
  24 C :   -0.144403
  25 C :    0.347159
  26 N :   -0.352693
  27 C :   -0.048366
  28 C :    0.133796
  29 C :   -0.204639
  30 C :   -0.129648
  31 C :   -0.125965
  32 C :   -0.190590
  33 C :    0.115705
  34 C :    0.036941
  35 C :   -0.193765
  36 C :   -0.310049
  37 C :   -0.303187
  38 C :   -0.149072
  39 C :   -0.151315
  40 H :    0.149083
  41 H :    0.154158
  42 H :    0.162500
  43 H :    0.185637
  44 H :    0.128537
  45 H :    0.136592
  46 H :    0.177569
  47 H :    0.158827
  48 H :    0.145869
  49 H :    0.162899
  50 H :    0.144783
  51 H :    0.166510
  52 H :    0.148761
  53 H :    0.130041
  54 H :    0.119922
  55 H :    0.122894
  56 H :    0.141602
  57 H :    0.145578
  58 H :    0.135848
  59 H :    0.159485
  60 H :    0.155142
  61 H :    0.187274
  62 H :    0.145907
  63 H :    0.154184
Sum of atomic charges:   -1.0000000

LOEWDIN ATOMIC CHARGES
----------------------
   0 O :   -0.376687
   1 C :    0.072066
   2 O :   -0.503497
   3 C :   -0.000585
   4 C :   -0.114720
   5 C :   -0.130135
   6 C :   -0.213607
   7 S :    1.259489
   8 O :   -0.582178
   9 O :   -0.588171
  10 N :   -0.273670
  11 C :   -0.148011
  12 C :   -0.015525
  13 C :   -0.128164
  14 C :   -0.120333
  15 C :   -0.055874
  16 C :    0.241444
  17 F :   -0.126114
  18 F :   -0.132366
  19 C :   -0.159625
  20 C :   -0.254592
  21 C :   -0.254992
  22 C :   -0.075298
  23 Cl:    0.032171
  24 C :   -0.112940
  25 C :    0.055488
  26 N :   -0.103237
  27 C :   -0.055381
  28 C :   -0.035113
  29 C :   -0.115567
  30 C :   -0.138172
  31 C :   -0.127730
  32 C :   -0.122818
  33 C :   -0.004883
  34 C :   -0.027505
  35 C :   -0.148014
  36 C :   -0.256897
  37 C :   -0.241642
  38 C :   -0.120928
  39 C :   -0.107044
  40 H :    0.147670
  41 H :    0.137984
  42 H :    0.134809
  43 H :    0.147531
  44 H :    0.132595
  45 H :    0.137265
  46 H :    0.151721
  47 H :    0.135956
  48 H :    0.131360
  49 H :    0.138547
  50 H :    0.130362
  51 H :    0.150036
  52 H :    0.135902
  53 H :    0.132921
  54 H :    0.127885
  55 H :    0.129588
  56 H :    0.141096
  57 H :    0.129283
  58 H :    0.125377
  59 H :    0.137167
  60 H :    0.136791
  61 H :    0.149002
  62 H :    0.139191
  63 H :    0.151317

  Mayer bond orders larger than 0.100000
B(  0-O ,  1-C ) :   1.7065 B(  0-O ,  2-O ) :   0.1498 B(  1-C ,  2-O ) :   1.5478
B(  1-C ,  3-C ) :   0.9271 B(  3-C ,  4-C ) :   1.3892 B(  3-C , 39-C ) :   1.3970
B(  4-C ,  5-C ) :   1.4096 B(  4-C , 40-H ) :   0.9068 B(  5-C ,  6-C ) :   1.3610
B(  5-C , 41-H ) :   0.9130 B(  6-C ,  7-S ) :   0.8417 B(  6-C , 38-C ) :   1.3629
B(  7-S ,  8-O ) :   1.6475 B(  7-S ,  9-O ) :   1.6017 B(  7-S , 10-N ) :   0.7609
B( 10-N , 11-C ) :   0.9539 B( 10-N , 25-C ) :   0.9318 B( 11-C , 12-C ) :   0.9291
B( 11-C , 42-H ) :   0.9182 B( 11-C , 43-H ) :   0.9147 B( 12-C , 13-C ) :   1.4250
B( 12-C , 24-C ) :   1.4378 B( 13-C , 14-C ) :   1.4216 B( 13-C , 44-H ) :   0.9214
B( 14-C , 15-C ) :   1.4057 B( 14-C , 45-H ) :   0.9206 B( 15-C , 16-C ) :   0.9706
B( 15-C , 22-C ) :   1.3601 B( 16-C , 17-F ) :   0.9034 B( 16-C , 18-F ) :   0.8580
B( 16-C , 19-C ) :   0.9958 B( 19-C , 20-C ) :   0.9325 B( 19-C , 21-C ) :   0.9385
B( 19-C , 46-H ) :   0.9186 B( 20-C , 21-C ) :   0.9621 B( 20-C , 47-H ) :   0.9389
B( 20-C , 48-H ) :   0.9441 B( 21-C , 49-H ) :   0.9383 B( 21-C , 50-H ) :   0.9462
B( 22-C , 23-Cl) :   1.0299 B( 22-C , 24-C ) :   1.3981 B( 24-C , 51-H ) :   0.9050
B( 25-C , 26-N ) :   1.2749 B( 25-C , 34-C ) :   1.4086 B( 26-N , 27-C ) :   1.5033
B( 27-C , 28-C ) :   1.2249 B( 27-C , 34-C ) :   0.1011 B( 27-C , 52-H ) :   0.9280
B( 28-C , 29-C ) :   1.2835 B( 28-C , 33-C ) :   1.2837 B( 29-C , 30-C ) :   1.5148
B( 29-C , 32-C ) :   0.1060 B( 29-C , 53-H ) :   0.9244 B( 30-C , 31-C ) :   1.3498
B( 30-C , 54-H ) :   0.9318 B( 31-C , 32-C ) :   1.5071 B( 31-C , 55-H ) :   0.9316
B( 32-C , 33-C ) :   1.2985 B( 32-C , 56-H ) :   0.9117 B( 33-C , 34-C ) :   1.2599
B( 34-C , 35-C ) :   1.0202 B( 35-C , 36-C ) :   0.9274 B( 35-C , 37-C ) :   0.9354
B( 35-C , 57-H ) :   0.9168 B( 36-C , 37-C ) :   0.9563 B( 36-C , 58-H ) :   0.9435
B( 36-C , 59-H ) :   0.9418 B( 37-C , 60-H ) :   0.9426 B( 37-C , 61-H ) :   0.9264
B( 38-C , 39-C ) :   1.4108 B( 38-C , 62-H ) :   0.9173 B( 39-C , 63-H ) :   0.9009

FINAL SINGLE POINT ENERGY     -2624.817957287521

DIPOLE MOMENT
-------------

Method             : SCF
Type of density    : Electron Density
Multiplicity       :   1
Irrep              :   0
Energy             : -2624.8179572875214944 Eh
Relativity type    :
Basis              : AO
                                X                 Y                 Z
Electronic contribution:     23.255251812      13.805345664     -20.641947477
Nuclear contribution   :    -17.381473529     -23.467448679      24.028856536
                        -----------------------------------------
Total Dipole Moment    :      5.873778283      -9.662103015       3.386909060
                        -----------------------------------------
Magnitude (a.u.)       :     11.803756138
Magnitude (Debye)      :     30.002763743

Rotational constants in cm-1:             0.002748             0.001995             0.001282
Rotational constants in MHz :            82.372637            59.814164            38.438101

                             ****ORCA TERMINATED NORMALLY****
TOTAL RUN TIME: 0 days 0 hours 9 minutes 21 seconds 819 msec
