                         Program Version 6.0.0  -   RELEASE  -
|  1> ! B3LYP 6-31G* SP
|  2>
|  3> * xyz 0 1
|  4> O 7.3194 1.1308 -0.5297
|  5> C 6.7459 1.0879 0.5926
|  6> O 7.4604 1.4319 1.7370
|  7> C 5.3281 0.6787 0.6945
|  8> C 4.5857 0.3521 -0.4511
|  9> C 3.2471 -0.0281 -0.3384
| 10> C 2.6501 -0.0923 0.9308
| 11> C 1.2341 -0.4767 1.1093
| 12> O 0.6503 -0.1683 2.1840
| 13> N 0.5194 -1.2037 0.0954
| 14> C -0.9405 -1.3623 0.1430
| 15> C -1.6310 -0.0238 -0.0097
| 16> C -2.7443 0.2874 0.7867
| 17> C -3.4081 1.5078 0.6332
| 18> C -2.9749 2.4369 -0.3326
| 19> O -3.6076 3.6753 -0.5301
| 20> C -4.7436 4.1460 0.1926
| 21> F -4.4454 4.2429 1.5401
| 22> F -5.8150 3.2908 0.0068
| 23> F -5.0874 5.3981 -0.2785
| 24> C -1.8719 2.1201 -1.1357
| 25> F -1.4439 2.9990 -2.0765
| 26> C -1.2081 0.8999 -0.9816
| 27> C -1.4212 -2.3003 -0.9423
| 28> N -0.9860 -2.1250 -2.2229
| 29> C -1.4119 -2.9120 -3.2460
| 30> C -2.3324 -3.9325 -3.0056
| 31> C -2.8102 -4.1284 -1.7097
| 32> C -2.3627 -3.3102 -0.6697
| 33> F -2.8487 -3.4992 0.5832
| 34> N 3.3854 0.2408 2.0272
| 35> C 4.6890 0.6165 1.9421
| 36> H 8.4318 1.7140 1.6786
| 37> H 5.0362 0.3984 -1.4349
| 38> H 2.6882 -0.2429 -1.2392
| 39> H 1.0615 -1.6756 -0.6630
| 40> H -1.1910 -1.7962 1.1364
| 41> H -3.1011 -0.4166 1.5283
| 42> H -4.2583 1.7134 1.2675
| 43> H -0.3637 0.6744 -1.6211
| 44> H -1.0383 -2.7422 -4.2467
| 45> H -2.6761 -4.5614 -3.8165
| 46> H -3.5307 -4.9116 -1.5127
| 47> H 5.2214 0.8661 2.8506
| 48> *
| 49>
| 50>                          ****END OF INPUT****

CARTESIAN COORDINATES (ANGSTROEM)
---------------------------------
  O      7.319400    1.130800   -0.529700
  C      6.745900    1.087900    0.592600
  O      7.460400    1.431900    1.737000
  C      5.328100    0.678700    0.694500
  C      4.585700    0.352100   -0.451100
  C      3.247100   -0.028100   -0.338400
  C      2.650100   -0.092300    0.930800
  C      1.234100   -0.476700    1.109300
  O      0.650300   -0.168300    2.184000
  N      0.519400   -1.203700    0.095400
  C     -0.940500   -1.362300    0.143000
  C     -1.631000   -0.023800   -0.009700
  C     -2.744300    0.287400    0.786700
  C     -3.408100    1.507800    0.633200
  C     -2.974900    2.436900   -0.332600
  O     -3.607600    3.675300   -0.530100
  C     -4.743600    4.146000    0.192600
  F     -4.445400    4.242900    1.540100
  F     -5.815000    3.290800    0.006800
  F     -5.087400    5.398100   -0.278500
  C     -1.871900    2.120100   -1.135700
  F     -1.443900    2.999000   -2.076500
  C     -1.208100    0.899900   -0.981600
  C     -1.421200   -2.300300   -0.942300
  N     -0.986000   -2.125000   -2.222900
  C     -1.411900   -2.912000   -3.246000
  C     -2.332400   -3.932500   -3.005600
  C     -2.810200   -4.128400   -1.709700
  C     -2.362700   -3.310200   -0.669700
  F     -2.848700   -3.499200    0.583200
  N      3.385400    0.240800    2.027200
  C      4.689000    0.616500    1.942100
  H      8.431800    1.714000    1.678600
  H      5.036200    0.398400   -1.434900
  H      2.688200   -0.242900   -1.239200
  H      1.061500   -1.675600   -0.663000
  H     -1.191000   -1.796200    1.136400
  H     -3.101100   -0.416600    1.528300
  H     -4.258300    1.713400    1.267500
  H     -0.363700    0.674400   -1.621100
  H     -1.038300   -2.742200   -4.246700
  H     -2.676100   -4.561400   -3.816500
  H     -3.530700   -4.911600   -1.512700
  H      5.221400    0.866100    2.850600

 Total Charge           Charge          ....    0
 Multiplicity           Mult            ....    1
 Number of Electrons    NEL             ....  230
 Basis Dimension        Dim             ....  472

ORBITAL ENERGIES
----------------

  NO   OCC          E(Eh)            E(eV)
   0   2.0000     -24.738412      -673.1664
   1   2.0000     -24.736920      -673.1258
   2   2.0000     -24.735921      -673.0986
   3   2.0000     -24.726465      -672.8413
   4   2.0000     -24.701734      -672.1684
   5   2.0000     -19.211263      -522.7651
   6   2.0000     -19.195654      -522.3403
   7   2.0000     -19.137699      -520.7633
   8   2.0000     -19.115866      -520.1691
   9   2.0000     -14.365036      -390.8925
  10   2.0000     -14.356127      -390.6501
  11   2.0000     -14.343751      -390.3133
  12   2.0000     -10.502060      -285.7756
  13   2.0000     -10.335193      -281.2349
  14   2.0000     -10.297384      -280.2061
  15   2.0000     -10.296462      -280.1810
  16   2.0000     -10.278210      -279.6843
  17   2.0000     -10.270196      -279.4662
  18   2.0000     -10.255985      -279.0795
  19   2.0000     -10.251534      -278.9584
  20   2.0000     -10.247654      -278.8528
  21   2.0000     -10.241269      -278.6791
  22   2.0000     -10.241057      -278.6733
  23   2.0000     -10.228188      -278.3232
  24   2.0000     -10.224867      -278.2328
  25   2.0000     -10.223386      -278.1925
  26   2.0000     -10.217251      -278.0255
  27   2.0000     -10.215795      -277.9859
  28   2.0000     -10.204358      -277.6747
  29   2.0000     -10.198902      -277.5262
  30   2.0000     -10.195684      -277.4387
  31   2.0000     -10.193371      -277.3757
  32   2.0000      -1.301515       -35.4160
  33   2.0000      -1.238714       -33.7071
  34   2.0000      -1.222377       -33.2626
  35   2.0000      -1.221478       -33.2381
  36   2.0000      -1.214721       -33.0542
  37   2.0000      -1.080628       -29.4054
  38   2.0000      -1.080428       -29.3999
  39   2.0000      -1.016946       -27.6725
  40   2.0000      -0.994676       -27.0665
  41   2.0000      -0.960021       -26.1235
  42   2.0000      -0.946173       -25.7467
  43   2.0000      -0.914152       -24.8753
  44   2.0000      -0.865531       -23.5523
  45   2.0000      -0.823401       -22.4059
  46   2.0000      -0.822038       -22.3688
  47   2.0000      -0.809615       -22.0307
  48   2.0000      -0.793361       -21.5884
  49   2.0000      -0.775038       -21.0899
  50   2.0000      -0.756618       -20.5886
  51   2.0000      -0.729865       -19.8606
  52   2.0000      -0.701800       -19.0969
  53   2.0000      -0.687246       -18.7009
  54   2.0000      -0.657435       -17.8897
  55   2.0000      -0.650006       -17.6876
  56   2.0000      -0.646082       -17.5808
  57   2.0000      -0.635154       -17.2834
  58   2.0000      -0.625812       -17.0292
  59   2.0000      -0.613647       -16.6982
  60   2.0000      -0.593657       -16.1542
  61   2.0000      -0.591730       -16.1018
  62   2.0000      -0.585448       -15.9308
  63   2.0000      -0.575046       -15.6478
  64   2.0000      -0.564613       -15.3639
  65   2.0000      -0.550894       -14.9906
  66   2.0000      -0.538107       -14.6426
  67   2.0000      -0.536927       -14.6105
  68   2.0000      -0.524334       -14.2678
  69   2.0000      -0.520382       -14.1603
  70   2.0000      -0.506743       -13.7892
  71   2.0000      -0.499931       -13.6038
  72   2.0000      -0.488080       -13.2813
  73   2.0000      -0.480117       -13.0647
  74   2.0000      -0.475535       -12.9400
  75   2.0000      -0.470221       -12.7954
  76   2.0000      -0.468483       -12.7481
  77   2.0000      -0.463589       -12.6149
  78   2.0000      -0.460973       -12.5437
  79   2.0000      -0.458619       -12.4797
  80   2.0000      -0.453384       -12.3372
  81   2.0000      -0.450518       -12.2592
  82   2.0000      -0.444837       -12.1046
  83   2.0000      -0.442105       -12.0303
  84   2.0000      -0.439342       -11.9551
  85   2.0000      -0.437809       -11.9134
  86   2.0000      -0.431637       -11.7454
  87   2.0000      -0.429312       -11.6822
  88   2.0000      -0.423038       -11.5115
  89   2.0000      -0.414173       -11.2702
  90   2.0000      -0.413601       -11.2547
  91   2.0000      -0.412339       -11.2203
  92   2.0000      -0.406462       -11.0604
  93   2.0000      -0.401271       -10.9191
  94   2.0000      -0.397282       -10.8106
  95   2.0000      -0.395823       -10.7709
  96   2.0000      -0.393754       -10.7146
  97   2.0000      -0.382455       -10.4071
  98   2.0000      -0.382097       -10.3974
  99   2.0000      -0.372039       -10.1237
 100   2.0000      -0.362925        -9.8757
 101   2.0000      -0.356510        -9.7011
 102   2.0000      -0.341071        -9.2810
 103   2.0000      -0.318679        -8.6717
 104   2.0000      -0.302791        -8.2394
 105   2.0000      -0.295827        -8.0499
 106   2.0000      -0.281820        -7.6687
 107   2.0000      -0.278853        -7.5880
 108   2.0000      -0.277609        -7.5541
 109   2.0000      -0.274238        -7.4624
 110   2.0000      -0.258840        -7.0434
 111   2.0000      -0.254949        -6.9375
 112   2.0000      -0.252347        -6.8667
 113   2.0000      -0.248753        -6.7689
 114   2.0000      -0.233557        -6.3554
 115   0.0000      -0.086262        -2.3473
 116   0.0000      -0.053792        -1.4638
 117   0.0000      -0.039097        -1.0639
 118   0.0000      -0.032426        -0.8824
 119   0.0000      -0.011565        -0.3147

MULLIKEN ATOMIC CHARGES
-----------------------
   0 O :   -0.446851
   1 C :    0.524466
   2 O :   -0.622471
   3 C :    0.069570
   4 C :   -0.121285
   5 C :   -0.171822
   6 C :    0.199183
   7 C :    0.545397
   8 O :   -0.450943
   9 N :   -0.654008
  10 C :   -0.049344
  11 C :    0.181824
  12 C :   -0.172803
  13 C :   -0.182967
  14 C :    0.281085
  15 O :   -0.538624
  16 C :    1.088778
  17 F :   -0.289657
  18 F :   -0.292026
  19 F :   -0.277785
  20 C :    0.375562
  21 F :   -0.308027
  22 C :   -0.243816
  23 C :    0.154628
  24 N :   -0.412184
  25 C :    0.013653
  26 C :   -0.124970
  27 C :   -0.171646
  28 C :    0.375867
  29 F :   -0.306420
  30 N :   -0.375451
  31 C :   -0.007499
  32 H :    0.434696
  33 H :    0.180716
  34 H :    0.150147
  35 H :    0.332819
  36 H :    0.186955
  37 H :    0.145607
  38 H :    0.161303
  39 H :    0.156811
  40 H :    0.159653
  41 H :    0.150982
  42 H :    0.165352
  43 H :    0.185545
Sum of atomic charges:   -0.0000000

LOEWDIN ATOMIC CHARGES
----------------------
   0 O :   -0.263345
   1 C :    0.179106
   2 O :   -0.333404
   3 C :   -0.062915
   4 C :   -0.066237
   5 C :   -0.136598
   6 C :    0.015943
   7 C :    0.136013
   8 O :   -0.251061
   9 N :   -0.235158
  10 C :   -0.043849
  11 C :   -0.011775
  12 C :   -0.123941
  13 C :   -0.150694
  14 C :    0.060720
  15 O :   -0.155330
  16 C :    0.360763
  17 F :   -0.103614
  18 F :   -0.105486
  19 F :   -0.086083
  20 C :    0.107390
  21 F :   -0.096153
  22 C :   -0.141783
  23 C :    0.004787
  24 N :   -0.134085
  25 C :   -0.071697
  26 C :   -0.133783
  27 C :   -0.124424
  28 C :    0.106165
  29 F :   -0.095789
  30 N :   -0.092982
  31 C :   -0.038465
  32 H :    0.350205
  33 H :    0.159371
  34 H :    0.141489
  35 H :    0.253767
  36 H :    0.151483
  37 H :    0.141142
  38 H :    0.147095
  39 H :    0.152005
  40 H :    0.140539
  41 H :    0.143978
  42 H :    0.152972
  43 H :    0.153714

  Mayer bond orders larger than 0.100000
B(  0-O ,  1-C ) :   1.8622 B(  1-C ,  2-O ) :   1.0256 B(  1-C ,  3-C ) :   1.0023
B(  2-O , 32-H ) :   0.7412 B(  3-C ,  4-C ) :   1.4086 B(  3-C , 31-C ) :   1.3231
B(  4-C ,  5-C ) :   1.4242 B(  4-C , 33-H ) :   0.9098 B(  5-C ,  6-C ) :   1.3589
B(  5-C , 34-H ) :   0.9133 B(  6-C ,  7-C ) :   0.9654 B(  6-C , 30-N ) :   1.3750
B(  7-C ,  8-O ) :   1.8250 B(  7-C ,  9-N ) :   1.0378 B(  9-N , 10-C ) :   0.8934
B(  9-N , 35-H ) :   0.8077 B( 10-C , 11-C ) :   0.9540 B( 10-C , 23-C ) :   0.9333
B( 10-C , 36-H ) :   0.9081 B( 11-C , 12-C ) :   1.4294 B( 11-C , 22-C ) :   1.3926
B( 12-C , 13-C ) :   1.4288 B( 12-C , 37-H ) :   0.9195 B( 13-C , 14-C ) :   1.3898
B( 13-C , 38-H ) :   0.9083 B( 14-C , 15-O ) :   0.8319 B( 14-C , 20-C ) :   1.3185
B( 15-O , 16-C ) :   0.9866 B( 16-C , 17-F ) :   0.9711 B( 16-C , 18-F ) :   0.9682
B( 16-C , 19-F ) :   1.0089 B( 20-C , 21-F ) :   0.9385 B( 20-C , 22-C ) :   1.3874
B( 22-C , 39-H ) :   0.9042 B( 23-C , 24-N ) :   1.3748 B( 23-C , 28-C ) :   1.3302
B( 24-N , 25-C ) :   1.4269 B( 25-C , 26-C ) :   1.4188 B( 25-C , 40-H ) :   0.9275
B( 26-C , 27-C ) :   1.4405 B( 26-C , 41-H ) :   0.9229 B( 27-C , 28-C ) :   1.3886
B( 27-C , 42-H ) :   0.9162 B( 28-C , 29-F ) :   0.9239 B( 30-N , 31-C ) :   1.4263
B( 31-C , 43-H ) :   0.9166

FINAL SINGLE POINT ENERGY     -1732.781428721863

DIPOLE MOMENT
-------------

Method             : SCF
Type of density    : Electron Density
Multiplicity       :   1
Irrep              :   0
Energy             : -1732.7814287218634490 Eh
Relativity type    :
Basis              : AO
                                X                 Y                 Z
Electronic contribution:    -26.406914067      23.073955924       3.718209493
Nuclear contribution   :     26.546939628     -25.083486070      -4.920026719
                        -----------------------------------------
Total Dipole Moment    :      0.140025561      -2.009530146      -1.201817227
                        -----------------------------------------
Magnitude (a.u.)       :      2.345673296
Magnitude (Debye)      :      5.962227692

Rotational constants in cm-1:             0.004702             0.002264             0.001734
Rotational constants in MHz :           140.951509            67.886383            51.971021

                             ****ORCA TERMINATED NORMALLY****
TOTAL RUN TIME: 0 days 0 hours 4 minutes 40 seconds 46 msec
