                         Program Version 6.0.0  -   RELEASE  -
|  1> ! B3LYP 6-31G* SP
|  2>
|  3> * xyz 0 1
|  4> O 1.2450 0.7780 -1.2780
|  5> C 1.3887 -0.3435 -0.7172
|  6> N 2.7137 -0.8409 -0.4619
|  7> C 3.8719 0.0034 -0.3433
|  8> C 3.7776 1.3101 0.1725
|  9> C 4.9228 2.1025 0.2995
| 10> C 6.1708 1.5966 -0.0739
| 11> F 7.2800 2.3661 0.0519
| 12> C 6.2763 0.2935 -0.5675
| 13> C 5.1336 -0.5023 -0.6952
| 14> N 0.2230 -1.1290 -0.3768
| 15> C 0.3891 -2.3376 0.4560
| 16> C -0.9115 -2.7726 1.1377
| 17> C -2.0318 -2.8091 0.1544
| 18> N -3.0049 -3.7544 0.2527
| 19> C -4.0516 -3.7795 -0.6132
| 20> C -4.1371 -2.8101 -1.6137
| 21> N -3.1736 -1.8564 -1.7033
| 22> C -2.1180 -1.8321 -0.8439
| 23> C -1.0878 -0.7361 -0.9477
| 24> C -1.6231 0.5315 -0.3077
| 25> C -2.4422 1.3901 -1.0594
| 26> C -2.9744 2.5485 -0.4871
| 27> C -2.7199 2.8600 0.8586
| 28> C -3.2521 4.1355 1.4618
| 29> F -3.4547 3.9852 2.8229
| 30> F -4.4593 4.4846 0.8812
| 31> F -2.3404 5.1530 1.2518
| 32> C -1.8872 2.0121 1.6073
| 33> C -1.3559 0.8529 1.0357
| 34> H 2.8618 -1.8749 -0.4586
| 35> H 2.8267 1.7108 0.4980
| 36> H 4.8425 3.1067 0.6956
| 37> H 7.2435 -0.1021 -0.8496
| 38> H 5.2292 -1.5110 -1.0771
| 39> H 0.7655 -3.1670 -0.1814
| 40> H 1.1358 -2.1454 1.2571
| 41> H -0.7674 -3.7789 1.5873
| 42> H -1.1704 -2.0671 1.9544
| 43> H -4.8131 -4.5422 -0.5217
| 44> H -4.9655 -2.8111 -2.3093
| 45> H -0.9357 -0.5508 -2.0354
| 46> H -2.6672 1.1638 -2.0944
| 47> H -3.5859 3.2008 -1.0977
| 48> H -1.6449 2.2465 2.6364
| 49> H -0.7219 0.2219 1.6422
| 50> *
| 51>
| 52>                          ****END OF INPUT****

CARTESIAN COORDINATES (ANGSTROEM)
---------------------------------
  O      1.245000    0.778000   -1.278000
  C      1.388700   -0.343500   -0.717200
  N      2.713700   -0.840900   -0.461900
  C      3.871900    0.003400   -0.343300
  C      3.777600    1.310100    0.172500
  C      4.922800    2.102500    0.299500
  C      6.170800    1.596600   -0.073900
  F      7.280000    2.366100    0.051900
  C      6.276300    0.293500   -0.567500
  C      5.133600   -0.502300   -0.695200
  N      0.223000   -1.129000   -0.376800
  C      0.389100   -2.337600    0.456000
  C     -0.911500   -2.772600    1.137700
  C     -2.031800   -2.809100    0.154400
  N     -3.004900   -3.754400    0.252700
  C     -4.051600   -3.779500   -0.613200
  C     -4.137100   -2.810100   -1.613700
  N     -3.173600   -1.856400   -1.703300
  C     -2.118000   -1.832100   -0.843900
  C     -1.087800   -0.736100   -0.947700
  C     -1.623100    0.531500   -0.307700
  C     -2.442200    1.390100   -1.059400
  C     -2.974400    2.548500   -0.487100
  C     -2.719900    2.860000    0.858600
  C     -3.252100    4.135500    1.461800
  F     -3.454700    3.985200    2.822900
  F     -4.459300    4.484600    0.881200
  F     -2.340400    5.153000    1.251800
  C     -1.887200    2.012100    1.607300
  C     -1.355900    0.852900    1.035700
  H      2.861800   -1.874900   -0.458600
  H      2.826700    1.710800    0.498000
  H      4.842500    3.106700    0.695600
  H      7.243500   -0.102100   -0.849600
  H      5.229200   -1.511000   -1.077100
  H      0.765500   -3.167000   -0.181400
  H      1.135800   -2.145400    1.257100
  H     -0.767400   -3.778900    1.587300
  H     -1.170400   -2.067100    1.954400
  H     -4.813100   -4.542200   -0.521700
  H     -4.965500   -2.811100   -2.309300
  H     -0.935700   -0.550800   -2.035400
  H     -2.667200    1.163800   -2.094400
  H     -3.585900    3.200800   -1.097700
  H     -1.644900    2.246500    2.636400
  H     -0.721900    0.221900    1.642200

 Total Charge           Charge          ....    0
 Multiplicity           Mult            ....    1
 Number of Electrons    NEL             ....  214
 Basis Dimension        Dim             ....  452

ORBITAL ENERGIES
----------------

  NO   OCC          E(Eh)            E(eV)
   0   2.0000     -24.712580      -672.4635
   1   2.0000     -24.712187      -672.4528
   2   2.0000     -24.707668      -672.3298
   3   2.0000     -24.692403      -671.9144
   4   2.0000     -19.110475      -520.0225
   5   2.0000     -14.375313      -391.1721
   6   2.0000     -14.373843      -391.1321
   7   2.0000     -14.355660      -390.6374
   8   2.0000     -14.353037      -390.5660
   9   2.0000     -10.426848      -283.7290
  10   2.0000     -10.324925      -280.9555
  11   2.0000     -10.262737      -279.2633
  12   2.0000     -10.249316      -278.8981
  13   2.0000     -10.248120      -278.8655
  14   2.0000     -10.245873      -278.8044
  15   2.0000     -10.244370      -278.7635
  16   2.0000     -10.238218      -278.5961
  17   2.0000     -10.237178      -278.5678
  18   2.0000     -10.236450      -278.5480
  19   2.0000     -10.211233      -277.8618
  20   2.0000     -10.205533      -277.7067
  21   2.0000     -10.205122      -277.6955
  22   2.0000     -10.196844      -277.4702
  23   2.0000     -10.195313      -277.4286
  24   2.0000     -10.194502      -277.4065
  25   2.0000     -10.192836      -277.3612
  26   2.0000     -10.190784      -277.3053
  27   2.0000     -10.189274      -277.2642
  28   2.0000     -10.188778      -277.2507
  29   2.0000     -10.188163      -277.2340
  30   2.0000      -1.271895       -34.6100
  31   2.0000      -1.206008       -32.8171
  32   2.0000      -1.197831       -32.5946
  33   2.0000      -1.195799       -32.5393
  34   2.0000      -1.027490       -27.9594
  35   2.0000      -0.980817       -26.6894
  36   2.0000      -0.937504       -25.5108
  37   2.0000      -0.922499       -25.1025
  38   2.0000      -0.900812       -24.5124
  39   2.0000      -0.865769       -23.5588
  40   2.0000      -0.847683       -23.0666
  41   2.0000      -0.818722       -22.2785
  42   2.0000      -0.804744       -21.8982
  43   2.0000      -0.766697       -20.8629
  44   2.0000      -0.754045       -20.5186
  45   2.0000      -0.753387       -20.5007
  46   2.0000      -0.741584       -20.1795
  47   2.0000      -0.717842       -19.5335
  48   2.0000      -0.681690       -18.5497
  49   2.0000      -0.678074       -18.4513
  50   2.0000      -0.644923       -17.5493
  51   2.0000      -0.633387       -17.2353
  52   2.0000      -0.624898       -17.0043
  53   2.0000      -0.618800       -16.8384
  54   2.0000      -0.611906       -16.6508
  55   2.0000      -0.597101       -16.2479
  56   2.0000      -0.569367       -15.4933
  57   2.0000      -0.562574       -15.3084
  58   2.0000      -0.559565       -15.2265
  59   2.0000      -0.554177       -15.0799
  60   2.0000      -0.551537       -15.0081
  61   2.0000      -0.538532       -14.6542
  62   2.0000      -0.525007       -14.2862
  63   2.0000      -0.522435       -14.2162
  64   2.0000      -0.512815       -13.9544
  65   2.0000      -0.500886       -13.6298
  66   2.0000      -0.489592       -13.3225
  67   2.0000      -0.478679       -13.0255
  68   2.0000      -0.475051       -12.9268
  69   2.0000      -0.463248       -12.6056
  70   2.0000      -0.454765       -12.3748
  71   2.0000      -0.450016       -12.2456
  72   2.0000      -0.448858       -12.2140
  73   2.0000      -0.445973       -12.1355
  74   2.0000      -0.441107       -12.0031
  75   2.0000      -0.438695       -11.9375
  76   2.0000      -0.435308       -11.8453
  77   2.0000      -0.430517       -11.7150
  78   2.0000      -0.429647       -11.6913
  79   2.0000      -0.428409       -11.6576
  80   2.0000      -0.424848       -11.5607
  81   2.0000      -0.413315       -11.2469
  82   2.0000      -0.410753       -11.1771
  83   2.0000      -0.403627       -10.9833
  84   2.0000      -0.402129       -10.9425
  85   2.0000      -0.396385       -10.7862
  86   2.0000      -0.390710       -10.6318
  87   2.0000      -0.389746       -10.6055
  88   2.0000      -0.386905       -10.5282
  89   2.0000      -0.385293       -10.4844
  90   2.0000      -0.378287       -10.2937
  91   2.0000      -0.363170        -9.8823
  92   2.0000      -0.358313        -9.7502
  93   2.0000      -0.352370        -9.5885
  94   2.0000      -0.351428        -9.5628
  95   2.0000      -0.343606        -9.3500
  96   2.0000      -0.321689        -8.7536
  97   2.0000      -0.300223        -8.1695
  98   2.0000      -0.294990        -8.0271
  99   2.0000      -0.277752        -7.5580
 100   2.0000      -0.267538        -7.2801
 101   2.0000      -0.257463        -7.0059
 102   2.0000      -0.256163        -6.9706
 103   2.0000      -0.249778        -6.7968
 104   2.0000      -0.246164        -6.6985
 105   2.0000      -0.243514        -6.6264
 106   2.0000      -0.213618        -5.8128
 107   0.0000      -0.062373        -1.6972
 108   0.0000      -0.036962        -1.0058
 109   0.0000      -0.015214        -0.4140
 110   0.0000      -0.009248        -0.2516
 111   0.0000      -0.007443        -0.2025

MULLIKEN ATOMIC CHARGES
-----------------------
   0 O :   -0.483614
   1 C :    0.699498
   2 N :   -0.731645
   3 C :    0.343608
   4 C :   -0.128468
   5 C :   -0.219497
   6 C :    0.407929
   7 F :   -0.321167
   8 C :   -0.211478
   9 C :   -0.174995
  10 N :   -0.473094
  11 C :   -0.145865
  12 C :   -0.354811
  13 C :    0.235580
  14 N :   -0.384018
  15 C :    0.009588
  16 C :    0.011530
  17 N :   -0.384485
  18 C :    0.229694
  19 C :   -0.094900
  20 C :    0.197065
  21 C :   -0.159438
  22 C :   -0.159902
  23 C :   -0.014885
  24 C :    0.892789
  25 F :   -0.307677
  26 F :   -0.306806
  27 F :   -0.296575
  28 C :   -0.159120
  29 C :   -0.172135
  30 H :    0.328959
  31 H :    0.160530
  32 H :    0.149475
  33 H :    0.144671
  34 H :    0.129000
  35 H :    0.144805
  36 H :    0.162921
  37 H :    0.176317
  38 H :    0.178156
  39 H :    0.157370
  40 H :    0.158548
  41 H :    0.188832
  42 H :    0.149461
  43 H :    0.151941
  44 H :    0.148023
  45 H :    0.128283
Sum of atomic charges:   -0.0000000

LOEWDIN ATOMIC CHARGES
----------------------
   0 O :   -0.298465
   1 C :    0.165765
   2 N :   -0.227243
   3 C :    0.034912
   4 C :   -0.121449
   5 C :   -0.151008
   6 C :    0.105896
   7 F :   -0.107370
   8 C :   -0.154701
   9 C :   -0.145838
  10 N :   -0.120467
  11 C :   -0.154916
  12 C :   -0.233094
  13 C :    0.011007
  14 N :   -0.112133
  15 C :   -0.081504
  16 C :   -0.081182
  17 N :   -0.109200
  18 C :    0.018558
  19 C :   -0.038933
  20 C :    0.006643
  21 C :   -0.116590
  22 C :   -0.108390
  23 C :   -0.072560
  24 C :    0.309372
  25 F :   -0.115631
  26 F :   -0.114875
  27 F :   -0.114230
  28 C :   -0.111838
  29 C :   -0.131190
  30 H :    0.255470
  31 H :    0.150136
  32 H :    0.146086
  33 H :    0.143934
  34 H :    0.132637
  35 H :    0.114064
  36 H :    0.132629
  37 H :    0.150772
  38 H :    0.145588
  39 H :    0.140274
  40 H :    0.140974
  41 H :    0.158036
  42 H :    0.143144
  43 H :    0.143592
  44 H :    0.141557
  45 H :    0.131760

  Mayer bond orders larger than 0.100000
B(  0-O ,  1-C ) :   1.7836 B(  1-C ,  2-N ) :   1.0006 B(  1-C , 10-N ) :   1.0413
B(  2-N ,  3-C ) :   0.8686 B(  2-N , 30-H ) :   0.8213 B(  3-C ,  4-C ) :   1.4172
B(  3-C ,  9-C ) :   1.4084 B(  4-C ,  5-C ) :   1.4314 B(  4-C , 31-H ) :   0.9107
B(  5-C ,  6-C ) :   1.3833 B(  5-C , 32-H ) :   0.9203 B(  6-C ,  7-F ) :   0.9136
B(  6-C ,  8-C ) :   1.3984 B(  8-C ,  9-C ) :   1.4272 B(  8-C , 33-H ) :   0.9205
B(  9-C , 34-H ) :   0.9244 B( 10-N , 11-C ) :   0.9371 B( 10-N , 19-C ) :   0.9112
B( 11-C , 12-C ) :   0.9926 B( 11-C , 35-H ) :   0.9225 B( 11-C , 36-H ) :   0.9220
B( 12-C , 13-C ) :   0.9971 B( 12-C , 37-H ) :   0.9222 B( 12-C , 38-H ) :   0.9126
B( 13-C , 14-N ) :   1.3954 B( 13-C , 16-C ) :   0.1014 B( 13-C , 18-C ) :   1.3575
B( 14-N , 15-C ) :   1.4361 B( 15-C , 16-C ) :   1.3852 B( 15-C , 18-C ) :   0.1026
B( 15-C , 39-H ) :   0.9246 B( 16-C , 17-N ) :   1.4357 B( 16-C , 40-H ) :   0.9240
B( 17-N , 18-C ) :   1.3780 B( 18-C , 19-C ) :   0.9533 B( 19-C , 20-C ) :   0.9399
B( 19-C , 41-H ) :   0.9004 B( 20-C , 21-C ) :   1.4188 B( 20-C , 29-C ) :   1.4211
B( 21-C , 22-C ) :   1.4246 B( 21-C , 42-H ) :   0.9187 B( 22-C , 23-C ) :   1.4087
B( 22-C , 43-H ) :   0.9200 B( 23-C , 24-C ) :   0.9808 B( 23-C , 28-C ) :   1.4120
B( 24-C , 25-F ) :   0.9457 B( 24-C , 26-F ) :   0.9468 B( 24-C , 27-F ) :   0.9870
B( 28-C , 29-C ) :   1.4286 B( 28-C , 44-H ) :   0.9205 B( 29-C , 45-H ) :   0.9169

FINAL SINGLE POINT ENERGY     -1502.632613736857

DIPOLE MOMENT
-------------

Method             : SCF
Type of density    : Electron Density
Multiplicity       :   1
Irrep              :   0
Energy             : -1502.6326137368571381 Eh
Relativity type    :
Basis              : AO
                                X                 Y                 Z
Electronic contribution:     -7.993155321      28.522562473       5.935156606
Nuclear contribution   :      7.860749613     -31.052697292      -5.799631228
                        -----------------------------------------
Total Dipole Moment    :     -0.132405708      -2.530134819       0.135525378
                        -----------------------------------------
Magnitude (a.u.)       :      2.537219068
Magnitude (Debye)      :      6.449098354

Rotational constants in cm-1:             0.005317             0.003028             0.002077
Rotational constants in MHz :           159.411525            90.773825            62.278275

                             ****ORCA TERMINATED NORMALLY****
TOTAL RUN TIME: 0 days 0 hours 8 minutes 0 seconds 789 msec
