                         Program Version 6.0.0  -   RELEASE  -
|  1> ! B3LYP 6-31G* SP
|  2>
|  3> * xyz 0 1
|  4> C -3.4650 -1.1570 1.8221
|  5> C -2.5612 -2.0044 0.9573
|  6> C -1.6684 -1.3998 0.0416
|  7> N -1.5702 0.0257 -0.0792
|  8> C -0.5518 0.7485 0.6900
|  9> C 0.8286 0.2781 0.3179
| 10> C 1.4078 0.6888 -0.8923
| 11> C 2.6572 0.1982 -1.2782
| 12> C 3.3481 -0.7072 -0.4564
| 13> C 4.7022 -1.2222 -0.8674
| 14> C 5.8050 -0.1630 -0.6519
| 15> C 6.0200 0.4253 0.7609
| 16> F 6.1358 -0.6056 1.6775
| 17> F 4.9326 1.2105 1.1037
| 18> F 7.1616 1.2121 0.8310
| 19> C 7.0607 -0.3767 -1.4955
| 20> C 6.1006 0.7614 -1.8303
| 21> C 2.7716 -1.1109 0.7589
| 22> C 1.5188 -0.6251 1.1418
| 23> S -2.3926 0.7955 -1.4054
| 24> O -3.6838 0.0755 -1.6858
| 25> O -1.5125 0.7179 -2.6237
| 26> C -2.7629 2.4837 -1.0469
| 27> C -2.6518 3.4580 -2.0499
| 28> C -2.9372 4.7970 -1.7684
| 29> C -3.3361 5.1838 -0.4766
| 30> C -3.6236 6.6045 -0.1788
| 31> O -3.9264 6.9618 0.9924
| 32> O -3.5613 7.5623 -1.1896
| 33> C -3.4585 4.2003 0.5231
| 34> C -3.1842 2.8605 0.2353
| 35> N -0.8761 -2.1705 -0.7486
| 36> C -0.8961 -3.5239 -0.7017
| 37> C -1.7648 -4.1834 0.1715
| 38> C -1.7999 -5.5867 0.2096
| 39> C -2.6799 -6.2427 1.0703
| 40> C -3.5316 -5.5074 1.8949
| 41> C -3.5048 -4.1094 1.8700
| 42> C -2.6178 -3.4222 1.0109
| 43> H -3.2016 -0.0834 1.7887
| 44> H -4.5169 -1.2719 1.4838
| 45> H -3.3826 -1.4694 2.8858
| 46> H -0.6165 1.8380 0.4980
| 47> H -0.7396 0.6058 1.7759
| 48> H 0.8858 1.3789 -1.5439
| 49> H 3.0838 0.5235 -2.2185
| 50> H 4.6515 -1.5400 -1.9327
| 51> H 4.9638 -2.1307 -0.2840
| 52> H 7.0254 -1.2024 -2.2385
| 53> H 8.0268 -0.0210 -1.0756
| 54> H 6.4957 1.7678 -1.5747
| 55> H 5.5127 0.5805 -2.7568
| 56> H 3.2904 -1.8028 1.4106
| 57> H 1.0830 -0.9573 2.0775
| 58> H -2.3459 3.1854 -3.0528
| 59> H -2.8421 5.5290 -2.5627
| 60> H -3.7517 8.5389 -0.9945
| 61> H -3.7675 4.4652 1.5278
| 62> H -3.2873 2.1211 1.0171
| 63> H -0.2389 -4.0830 -1.3574
| 64> H -1.1509 -6.1745 -0.4287
| 65> H -2.7040 -7.3239 1.0957
| 66> H -4.2163 -6.0228 2.5567
| 67> H -4.1891 -3.5823 2.5205
| 68> *
| 69>
| 70>                          ****END OF INPUT****

CARTESIAN COORDINATES (ANGSTROEM)
---------------------------------
  C     -3.465000   -1.157000    1.822100
  C     -2.561200   -2.004400    0.957300
  C     -1.668400   -1.399800    0.041600
  N     -1.570200    0.025700   -0.079200
  C     -0.551800    0.748500    0.690000
  C      0.828600    0.278100    0.317900
  C      1.407800    0.688800   -0.892300
  C      2.657200    0.198200   -1.278200
  C      3.348100   -0.707200   -0.456400
  C      4.702200   -1.222200   -0.867400
  C      5.805000   -0.163000   -0.651900
  C      6.020000    0.425300    0.760900
  F      6.135800   -0.605600    1.677500
  F      4.932600    1.210500    1.103700
  F      7.161600    1.212100    0.831000
  C      7.060700   -0.376700   -1.495500
  C      6.100600    0.761400   -1.830300
  C      2.771600   -1.110900    0.758900
  C      1.518800   -0.625100    1.141800
  S     -2.392600    0.795500   -1.405400
  O     -3.683800    0.075500   -1.685800
  O     -1.512500    0.717900   -2.623700
  C     -2.762900    2.483700   -1.046900
  C     -2.651800    3.458000   -2.049900
  C     -2.937200    4.797000   -1.768400
  C     -3.336100    5.183800   -0.476600
  C     -3.623600    6.604500   -0.178800
  O     -3.926400    6.961800    0.992400
  O     -3.561300    7.562300   -1.189600
  C     -3.458500    4.200300    0.523100
  C     -3.184200    2.860500    0.235300
  N     -0.876100   -2.170500   -0.748600
  C     -0.896100   -3.523900   -0.701700
  C     -1.764800   -4.183400    0.171500
  C     -1.799900   -5.586700    0.209600
  C     -2.679900   -6.242700    1.070300
  C     -3.531600   -5.507400    1.894900
  C     -3.504800   -4.109400    1.870000
  C     -2.617800   -3.422200    1.010900
  H     -3.201600   -0.083400    1.788700
  H     -4.516900   -1.271900    1.483800
  H     -3.382600   -1.469400    2.885800
  H     -0.616500    1.838000    0.498000
  H     -0.739600    0.605800    1.775900
  H      0.885800    1.378900   -1.543900
  H      3.083800    0.523500   -2.218500
  H      4.651500   -1.540000   -1.932700
  H      4.963800   -2.130700   -0.284000
  H      7.025400   -1.202400   -2.238500
  H      8.026800   -0.021000   -1.075600
  H      6.495700    1.767800   -1.574700
  H      5.512700    0.580500   -2.756800
  H      3.290400   -1.802800    1.410600
  H      1.083000   -0.957300    2.077500
  H     -2.345900    3.185400   -3.052800
  H     -2.842100    5.529000   -2.562700
  H     -3.751700    8.538900   -0.994500
  H     -3.767500    4.465200    1.527800
  H     -3.287300    2.121100    1.017100
  H     -0.238900   -4.083000   -1.357400
  H     -1.150900   -6.174500   -0.428700
  H     -2.704000   -7.323900    1.095700
  H     -4.216300   -6.022800    2.556700
  H     -4.189100   -3.582300    2.520500

 Total Charge           Charge          ....    0
 Multiplicity           Mult            ....    1
 Number of Electrons    NEL             ....  288
 Basis Dimension        Dim             ....  600

ORBITAL ENERGIES
----------------

  NO   OCC          E(Eh)            E(eV)
   0   2.0000     -89.092594     -2424.3327
   1   2.0000     -24.718243      -672.6176
   2   2.0000     -24.712073      -672.4497
   3   2.0000     -24.706315      -672.2930
   4   2.0000     -19.197460      -522.3894
   5   2.0000     -19.139603      -520.8151
   6   2.0000     -19.118787      -520.2486
   7   2.0000     -19.114036      -520.1194
   8   2.0000     -14.364462      -390.8769
   9   2.0000     -14.322562      -389.7367
  10   2.0000     -10.428707      -283.7795
  11   2.0000     -10.337119      -281.2873
  12   2.0000     -10.254418      -279.0369
  13   2.0000     -10.247513      -278.8490
  14   2.0000     -10.234174      -278.4860
  15   2.0000     -10.229937      -278.3707
  16   2.0000     -10.225031      -278.2372
  17   2.0000     -10.221957      -278.1536
  18   2.0000     -10.220980      -278.1270
  19   2.0000     -10.219627      -278.0902
  20   2.0000     -10.218437      -278.0578
  21   2.0000     -10.217812      -278.0408
  22   2.0000     -10.208253      -277.7807
  23   2.0000     -10.203520      -277.6519
  24   2.0000     -10.196695      -277.4662
  25   2.0000     -10.195496      -277.4336
  26   2.0000     -10.194539      -277.4075
  27   2.0000     -10.194163      -277.3973
  28   2.0000     -10.193493      -277.3790
  29   2.0000     -10.193267      -277.3729
  30   2.0000     -10.192822      -277.3608
  31   2.0000     -10.191809      -277.3332
  32   2.0000     -10.185493      -277.1614
  33   2.0000     -10.181302      -277.0473
  34   2.0000     -10.179871      -277.0084
  35   2.0000     -10.174109      -276.8516
  36   2.0000     -10.171292      -276.7749
  37   2.0000     -10.170875      -276.7636
  38   2.0000     -10.170051      -276.7412
  39   2.0000      -8.128554      -221.1892
  40   2.0000      -6.093608      -165.8155
  41   2.0000      -6.091647      -165.7621
  42   2.0000      -6.091044      -165.7457
  43   2.0000      -1.271632       -34.6029
  44   2.0000      -1.199942       -32.6521
  45   2.0000      -1.193889       -32.4874
  46   2.0000      -1.081592       -29.4316
  47   2.0000      -1.075450       -29.2645
  48   2.0000      -0.996277       -27.1101
  49   2.0000      -0.955710       -26.0062
  50   2.0000      -0.953247       -25.9392
  51   2.0000      -0.908066       -24.7097
  52   2.0000      -0.892350       -24.2821
  53   2.0000      -0.875027       -23.8107
  54   2.0000      -0.860555       -23.4169
  55   2.0000      -0.843059       -22.9408
  56   2.0000      -0.809773       -22.0350
  57   2.0000      -0.804408       -21.8890
  58   2.0000      -0.779637       -21.2150
  59   2.0000      -0.779370       -21.2077
  60   2.0000      -0.769912       -20.9504
  61   2.0000      -0.741884       -20.1877
  62   2.0000      -0.733226       -19.9521
  63   2.0000      -0.726596       -19.7717
  64   2.0000      -0.712641       -19.3919
  65   2.0000      -0.704905       -19.1814
  66   2.0000      -0.689976       -18.7752
  67   2.0000      -0.661497       -18.0002
  68   2.0000      -0.651073       -17.7166
  69   2.0000      -0.642752       -17.4902
  70   2.0000      -0.640919       -17.4403
  71   2.0000      -0.615680       -16.7535
  72   2.0000      -0.602672       -16.3995
  73   2.0000      -0.599209       -16.3053
  74   2.0000      -0.596114       -16.2211
  75   2.0000      -0.593480       -16.1494
  76   2.0000      -0.592290       -16.1170
  77   2.0000      -0.571166       -15.5422
  78   2.0000      -0.563260       -15.3271
  79   2.0000      -0.557705       -15.1759
  80   2.0000      -0.557040       -15.1578
  81   2.0000      -0.541480       -14.7344
  82   2.0000      -0.529318       -14.4035
  83   2.0000      -0.521067       -14.1790
  84   2.0000      -0.513097       -13.9621
  85   2.0000      -0.500025       -13.6064
  86   2.0000      -0.489263       -13.3135
  87   2.0000      -0.484299       -13.1784
  88   2.0000      -0.482005       -13.1160
  89   2.0000      -0.476011       -12.9529
  90   2.0000      -0.475624       -12.9424
  91   2.0000      -0.468630       -12.7521
  92   2.0000      -0.460895       -12.5416
  93   2.0000      -0.457194       -12.4409
  94   2.0000      -0.451615       -12.2891
  95   2.0000      -0.450945       -12.2708
  96   2.0000      -0.446780       -12.1575
  97   2.0000      -0.443566       -12.0700
  98   2.0000      -0.442938       -12.0530
  99   2.0000      -0.439975       -11.9723
 100   2.0000      -0.439240       -11.9523
 101   2.0000      -0.432889       -11.7795
 102   2.0000      -0.430694       -11.7198
 103   2.0000      -0.429788       -11.6951
 104   2.0000      -0.423360       -11.5202
 105   2.0000      -0.416365       -11.3299
 106   2.0000      -0.415015       -11.2931
 107   2.0000      -0.411514       -11.1979
 108   2.0000      -0.408192       -11.1075
 109   2.0000      -0.407882       -11.0990
 110   2.0000      -0.402035       -10.9399
 111   2.0000      -0.400108       -10.8875
 112   2.0000      -0.394519       -10.7354
 113   2.0000      -0.391700       -10.6587
 114   2.0000      -0.391616       -10.6564
 115   2.0000      -0.389678       -10.6037
 116   2.0000      -0.383321       -10.4307
 117   2.0000      -0.374206       -10.1827
 118   2.0000      -0.371429       -10.1071
 119   2.0000      -0.370185       -10.0732
 120   2.0000      -0.368344       -10.0232
 121   2.0000      -0.365795        -9.9538
 122   2.0000      -0.351795        -9.5728
 123   2.0000      -0.346737        -9.4352
 124   2.0000      -0.346221        -9.4211
 125   2.0000      -0.335947        -9.1416
 126   2.0000      -0.330715        -8.9992
 127   2.0000      -0.322319        -8.7707
 128   2.0000      -0.314413        -8.5556
 129   2.0000      -0.303212        -8.2508
 130   2.0000      -0.298868        -8.1326
 131   2.0000      -0.292741        -7.9659
 132   2.0000      -0.288282        -7.8446
 133   2.0000      -0.286663        -7.8005
 134   2.0000      -0.283103        -7.7036
 135   2.0000      -0.281898        -7.6708
 136   2.0000      -0.276296        -7.5184
 137   2.0000      -0.265502        -7.2247
 138   2.0000      -0.262374        -7.1396
 139   2.0000      -0.244072        -6.6415
 140   2.0000      -0.241156        -6.5622
 141   2.0000      -0.236889        -6.4461
 142   2.0000      -0.223297        -6.0762
 143   2.0000      -0.219028        -5.9601
 144   0.0000      -0.084962        -2.3119
 145   0.0000      -0.057780        -1.5723
 146   0.0000      -0.033438        -0.9099
 147   0.0000      -0.030542        -0.8311
 148   0.0000      -0.000986        -0.0268

MULLIKEN ATOMIC CHARGES
-----------------------
   0 C :   -0.543276
   1 C :    0.110691
   2 C :    0.320162
   3 N :   -0.616232
   4 C :   -0.266246
   5 C :    0.186781
   6 C :   -0.146197
   7 C :   -0.169720
   8 C :    0.175514
   9 C :   -0.395680
  10 C :   -0.005576
  11 C :    0.932298
  12 F :   -0.306146
  13 F :   -0.298256
  14 F :   -0.310412
  15 C :   -0.332815
  16 C :   -0.323471
  17 C :   -0.173952
  18 C :   -0.166245
  19 S :    1.205434
  20 O :   -0.530293
  21 O :   -0.537182
  22 C :   -0.135596
  23 C :   -0.140187
  24 C :   -0.144783
  25 C :    0.081170
  26 C :    0.529384
  27 O :   -0.444594
  28 O :   -0.623612
  29 C :   -0.138385
  30 C :   -0.150616
  31 N :   -0.355742
  32 C :   -0.050126
  33 C :    0.136752
  34 C :   -0.201533
  35 C :   -0.126022
  36 C :   -0.121166
  37 C :   -0.198417
  38 C :    0.122658
  39 H :    0.167381
  40 H :    0.182546
  41 H :    0.154366
  42 H :    0.168086
  43 H :    0.152265
  44 H :    0.143320
  45 H :    0.121630
  46 H :    0.151218
  47 H :    0.155999
  48 H :    0.156674
  49 H :    0.168326
  50 H :    0.167559
  51 H :    0.159621
  52 H :    0.124249
  53 H :    0.117948
  54 H :    0.193613
  55 H :    0.176506
  56 H :    0.434962
  57 H :    0.179863
  58 H :    0.174422
  59 H :    0.152175
  60 H :    0.139436
  61 H :    0.135254
  62 H :    0.136541
  63 H :    0.137675
Sum of atomic charges:   -0.0000000

LOEWDIN ATOMIC CHARGES
----------------------
   0 C :   -0.357191
   1 C :   -0.002077
   2 C :    0.033702
   3 N :   -0.285759
   4 C :   -0.149917
   5 C :   -0.033891
   6 C :   -0.109901
   7 C :   -0.125411
   8 C :   -0.020304
   9 C :   -0.206503
  10 C :   -0.069175
  11 C :    0.319094
  12 F :   -0.117124
  13 F :   -0.110127
  14 F :   -0.116987
  15 C :   -0.250311
  16 C :   -0.246023
  17 C :   -0.133945
  18 C :   -0.128906
  19 S :    1.256337
  20 O :   -0.571141
  21 O :   -0.574388
  22 C :   -0.168050
  23 C :   -0.095859
  24 C :   -0.096514
  25 C :   -0.039181
  26 C :    0.180918
  27 O :   -0.260878
  28 O :   -0.334864
  29 C :   -0.086198
  30 C :   -0.114248
  31 N :   -0.105500
  32 C :   -0.057558
  33 C :   -0.025726
  34 C :   -0.111646
  35 C :   -0.125733
  36 C :   -0.118789
  37 C :   -0.122691
  38 C :   -0.007369
  39 H :    0.132226
  40 H :    0.148810
  41 H :    0.131943
  42 H :    0.139752
  43 H :    0.124285
  44 H :    0.138574
  45 H :    0.129284
  46 H :    0.135488
  47 H :    0.132258
  48 H :    0.135712
  49 H :    0.140967
  50 H :    0.141116
  51 H :    0.135679
  52 H :    0.129741
  53 H :    0.126608
  54 H :    0.165410
  55 H :    0.156809
  56 H :    0.350493
  57 H :    0.159971
  58 H :    0.150699
  59 H :    0.137416
  60 H :    0.137357
  61 H :    0.135141
  62 H :    0.135985
  63 H :    0.138112

  Mayer bond orders larger than 0.100000
B(  0-C ,  1-C ) :   1.0039 B(  0-C , 39-H ) :   0.9272 B(  0-C , 40-H ) :   0.9237
B(  0-C , 41-H ) :   0.9282 B(  1-C ,  2-C ) :   1.4438 B(  1-C , 32-C ) :   0.1009
B(  1-C , 38-C ) :   1.2634 B(  2-C ,  3-N ) :   0.8863 B(  2-C , 31-N ) :   1.2828
B(  3-N ,  4-C ) :   0.9300 B(  3-N , 19-S ) :   0.7959 B(  4-C ,  5-C ) :   0.9520
B(  4-C , 42-H ) :   0.9200 B(  4-C , 43-H ) :   0.9248 B(  5-C ,  6-C ) :   1.4198
B(  5-C , 18-C ) :   1.4405 B(  6-C ,  7-C ) :   1.4459 B(  6-C , 44-H ) :   0.9118
B(  7-C ,  8-C ) :   1.4146 B(  7-C , 45-H ) :   0.9235 B(  8-C ,  9-C ) :   0.9722
B(  8-C , 17-C ) :   1.4415 B(  9-C , 10-C ) :   0.9877 B(  9-C , 46-H ) :   0.9253
B(  9-C , 47-H ) :   0.9259 B( 10-C , 11-C ) :   0.9797 B( 10-C , 15-C ) :   0.9118
B( 10-C , 16-C ) :   0.9194 B( 11-C , 12-F ) :   0.9566 B( 11-C , 13-F ) :   0.9637
B( 11-C , 14-F ) :   0.9354 B( 15-C , 16-C ) :   0.9505 B( 15-C , 48-H ) :   0.9391
B( 15-C , 49-H ) :   0.9336 B( 16-C , 50-H ) :   0.9356 B( 16-C , 51-H ) :   0.9382
B( 17-C , 18-C ) :   1.4213 B( 17-C , 52-H ) :   0.9228 B( 18-C , 53-H ) :   0.9236
B( 19-S , 20-O ) :   1.6683 B( 19-S , 21-O ) :   1.6300 B( 19-S , 22-C ) :   0.8023
B( 22-C , 23-C ) :   1.4123 B( 22-C , 30-C ) :   1.3688 B( 23-C , 24-C ) :   1.4175
B( 23-C , 54-H ) :   0.9062 B( 24-C , 25-C ) :   1.3831 B( 24-C , 55-H ) :   0.9138
B( 25-C , 26-C ) :   1.0081 B( 25-C , 29-C ) :   1.4021 B( 26-C , 27-O ) :   1.8621
B( 26-C , 28-O ) :   1.0251 B( 28-O , 56-H ) :   0.7413 B( 29-C , 30-C ) :   1.4318
B( 29-C , 57-H ) :   0.9093 B( 30-C , 58-H ) :   0.9086 B( 31-N , 32-C ) :   1.5000
B( 32-C , 33-C ) :   1.2303 B( 32-C , 59-H ) :   0.9267 B( 33-C , 34-C ) :   1.2844
B( 33-C , 38-C ) :   1.2914 B( 34-C , 35-C ) :   1.5126 B( 34-C , 37-C ) :   0.1063
B( 34-C , 60-H ) :   0.9232 B( 35-C , 36-C ) :   1.3538 B( 35-C , 61-H ) :   0.9293
B( 36-C , 37-C ) :   1.5086 B( 36-C , 62-H ) :   0.9293 B( 37-C , 38-C ) :   1.2937
B( 37-C , 63-H ) :   0.9166

FINAL SINGLE POINT ENERGY     -2227.022164913018

DIPOLE MOMENT
-------------

Method             : SCF
Type of density    : Electron Density
Multiplicity       :   1
Irrep              :   0
Energy             : -2227.0221649130176047 Eh
Relativity type    :
Basis              : AO
                                X                 Y                 Z
Electronic contribution:     12.501189694      14.192293280       2.936864795
Nuclear contribution   :    -12.428219431     -14.305163750      -2.278485257
                        -----------------------------------------
Total Dipole Moment    :      0.072970263      -0.112870470       0.658379538
                        -----------------------------------------
Magnitude (a.u.)       :      0.671958345
Magnitude (Debye)      :      1.707982379

Rotational constants in cm-1:             0.002657             0.001922             0.001240
Rotational constants in MHz :            79.651921            57.612570            37.179719

                             ****ORCA TERMINATED NORMALLY****
TOTAL RUN TIME: 0 days 0 hours 13 minutes 28 seconds 599 msec
