                         Program Version 6.0.0  -   RELEASE  -
|  1> ! B3LYP 6-31G* SP
|  2>
|  3> * xyz 0 1
|  4> C -3.5583 -1.4401 -0.3768
|  5> C -2.6473 -2.4271 0.3728
|  6> C -2.2940 -3.6117 -0.5336
|  7> C -1.3755 -1.7573 0.8771
|  8> N -0.9128 -0.6853 0.1901
|  9> C 0.2089 0.0007 0.5127
| 10> N 0.5277 1.1488 -0.2811
| 11> C 0.9274 0.9529 -1.6775
| 12> C 2.4053 0.7003 -1.7607
| 13> C 3.2891 1.7551 -2.0372
| 14> C 4.6678 1.5280 -2.0822
| 15> C 5.1845 0.2411 -1.8301
| 16> O 6.5597 -0.0432 -1.8603
| 17> C 7.5830 0.8822 -2.2201
| 18> F 7.3761 1.3403 -3.5093
| 19> F 8.8061 0.2426 -2.1656
| 20> F 7.5987 1.9473 -1.3374
| 21> C 4.2991 -0.8036 -1.5356
| 22> C 2.9199 -0.5790 -1.5007
| 23> S -0.1576 2.6668 0.2100
| 24> O 0.1433 2.9106 1.6629
| 25> O 0.4378 3.7914 -0.5908
| 26> C -1.8965 2.6024 -0.0480
| 27> C -2.7667 2.3771 1.0264
| 28> C -4.1423 2.2625 0.8053
| 29> C -4.6654 2.3565 -0.4983
| 30> C -6.1175 2.2144 -0.7411
| 31> O -6.9093 2.0114 0.2194
| 32> O -6.6235 2.3007 -2.0356
| 33> C -3.7849 2.5786 -1.5716
| 34> C -2.4110 2.7007 -1.3459
| 35> C 0.9920 -0.3974 1.6248
| 36> C 2.2795 0.3352 2.0052
| 37> F 2.1489 0.8653 3.2764
| 38> F 3.3420 -0.5526 1.9836
| 39> F 2.6003 1.3743 1.1542
| 40> C 0.5504 -1.5286 2.3770
| 41> C 1.2634 -1.9910 3.5111
| 42> C 0.8365 -3.1112 4.2225
| 43> C -0.3012 -3.8020 3.8244
| 44> C -1.0320 -3.3703 2.7203
| 45> C -0.6343 -2.2265 1.9894
| 46> H -3.0731 -1.0715 -1.3091
| 47> H -4.5165 -1.9357 -0.6496
| 48> H -3.7933 -0.5721 0.2762
| 49> H -3.2509 -2.7926 1.2301
| 50> H -1.6783 -4.3531 0.0178
| 51> H -3.2200 -4.1213 -0.8773
| 52> H -1.7219 -3.2665 -1.4222
| 53> H 0.3717 0.0972 -2.1204
| 54> H 0.6606 1.8412 -2.2893
| 55> H 2.9112 2.7549 -2.2183
| 56> H 5.3186 2.3618 -2.3074
| 57> H 4.6825 -1.7964 -1.3333
| 58> H 2.2533 -1.3998 -1.2640
| 59> H -2.3825 2.2747 2.0334
| 60> H -4.7936 2.0848 1.6521
| 61> H -7.6156 2.2057 -2.2120
| 62> H -4.1549 2.6527 -2.5872
| 63> H -1.7485 2.8592 -2.1862
| 64> H 2.1573 -1.5014 3.8693
| 65> H 1.3962 -3.4490 5.0857
| 66> H -0.6203 -4.6780 4.3754
| 67> H -1.8993 -3.9548 2.4509
| 68> *
| 69>
| 70>                          ****END OF INPUT****

CARTESIAN COORDINATES (ANGSTROEM)
---------------------------------
  C     -3.558300   -1.440100   -0.376800
  C     -2.647300   -2.427100    0.372800
  C     -2.294000   -3.611700   -0.533600
  C     -1.375500   -1.757300    0.877100
  N     -0.912800   -0.685300    0.190100
  C      0.208900    0.000700    0.512700
  N      0.527700    1.148800   -0.281100
  C      0.927400    0.952900   -1.677500
  C      2.405300    0.700300   -1.760700
  C      3.289100    1.755100   -2.037200
  C      4.667800    1.528000   -2.082200
  C      5.184500    0.241100   -1.830100
  O      6.559700   -0.043200   -1.860300
  C      7.583000    0.882200   -2.220100
  F      7.376100    1.340300   -3.509300
  F      8.806100    0.242600   -2.165600
  F      7.598700    1.947300   -1.337400
  C      4.299100   -0.803600   -1.535600
  C      2.919900   -0.579000   -1.500700
  S     -0.157600    2.666800    0.210000
  O      0.143300    2.910600    1.662900
  O      0.437800    3.791400   -0.590800
  C     -1.896500    2.602400   -0.048000
  C     -2.766700    2.377100    1.026400
  C     -4.142300    2.262500    0.805300
  C     -4.665400    2.356500   -0.498300
  C     -6.117500    2.214400   -0.741100
  O     -6.909300    2.011400    0.219400
  O     -6.623500    2.300700   -2.035600
  C     -3.784900    2.578600   -1.571600
  C     -2.411000    2.700700   -1.345900
  C      0.992000   -0.397400    1.624800
  C      2.279500    0.335200    2.005200
  F      2.148900    0.865300    3.276400
  F      3.342000   -0.552600    1.983600
  F      2.600300    1.374300    1.154200
  C      0.550400   -1.528600    2.377000
  C      1.263400   -1.991000    3.511100
  C      0.836500   -3.111200    4.222500
  C     -0.301200   -3.802000    3.824400
  C     -1.032000   -3.370300    2.720300
  C     -0.634300   -2.226500    1.989400
  H     -3.073100   -1.071500   -1.309100
  H     -4.516500   -1.935700   -0.649600
  H     -3.793300   -0.572100    0.276200
  H     -3.250900   -2.792600    1.230100
  H     -1.678300   -4.353100    0.017800
  H     -3.220000   -4.121300   -0.877300
  H     -1.721900   -3.266500   -1.422200
  H      0.371700    0.097200   -2.120400
  H      0.660600    1.841200   -2.289300
  H      2.911200    2.754900   -2.218300
  H      5.318600    2.361800   -2.307400
  H      4.682500   -1.796400   -1.333300
  H      2.253300   -1.399800   -1.264000
  H     -2.382500    2.274700    2.033400
  H     -4.793600    2.084800    1.652100
  H     -7.615600    2.205700   -2.212000
  H     -4.154900    2.652700   -2.587200
  H     -1.748500    2.859200   -2.186200
  H      2.157300   -1.501400    3.869300
  H      1.396200   -3.449000    5.085700
  H     -0.620300   -4.678000    4.375400
  H     -1.899300   -3.954800    2.450900

 Total Charge           Charge          ....    0
 Multiplicity           Mult            ....    1
 Number of Electrons    NEL             ....  314
 Basis Dimension        Dim             ....  636

ORBITAL ENERGIES
----------------

  NO   OCC          E(Eh)            E(eV)
   0   2.0000     -89.098548     -2424.4948
   1   2.0000     -24.736392      -673.1114
   2   2.0000     -24.733470      -673.0319
   3   2.0000     -24.733246      -673.0258
   4   2.0000     -24.715920      -672.5544
   5   2.0000     -24.710962      -672.4194
   6   2.0000     -24.707512      -672.3256
   7   2.0000     -19.207438      -522.6610
   8   2.0000     -19.197552      -522.3919
   9   2.0000     -19.138702      -520.7906
  10   2.0000     -19.131211      -520.5867
  11   2.0000     -19.126877      -520.4688
  12   2.0000     -14.373723      -391.1289
  13   2.0000     -14.344621      -390.3370
  14   2.0000     -10.498597      -285.6813
  15   2.0000     -10.435026      -283.9515
  16   2.0000     -10.336278      -281.2644
  17   2.0000     -10.281348      -279.7697
  18   2.0000     -10.263488      -279.2837
  19   2.0000     -10.251952      -278.9698
  20   2.0000     -10.241190      -278.6770
  21   2.0000     -10.232409      -278.4380
  22   2.0000     -10.231901      -278.4242
  23   2.0000     -10.231619      -278.4165
  24   2.0000     -10.228933      -278.3434
  25   2.0000     -10.221132      -278.1311
  26   2.0000     -10.219215      -278.0790
  27   2.0000     -10.219004      -278.0732
  28   2.0000     -10.218068      -278.0478
  29   2.0000     -10.217358      -278.0284
  30   2.0000     -10.208987      -277.8007
  31   2.0000     -10.206498      -277.7329
  32   2.0000     -10.206483      -277.7325
  33   2.0000     -10.205824      -277.7146
  34   2.0000     -10.204652      -277.6827
  35   2.0000     -10.192906      -277.3631
  36   2.0000     -10.192564      -277.3538
  37   2.0000     -10.192274      -277.3459
  38   2.0000     -10.190118      -277.2872
  39   2.0000     -10.188350      -277.2391
  40   2.0000     -10.187057      -277.2039
  41   2.0000     -10.175196      -276.8811
  42   2.0000      -8.134485      -221.3506
  43   2.0000      -6.099483      -165.9754
  44   2.0000      -6.097556      -165.9229
  45   2.0000      -6.097066      -165.9096
  46   2.0000      -1.298777       -35.3415
  47   2.0000      -1.274231       -34.6736
  48   2.0000      -1.219376       -33.1809
  49   2.0000      -1.219115       -33.1738
  50   2.0000      -1.200037       -32.6547
  51   2.0000      -1.194071       -32.4923
  52   2.0000      -1.085879       -29.5483
  53   2.0000      -1.082061       -29.4444
  54   2.0000      -1.077244       -29.3133
  55   2.0000      -0.996035       -27.1035
  56   2.0000      -0.978485       -26.6259
  57   2.0000      -0.964765       -26.2526
  58   2.0000      -0.926278       -25.2053
  59   2.0000      -0.890085       -24.2205
  60   2.0000      -0.876647       -23.8548
  61   2.0000      -0.859544       -23.3894
  62   2.0000      -0.831674       -22.6310
  63   2.0000      -0.807496       -21.9731
  64   2.0000      -0.804002       -21.8780
  65   2.0000      -0.783452       -21.3188
  66   2.0000      -0.777039       -21.1443
  67   2.0000      -0.775909       -21.1135
  68   2.0000      -0.753642       -20.5077
  69   2.0000      -0.753142       -20.4940
  70   2.0000      -0.727511       -19.7966
  71   2.0000      -0.711765       -19.3681
  72   2.0000      -0.696517       -18.9532
  73   2.0000      -0.687501       -18.7079
  74   2.0000      -0.675991       -18.3947
  75   2.0000      -0.659969       -17.9587
  76   2.0000      -0.659329       -17.9412
  77   2.0000      -0.639182       -17.3930
  78   2.0000      -0.630471       -17.1560
  79   2.0000      -0.629265       -17.1232
  80   2.0000      -0.623691       -16.9715
  81   2.0000      -0.613216       -16.6864
  82   2.0000      -0.600056       -16.3284
  83   2.0000      -0.590717       -16.0742
  84   2.0000      -0.587168       -15.9776
  85   2.0000      -0.585993       -15.9457
  86   2.0000      -0.569135       -15.4869
  87   2.0000      -0.568339       -15.4653
  88   2.0000      -0.565706       -15.3936
  89   2.0000      -0.561371       -15.2757
  90   2.0000      -0.551326       -15.0023
  91   2.0000      -0.541665       -14.7394
  92   2.0000      -0.535621       -14.5750
  93   2.0000      -0.519439       -14.1347
  94   2.0000      -0.500236       -13.6121
  95   2.0000      -0.497367       -13.5341
  96   2.0000      -0.493125       -13.4186
  97   2.0000      -0.485115       -13.2006
  98   2.0000      -0.484656       -13.1882
  99   2.0000      -0.475256       -12.9324
 100   2.0000      -0.471635       -12.8338
 101   2.0000      -0.467158       -12.7120
 102   2.0000      -0.465328       -12.6622
 103   2.0000      -0.464326       -12.6350
 104   2.0000      -0.462442       -12.5837
 105   2.0000      -0.458637       -12.4802
 106   2.0000      -0.454627       -12.3710
 107   2.0000      -0.451826       -12.2948
 108   2.0000      -0.449026       -12.2186
 109   2.0000      -0.446642       -12.1537
 110   2.0000      -0.444545       -12.0967
 111   2.0000      -0.443512       -12.0686
 112   2.0000      -0.440065       -11.9748
 113   2.0000      -0.439733       -11.9657
 114   2.0000      -0.437272       -11.8988
 115   2.0000      -0.430090       -11.7033
 116   2.0000      -0.429054       -11.6751
 117   2.0000      -0.425687       -11.5835
 118   2.0000      -0.422818       -11.5055
 119   2.0000      -0.416922       -11.3450
 120   2.0000      -0.413995       -11.2654
 121   2.0000      -0.411064       -11.1856
 122   2.0000      -0.407124       -11.0784
 123   2.0000      -0.404967       -11.0197
 124   2.0000      -0.400942       -10.9102
 125   2.0000      -0.399815       -10.8795
 126   2.0000      -0.396143       -10.7796
 127   2.0000      -0.392158       -10.6712
 128   2.0000      -0.389565       -10.6006
 129   2.0000      -0.388405       -10.5690
 130   2.0000      -0.385591       -10.4925
 131   2.0000      -0.382780       -10.4160
 132   2.0000      -0.378143       -10.2898
 133   2.0000      -0.372879       -10.1466
 134   2.0000      -0.369926       -10.0662
 135   2.0000      -0.369344       -10.0504
 136   2.0000      -0.364715        -9.9244
 137   2.0000      -0.354727        -9.6526
 138   2.0000      -0.347301        -9.4505
 139   2.0000      -0.343926        -9.3587
 140   2.0000      -0.342807        -9.3282
 141   2.0000      -0.340439        -9.2638
 142   2.0000      -0.327669        -8.9163
 143   2.0000      -0.321911        -8.7597
 144   2.0000      -0.309087        -8.4107
 145   2.0000      -0.304190        -8.2774
 146   2.0000      -0.294416        -8.0115
 147   2.0000      -0.290452        -7.9036
 148   2.0000      -0.279066        -7.5938
 149   2.0000      -0.278693        -7.5836
 150   2.0000      -0.275846        -7.5061
 151   2.0000      -0.272914        -7.4264
 152   2.0000      -0.269813        -7.3420
 153   2.0000      -0.257275        -7.0008
 154   2.0000      -0.256216        -6.9720
 155   2.0000      -0.239253        -6.5104
 156   2.0000      -0.233395        -6.3510
 157   0.0000      -0.082838        -2.2541
 158   0.0000      -0.079488        -2.1630
 159   0.0000      -0.047518        -1.2930
 160   0.0000      -0.030848        -0.8394
 161   0.0000      -0.009831        -0.2675

MULLIKEN ATOMIC CHARGES
-----------------------
   0 C :   -0.431907
   1 C :   -0.135760
   2 C :   -0.439287
   3 C :    0.201396
   4 N :   -0.427037
   5 C :    0.289746
   6 N :   -0.570764
   7 C :   -0.261749
   8 C :    0.181864
   9 C :   -0.164449
  10 C :   -0.187772
  11 C :    0.354023
  12 O :   -0.546376
  13 C :    1.085826
  14 F :   -0.292441
  15 F :   -0.280171
  16 F :   -0.289345
  17 C :   -0.166374
  18 C :   -0.174411
  19 S :    1.211986
  20 O :   -0.545131
  21 O :   -0.543523
  22 C :   -0.105612
  23 C :   -0.144466
  24 C :   -0.146226
  25 C :    0.086573
  26 C :    0.527612
  27 O :   -0.446120
  28 O :   -0.623755
  29 C :   -0.145984
  30 C :   -0.140861
  31 C :   -0.087340
  32 C :    0.951897
  33 F :   -0.301647
  34 F :   -0.309176
  35 F :   -0.281803
  36 C :    0.118109
  37 C :   -0.191582
  38 C :   -0.118456
  39 C :   -0.120372
  40 C :   -0.209215
  41 C :    0.102442
  42 H :    0.156297
  43 H :    0.134982
  44 H :    0.149554
  45 H :    0.140652
  46 H :    0.145077
  47 H :    0.150783
  48 H :    0.154832
  49 H :    0.166707
  50 H :    0.180061
  51 H :    0.161057
  52 H :    0.155056
  53 H :    0.146155
  54 H :    0.135017
  55 H :    0.188608
  56 H :    0.179423
  57 H :    0.433748
  58 H :    0.171389
  59 H :    0.169748
  60 H :    0.163685
  61 H :    0.146452
  62 H :    0.141307
  63 H :    0.147045
Sum of atomic charges:   -0.0000000

LOEWDIN ATOMIC CHARGES
----------------------
   0 C :   -0.348493
   1 C :   -0.130624
   2 C :   -0.346822
   3 C :    0.066385
   4 N :   -0.138375
   5 C :    0.038737
   6 N :   -0.271864
   7 C :   -0.149889
   8 C :   -0.036819
   9 C :   -0.110645
  10 C :   -0.155007
  11 C :    0.088558
  12 O :   -0.160368
  13 C :    0.359355
  14 F :   -0.105960
  15 F :   -0.088367
  16 F :   -0.103455
  17 C :   -0.139200
  18 C :   -0.126583
  19 S :    1.264333
  20 O :   -0.566006
  21 O :   -0.568363
  22 C :   -0.168337
  23 C :   -0.102442
  24 C :   -0.088097
  25 C :   -0.040082
  26 C :    0.179855
  27 O :   -0.262311
  28 O :   -0.334880
  29 C :   -0.097940
  30 C :   -0.103753
  31 C :   -0.060922
  32 C :    0.317981
  33 F :   -0.106887
  34 F :   -0.114093
  35 F :   -0.083872
  36 C :    0.009321
  37 C :   -0.117396
  38 C :   -0.112182
  39 C :   -0.120010
  40 C :   -0.118783
  41 C :   -0.027757
  42 H :    0.130434
  43 H :    0.121138
  44 H :    0.128853
  45 H :    0.127672
  46 H :    0.123008
  47 H :    0.128303
  48 H :    0.129852
  49 H :    0.131846
  50 H :    0.145464
  51 H :    0.147182
  52 H :    0.143314
  53 H :    0.144133
  54 H :    0.135104
  55 H :    0.162445
  56 H :    0.159649
  57 H :    0.349364
  58 H :    0.154042
  59 H :    0.151550
  60 H :    0.148505
  61 H :    0.140901
  62 H :    0.138071
  63 H :    0.141228

  Mayer bond orders larger than 0.100000
B(  0-C ,  1-C ) :   1.0035 B(  0-C , 42-H ) :   0.9419 B(  0-C , 43-H ) :   0.9432
B(  0-C , 44-H ) :   0.9405 B(  1-C ,  2-C ) :   0.9928 B(  1-C ,  3-C ) :   0.9830
B(  1-C , 45-H ) :   0.9197 B(  2-C , 46-H ) :   0.9437 B(  2-C , 47-H ) :   0.9443
B(  2-C , 48-H ) :   0.9447 B(  3-C ,  4-N ) :   1.4271 B(  3-C , 41-C ) :   1.2311
B(  4-N ,  5-C ) :   1.2877 B(  5-C ,  6-N ) :   0.9309 B(  5-C , 31-C ) :   1.4246
B(  6-N ,  7-C ) :   0.9234 B(  6-N , 19-S ) :   0.7967 B(  7-C ,  8-C ) :   0.9514
B(  7-C , 49-H ) :   0.9177 B(  7-C , 50-H ) :   0.9142 B(  8-C ,  9-C ) :   1.4381
B(  8-C , 18-C ) :   1.4282 B(  9-C , 10-C ) :   1.4330 B(  9-C , 51-H ) :   0.9149
B( 10-C , 11-C ) :   1.3898 B( 10-C , 52-H ) :   0.9092 B( 11-C , 12-O ) :   0.8231
B( 11-C , 17-C ) :   1.4205 B( 12-O , 13-C ) :   0.9913 B( 13-C , 14-F ) :   0.9694
B( 13-C , 15-F ) :   1.0067 B( 13-C , 16-F ) :   0.9691 B( 17-C , 18-C ) :   1.4361
B( 17-C , 53-H ) :   0.9185 B( 18-C , 54-H ) :   0.9223 B( 19-S , 20-O ) :   1.6326
B( 19-S , 21-O ) :   1.6310 B( 19-S , 22-C ) :   0.8103 B( 22-C , 23-C ) :   1.3910
B( 22-C , 30-C ) :   1.3876 B( 23-C , 24-C ) :   1.4123 B( 23-C , 55-H ) :   0.9077
B( 24-C , 25-C ) :   1.3977 B( 24-C , 56-H ) :   0.9100 B( 25-C , 26-C ) :   1.0089
B( 25-C , 29-C ) :   1.3825 B( 26-C , 27-O ) :   1.8616 B( 26-C , 28-O ) :   1.0248
B( 28-O , 57-H ) :   0.7421 B( 29-C , 30-C ) :   1.4267 B( 29-C , 58-H ) :   0.9148
B( 30-C , 59-H ) :   0.9138 B( 31-C , 32-C ) :   0.9532 B( 31-C , 36-C ) :   1.2445
B( 32-C , 33-F ) :   0.9300 B( 32-C , 34-F ) :   0.9208 B( 32-C , 35-F ) :   0.9338
B( 36-C , 37-C ) :   1.3006 B( 36-C , 41-C ) :   1.2840 B( 37-C , 38-C ) :   1.5082
B( 37-C , 40-C ) :   0.1031 B( 37-C , 60-H ) :   0.8988 B( 38-C , 39-C ) :   1.3563
B( 38-C , 61-H ) :   0.9270 B( 39-C , 40-C ) :   1.5110 B( 39-C , 62-H ) :   0.9278
B( 40-C , 41-C ) :   1.2906 B( 40-C , 63-H ) :   0.9145

FINAL SINGLE POINT ENERGY     -2561.788448157053

DIPOLE MOMENT
-------------

Method             : SCF
Type of density    : Electron Density
Multiplicity       :   1
Irrep              :   0
Energy             : -2561.7884481570526987 Eh
Relativity type    :
Basis              : AO
                                X                 Y                 Z
Electronic contribution:     62.278185819      24.577020787       1.092485927
Nuclear contribution   :    -64.308425083     -27.143231336      -1.759281110
                        -----------------------------------------
Total Dipole Moment    :     -2.030239264      -2.566210549      -0.666795183
                        -----------------------------------------
Magnitude (a.u.)       :      3.339449635
Magnitude (Debye)      :      8.488206404

Rotational constants in cm-1:             0.003823             0.001532             0.001285
Rotational constants in MHz :           114.615140            45.914047            38.534017

                             ****ORCA TERMINATED NORMALLY****
TOTAL RUN TIME: 0 days 0 hours 15 minutes 39 seconds 637 msec
