                         Program Version 6.0.0  -   RELEASE  -
|  1> ! B3LYP 6-31G* SP
|  2>
|  3> * xyz 0 1
|  4> C 2.6429 0.3422 -1.0435
|  5> C 1.6432 0.0208 0.0786
|  6> C 1.8233 -1.3554 0.6994
|  7> C 1.4638 -1.5418 2.0464
|  8> C 1.5508 -2.8050 2.6384
|  9> F 1.1959 -2.9705 3.9372
| 10> C 1.9914 -3.8992 1.8913
| 11> C 2.3445 -3.7321 0.5504
| 12> F 2.7628 -4.7975 -0.1758
| 13> C 2.2570 -2.4709 -0.0468
| 14> N 0.2518 0.2299 -0.3838
| 15> C -0.3915 1.4721 -0.0145
| 16> O -0.8615 2.2328 -0.9016
| 17> C -0.4255 1.9191 1.3915
| 18> C -1.2151 1.2127 2.3125
| 19> C -1.2783 1.6160 3.6478
| 20> C -0.5564 2.7302 4.0764
| 21> C 0.2315 3.4453 3.1701
| 22> C 0.3058 3.0517 1.8243
| 23> N 1.1471 3.7899 0.9265
| 24> C -0.3917 -0.7623 -1.2884
| 25> C -1.0446 -1.8829 -0.5147
| 26> N -1.2460 -3.1541 -1.1332
| 27> O -1.4461 -1.7002 0.6656
| 28> C -1.3662 -0.1387 -2.2745
| 29> C -0.9143 0.2403 -3.5516
| 30> C -1.7853 0.8495 -4.4606
| 31> C -3.1121 1.0979 -4.1021
| 32> C -3.5700 0.7407 -2.8326
| 33> C -2.7047 0.1285 -1.9202
| 34> H 2.4457 -0.2474 -1.9614
| 35> H 3.6812 0.1415 -0.7009
| 36> H 2.5674 1.4178 -1.3112
| 37> H 1.8856 0.7542 0.8796
| 38> H 1.1026 -0.7080 2.6368
| 39> H 2.0552 -4.8775 2.3513
| 40> H 2.5191 -2.3770 -1.0915
| 41> H -1.8063 0.3660 1.9949
| 42> H -1.8939 1.0670 4.3503
| 43> H -0.6064 3.0404 5.1126
| 44> H 0.7887 4.3070 3.5178
| 45> H 1.6493 4.6469 1.2529
| 46> H 1.3293 3.4671 -0.0490
| 47> H 0.4038 -1.2519 -1.8890
| 48> H -1.7118 -3.9273 -0.6083
| 49> H -0.9423 -3.3223 -2.1187
| 50> H 0.1142 0.0665 -3.8433
| 51> H -1.4294 1.1321 -5.4435
| 52> H -3.7832 1.5728 -4.8068
| 53> H -4.5954 0.9440 -2.5518
| 54> H -3.0760 -0.1208 -0.9331
| 55> *
| 56>
| 57>                          ****END OF INPUT****

CARTESIAN COORDINATES (ANGSTROEM)
---------------------------------
  C      2.642900    0.342200   -1.043500
  C      1.643200    0.020800    0.078600
  C      1.823300   -1.355400    0.699400
  C      1.463800   -1.541800    2.046400
  C      1.550800   -2.805000    2.638400
  F      1.195900   -2.970500    3.937200
  C      1.991400   -3.899200    1.891300
  C      2.344500   -3.732100    0.550400
  F      2.762800   -4.797500   -0.175800
  C      2.257000   -2.470900   -0.046800
  N      0.251800    0.229900   -0.383800
  C     -0.391500    1.472100   -0.014500
  O     -0.861500    2.232800   -0.901600
  C     -0.425500    1.919100    1.391500
  C     -1.215100    1.212700    2.312500
  C     -1.278300    1.616000    3.647800
  C     -0.556400    2.730200    4.076400
  C      0.231500    3.445300    3.170100
  C      0.305800    3.051700    1.824300
  N      1.147100    3.789900    0.926500
  C     -0.391700   -0.762300   -1.288400
  C     -1.044600   -1.882900   -0.514700
  N     -1.246000   -3.154100   -1.133200
  O     -1.446100   -1.700200    0.665600
  C     -1.366200   -0.138700   -2.274500
  C     -0.914300    0.240300   -3.551600
  C     -1.785300    0.849500   -4.460600
  C     -3.112100    1.097900   -4.102100
  C     -3.570000    0.740700   -2.832600
  C     -2.704700    0.128500   -1.920200
  H      2.445700   -0.247400   -1.961400
  H      3.681200    0.141500   -0.700900
  H      2.567400    1.417800   -1.311200
  H      1.885600    0.754200    0.879600
  H      1.102600   -0.708000    2.636800
  H      2.055200   -4.877500    2.351300
  H      2.519100   -2.377000   -1.091500
  H     -1.806300    0.366000    1.994900
  H     -1.893900    1.067000    4.350300
  H     -0.606400    3.040400    5.112600
  H      0.788700    4.307000    3.517800
  H      1.649300    4.646900    1.252900
  H      1.329300    3.467100   -0.049000
  H      0.403800   -1.251900   -1.889000
  H     -1.711800   -3.927300   -0.608300
  H     -0.942300   -3.322300   -2.118700
  H      0.114200    0.066500   -3.843300
  H     -1.429400    1.132100   -5.443500
  H     -3.783200    1.572800   -4.806800
  H     -4.595400    0.944000   -2.551800
  H     -3.076000   -0.120800   -0.933100

 Total Charge           Charge          ....    0
 Multiplicity           Mult            ....    1
 Number of Electrons    NEL             ....  214
 Basis Dimension        Dim             ....  462

ORBITAL ENERGIES
----------------

  NO   OCC          E(Eh)            E(eV)
   0   2.0000     -24.703933      -672.2282
   1   2.0000     -24.698024      -672.0674
   2   2.0000     -19.114135      -520.1221
   3   2.0000     -19.111608      -520.0533
   4   2.0000     -14.356391      -390.6573
   5   2.0000     -14.344317      -390.3287
   6   2.0000     -14.332313      -390.0021
   7   2.0000     -10.292062      -280.0613
   8   2.0000     -10.285050      -279.8704
   9   2.0000     -10.275828      -279.6195
  10   2.0000     -10.272812      -279.5374
  11   2.0000     -10.242024      -278.6996
  12   2.0000     -10.234742      -278.5015
  13   2.0000     -10.228603      -278.3344
  14   2.0000     -10.204487      -277.6782
  15   2.0000     -10.194399      -277.4037
  16   2.0000     -10.192164      -277.3429
  17   2.0000     -10.190921      -277.3091
  18   2.0000     -10.184116      -277.1239
  19   2.0000     -10.183684      -277.1121
  20   2.0000     -10.180719      -277.0315
  21   2.0000     -10.180568      -277.0273
  22   2.0000     -10.178154      -276.9616
  23   2.0000     -10.177018      -276.9308
  24   2.0000     -10.176916      -276.9280
  25   2.0000     -10.175991      -276.9028
  26   2.0000     -10.175613      -276.8925
  27   2.0000     -10.172141      -276.7980
  28   2.0000     -10.171045      -276.7682
  29   2.0000     -10.162263      -276.5292
  30   2.0000      -1.217212       -33.1220
  31   2.0000      -1.210583       -32.9416
  32   2.0000      -1.015134       -27.6232
  33   2.0000      -1.007530       -27.4163
  34   2.0000      -0.918786       -25.0014
  35   2.0000      -0.891677       -24.2638
  36   2.0000      -0.880573       -23.9616
  37   2.0000      -0.862254       -23.4631
  38   2.0000      -0.846337       -23.0300
  39   2.0000      -0.824457       -22.4346
  40   2.0000      -0.792861       -21.5748
  41   2.0000      -0.767661       -20.8891
  42   2.0000      -0.748253       -20.3610
  43   2.0000      -0.745250       -20.2793
  44   2.0000      -0.737536       -20.0694
  45   2.0000      -0.730265       -19.8715
  46   2.0000      -0.717886       -19.5347
  47   2.0000      -0.700689       -19.0667
  48   2.0000      -0.651252       -17.7215
  49   2.0000      -0.626639       -17.0517
  50   2.0000      -0.619377       -16.8541
  51   2.0000      -0.603846       -16.4315
  52   2.0000      -0.601404       -16.3650
  53   2.0000      -0.594395       -16.1743
  54   2.0000      -0.590042       -16.0558
  55   2.0000      -0.576115       -15.6769
  56   2.0000      -0.548083       -14.9141
  57   2.0000      -0.538113       -14.6428
  58   2.0000      -0.523438       -14.2435
  59   2.0000      -0.520746       -14.1702
  60   2.0000      -0.510230       -13.8841
  61   2.0000      -0.503283       -13.6950
  62   2.0000      -0.500747       -13.6260
  63   2.0000      -0.499124       -13.5819
  64   2.0000      -0.491226       -13.3669
  65   2.0000      -0.486467       -13.2374
  66   2.0000      -0.480967       -13.0878
  67   2.0000      -0.464399       -12.6369
  68   2.0000      -0.461965       -12.5707
  69   2.0000      -0.454244       -12.3606
  70   2.0000      -0.448099       -12.1934
  71   2.0000      -0.444566       -12.0972
  72   2.0000      -0.436019       -11.8647
  73   2.0000      -0.432118       -11.7585
  74   2.0000      -0.428462       -11.6590
  75   2.0000      -0.424251       -11.5445
  76   2.0000      -0.420462       -11.4414
  77   2.0000      -0.419343       -11.4109
  78   2.0000      -0.416863       -11.3434
  79   2.0000      -0.411037       -11.1849
  80   2.0000      -0.400705       -10.9037
  81   2.0000      -0.394405       -10.7323
  82   2.0000      -0.389666       -10.6034
  83   2.0000      -0.384796       -10.4708
  84   2.0000      -0.373657       -10.1677
  85   2.0000      -0.370207       -10.0738
  86   2.0000      -0.365172        -9.9368
  87   2.0000      -0.360296        -9.8041
  88   2.0000      -0.356114        -9.6904
  89   2.0000      -0.351916        -9.5761
  90   2.0000      -0.349241        -9.5033
  91   2.0000      -0.346805        -9.4370
  92   2.0000      -0.341735        -9.2991
  93   2.0000      -0.338574        -9.2131
  94   2.0000      -0.334893        -9.1129
  95   2.0000      -0.329402        -8.9635
  96   2.0000      -0.293590        -7.9890
  97   2.0000      -0.265981        -7.2377
  98   2.0000      -0.264183        -7.1888
  99   2.0000      -0.252406        -6.8683
 100   2.0000      -0.248927        -6.7736
 101   2.0000      -0.243482        -6.6255
 102   2.0000      -0.240961        -6.5569
 103   2.0000      -0.237449        -6.4613
 104   2.0000      -0.222982        -6.0676
 105   2.0000      -0.217833        -5.9275
 106   2.0000      -0.191322        -5.2061
 107   0.0000      -0.024892        -0.6774
 108   0.0000      -0.015777        -0.4293
 109   0.0000      -0.003279        -0.0892
 110   0.0000       0.000501         0.0136
 111   0.0000       0.004568         0.1243

MULLIKEN ATOMIC CHARGES
-----------------------
   0 C :   -0.438243
   1 C :   -0.076386
   2 C :    0.172074
   3 C :   -0.239910
   4 C :    0.435246
   5 F :   -0.315804
   6 C :   -0.296665
   7 C :    0.431398
   8 F :   -0.319435
   9 C :   -0.276463
  10 N :   -0.386040
  11 C :    0.381123
  12 O :   -0.425356
  13 C :    0.040737
  14 C :   -0.171039
  15 C :   -0.146871
  16 C :   -0.119324
  17 C :   -0.195484
  18 C :    0.353824
  19 N :   -0.843944
  20 C :   -0.141516
  21 C :    0.596640
  22 N :   -0.766592
  23 O :   -0.481760
  24 C :    0.158952
  25 C :   -0.166040
  26 C :   -0.126218
  27 C :   -0.119310
  28 C :   -0.124189
  29 C :   -0.152189
  30 H :    0.143785
  31 H :    0.154214
  32 H :    0.149310
  33 H :    0.171641
  34 H :    0.163669
  35 H :    0.155319
  36 H :    0.133025
  37 H :    0.175165
  38 H :    0.124356
  39 H :    0.126528
  40 H :    0.116353
  41 H :    0.328980
  42 H :    0.341055
  43 H :    0.135833
  44 H :    0.353453
  45 H :    0.334178
  46 H :    0.117471
  47 H :    0.125981
  48 H :    0.127034
  49 H :    0.131143
  50 H :    0.150289
Sum of atomic charges:   -0.0000000

LOEWDIN ATOMIC CHARGES
----------------------
   0 C :   -0.358690
   1 C :   -0.050563
   2 C :   -0.010225
   3 C :   -0.148868
   4 C :    0.129315
   5 F :   -0.099135
   6 C :   -0.188932
   7 C :    0.121451
   8 F :   -0.103300
   9 C :   -0.182156
  10 N :   -0.104994
  11 C :    0.148775
  12 O :   -0.233915
  13 C :   -0.084983
  14 C :   -0.107343
  15 C :   -0.164135
  16 C :   -0.115098
  17 C :   -0.169889
  18 C :    0.057969
  19 N :   -0.421817
  20 C :   -0.060900
  21 C :    0.140868
  22 N :   -0.397968
  23 O :   -0.290375
  24 C :   -0.015312
  25 C :   -0.125658
  26 C :   -0.127724
  27 C :   -0.124063
  28 C :   -0.122270
  29 C :   -0.116370
  30 H :    0.120737
  31 H :    0.131785
  32 H :    0.128024
  33 H :    0.147185
  34 H :    0.153745
  35 H :    0.152046
  36 H :    0.137487
  37 H :    0.152833
  38 H :    0.130579
  39 H :    0.131489
  40 H :    0.127404
  41 H :    0.249939
  42 H :    0.252231
  43 H :    0.129755
  44 H :    0.267100
  45 H :    0.252211
  46 H :    0.125880
  47 H :    0.130580
  48 H :    0.130992
  49 H :    0.133121
  50 H :    0.141182

  Mayer bond orders larger than 0.100000
B(  0-C ,  1-C ) :   0.9892 B(  0-C , 30-H ) :   0.9379 B(  0-C , 31-H ) :   0.9387
B(  0-C , 32-H ) :   0.9424 B(  1-C ,  2-C ) :   0.9683 B(  1-C , 10-N ) :   0.9564
B(  1-C , 33-H ) :   0.9098 B(  2-C ,  3-C ) :   1.4001 B(  2-C ,  9-C ) :   1.3922
B(  3-C ,  4-C ) :   1.3872 B(  3-C , 34-H ) :   0.9036 B(  4-C ,  5-F ) :   0.9082
B(  4-C ,  6-C ) :   1.3639 B(  6-C ,  7-C ) :   1.3765 B(  6-C , 35-H ) :   0.9130
B(  7-C ,  8-F ) :   0.9056 B(  7-C ,  9-C ) :   1.3777 B(  9-C , 36-H ) :   0.9128
B( 10-N , 11-C ) :   1.0127 B( 10-N , 20-C ) :   0.9632 B( 11-C , 12-O ) :   1.8577
B( 11-C , 13-C ) :   0.9163 B( 13-C , 14-C ) :   1.4186 B( 13-C , 18-C ) :   1.3538
B( 14-C , 15-C ) :   1.4298 B( 14-C , 37-H ) :   0.8990 B( 15-C , 16-C ) :   1.4337
B( 15-C , 38-H ) :   0.9306 B( 16-C , 17-C ) :   1.4647 B( 16-C , 39-H ) :   0.9302
B( 17-C , 18-C ) :   1.3690 B( 17-C , 40-H ) :   0.9241 B( 18-C , 19-N ) :   0.9783
B( 19-N , 41-H ) :   0.8429 B( 19-N , 42-H ) :   0.8195 B( 20-C , 21-C ) :   0.8947
B( 20-C , 24-C ) :   0.9770 B( 20-C , 43-H ) :   0.8976 B( 21-C , 22-N ) :   1.0754
B( 21-C , 23-O ) :   1.8006 B( 22-N , 44-H ) :   0.8222 B( 22-N , 45-H ) :   0.8306
B( 24-C , 25-C ) :   1.4270 B( 24-C , 29-C ) :   1.4220 B( 25-C , 26-C ) :   1.4458
B( 25-C , 46-H ) :   0.9256 B( 26-C , 27-C ) :   1.4537 B( 26-C , 47-H ) :   0.9295
B( 27-C , 28-C ) :   1.4515 B( 27-C , 48-H ) :   0.9303 B( 28-C , 29-C ) :   1.4416
B( 28-C , 49-H ) :   0.9295 B( 29-C , 50-H ) :   0.9110

FINAL SINGLE POINT ENERGY     -1402.618525092186

DIPOLE MOMENT
-------------

Method             : SCF
Type of density    : Electron Density
Multiplicity       :   1
Irrep              :   0
Energy             : -1402.6185250921862462 Eh
Relativity type    :
Basis              : AO
                                X                 Y                 Z
Electronic contribution:      4.361938673     -18.289288289      10.978461961
Nuclear contribution   :     -3.531447020      18.057394035     -11.944518184
                        -----------------------------------------
Total Dipole Moment    :      0.830491653      -0.231894255      -0.966056223
                        -----------------------------------------
Magnitude (a.u.)       :      1.294896118
Magnitude (Debye)      :      3.291364363

Rotational constants in cm-1:             0.005943             0.004879             0.003372
Rotational constants in MHz :           178.178754           146.271695           101.099010

                             ****ORCA TERMINATED NORMALLY****
TOTAL RUN TIME: 0 days 0 hours 9 minutes 45 seconds 333 msec
