                         Program Version 6.0.0  -   RELEASE  -
|  1> ! B3LYP 6-31G* SP
|  2>
|  3> * xyz 0 1
|  4> C -4.0701 1.9804 -1.8012
|  5> N -4.1354 0.9277 -0.7713
|  6> C -3.3763 1.0407 0.3718
|  7> O -2.6276 2.0404 0.5430
|  8> C -3.4453 0.0348 1.3430
|  9> C -2.7924 -0.0546 2.6094
| 10> C -1.8103 0.9460 3.1499
| 11> C -0.4499 0.6914 2.5762
| 12> O 0.0093 1.4705 1.6985
| 13> N 0.3095 -0.4442 3.0187
| 14> C 1.5330 -0.8715 2.4073
| 15> N 2.0611 -0.3132 1.2972
| 16> C 3.2130 -0.9313 0.9118
| 17> C 3.9698 -0.4952 -0.2902
| 18> C 5.3464 -0.7623 -0.4049
| 19> C 6.0612 -0.3523 -1.5326
| 20> C 5.4198 0.3446 -2.5710
| 21> C 6.1753 0.7749 -3.8058
| 22> F 5.7392 0.0363 -4.8904
| 23> F 7.5398 0.5871 -3.6615
| 24> F 5.9450 2.1169 -4.0511
| 25> C 4.0420 0.6056 -2.4657
| 26> F 3.3878 1.2510 -3.4661
| 27> C 3.3248 0.1983 -1.3348
| 28> F 1.9937 0.4571 -1.2817
| 29> C 3.5976 -1.9990 1.7300
| 30> S 2.4575 -2.1604 2.9565
| 31> N -3.0708 -1.1827 3.3232
| 32> S -4.1358 -2.0692 2.3994
| 33> C -4.2512 -1.0505 1.0874
| 34> N -4.9624 -1.2047 -0.0608
| 35> C -5.7984 -2.3986 -0.2545
| 36> C -4.9072 -0.1959 -0.9932
| 37> O -5.5691 -0.2980 -2.0651
| 38> H -5.0497 2.0994 -2.3142
| 39> H -3.8319 2.9709 -1.3582
| 40> H -3.2935 1.7200 -2.5517
| 41> H -1.7560 0.8502 4.2560
| 42> H -2.1446 1.9839 2.9433
| 43> H -0.0595 -1.0078 3.8173
| 44> H 5.8821 -1.2747 0.3839
| 45> H 7.1181 -0.5813 -1.5854
| 46> H 4.4587 -2.6397 1.5953
| 47> H -6.0972 -2.5308 -1.3154
| 48> H -6.7132 -2.3176 0.3706
| 49> H -5.2370 -3.3124 0.0372
| 50> *
| 51>
| 52>                          ****END OF INPUT****

CARTESIAN COORDINATES (ANGSTROEM)
---------------------------------
  C     -4.070100    1.980400   -1.801200
  N     -4.135400    0.927700   -0.771300
  C     -3.376300    1.040700    0.371800
  O     -2.627600    2.040400    0.543000
  C     -3.445300    0.034800    1.343000
  C     -2.792400   -0.054600    2.609400
  C     -1.810300    0.946000    3.149900
  C     -0.449900    0.691400    2.576200
  O      0.009300    1.470500    1.698500
  N      0.309500   -0.444200    3.018700
  C      1.533000   -0.871500    2.407300
  N      2.061100   -0.313200    1.297200
  C      3.213000   -0.931300    0.911800
  C      3.969800   -0.495200   -0.290200
  C      5.346400   -0.762300   -0.404900
  C      6.061200   -0.352300   -1.532600
  C      5.419800    0.344600   -2.571000
  C      6.175300    0.774900   -3.805800
  F      5.739200    0.036300   -4.890400
  F      7.539800    0.587100   -3.661500
  F      5.945000    2.116900   -4.051100
  C      4.042000    0.605600   -2.465700
  F      3.387800    1.251000   -3.466100
  C      3.324800    0.198300   -1.334800
  F      1.993700    0.457100   -1.281700
  C      3.597600   -1.999000    1.730000
  S      2.457500   -2.160400    2.956500
  N     -3.070800   -1.182700    3.323200
  S     -4.135800   -2.069200    2.399400
  C     -4.251200   -1.050500    1.087400
  N     -4.962400   -1.204700   -0.060800
  C     -5.798400   -2.398600   -0.254500
  C     -4.907200   -0.195900   -0.993200
  O     -5.569100   -0.298000   -2.065100
  H     -5.049700    2.099400   -2.314200
  H     -3.831900    2.970900   -1.358200
  H     -3.293500    1.720000   -2.551700
  H     -1.756000    0.850200    4.256000
  H     -2.144600    1.983900    2.943300
  H     -0.059500   -1.007800    3.817300
  H      5.882100   -1.274700    0.383900
  H      7.118100   -0.581300   -1.585400
  H      4.458700   -2.639700    1.595300
  H     -6.097200   -2.530800   -1.315400
  H     -6.713200   -2.317600    0.370600
  H     -5.237000   -3.312400    0.037200

 Total Charge           Charge          ....    0
 Multiplicity           Mult            ....    1
 Number of Electrons    NEL             ....  262
 Basis Dimension        Dim             ....  508

ORBITAL ENERGIES
----------------

  NO   OCC          E(Eh)            E(eV)
   0   2.0000     -88.938721     -2420.1456
   1   2.0000     -88.912294     -2419.4265
   2   2.0000     -24.721350      -672.7021
   3   2.0000     -24.713009      -672.4752
   4   2.0000     -24.711857      -672.4438
   5   2.0000     -24.711171      -672.4251
   6   2.0000     -24.699607      -672.1105
   7   2.0000     -19.126021      -520.4455
   8   2.0000     -19.115386      -520.1561
   9   2.0000     -19.115122      -520.1489
  10   2.0000     -14.428679      -392.6243
  11   2.0000     -14.404149      -391.9568
  12   2.0000     -14.394096      -391.6833
  13   2.0000     -14.373197      -391.1146
  14   2.0000     -14.327111      -389.8605
  15   2.0000     -10.436844      -284.0010
  16   2.0000     -10.342309      -281.4285
  17   2.0000     -10.302099      -280.3344
  18   2.0000     -10.299247      -280.2568
  19   2.0000     -10.293087      -280.0891
  20   2.0000     -10.290516      -280.0192
  21   2.0000     -10.288213      -279.9565
  22   2.0000     -10.284744      -279.8621
  23   2.0000     -10.264631      -279.3148
  24   2.0000     -10.252302      -278.9793
  25   2.0000     -10.235021      -278.5091
  26   2.0000     -10.222898      -278.1792
  27   2.0000     -10.222850      -278.1779
  28   2.0000     -10.221583      -278.1434
  29   2.0000     -10.216969      -278.0179
  30   2.0000     -10.215223      -277.9703
  31   2.0000     -10.210451      -277.8405
  32   2.0000     -10.209104      -277.8039
  33   2.0000     -10.205779      -277.7134
  34   2.0000      -8.012856      -218.0409
  35   2.0000      -7.989990      -217.4187
  36   2.0000      -5.977161      -162.6468
  37   2.0000      -5.971858      -162.5025
  38   2.0000      -5.968904      -162.4221
  39   2.0000      -5.953041      -161.9905
  40   2.0000      -5.948974      -161.8798
  41   2.0000      -5.946810      -161.8209
  42   2.0000      -1.276859       -34.7451
  43   2.0000      -1.225719       -33.3535
  44   2.0000      -1.208194       -32.8766
  45   2.0000      -1.203101       -32.7380
  46   2.0000      -1.198688       -32.6180
  47   2.0000      -1.082373       -29.4529
  48   2.0000      -1.027829       -27.9687
  49   2.0000      -1.019286       -27.7362
  50   2.0000      -1.005350       -27.3570
  51   2.0000      -0.977262       -26.5927
  52   2.0000      -0.973304       -26.4849
  53   2.0000      -0.946326       -25.7509
  54   2.0000      -0.916674       -24.9440
  55   2.0000      -0.881738       -23.9933
  56   2.0000      -0.828631       -22.5482
  57   2.0000      -0.819911       -22.3109
  58   2.0000      -0.817119       -22.2349
  59   2.0000      -0.802713       -21.8429
  60   2.0000      -0.767346       -20.8805
  61   2.0000      -0.763466       -20.7750
  62   2.0000      -0.750852       -20.4317
  63   2.0000      -0.738123       -20.0853
  64   2.0000      -0.716280       -19.4910
  65   2.0000      -0.695097       -18.9145
  66   2.0000      -0.668079       -18.1793
  67   2.0000      -0.652839       -17.7647
  68   2.0000      -0.642234       -17.4761
  69   2.0000      -0.637249       -17.3404
  70   2.0000      -0.618920       -16.8417
  71   2.0000      -0.602983       -16.4080
  72   2.0000      -0.601580       -16.3698
  73   2.0000      -0.581215       -15.8157
  74   2.0000      -0.572294       -15.5729
  75   2.0000      -0.569313       -15.4918
  76   2.0000      -0.566239       -15.4081
  77   2.0000      -0.555825       -15.1248
  78   2.0000      -0.541861       -14.7448
  79   2.0000      -0.532908       -14.5012
  80   2.0000      -0.521652       -14.1949
  81   2.0000      -0.519009       -14.1230
  82   2.0000      -0.512492       -13.9456
  83   2.0000      -0.509031       -13.8514
  84   2.0000      -0.497834       -13.5467
  85   2.0000      -0.492650       -13.4057
  86   2.0000      -0.479272       -13.0417
  87   2.0000      -0.478470       -13.0198
  88   2.0000      -0.473501       -12.8846
  89   2.0000      -0.470919       -12.8144
  90   2.0000      -0.459743       -12.5102
  91   2.0000      -0.448543       -12.2055
  92   2.0000      -0.446845       -12.1593
  93   2.0000      -0.443845       -12.0776
  94   2.0000      -0.442067       -12.0292
  95   2.0000      -0.441231       -12.0065
  96   2.0000      -0.437658       -11.9093
  97   2.0000      -0.432594       -11.7715
  98   2.0000      -0.430502       -11.7146
  99   2.0000      -0.423126       -11.5138
 100   2.0000      -0.417749       -11.3675
 101   2.0000      -0.415098       -11.2954
 102   2.0000      -0.412867       -11.2347
 103   2.0000      -0.410836       -11.1794
 104   2.0000      -0.408348       -11.1117
 105   2.0000      -0.404438       -11.0053
 106   2.0000      -0.396963       -10.8019
 107   2.0000      -0.394124       -10.7247
 108   2.0000      -0.391567       -10.6551
 109   2.0000      -0.390325       -10.6213
 110   2.0000      -0.386216       -10.5095
 111   2.0000      -0.381605       -10.3840
 112   2.0000      -0.378976       -10.3125
 113   2.0000      -0.374120       -10.1803
 114   2.0000      -0.367239        -9.9931
 115   2.0000      -0.360853        -9.8193
 116   2.0000      -0.351972        -9.5776
 117   2.0000      -0.342326        -9.3152
 118   2.0000      -0.329301        -8.9607
 119   2.0000      -0.310496        -8.4490
 120   2.0000      -0.297978        -8.1084
 121   2.0000      -0.284807        -7.7500
 122   2.0000      -0.283802        -7.7226
 123   2.0000      -0.276025        -7.5110
 124   2.0000      -0.271147        -7.3783
 125   2.0000      -0.263232        -7.1629
 126   2.0000      -0.254010        -6.9120
 127   2.0000      -0.252181        -6.8622
 128   2.0000      -0.251984        -6.8568
 129   2.0000      -0.230135        -6.2623
 130   2.0000      -0.219243        -5.9659
 131   0.0000      -0.053837        -1.4650
 132   0.0000      -0.050463        -1.3732
 133   0.0000      -0.038899        -1.0585
 134   0.0000      -0.024453        -0.6654
 135   0.0000      -0.011709        -0.3186

MULLIKEN ATOMIC CHARGES
-----------------------
   0 C :   -0.316468
   1 N :   -0.479231
   2 C :    0.514079
   3 O :   -0.465568
   4 C :    0.059670
   5 C :    0.172495
   6 C :   -0.403673
   7 C :    0.557893
   8 O :   -0.390982
   9 N :   -0.660785
  10 C :    0.252688
  11 N :   -0.356099
  12 C :    0.222286
  13 C :    0.043214
  14 C :   -0.172360
  15 C :   -0.164216
  16 C :   -0.108450
  17 C :    0.920926
  18 F :   -0.296113
  19 F :   -0.305506
  20 F :   -0.297105
  21 C :    0.318982
  22 F :   -0.291823
  23 C :    0.310664
  24 F :   -0.278577
  25 C :   -0.387797
  26 S :    0.255378
  27 N :   -0.503099
  28 S :    0.394338
  29 C :    0.045099
  30 N :   -0.448144
  31 C :   -0.347478
  32 C :    0.687000
  33 O :   -0.495441
  34 H :    0.191988
  35 H :    0.202237
  36 H :    0.187119
  37 H :    0.169562
  38 H :    0.225960
  39 H :    0.351038
  40 H :    0.144037
  41 H :    0.160682
  42 H :    0.183285
  43 H :    0.226502
  44 H :    0.188291
  45 H :    0.183500
Sum of atomic charges:   -0.0000000

LOEWDIN ATOMIC CHARGES
----------------------
   0 C :   -0.259201
   1 N :   -0.027263
   2 C :    0.114090
   3 O :   -0.266225
   4 C :   -0.124022
   5 C :    0.041554
   6 C :   -0.242025
   7 C :    0.152226
   8 O :   -0.214091
   9 N :   -0.209937
  10 C :   -0.079008
  11 N :   -0.143409
  12 C :   -0.003718
  13 C :   -0.025058
  14 C :   -0.126585
  15 C :   -0.118740
  16 C :   -0.094344
  17 C :    0.316034
  18 F :   -0.111025
  19 F :   -0.110979
  20 F :   -0.109492
  21 C :    0.112608
  22 F :   -0.083992
  23 C :    0.112439
  24 F :   -0.069554
  25 C :   -0.344034
  26 S :    0.391574
  27 N :   -0.342150
  28 S :    0.471140
  29 C :   -0.118293
  30 N :   -0.022755
  31 C :   -0.265238
  32 C :    0.146762
  33 O :   -0.304285
  34 H :    0.150834
  35 H :    0.156771
  36 H :    0.145420
  37 H :    0.146481
  38 H :    0.180144
  39 H :    0.269461
  40 H :    0.140785
  41 H :    0.148946
  42 H :    0.161341
  43 H :    0.170584
  44 H :    0.142929
  45 H :    0.143300

  Mayer bond orders larger than 0.100000
B(  0-C ,  1-N ) :   0.9128 B(  0-C , 34-H ) :   0.9273 B(  0-C , 35-H ) :   0.9212
B(  0-C , 36-H ) :   0.9383 B(  1-N ,  2-C ) :   0.9713 B(  1-N , 32-C ) :   1.0498
B(  2-C ,  3-O ) :   1.7974 B(  2-C ,  4-C ) :   1.0774 B(  4-C ,  5-C ) :   1.2592
B(  4-C , 29-C ) :   1.3502 B(  5-C ,  6-C ) :   0.9894 B(  5-C , 27-N ) :   1.5068
B(  6-C ,  7-C ) :   0.9514 B(  6-C , 37-H ) :   0.9116 B(  6-C , 38-H ) :   0.8939
B(  7-C ,  8-O ) :   1.9207 B(  7-C ,  9-N ) :   0.9705 B(  9-N , 10-C ) :   0.9579
B(  9-N , 39-H ) :   0.8132 B( 10-C , 11-N ) :   1.5128 B( 10-C , 25-C ) :   0.1071
B( 10-C , 26-S ) :   1.1332 B( 11-N , 12-C ) :   1.2670 B( 12-C , 13-C ) :   1.0272
B( 12-C , 25-C ) :   1.5142 B( 13-C , 14-C ) :   1.4000 B( 13-C , 23-C ) :   1.2960
B( 14-C , 15-C ) :   1.4365 B( 14-C , 40-H ) :   0.9201 B( 15-C , 16-C ) :   1.4059
B( 15-C , 41-H ) :   0.9174 B( 16-C , 17-C ) :   0.9666 B( 16-C , 21-C ) :   1.3181
B( 17-C , 18-F ) :   0.9815 B( 17-C , 19-F ) :   0.9460 B( 17-C , 20-F ) :   0.9679
B( 21-C , 22-F ) :   0.9623 B( 21-C , 23-C ) :   1.2843 B( 23-C , 24-F ) :   0.9639
B( 25-C , 26-S ) :   1.1231 B( 25-C , 42-H ) :   0.9035 B( 27-N , 28-S ) :   1.0943
B( 27-N , 29-C ) :   0.1303 B( 28-S , 29-C ) :   1.1556 B( 29-C , 30-N ) :   1.0027
B( 30-N , 31-C ) :   0.9241 B( 30-N , 32-C ) :   1.0180 B( 31-C , 43-H ) :   0.9147
B( 31-C , 44-H ) :   0.9313 B( 31-C , 45-H ) :   0.9255 B( 32-C , 33-O ) :   1.7995

FINAL SINGLE POINT ENERGY     -2525.220529082608

DIPOLE MOMENT
-------------

Method             : SCF
Type of density    : Electron Density
Multiplicity       :   1
Irrep              :   0
Energy             : -2525.2205290826077544 Eh
Relativity type    :
Basis              : AO
                                X                 Y                 Z
Electronic contribution:     40.963958537       4.652294155     -18.655253604
Nuclear contribution   :    -42.079400997      -6.922832623      20.573724162
                        -----------------------------------------
Total Dipole Moment    :     -1.115442460      -2.270538468       1.918470558
                        -----------------------------------------
Magnitude (a.u.)       :      3.174915132
Magnitude (Debye)      :      8.069992933

Rotational constants in cm-1:             0.005630             0.001615             0.001375
Rotational constants in MHz :           168.781736            48.405018            41.224145

                             ****ORCA TERMINATED NORMALLY****
TOTAL RUN TIME: 0 days 0 hours 5 minutes 24 seconds 7 msec
