                         Program Version 6.0.0  -   RELEASE  -
|  1> ! B3LYP 6-31G* SP
|  2>
|  3> * xyz 0 1
|  4> C 4.8647 -3.1054 -0.0613
|  5> O 3.5528 -2.6234 0.2088
|  6> C 3.2733 -1.4237 0.8805
|  7> C 4.2875 -0.5709 1.3567
|  8> C 3.9564 0.6154 2.0163
|  9> C 2.6174 0.9632 2.2066
| 10> C 1.5937 0.1242 1.7363
| 11> C 0.1475 0.5048 1.9386
| 12> N -0.5747 0.5838 0.6562
| 13> C -1.8311 -0.1158 0.4961
| 14> O -2.8109 0.4699 -0.0397
| 15> C -1.9957 -1.5495 0.9191
| 16> C -2.3891 -2.3966 -0.2613
| 17> C -1.4328 -2.7401 -1.2327
| 18> C -1.8029 -3.4955 -2.3502
| 19> C -3.1279 -3.9118 -2.5071
| 20> C -4.0862 -3.5695 -1.5489
| 21> C -3.7214 -2.8106 -0.4313
| 22> C -0.1313 1.5732 -0.3524
| 23> C -0.3617 1.0470 -1.7514
| 24> N 0.5352 0.0857 -2.3073
| 25> O -1.3702 1.4098 -2.4155
| 26> C -0.7333 2.9596 -0.1475
| 27> C -0.2701 4.0197 -0.9517
| 28> C -0.7753 5.3126 -0.7900
| 29> C -1.7424 5.5690 0.1827
| 30> C -2.2041 4.5334 0.9972
| 31> C -1.7025 3.2374 0.8408
| 32> C 1.9330 -1.0700 1.0787
| 33> H 5.4127 -3.2731 0.8900
| 34> H 5.4154 -2.3796 -0.6971
| 35> H 4.7918 -4.0702 -0.6041
| 36> H 5.3325 -0.8148 1.2227
| 37> H 4.7403 1.2670 2.3828
| 38> H 2.3814 1.8885 2.7186
| 39> H 0.0707 1.4876 2.4513
| 40> H -0.3195 -0.2314 2.6248
| 41> H -1.0581 -1.9561 1.3468
| 42> H -2.7668 -1.6020 1.7180
| 43> H -0.4047 -2.4180 -1.1269
| 44> H -1.0627 -3.7555 -3.0961
| 45> H -3.4130 -4.4962 -3.3724
| 46> H -5.1130 -3.8889 -1.6736
| 47> H -4.4767 -2.5455 0.2978
| 48> H 0.9679 1.7092 -0.2570
| 49> H 1.3624 -0.2474 -1.7647
| 50> H 0.3639 -0.3062 -3.2596
| 51> H 0.4841 3.8415 -1.7079
| 52> H -0.4133 6.1172 -1.4172
| 53> H -2.1305 6.5713 0.3091
| 54> H -2.9484 4.7358 1.7567
| 55> H -2.0728 2.4671 1.5017
| 56> H 1.1585 -1.7258 0.7071
| 57> *
| 58>
| 59>                          ****END OF INPUT****

CARTESIAN COORDINATES (ANGSTROEM)
---------------------------------
  C      4.864700   -3.105400   -0.061300
  O      3.552800   -2.623400    0.208800
  C      3.273300   -1.423700    0.880500
  C      4.287500   -0.570900    1.356700
  C      3.956400    0.615400    2.016300
  C      2.617400    0.963200    2.206600
  C      1.593700    0.124200    1.736300
  C      0.147500    0.504800    1.938600
  N     -0.574700    0.583800    0.656200
  C     -1.831100   -0.115800    0.496100
  O     -2.810900    0.469900   -0.039700
  C     -1.995700   -1.549500    0.919100
  C     -2.389100   -2.396600   -0.261300
  C     -1.432800   -2.740100   -1.232700
  C     -1.802900   -3.495500   -2.350200
  C     -3.127900   -3.911800   -2.507100
  C     -4.086200   -3.569500   -1.548900
  C     -3.721400   -2.810600   -0.431300
  C     -0.131300    1.573200   -0.352400
  C     -0.361700    1.047000   -1.751400
  N      0.535200    0.085700   -2.307300
  O     -1.370200    1.409800   -2.415500
  C     -0.733300    2.959600   -0.147500
  C     -0.270100    4.019700   -0.951700
  C     -0.775300    5.312600   -0.790000
  C     -1.742400    5.569000    0.182700
  C     -2.204100    4.533400    0.997200
  C     -1.702500    3.237400    0.840800
  C      1.933000   -1.070000    1.078700
  H      5.412700   -3.273100    0.890000
  H      5.415400   -2.379600   -0.697100
  H      4.791800   -4.070200   -0.604100
  H      5.332500   -0.814800    1.222700
  H      4.740300    1.267000    2.382800
  H      2.381400    1.888500    2.718600
  H      0.070700    1.487600    2.451300
  H     -0.319500   -0.231400    2.624800
  H     -1.058100   -1.956100    1.346800
  H     -2.766800   -1.602000    1.718000
  H     -0.404700   -2.418000   -1.126900
  H     -1.062700   -3.755500   -3.096100
  H     -3.413000   -4.496200   -3.372400
  H     -5.113000   -3.888900   -1.673600
  H     -4.476700   -2.545500    0.297800
  H      0.967900    1.709200   -0.257000
  H      1.362400   -0.247400   -1.764700
  H      0.363900   -0.306200   -3.259600
  H      0.484100    3.841500   -1.707900
  H     -0.413300    6.117200   -1.417200
  H     -2.130500    6.571300    0.309100
  H     -2.948400    4.735800    1.756700
  H     -2.072800    2.467100    1.501700
  H      1.158500   -1.725800    0.707100

 Total Charge           Charge          ....    0
 Multiplicity           Mult            ....    1
 Number of Electrons    NEL             ....  206
 Basis Dimension        Dim             ....  454

ORBITAL ENERGIES
----------------

  NO   OCC          E(Eh)            E(eV)
   0   2.0000     -19.176091      -521.8080
   1   2.0000     -19.107631      -519.9451
   2   2.0000     -19.096417      -519.6399
   3   2.0000     -14.353728      -390.5848
   4   2.0000     -14.346558      -390.3897
   5   2.0000     -10.284014      -279.8422
   6   2.0000     -10.280891      -279.7573
   7   2.0000     -10.259839      -279.1844
   8   2.0000     -10.247019      -278.8356
   9   2.0000     -10.233257      -278.4611
  10   2.0000     -10.230839      -278.3953
  11   2.0000     -10.204025      -277.6656
  12   2.0000     -10.195820      -277.4424
  13   2.0000     -10.193021      -277.3662
  14   2.0000     -10.192627      -277.3555
  15   2.0000     -10.191892      -277.3355
  16   2.0000     -10.188765      -277.2504
  17   2.0000     -10.187405      -277.2134
  18   2.0000     -10.180456      -277.0243
  19   2.0000     -10.175420      -276.8873
  20   2.0000     -10.174949      -276.8744
  21   2.0000     -10.173620      -276.8383
  22   2.0000     -10.173200      -276.8268
  23   2.0000     -10.172889      -276.8184
  24   2.0000     -10.167949      -276.6840
  25   2.0000     -10.166996      -276.6580
  26   2.0000     -10.166244      -276.6376
  27   2.0000     -10.165760      -276.6244
  28   2.0000     -10.165230      -276.6100
  29   2.0000      -1.053971       -28.6800
  30   2.0000      -1.009018       -27.4568
  31   2.0000      -0.992816       -27.0159
  32   2.0000      -0.921845       -25.0847
  33   2.0000      -0.869076       -23.6487
  34   2.0000      -0.860470       -23.4146
  35   2.0000      -0.845626       -23.0106
  36   2.0000      -0.834485       -22.7075
  37   2.0000      -0.782238       -21.2858
  38   2.0000      -0.778054       -21.1719
  39   2.0000      -0.764076       -20.7916
  40   2.0000      -0.754023       -20.5180
  41   2.0000      -0.733935       -19.9714
  42   2.0000      -0.726237       -19.7619
  43   2.0000      -0.705212       -19.1898
  44   2.0000      -0.700418       -19.0593
  45   2.0000      -0.699009       -19.0210
  46   2.0000      -0.671767       -18.2797
  47   2.0000      -0.612498       -16.6669
  48   2.0000      -0.600839       -16.3497
  49   2.0000      -0.595848       -16.2138
  50   2.0000      -0.590163       -16.0591
  51   2.0000      -0.587841       -15.9960
  52   2.0000      -0.582284       -15.8447
  53   2.0000      -0.566310       -15.4101
  54   2.0000      -0.536353       -14.5949
  55   2.0000      -0.531260       -14.4563
  56   2.0000      -0.513796       -13.9811
  57   2.0000      -0.507929       -13.8214
  58   2.0000      -0.497283       -13.5318
  59   2.0000      -0.494955       -13.4684
  60   2.0000      -0.491506       -13.3745
  61   2.0000      -0.489195       -13.3117
  62   2.0000      -0.470242       -12.7959
  63   2.0000      -0.469221       -12.7682
  64   2.0000      -0.460576       -12.5329
  65   2.0000      -0.453044       -12.3279
  66   2.0000      -0.451081       -12.2745
  67   2.0000      -0.445763       -12.1298
  68   2.0000      -0.443356       -12.0643
  69   2.0000      -0.440518       -11.9871
  70   2.0000      -0.428133       -11.6501
  71   2.0000      -0.419024       -11.4022
  72   2.0000      -0.416064       -11.3217
  73   2.0000      -0.412562       -11.2264
  74   2.0000      -0.406844       -11.0708
  75   2.0000      -0.403031       -10.9670
  76   2.0000      -0.398356       -10.8398
  77   2.0000      -0.395781       -10.7697
  78   2.0000      -0.383991       -10.4489
  79   2.0000      -0.381968       -10.3939
  80   2.0000      -0.375139       -10.2081
  81   2.0000      -0.372644       -10.1402
  82   2.0000      -0.363070        -9.8796
  83   2.0000      -0.361768        -9.8442
  84   2.0000      -0.348076        -9.4716
  85   2.0000      -0.342228        -9.3125
  86   2.0000      -0.337385        -9.1807
  87   2.0000      -0.333107        -9.0643
  88   2.0000      -0.332383        -9.0446
  89   2.0000      -0.327752        -8.9186
  90   2.0000      -0.324968        -8.8428
  91   2.0000      -0.321105        -8.7377
  92   2.0000      -0.320240        -8.7142
  93   2.0000      -0.261889        -7.1264
  94   2.0000      -0.257019        -6.9938
  95   2.0000      -0.247113        -6.7243
  96   2.0000      -0.238727        -6.4961
  97   2.0000      -0.234684        -6.3861
  98   2.0000      -0.232569        -6.3285
  99   2.0000      -0.231087        -6.2882
 100   2.0000      -0.228003        -6.2043
 101   2.0000      -0.221885        -6.0378
 102   2.0000      -0.220128        -5.9900
 103   0.0000      -0.021307        -0.5798
 104   0.0000      -0.012118        -0.3298
 105   0.0000       0.000046         0.0013
 106   0.0000       0.005387         0.1466
 107   0.0000       0.009904         0.2695

MULLIKEN ATOMIC CHARGES
-----------------------
   0 C :   -0.197495
   1 O :   -0.513965
   2 C :    0.368164
   3 C :   -0.204279
   4 C :   -0.120333
   5 C :   -0.190605
   6 C :    0.151366
   7 C :   -0.239949
   8 N :   -0.447312
   9 C :    0.538277
  10 O :   -0.432150
  11 C :   -0.440753
  12 C :    0.173159
  13 C :   -0.162154
  14 C :   -0.127359
  15 C :   -0.122550
  16 C :   -0.125324
  17 C :   -0.158986
  18 C :   -0.115391
  19 C :    0.561498
  20 N :   -0.776508
  21 O :   -0.443292
  22 C :    0.181919
  23 C :   -0.155643
  24 C :   -0.132489
  25 C :   -0.122686
  26 C :   -0.133417
  27 C :   -0.147930
  28 C :   -0.241895
  29 H :    0.150204
  30 H :    0.146555
  31 H :    0.172408
  32 H :    0.134598
  33 H :    0.137255
  34 H :    0.131941
  35 H :    0.162962
  36 H :    0.173995
  37 H :    0.151611
  38 H :    0.172575
  39 H :    0.127497
  40 H :    0.120443
  41 H :    0.124820
  42 H :    0.128112
  43 H :    0.128775
  44 H :    0.162866
  45 H :    0.335298
  46 H :    0.349768
  47 H :    0.119857
  48 H :    0.122763
  49 H :    0.120558
  50 H :    0.123128
  51 H :    0.127670
  52 H :    0.152423
Sum of atomic charges:   -0.0000000

LOEWDIN ATOMIC CHARGES
----------------------
   0 C :   -0.199657
   1 O :   -0.195751
   2 C :    0.087842
   3 C :   -0.174986
   4 C :   -0.116535
   5 C :   -0.154598
   6 C :   -0.027162
   7 C :   -0.146200
   8 N :   -0.117217
   9 C :    0.143420
  10 O :   -0.238130
  11 C :   -0.243463
  12 C :   -0.006015
  13 C :   -0.131294
  14 C :   -0.128263
  15 C :   -0.130314
  16 C :   -0.124958
  17 C :   -0.122010
  18 C :   -0.062976
  19 C :    0.133064
  20 N :   -0.404042
  21 O :   -0.256733
  22 C :   -0.008473
  23 C :   -0.124096
  24 C :   -0.129848
  25 C :   -0.132397
  26 C :   -0.130642
  27 C :   -0.119885
  28 C :   -0.163726
  29 H :    0.117995
  30 H :    0.116001
  31 H :    0.137131
  32 H :    0.136324
  33 H :    0.135894
  34 H :    0.133440
  35 H :    0.129001
  36 H :    0.142710
  37 H :    0.129526
  38 H :    0.147976
  39 H :    0.127511
  40 H :    0.127885
  41 H :    0.129997
  42 H :    0.131642
  43 H :    0.132920
  44 H :    0.145265
  45 H :    0.249699
  46 H :    0.264556
  47 H :    0.128010
  48 H :    0.129058
  49 H :    0.127970
  50 H :    0.129271
  51 H :    0.135126
  52 H :    0.140141

  Mayer bond orders larger than 0.100000
B(  0-C ,  1-O ) :   0.9174 B(  0-C , 29-H ) :   0.9307 B(  0-C , 30-H ) :   0.9308
B(  0-C , 31-H ) :   0.9443 B(  1-O ,  2-C ) :   0.9213 B(  2-C ,  3-C ) :   1.3592
B(  2-C , 28-C ) :   1.3861 B(  3-C ,  4-C ) :   1.4478 B(  3-C , 32-H ) :   0.9189
B(  4-C ,  5-C ) :   1.4348 B(  4-C , 33-H ) :   0.9281 B(  5-C ,  6-C ) :   1.4265
B(  5-C , 34-H ) :   0.9220 B(  6-C ,  7-C ) :   0.9562 B(  6-C , 28-C ) :   1.4150
B(  7-C ,  8-N ) :   0.9506 B(  7-C , 35-H ) :   0.9163 B(  7-C , 36-H ) :   0.9180
B(  8-N ,  9-C ) :   0.9945 B(  8-N , 18-C ) :   0.9317 B(  9-C , 10-O ) :   1.8643
B(  9-C , 11-C ) :   0.9419 B( 11-C , 12-C ) :   0.9832 B( 11-C , 37-H ) :   0.9145
B( 11-C , 38-H ) :   0.9180 B( 12-C , 13-C ) :   1.4272 B( 12-C , 17-C ) :   1.4423
B( 13-C , 14-C ) :   1.4452 B( 13-C , 39-H ) :   0.9137 B( 14-C , 15-C ) :   1.4525
B( 14-C , 40-H ) :   0.9310 B( 15-C , 16-C ) :   1.4565 B( 15-C , 41-H ) :   0.9307
B( 16-C , 17-C ) :   1.4388 B( 16-C , 42-H ) :   0.9294 B( 17-C , 43-H ) :   0.9241
B( 18-C , 19-C ) :   0.9166 B( 18-C , 22-C ) :   0.9366 B( 18-C , 44-H ) :   0.8995
B( 19-C , 20-N ) :   1.0557 B( 19-C , 21-O ) :   1.8797 B( 20-N , 45-H ) :   0.8189
B( 20-N , 46-H ) :   0.8233 B( 22-C , 23-C ) :   1.4073 B( 22-C , 27-C ) :   1.4458
B( 23-C , 24-C ) :   1.4508 B( 23-C , 47-H ) :   0.9262 B( 24-C , 25-C ) :   1.4504
B( 24-C , 48-H ) :   0.9304 B( 25-C , 26-C ) :   1.4572 B( 25-C , 49-H ) :   0.9310
B( 26-C , 27-C ) :   1.4318 B( 26-C , 50-H ) :   0.9305 B( 27-C , 51-H ) :   0.9146
B( 28-C , 52-H ) :   0.9012

FINAL SINGLE POINT ENERGY     -1263.360920801373

DIPOLE MOMENT
-------------

Method             : SCF
Type of density    : Electron Density
Multiplicity       :   1
Irrep              :   0
Energy             : -1263.3609208013726857 Eh
Relativity type    :
Basis              : AO
                                X                 Y                 Z
Electronic contribution:     -7.476152330       4.519122905      -1.671706689
Nuclear contribution   :     10.082213642      -5.632127477       2.646184933
                        -----------------------------------------
Total Dipole Moment    :      2.606061312      -1.113004572       0.974478244
                        -----------------------------------------
Magnitude (a.u.)       :      2.996655233
Magnitude (Debye)      :      7.616892278

Rotational constants in cm-1:             0.005407             0.005026             0.003111
Rotational constants in MHz :           162.086283           150.680313            93.269171

                             ****ORCA TERMINATED NORMALLY****
TOTAL RUN TIME: 0 days 0 hours 7 minutes 49 seconds 420 msec
