                         Program Version 6.0.0  -   RELEASE  -
|  1> ! B3LYP 6-31G* SP
|  2>
|  3> * xyz 0 1
|  4> C 6.3938 0.0909 0.9524
|  5> C 5.8899 -0.2526 -0.4432
|  6> N 4.5959 0.3747 -0.6784
|  7> N 4.4341 1.5887 -1.1745
|  8> N 3.1415 1.8694 -1.2000
|  9> C 2.5343 0.7782 -0.6906
| 10> C 1.0807 0.6185 -0.5075
| 11> S 0.3720 -0.7560 0.1541
| 12> C -1.2058 -0.1762 0.0236
| 13> C -2.4356 -0.9043 0.4418
| 14> C -2.3243 -2.1955 0.9961
| 15> C -3.4586 -2.9020 1.3969
| 16> C -4.7221 -2.3355 1.2528
| 17> C -4.8580 -1.0594 0.7072
| 18> C -3.7237 -0.3289 0.2960
| 19> O -3.8499 0.9578 -0.2547
| 20> C -5.0837 1.6411 -0.4518
| 21> N -1.2051 1.0617 -0.5221
| 22> C 0.0445 1.5104 -0.8189
| 23> O 0.2193 2.7700 -1.3896
| 24> N 3.4348 -0.1654 -0.3515
| 25> H 5.6775 -0.2763 1.7178
| 26> H 6.5085 1.1907 1.0568
| 27> H 7.3796 -0.3908 1.1228
| 28> H 5.7943 -1.3554 -0.5425
| 29> H 6.6216 0.1034 -1.2004
| 30> H -1.3592 -2.6676 1.1231
| 31> H -3.3567 -3.8928 1.8208
| 32> H -5.5998 -2.8867 1.5649
| 33> H -5.8534 -0.6488 0.6093
| 34> H -5.5971 1.7912 0.5213
| 35> H -5.7331 1.0651 -1.1443
| 36> H -4.8792 2.6342 -0.9015
| 37> H 1.1229 3.1481 -1.6329
| 38> *
| 39>
| 40>                          ****END OF INPUT****

CARTESIAN COORDINATES (ANGSTROEM)
---------------------------------
  C      6.393800    0.090900    0.952400
  C      5.889900   -0.252600   -0.443200
  N      4.595900    0.374700   -0.678400
  N      4.434100    1.588700   -1.174500
  N      3.141500    1.869400   -1.200000
  C      2.534300    0.778200   -0.690600
  C      1.080700    0.618500   -0.507500
  S      0.372000   -0.756000    0.154100
  C     -1.205800   -0.176200    0.023600
  C     -2.435600   -0.904300    0.441800
  C     -2.324300   -2.195500    0.996100
  C     -3.458600   -2.902000    1.396900
  C     -4.722100   -2.335500    1.252800
  C     -4.858000   -1.059400    0.707200
  C     -3.723700   -0.328900    0.296000
  O     -3.849900    0.957800   -0.254700
  C     -5.083700    1.641100   -0.451800
  N     -1.205100    1.061700   -0.522100
  C      0.044500    1.510400   -0.818900
  O      0.219300    2.770000   -1.389600
  N      3.434800   -0.165400   -0.351500
  H      5.677500   -0.276300    1.717800
  H      6.508500    1.190700    1.056800
  H      7.379600   -0.390800    1.122800
  H      5.794300   -1.355400   -0.542500
  H      6.621600    0.103400   -1.200400
  H     -1.359200   -2.667600    1.123100
  H     -3.356700   -3.892800    1.820800
  H     -5.599800   -2.886700    1.564900
  H     -5.853400   -0.648800    0.609300
  H     -5.597100    1.791200    0.521300
  H     -5.733100    1.065100   -1.144300
  H     -4.879200    2.634200   -0.901500
  H      1.122900    3.148100   -1.632900

 Total Charge           Charge          ....    0
 Multiplicity           Mult            ....    1
 Number of Electrons    NEL             ....  158
 Basis Dimension        Dim             ....  324

ORBITAL ENERGIES
----------------

  NO   OCC          E(Eh)            E(eV)
   0   2.0000     -88.890221     -2418.8259
   1   2.0000     -19.158832      -521.3383
   2   2.0000     -19.157878      -521.3124
   3   2.0000     -14.461540      -393.5185
   4   2.0000     -14.401135      -391.8748
   5   2.0000     -14.368958      -390.9992
   6   2.0000     -14.365241      -390.8981
   7   2.0000     -14.317322      -389.5941
   8   2.0000     -10.275617      -279.6137
   9   2.0000     -10.257730      -279.1270
  10   2.0000     -10.255261      -279.0598
  11   2.0000     -10.252776      -278.9922
  12   2.0000     -10.249502      -278.9031
  13   2.0000     -10.230767      -278.3933
  14   2.0000     -10.211869      -277.8791
  15   2.0000     -10.207997      -277.7737
  16   2.0000     -10.196156      -277.4515
  17   2.0000     -10.191859      -277.3346
  18   2.0000     -10.187765      -277.2232
  19   2.0000     -10.184411      -277.1319
  20   2.0000     -10.180193      -277.0171
  21   2.0000      -7.967272      -216.8005
  22   2.0000      -5.930184      -161.3685
  23   2.0000      -5.926331      -161.2637
  24   2.0000      -5.924255      -161.2072
  25   2.0000      -1.149130       -31.2694
  26   2.0000      -1.037122       -28.2215
  27   2.0000      -1.027411       -27.9573
  28   2.0000      -0.952541       -25.9199
  29   2.0000      -0.948889       -25.8206
  30   2.0000      -0.897681       -24.4271
  31   2.0000      -0.854892       -23.2628
  32   2.0000      -0.809351       -22.0236
  33   2.0000      -0.790454       -21.5094
  34   2.0000      -0.775570       -21.1043
  35   2.0000      -0.749616       -20.3981
  36   2.0000      -0.723651       -19.6915
  37   2.0000      -0.690020       -18.7764
  38   2.0000      -0.685685       -18.6585
  39   2.0000      -0.663642       -18.0586
  40   2.0000      -0.622876       -16.9493
  41   2.0000      -0.611903       -16.6507
  42   2.0000      -0.602639       -16.3986
  43   2.0000      -0.583898       -15.8887
  44   2.0000      -0.556704       -15.1487
  45   2.0000      -0.547768       -14.9055
  46   2.0000      -0.519181       -14.1276
  47   2.0000      -0.513846       -13.9825
  48   2.0000      -0.498575       -13.5669
  49   2.0000      -0.482075       -13.1179
  50   2.0000      -0.476308       -12.9610
  51   2.0000      -0.465892       -12.6776
  52   2.0000      -0.454678       -12.3724
  53   2.0000      -0.450662       -12.2631
  54   2.0000      -0.447804       -12.1854
  55   2.0000      -0.430230       -11.7072
  56   2.0000      -0.425533       -11.5793
  57   2.0000      -0.414996       -11.2926
  58   2.0000      -0.413871       -11.2620
  59   2.0000      -0.399220       -10.8633
  60   2.0000      -0.396862       -10.7992
  61   2.0000      -0.379825       -10.3356
  62   2.0000      -0.378976       -10.3125
  63   2.0000      -0.372116       -10.1258
  64   2.0000      -0.370983       -10.0950
  65   2.0000      -0.358309        -9.7501
  66   2.0000      -0.340718        -9.2714
  67   2.0000      -0.330140        -8.9836
  68   2.0000      -0.319411        -8.6916
  69   2.0000      -0.314173        -8.5491
  70   2.0000      -0.312924        -8.5151
  71   2.0000      -0.311501        -8.4764
  72   2.0000      -0.301732        -8.2105
  73   2.0000      -0.293720        -7.9925
  74   2.0000      -0.265888        -7.2352
  75   2.0000      -0.253826        -6.9070
  76   2.0000      -0.246776        -6.7151
  77   2.0000      -0.225845        -6.1455
  78   2.0000      -0.196922        -5.3585
  79   0.0000      -0.052897        -1.4394
  80   0.0000      -0.022472        -0.6115
  81   0.0000       0.005680         0.1545
  82   0.0000       0.013079         0.3559
  83   0.0000       0.044585         1.2132

MULLIKEN ATOMIC CHARGES
-----------------------
   0 C :   -0.446078
   1 C :   -0.145591
   2 N :   -0.031676
   3 N :   -0.055846
   4 N :   -0.366417
   5 C :    0.431555
   6 C :   -0.249870
   7 S :    0.269586
   8 C :   -0.013411
   9 C :    0.110476
  10 C :   -0.198296
  11 C :   -0.139393
  12 C :   -0.114555
  13 C :   -0.206009
  14 C :    0.333545
  15 O :   -0.474855
  16 C :   -0.194637
  17 N :   -0.377746
  18 C :    0.492677
  19 O :   -0.656810
  20 N :   -0.318458
  21 H :    0.175215
  22 H :    0.174243
  23 H :    0.158701
  24 H :    0.189776
  25 H :    0.189472
  26 H :    0.152769
  27 H :    0.129157
  28 H :    0.133398
  29 H :    0.137876
  30 H :    0.143020
  31 H :    0.143070
  32 H :    0.179054
  33 H :    0.446058
Sum of atomic charges:    0.0000000

LOEWDIN ATOMIC CHARGES
----------------------
   0 C :   -0.362279
   1 C :   -0.152680
   2 N :    0.099689
   3 N :   -0.073304
   4 N :   -0.143743
   5 C :   -0.000527
   6 C :   -0.270632
   7 S :    0.400706
   8 C :   -0.110737
   9 C :   -0.047772
  10 C :   -0.116019
  11 C :   -0.147159
  12 C :   -0.115847
  13 C :   -0.170680
  14 C :    0.113303
  15 O :   -0.164116
  16 C :   -0.197963
  17 N :   -0.146324
  18 C :    0.100389
  19 O :   -0.337511
  20 N :   -0.139812
  21 H :    0.139429
  22 H :    0.139058
  23 H :    0.135718
  24 H :    0.151059
  25 H :    0.150628
  26 H :    0.143565
  27 H :    0.132756
  28 H :    0.134465
  29 H :    0.138573
  30 H :    0.114675
  31 H :    0.114724
  32 H :    0.140685
  33 H :    0.347683

  Mayer bond orders larger than 0.100000
B(  0-C ,  1-C ) :   1.0034 B(  0-C , 21-H ) :   0.9434 B(  0-C , 22-H ) :   0.9439
B(  0-C , 23-H ) :   0.9420 B(  1-C ,  2-N ) :   0.8974 B(  1-C , 24-H ) :   0.9261
B(  1-C , 25-H ) :   0.9267 B(  2-N ,  3-N ) :   1.2522 B(  2-N , 20-N ) :   1.2219
B(  3-N ,  4-N ) :   1.4197 B(  3-N , 20-N ) :   0.1308 B(  4-N ,  5-C ) :   1.2755
B(  5-C ,  6-C ) :   1.0572 B(  5-C , 20-N ) :   1.3690 B(  6-C ,  7-S ) :   1.0755
B(  6-C ,  8-C ) :   0.1172 B(  6-C , 18-C ) :   1.3772 B(  7-S ,  8-C ) :   1.1362
B(  8-C ,  9-C ) :   1.0136 B(  8-C , 17-N ) :   1.4375 B(  9-C , 10-C ) :   1.3981
B(  9-C , 14-C ) :   1.3220 B( 10-C , 11-C ) :   1.4542 B( 10-C , 26-H ) :   0.9147
B( 11-C , 12-C ) :   1.4380 B( 11-C , 27-H ) :   0.9294 B( 12-C , 13-C ) :   1.4455
B( 12-C , 28-H ) :   0.9292 B( 13-C , 14-C ) :   1.3496 B( 13-C , 29-H ) :   0.9175
B( 14-C , 15-O ) :   0.9720 B( 15-O , 16-C ) :   0.9190 B( 16-C , 30-H ) :   0.9303
B( 16-C , 31-H ) :   0.9304 B( 16-C , 32-H ) :   0.9421 B( 17-N , 18-C ) :   1.3141
B( 18-C , 19-O ) :   1.0134 B( 19-O , 33-H ) :   0.7168

FINAL SINGLE POINT ENERGY     -1324.913095746839

DIPOLE MOMENT
-------------

Method             : SCF
Type of density    : Electron Density
Multiplicity       :   1
Irrep              :   0
Energy             : -1324.9130957468389624 Eh
Relativity type    :
Basis              : AO
                                X                 Y                 Z
Electronic contribution:      0.346855903       2.232125414      -4.647537352
Nuclear contribution   :      0.142310901      -3.285327022       5.193654333
                        -----------------------------------------
Total Dipole Moment    :      0.489166804      -1.053201608       0.546116982
                        -----------------------------------------
Magnitude (a.u.)       :      1.283262073
Magnitude (Debye)      :      3.261792970

Rotational constants in cm-1:             0.023356             0.004239             0.003636
Rotational constants in MHz :           700.199010           127.081180           108.998159

                             ****ORCA TERMINATED NORMALLY****
TOTAL RUN TIME: 0 days 0 hours 4 minutes 16 seconds 225 msec
