                         Program Version 6.0.0  -   RELEASE  -
|  1> ! B3LYP 6-31G* SP
|  2>
|  3> * xyz 0 1
|  4> C 0.4636 -2.0952 -0.8975
|  5> C -0.6784 -2.0462 0.0933
|  6> C -1.3626 -0.8336 0.3470
|  7> N -1.0223 0.3728 -0.3463
|  8> C -0.3930 1.4756 0.3799
|  9> C 1.0236 1.1134 0.7260
| 10> C 1.3094 0.4323 1.9335
| 11> C 2.6195 0.0169 2.2225
| 12> C 3.6220 0.2861 1.2910
| 13> C 3.3479 0.9349 0.1224
| 14> C 2.0609 1.3610 -0.1969
| 15> O 4.4781 1.0838 -0.6514
| 16> C 5.6123 0.5060 0.0018
| 17> C 6.6671 1.5951 0.2382
| 18> C 6.1849 -0.6122 -0.8797
| 19> C 5.0660 -0.0601 1.3555
| 20> S -1.6191 0.6264 -1.9559
| 21> O -0.5068 1.1481 -2.8224
| 22> O -2.1077 -0.6711 -2.5375
| 23> C -2.9534 1.7709 -1.8971
| 24> C -2.8161 3.0591 -2.4293
| 25> C -3.8773 3.9663 -2.3580
| 26> C -5.0899 3.5984 -1.7473
| 27> C -6.2164 4.5544 -1.6683
| 28> O -6.1062 5.7132 -2.1533
| 29> O -7.4122 4.1815 -1.0599
| 30> C -5.2173 2.3056 -1.2097
| 31> C -4.1551 1.4003 -1.2836
| 32> N -2.3538 -0.7903 1.2750
| 33> C -2.7430 -1.8822 1.9755
| 34> C -2.1244 -3.1151 1.7549
| 35> C -2.5335 -4.2505 2.4716
| 36> C -1.9164 -5.4815 2.2481
| 37> C -0.8903 -5.5892 1.3099
| 38> C -0.4715 -4.4666 0.5903
| 39> C -1.0795 -3.2090 0.8015
| 40> H 1.3753 -2.4894 -0.4020
| 41> H 0.7272 -1.1001 -1.3061
| 42> H 0.1889 -2.7509 -1.7492
| 43> H -0.4021 2.4012 -0.2367
| 44> H -0.9740 1.6993 1.3012
| 45> H 0.5167 0.2119 2.6379
| 46> H 2.8435 -0.5081 3.1421
| 47> H 1.8682 1.8570 -1.1396
| 48> H 6.2390 2.4163 0.8527
| 49> H 7.5483 1.1739 0.7684
| 50> H 7.0019 2.0241 -0.7303
| 51> H 6.5315 -0.1983 -1.8507
| 52> H 7.0417 -1.1062 -0.3726
| 53> H 5.4033 -1.3746 -1.0864
| 54> H 5.5294 0.4263 2.2417
| 55> H 5.1836 -1.1629 1.4364
| 56> H -1.8895 3.3653 -2.8967
| 57> H -3.7469 4.9557 -2.7783
| 58> H -8.1904 4.8278 -1.0009
| 59> H -6.1361 1.9930 -0.7300
| 60> H -4.2682 0.4101 -0.8595
| 61> H -3.5412 -1.7848 2.7009
| 62> H -3.3300 -4.1851 3.2034
| 63> H -2.2358 -6.3548 2.8024
| 64> H -0.4169 -6.5475 1.1387
| 65> H 0.3234 -4.5985 -0.1305
| 66> *
| 67>
| 68>                          ****END OF INPUT****

CARTESIAN COORDINATES (ANGSTROEM)
---------------------------------
  C      0.463600   -2.095200   -0.897500
  C     -0.678400   -2.046200    0.093300
  C     -1.362600   -0.833600    0.347000
  N     -1.022300    0.372800   -0.346300
  C     -0.393000    1.475600    0.379900
  C      1.023600    1.113400    0.726000
  C      1.309400    0.432300    1.933500
  C      2.619500    0.016900    2.222500
  C      3.622000    0.286100    1.291000
  C      3.347900    0.934900    0.122400
  C      2.060900    1.361000   -0.196900
  O      4.478100    1.083800   -0.651400
  C      5.612300    0.506000    0.001800
  C      6.667100    1.595100    0.238200
  C      6.184900   -0.612200   -0.879700
  C      5.066000   -0.060100    1.355500
  S     -1.619100    0.626400   -1.955900
  O     -0.506800    1.148100   -2.822400
  O     -2.107700   -0.671100   -2.537500
  C     -2.953400    1.770900   -1.897100
  C     -2.816100    3.059100   -2.429300
  C     -3.877300    3.966300   -2.358000
  C     -5.089900    3.598400   -1.747300
  C     -6.216400    4.554400   -1.668300
  O     -6.106200    5.713200   -2.153300
  O     -7.412200    4.181500   -1.059900
  C     -5.217300    2.305600   -1.209700
  C     -4.155100    1.400300   -1.283600
  N     -2.353800   -0.790300    1.275000
  C     -2.743000   -1.882200    1.975500
  C     -2.124400   -3.115100    1.754900
  C     -2.533500   -4.250500    2.471600
  C     -1.916400   -5.481500    2.248100
  C     -0.890300   -5.589200    1.309900
  C     -0.471500   -4.466600    0.590300
  C     -1.079500   -3.209000    0.801500
  H      1.375300   -2.489400   -0.402000
  H      0.727200   -1.100100   -1.306100
  H      0.188900   -2.750900   -1.749200
  H     -0.402100    2.401200   -0.236700
  H     -0.974000    1.699300    1.301200
  H      0.516700    0.211900    2.637900
  H      2.843500   -0.508100    3.142100
  H      1.868200    1.857000   -1.139600
  H      6.239000    2.416300    0.852700
  H      7.548300    1.173900    0.768400
  H      7.001900    2.024100   -0.730300
  H      6.531500   -0.198300   -1.850700
  H      7.041700   -1.106200   -0.372600
  H      5.403300   -1.374600   -1.086400
  H      5.529400    0.426300    2.241700
  H      5.183600   -1.162900    1.436400
  H     -1.889500    3.365300   -2.896700
  H     -3.746900    4.955700   -2.778300
  H     -8.190400    4.827800   -1.000900
  H     -6.136100    1.993000   -0.730000
  H     -4.268200    0.410100   -0.859500
  H     -3.541200   -1.784800    2.700900
  H     -3.330000   -4.185100    3.203400
  H     -2.235800   -6.354800    2.802400
  H     -0.416900   -6.547500    1.138700
  H      0.323400   -4.598500   -0.130500

 Total Charge           Charge          ....    0
 Multiplicity           Mult            ....    1
 Number of Electrons    NEL             ....  264
 Basis Dimension        Dim             ....  560

ORBITAL ENERGIES
----------------

  NO   OCC          E(Eh)            E(eV)
   0   2.0000     -89.092846     -2424.3396
   1   2.0000     -19.192615      -522.2576
   2   2.0000     -19.157479      -521.3015
   3   2.0000     -19.133691      -520.6542
   4   2.0000     -19.123378      -520.3736
   5   2.0000     -19.122370      -520.3462
   6   2.0000     -14.365223      -390.8976
   7   2.0000     -14.330388      -389.9497
   8   2.0000     -10.331245      -281.1275
   9   2.0000     -10.253571      -279.0139
  10   2.0000     -10.244643      -278.7709
  11   2.0000     -10.236106      -278.5386
  12   2.0000     -10.228036      -278.3190
  13   2.0000     -10.226516      -278.2776
  14   2.0000     -10.225887      -278.2605
  15   2.0000     -10.222801      -278.1766
  16   2.0000     -10.214217      -277.9430
  17   2.0000     -10.213808      -277.9318
  18   2.0000     -10.211836      -277.8782
  19   2.0000     -10.211686      -277.8741
  20   2.0000     -10.205056      -277.6937
  21   2.0000     -10.202625      -277.6275
  22   2.0000     -10.198216      -277.5076
  23   2.0000     -10.195961      -277.4462
  24   2.0000     -10.195462      -277.4326
  25   2.0000     -10.194242      -277.3994
  26   2.0000     -10.193200      -277.3711
  27   2.0000     -10.189077      -277.2589
  28   2.0000     -10.184193      -277.1260
  29   2.0000     -10.180361      -277.0217
  30   2.0000     -10.175188      -276.8809
  31   2.0000     -10.175171      -276.8805
  32   2.0000     -10.175164      -276.8803
  33   2.0000     -10.172562      -276.8095
  34   2.0000     -10.172319      -276.8029
  35   2.0000     -10.167289      -276.6660
  36   2.0000      -8.128632      -221.1913
  37   2.0000      -6.093604      -165.8154
  38   2.0000      -6.091716      -165.7640
  39   2.0000      -6.091267      -165.7518
  40   2.0000      -1.079937       -29.3866
  41   2.0000      -1.076987       -29.3063
  42   2.0000      -1.059823       -28.8392
  43   2.0000      -0.990982       -26.9660
  44   2.0000      -0.960380       -26.1333
  45   2.0000      -0.957725       -26.0610
  46   2.0000      -0.910626       -24.7794
  47   2.0000      -0.884663       -24.0729
  48   2.0000      -0.862114       -23.4593
  49   2.0000      -0.848541       -23.0900
  50   2.0000      -0.804821       -21.9003
  51   2.0000      -0.803588       -21.8667
  52   2.0000      -0.799587       -21.7579
  53   2.0000      -0.778479       -21.1835
  54   2.0000      -0.771207       -20.9856
  55   2.0000      -0.769672       -20.9438
  56   2.0000      -0.740185       -20.1415
  57   2.0000      -0.731657       -19.9094
  58   2.0000      -0.718972       -19.5642
  59   2.0000      -0.702471       -19.1152
  60   2.0000      -0.686566       -18.6824
  61   2.0000      -0.686360       -18.6768
  62   2.0000      -0.656009       -17.8509
  63   2.0000      -0.649595       -17.6764
  64   2.0000      -0.641194       -17.4478
  65   2.0000      -0.630882       -17.1672
  66   2.0000      -0.613971       -16.7070
  67   2.0000      -0.605175       -16.4677
  68   2.0000      -0.593458       -16.1488
  69   2.0000      -0.591645       -16.0995
  70   2.0000      -0.588144       -16.0042
  71   2.0000      -0.556493       -15.1429
  72   2.0000      -0.554209       -15.0808
  73   2.0000      -0.535951       -14.5840
  74   2.0000      -0.528837       -14.3904
  75   2.0000      -0.509941       -13.8762
  76   2.0000      -0.499213       -13.5843
  77   2.0000      -0.494904       -13.4670
  78   2.0000      -0.488780       -13.3004
  79   2.0000      -0.482358       -13.1256
  80   2.0000      -0.481036       -13.0896
  81   2.0000      -0.471235       -12.8230
  82   2.0000      -0.467065       -12.7095
  83   2.0000      -0.466106       -12.6834
  84   2.0000      -0.458243       -12.4694
  85   2.0000      -0.456647       -12.4260
  86   2.0000      -0.446890       -12.1605
  87   2.0000      -0.445571       -12.1246
  88   2.0000      -0.442280       -12.0351
  89   2.0000      -0.438104       -11.9214
  90   2.0000      -0.434018       -11.8102
  91   2.0000      -0.428869       -11.6701
  92   2.0000      -0.427891       -11.6435
  93   2.0000      -0.423228       -11.5166
  94   2.0000      -0.418571       -11.3899
  95   2.0000      -0.413931       -11.2636
  96   2.0000      -0.408502       -11.1159
  97   2.0000      -0.407166       -11.0796
  98   2.0000      -0.398283       -10.8378
  99   2.0000      -0.396044       -10.7769
 100   2.0000      -0.391320       -10.6484
 101   2.0000      -0.389239       -10.5917
 102   2.0000      -0.385131       -10.4800
 103   2.0000      -0.380202       -10.3458
 104   2.0000      -0.379209       -10.3188
 105   2.0000      -0.373880       -10.1738
 106   2.0000      -0.365964        -9.9584
 107   2.0000      -0.365166        -9.9367
 108   2.0000      -0.363922        -9.9028
 109   2.0000      -0.360627        -9.8132
 110   2.0000      -0.351972        -9.5777
 111   2.0000      -0.351313        -9.5597
 112   2.0000      -0.348425        -9.4811
 113   2.0000      -0.347330        -9.4513
 114   2.0000      -0.335877        -9.1397
 115   2.0000      -0.323032        -8.7901
 116   2.0000      -0.317088        -8.6284
 117   2.0000      -0.314051        -8.5458
 118   2.0000      -0.304288        -8.2801
 119   2.0000      -0.299027        -8.1369
 120   2.0000      -0.296291        -8.0625
 121   2.0000      -0.285633        -7.7725
 122   2.0000      -0.278500        -7.5784
 123   2.0000      -0.273605        -7.4452
 124   2.0000      -0.273074        -7.4307
 125   2.0000      -0.270309        -7.3555
 126   2.0000      -0.263766        -7.1774
 127   2.0000      -0.253350        -6.8940
 128   2.0000      -0.248756        -6.7690
 129   2.0000      -0.235860        -6.4181
 130   2.0000      -0.219834        -5.9820
 131   2.0000      -0.207300        -5.6409
 132   0.0000      -0.078260        -2.1296
 133   0.0000      -0.058026        -1.5790
 134   0.0000      -0.029992        -0.8161
 135   0.0000      -0.024468        -0.6658
 136   0.0000      -0.007262        -0.1976

MULLIKEN ATOMIC CHARGES
-----------------------
   0 C :   -0.542820
   1 C :    0.136423
   2 C :    0.309462
   3 N :   -0.607144
   4 C :   -0.243358
   5 C :    0.162355
   6 C :   -0.189836
   7 C :   -0.183246
   8 C :    0.092026
   9 C :    0.349196
  10 C :   -0.248052
  11 O :   -0.522378
  12 C :    0.339744
  13 C :   -0.452451
  14 C :   -0.452070
  15 C :   -0.388968
  16 S :    1.222201
  17 O :   -0.553619
  18 O :   -0.547808
  19 C :   -0.125096
  20 C :   -0.153279
  21 C :   -0.139213
  22 C :    0.082689
  23 C :    0.527409
  24 O :   -0.445826
  25 O :   -0.623966
  26 C :   -0.149196
  27 C :   -0.134849
  28 N :   -0.404694
  29 C :   -0.061881
  30 C :    0.139949
  31 C :   -0.204605
  32 C :   -0.125805
  33 C :   -0.121559
  34 C :   -0.194134
  35 C :    0.116470
  36 H :    0.151625
  37 H :    0.202660
  38 H :    0.174492
  39 H :    0.170458
  40 H :    0.172808
  41 H :    0.128616
  42 H :    0.124040
  43 H :    0.158977
  44 H :    0.149392
  45 H :    0.141615
  46 H :    0.152766
  47 H :    0.153326
  48 H :    0.140979
  49 H :    0.150073
  50 H :    0.155500
  51 H :    0.154618
  52 H :    0.186952
  53 H :    0.179014
  54 H :    0.433090
  55 H :    0.171473
  56 H :    0.185397
  57 H :    0.148085
  58 H :    0.136432
  59 H :    0.134833
  60 H :    0.137079
  61 H :    0.143630
Sum of atomic charges:    0.0000000

LOEWDIN ATOMIC CHARGES
----------------------
   0 C :   -0.361032
   1 C :    0.011156
   2 C :    0.025399
   3 N :   -0.277343
   4 C :   -0.145544
   5 C :   -0.026739
   6 C :   -0.151635
   7 C :   -0.129955
   8 C :   -0.053445
   9 C :    0.076514
  10 C :   -0.153433
  11 O :   -0.164224
  12 C :    0.081576
  13 C :   -0.354917
  14 C :   -0.354806
  15 C :   -0.223933
  16 S :    1.263394
  17 O :   -0.577818
  18 O :   -0.569518
  19 C :   -0.175036
  20 C :   -0.108195
  21 C :   -0.087025
  22 C :   -0.040522
  23 C :    0.179920
  24 O :   -0.262102
  25 O :   -0.335191
  26 C :   -0.099087
  27 C :   -0.096660
  28 N :   -0.140596
  29 C :   -0.067311
  30 C :   -0.027953
  31 C :   -0.114019
  32 C :   -0.125948
  33 C :   -0.118565
  34 C :   -0.118093
  35 C :   -0.006089
  36 H :    0.132191
  37 H :    0.154522
  38 H :    0.145318
  39 H :    0.142189
  40 H :    0.135002
  41 H :    0.131755
  42 H :    0.130954
  43 H :    0.149564
  44 H :    0.128617
  45 H :    0.127040
  46 H :    0.130259
  47 H :    0.130580
  48 H :    0.126673
  49 H :    0.129058
  50 H :    0.134029
  51 H :    0.133600
  52 H :    0.161436
  53 H :    0.159660
  54 H :    0.349112
  55 H :    0.154220
  56 H :    0.159923
  57 H :    0.134738
  58 H :    0.135791
  59 H :    0.134885
  60 H :    0.136268
  61 H :    0.141391

  Mayer bond orders larger than 0.100000
B(  0-C ,  1-C ) :   1.0109 B(  0-C , 36-H ) :   0.9265 B(  0-C , 37-H ) :   0.9154
B(  0-C , 38-H ) :   0.9216 B(  1-C ,  2-C ) :   1.4323 B(  1-C , 29-C ) :   0.1001
B(  1-C , 35-C ) :   1.2621 B(  2-C ,  3-N ) :   0.8949 B(  2-C , 28-N ) :   1.2746
B(  3-N ,  4-C ) :   0.9169 B(  3-N , 16-S ) :   0.8087 B(  4-C ,  5-C ) :   0.9591
B(  4-C , 39-H ) :   0.9199 B(  4-C , 40-H ) :   0.9189 B(  5-C ,  6-C ) :   1.4216
B(  5-C , 10-C ) :   1.4113 B(  6-C ,  7-C ) :   1.4087 B(  6-C , 41-H ) :   0.9234
B(  7-C ,  8-C ) :   1.4349 B(  7-C , 42-H ) :   0.9279 B(  8-C ,  9-C ) :   1.3944
B(  8-C , 15-C ) :   0.9811 B(  9-C , 10-C ) :   1.3801 B(  9-C , 11-O ) :   0.9218
B( 10-C , 43-H ) :   0.9067 B( 11-O , 12-C ) :   0.8804 B( 12-C , 13-C ) :   1.0025
B( 12-C , 14-C ) :   1.0024 B( 12-C , 15-C ) :   0.9538 B( 13-C , 44-H ) :   0.9443
B( 13-C , 45-H ) :   0.9404 B( 13-C , 46-H ) :   0.9432 B( 14-C , 47-H ) :   0.9432
B( 14-C , 48-H ) :   0.9403 B( 14-C , 49-H ) :   0.9441 B( 15-C , 50-H ) :   0.9228
B( 15-C , 51-H ) :   0.9233 B( 16-S , 17-O ) :   1.6144 B( 16-S , 18-O ) :   1.6423
B( 16-S , 19-C ) :   0.8108 B( 19-C , 20-C ) :   1.3899 B( 19-C , 27-C ) :   1.3897
B( 20-C , 21-C ) :   1.4133 B( 20-C , 52-H ) :   0.9085 B( 21-C , 22-C ) :   1.4054
B( 21-C , 53-H ) :   0.9100 B( 22-C , 23-C ) :   1.0087 B( 22-C , 26-C ) :   1.3786
B( 23-C , 24-O ) :   1.8623 B( 23-C , 25-O ) :   1.0238 B( 25-O , 54-H ) :   0.7424
B( 26-C , 27-C ) :   1.4284 B( 26-C , 55-H ) :   0.9154 B( 27-C , 56-H ) :   0.9061
B( 28-N , 29-C ) :   1.4928 B( 29-C , 30-C ) :   1.2418 B( 29-C , 57-H ) :   0.9270
B( 30-C , 31-C ) :   1.2833 B( 30-C , 35-C ) :   1.2911 B( 31-C , 32-C ) :   1.5127
B( 31-C , 34-C ) :   0.1062 B( 31-C , 58-H ) :   0.9237 B( 32-C , 33-C ) :   1.3528
B( 32-C , 59-H ) :   0.9295 B( 33-C , 34-C ) :   1.5074 B( 33-C , 60-H ) :   0.9292
B( 34-C , 35-C ) :   1.2962 B( 34-C , 61-H ) :   0.9151

FINAL SINGLE POINT ENERGY     -1965.363009460616

DIPOLE MOMENT
-------------

Method             : SCF
Type of density    : Electron Density
Multiplicity       :   1
Irrep              :   0
Energy             : -1965.3630094606162402 Eh
Relativity type    :
Basis              : AO
                                X                 Y                 Z
Electronic contribution:    -38.146481002      11.033536453      -8.567424930
Nuclear contribution   :     38.193810503     -12.072647193      10.834944815
                        -----------------------------------------
Total Dipole Moment    :      0.047329501      -1.039110740       2.267519885
                        -----------------------------------------
Magnitude (a.u.)       :      2.494721956
Magnitude (Debye)      :      6.341079279

Rotational constants in cm-1:             0.004174             0.002130             0.001574
Rotational constants in MHz :           125.120376            63.853586            47.185721

                             ****ORCA TERMINATED NORMALLY****
TOTAL RUN TIME: 0 days 0 hours 8 minutes 6 seconds 765 msec
