                         Program Version 6.0.0  -   RELEASE  -
|  1> ! B3LYP 6-31G* SP
|  2>
|  3> * xyz 0 1
|  4> O 2.0812 1.8358 -0.2563
|  5> C 1.5652 0.6844 -0.2344
|  6> N 2.2552 -0.3874 0.4319
|  7> C 3.6681 -0.3813 0.7008
|  8> C 4.1589 -1.0611 1.8245
|  9> C 5.5299 -1.0872 2.0945
| 10> C 6.4367 -0.4491 1.2407
| 11> O 7.8026 -0.5063 1.5619
| 12> C 8.8532 0.0866 0.8018
| 13> F 8.8843 -0.4538 -0.4713
| 14> F 10.0585 -0.1725 1.4250
| 15> F 8.6746 1.4565 0.7287
| 16> C 5.9495 0.2164 0.0995
| 17> C 4.5777 0.2436 -0.1702
| 18> N 0.2772 0.4627 -0.8493
| 19> C -0.1206 -0.9062 -1.2153
| 20> C -1.4514 -0.9304 -1.9779
| 21> C -2.5006 -0.0644 -1.2537
| 22> C -2.0113 1.4142 -1.1525
| 23> C -0.4967 1.6056 -1.3596
| 24> C -3.8501 -0.1567 -2.0078
| 25> C -4.9891 0.5375 -1.2326
| 26> O -6.2188 0.2081 -1.8262
| 27> C -4.9988 0.1293 0.2245
| 28> C -6.1368 0.3544 1.0184
| 29> C -6.1348 0.0043 2.3709
| 30> C -4.9943 -0.5575 2.9482
| 31> C -3.8452 -0.7606 2.1778
| 32> Cl -2.4106 -1.4450 2.9258
| 33> C -3.8376 -0.4040 0.8218
| 34> O -2.6743 -0.5926 0.0661
| 35> H 1.6881 -1.1632 0.8395
| 36> H 3.4761 -1.5637 2.4981
| 37> H 5.8907 -1.6084 2.9722
| 38> H 6.6192 0.7091 -0.5909
| 39> H 4.2331 0.7335 -1.0713
| 40> H 0.6690 -1.3705 -1.8451
| 41> H -0.2379 -1.5165 -0.2947
| 42> H -1.8032 -1.9832 -2.0492
| 43> H -1.2941 -0.5545 -3.0133
| 44> H -2.2885 1.8258 -0.1570
| 45> H -2.5246 2.0523 -1.9049
| 46> H -0.2837 1.7220 -2.4446
| 47> H -0.1963 2.5510 -0.8578
| 48> H -4.1204 -1.2281 -2.1429
| 49> H -3.7585 0.2948 -3.0204
| 50> H -4.8431 1.6416 -1.2687
| 51> H -6.2818 0.7344 -2.6659
| 52> H -7.0266 0.7994 0.5907
| 53> H -7.0181 0.1718 2.9735
| 54> H -5.0014 -0.8263 3.9969
| 55> *
| 56>
| 57>                          ****END OF INPUT****

CARTESIAN COORDINATES (ANGSTROEM)
---------------------------------
  O      2.081200    1.835800   -0.256300
  C      1.565200    0.684400   -0.234400
  N      2.255200   -0.387400    0.431900
  C      3.668100   -0.381300    0.700800
  C      4.158900   -1.061100    1.824500
  C      5.529900   -1.087200    2.094500
  C      6.436700   -0.449100    1.240700
  O      7.802600   -0.506300    1.561900
  C      8.853200    0.086600    0.801800
  F      8.884300   -0.453800   -0.471300
  F     10.058500   -0.172500    1.425000
  F      8.674600    1.456500    0.728700
  C      5.949500    0.216400    0.099500
  C      4.577700    0.243600   -0.170200
  N      0.277200    0.462700   -0.849300
  C     -0.120600   -0.906200   -1.215300
  C     -1.451400   -0.930400   -1.977900
  C     -2.500600   -0.064400   -1.253700
  C     -2.011300    1.414200   -1.152500
  C     -0.496700    1.605600   -1.359600
  C     -3.850100   -0.156700   -2.007800
  C     -4.989100    0.537500   -1.232600
  O     -6.218800    0.208100   -1.826200
  C     -4.998800    0.129300    0.224500
  C     -6.136800    0.354400    1.018400
  C     -6.134800    0.004300    2.370900
  C     -4.994300   -0.557500    2.948200
  C     -3.845200   -0.760600    2.177800
  Cl    -2.410600   -1.445000    2.925800
  C     -3.837600   -0.404000    0.821800
  O     -2.674300   -0.592600    0.066100
  H      1.688100   -1.163200    0.839500
  H      3.476100   -1.563700    2.498100
  H      5.890700   -1.608400    2.972200
  H      6.619200    0.709100   -0.590900
  H      4.233100    0.733500   -1.071300
  H      0.669000   -1.370500   -1.845100
  H     -0.237900   -1.516500   -0.294700
  H     -1.803200   -1.983200   -2.049200
  H     -1.294100   -0.554500   -3.013300
  H     -2.288500    1.825800   -0.157000
  H     -2.524600    2.052300   -1.904900
  H     -0.283700    1.722000   -2.444600
  H     -0.196300    2.551000   -0.857800
  H     -4.120400   -1.228100   -2.142900
  H     -3.758500    0.294800   -3.020400
  H     -4.843100    1.641600   -1.268700
  H     -6.281800    0.734400   -2.665900
  H     -7.026600    0.799400    0.590700
  H     -7.018100    0.171800    2.973500
  H     -5.001400   -0.826300    3.996900

 Total Charge           Charge          ....    0
 Multiplicity           Mult            ....    1
 Number of Electrons    NEL             ....  236
 Basis Dimension        Dim             ....  478

ORBITAL ENERGIES
----------------

  NO   OCC          E(Eh)            E(eV)
   0   2.0000    -101.527127     -2762.6936
   1   2.0000     -24.733330      -673.0281
   2   2.0000     -24.730872      -672.9612
   3   2.0000     -24.730069      -672.9394
   4   2.0000     -19.201790      -522.5073
   5   2.0000     -19.176423      -521.8170
   6   2.0000     -19.154494      -521.2203
   7   2.0000     -19.097329      -519.6647
   8   2.0000     -14.364639      -390.8817
   9   2.0000     -14.355209      -390.6251
  10   2.0000     -10.494989      -285.5832
  11   2.0000     -10.312802      -280.6256
  12   2.0000     -10.264954      -279.3236
  13   2.0000     -10.263413      -279.2817
  14   2.0000     -10.254536      -279.0401
  15   2.0000     -10.251539      -278.9585
  16   2.0000     -10.246707      -278.8271
  17   2.0000     -10.230456      -278.3849
  18   2.0000     -10.225855      -278.2597
  19   2.0000     -10.220412      -278.1115
  20   2.0000     -10.203239      -277.6443
  21   2.0000     -10.200603      -277.5725
  22   2.0000     -10.197590      -277.4905
  23   2.0000     -10.194081      -277.3951
  24   2.0000     -10.193775      -277.3867
  25   2.0000     -10.190816      -277.3062
  26   2.0000     -10.189641      -277.2742
  27   2.0000     -10.189167      -277.2613
  28   2.0000     -10.188093      -277.2321
  29   2.0000     -10.186783      -277.1964
  30   2.0000     -10.183184      -277.0985
  31   2.0000      -9.458559      -257.3805
  32   2.0000      -7.221729      -196.5132
  33   2.0000      -7.212183      -196.2535
  34   2.0000      -7.211803      -196.2431
  35   2.0000      -1.295808       -35.2607
  36   2.0000      -1.216666       -33.1072
  37   2.0000      -1.216137       -33.0928
  38   2.0000      -1.071885       -29.1675
  39   2.0000      -1.064231       -28.9592
  40   2.0000      -1.036151       -28.1951
  41   2.0000      -1.014431       -27.6041
  42   2.0000      -0.922018       -25.0894
  43   2.0000      -0.912353       -24.8264
  44   2.0000      -0.886114       -24.1124
  45   2.0000      -0.844609       -22.9830
  46   2.0000      -0.837531       -22.7904
  47   2.0000      -0.820723       -22.3330
  48   2.0000      -0.780919       -21.2499
  49   2.0000      -0.770580       -20.9686
  50   2.0000      -0.755429       -20.5563
  51   2.0000      -0.749665       -20.3994
  52   2.0000      -0.735088       -20.0028
  53   2.0000      -0.731432       -19.9033
  54   2.0000      -0.693912       -18.8823
  55   2.0000      -0.664924       -18.0935
  56   2.0000      -0.654579       -17.8120
  57   2.0000      -0.647473       -17.6186
  58   2.0000      -0.629562       -17.1313
  59   2.0000      -0.625108       -17.0100
  60   2.0000      -0.602671       -16.3995
  61   2.0000      -0.598466       -16.2851
  62   2.0000      -0.587778       -15.9942
  63   2.0000      -0.585220       -15.9246
  64   2.0000      -0.571843       -15.5606
  65   2.0000      -0.566078       -15.4038
  66   2.0000      -0.550917       -14.9912
  67   2.0000      -0.540659       -14.7121
  68   2.0000      -0.532417       -14.4878
  69   2.0000      -0.521182       -14.1821
  70   2.0000      -0.510608       -13.8944
  71   2.0000      -0.497313       -13.5326
  72   2.0000      -0.491619       -13.3776
  73   2.0000      -0.473812       -12.8931
  74   2.0000      -0.471502       -12.8302
  75   2.0000      -0.464048       -12.6274
  76   2.0000      -0.461644       -12.5620
  77   2.0000      -0.460639       -12.5346
  78   2.0000      -0.457115       -12.4387
  79   2.0000      -0.454723       -12.3737
  80   2.0000      -0.447385       -12.1740
  81   2.0000      -0.445144       -12.1130
  82   2.0000      -0.437384       -11.9018
  83   2.0000      -0.436754       -11.8847
  84   2.0000      -0.432435       -11.7671
  85   2.0000      -0.427539       -11.6339
  86   2.0000      -0.422867       -11.5068
  87   2.0000      -0.420447       -11.4410
  88   2.0000      -0.418539       -11.3890
  89   2.0000      -0.411044       -11.1851
  90   2.0000      -0.408317       -11.1109
  91   2.0000      -0.401466       -10.9245
  92   2.0000      -0.399096       -10.8599
  93   2.0000      -0.397601       -10.8193
  94   2.0000      -0.391108       -10.6426
  95   2.0000      -0.385050       -10.4777
  96   2.0000      -0.383295       -10.4300
  97   2.0000      -0.379014       -10.3135
  98   2.0000      -0.377892       -10.2830
  99   2.0000      -0.375738       -10.2243
 100   2.0000      -0.365666        -9.9503
 101   2.0000      -0.364595        -9.9211
 102   2.0000      -0.348514        -9.4835
 103   2.0000      -0.343153        -9.3377
 104   2.0000      -0.340400        -9.2628
 105   2.0000      -0.336150        -9.1471
 106   2.0000      -0.327650        -8.9158
 107   2.0000      -0.321973        -8.7613
 108   2.0000      -0.313889        -8.5414
 109   2.0000      -0.307263        -8.3611
 110   2.0000      -0.282082        -7.6758
 111   2.0000      -0.278339        -7.5740
 112   2.0000      -0.256638        -6.9835
 113   2.0000      -0.245156        -6.6710
 114   2.0000      -0.243843        -6.6353
 115   2.0000      -0.227438        -6.1889
 116   2.0000      -0.224875        -6.1192
 117   2.0000      -0.205867        -5.6019
 118   0.0000      -0.018628        -0.5069
 119   0.0000      -0.003195        -0.0869
 120   0.0000      -0.001934        -0.0526
 121   0.0000      -0.000588        -0.0160
 122   0.0000       0.026992         0.7345

MULLIKEN ATOMIC CHARGES
-----------------------
   0 O :   -0.495262
   1 C :    0.685204
   2 N :   -0.728000
   3 C :    0.352306
   4 C :   -0.183659
   5 C :   -0.174073
   6 C :    0.348372
   7 O :   -0.548906
   8 C :    1.084466
   9 F :   -0.293140
  10 F :   -0.281194
  11 F :   -0.291397
  12 C :   -0.200644
  13 C :   -0.138093
  14 N :   -0.447206
  15 C :   -0.119547
  16 C :   -0.322318
  17 C :    0.343110
  18 C :   -0.308770
  19 C :   -0.123560
  20 C :   -0.326306
  21 C :    0.087196
  22 O :   -0.622470
  23 C :    0.079053
  24 C :   -0.167624
  25 C :   -0.125072
  26 C :   -0.129174
  27 C :   -0.144687
  28 Cl:   -0.014311
  29 C :    0.334194
  30 O :   -0.543050
  31 H :    0.332351
  32 H :    0.133045
  33 H :    0.146124
  34 H :    0.152633
  35 H :    0.156835
  36 H :    0.147181
  37 H :    0.159156
  38 H :    0.158411
  39 H :    0.151349
  40 H :    0.167034
  41 H :    0.135090
  42 H :    0.137244
  43 H :    0.189514
  44 H :    0.157939
  45 H :    0.124724
  46 H :    0.132569
  47 H :    0.397529
  48 H :    0.147131
  49 H :    0.135645
  50 H :    0.153056
Sum of atomic charges:    0.0000000

LOEWDIN ATOMIC CHARGES
----------------------
   0 O :   -0.311579
   1 C :    0.164183
   2 N :   -0.227656
   3 C :    0.039201
   4 C :   -0.144489
   5 C :   -0.139446
   6 C :    0.073121
   7 O :   -0.162998
   8 C :    0.358292
   9 F :   -0.106568
  10 F :   -0.089404
  11 F :   -0.105091
  12 C :   -0.155233
  13 C :   -0.120694
  14 N :   -0.127738
  15 C :   -0.153899
  16 C :   -0.226646
  17 C :    0.078556
  18 C :   -0.241907
  19 C :   -0.145084
  20 C :   -0.241831
  21 C :   -0.014737
  22 O :   -0.383997
  23 C :   -0.055875
  24 C :   -0.111609
  25 C :   -0.139884
  26 C :   -0.126008
  27 C :   -0.111355
  28 Cl:    0.035583
  29 C :    0.078913
  30 O :   -0.167037
  31 H :    0.257186
  32 H :    0.135342
  33 H :    0.144676
  34 H :    0.142693
  35 H :    0.149245
  36 H :    0.120769
  37 H :    0.124464
  38 H :    0.139071
  39 H :    0.132096
  40 H :    0.138514
  41 H :    0.124320
  42 H :    0.111621
  43 H :    0.153960
  44 H :    0.134376
  45 H :    0.120831
  46 H :    0.111890
  47 H :    0.316486
  48 H :    0.142608
  49 H :    0.136366
  50 H :    0.146400

  Mayer bond orders larger than 0.100000
B(  0-O ,  1-C ) :   1.7864 B(  1-C ,  2-N ) :   0.9952 B(  1-C , 14-N ) :   1.0640
B(  2-N ,  3-C ) :   0.8774 B(  2-N , 31-H ) :   0.8188 B(  3-C ,  4-C ) :   1.4068
B(  3-C , 13-C ) :   1.4165 B(  4-C ,  5-C ) :   1.4429 B(  4-C , 32-H ) :   0.9228
B(  5-C ,  6-C ) :   1.4246 B(  5-C , 33-H ) :   0.9184 B(  6-C ,  7-O ) :   0.8140
B(  6-C , 12-C ) :   1.3827 B(  7-O ,  8-C ) :   0.9972 B(  8-C ,  9-F ) :   0.9664
B(  8-C , 10-F ) :   1.0057 B(  8-C , 11-F ) :   0.9688 B( 12-C , 13-C ) :   1.4421
B( 12-C , 34-H ) :   0.9099 B( 13-C , 35-H ) :   0.9104 B( 14-N , 15-C ) :   0.9356
B( 14-N , 19-C ) :   0.9425 B( 15-C , 16-C ) :   1.0039 B( 15-C , 36-H ) :   0.9253
B( 15-C , 37-H ) :   0.9172 B( 16-C , 17-C ) :   0.9972 B( 16-C , 38-H ) :   0.9271
B( 16-C , 39-H ) :   0.9268 B( 17-C , 18-C ) :   0.9502 B( 17-C , 20-C ) :   0.9744
B( 17-C , 30-O ) :   0.8274 B( 18-C , 19-C ) :   0.9859 B( 18-C , 40-H ) :   0.9307
B( 18-C , 41-H ) :   0.9270 B( 19-C , 42-H ) :   0.9340 B( 19-C , 43-H ) :   0.9201
B( 20-C , 21-C ) :   0.9699 B( 20-C , 44-H ) :   0.9225 B( 20-C , 45-H ) :   0.9269
B( 21-C , 22-O ) :   0.9423 B( 21-C , 23-C ) :   0.9786 B( 21-C , 46-H ) :   0.9121
B( 22-O , 47-H ) :   0.7846 B( 23-C , 24-C ) :   1.4159 B( 23-C , 29-C ) :   1.3568
B( 24-C , 25-C ) :   1.4296 B( 24-C , 48-H ) :   0.9200 B( 25-C , 26-C ) :   1.4432
B( 25-C , 49-H ) :   0.9288 B( 26-C , 27-C ) :   1.4274 B( 26-C , 50-H ) :   0.9227
B( 27-C , 28-Cl) :   1.0219 B( 27-C , 29-C ) :   1.3239 B( 29-C , 30-O ) :   0.9385

FINAL SINGLE POINT ENERGY     -1981.467166412231

DIPOLE MOMENT
-------------

Method             : SCF
Type of density    : Electron Density
Multiplicity       :   1
Irrep              :   0
Energy             : -1981.4671664122311086 Eh
Relativity type    :
Basis              : AO
                                X                 Y                 Z
Electronic contribution:     55.929227919      -3.976880009      18.919892015
Nuclear contribution   :    -58.160465681       3.666259190     -20.218536166
                        -----------------------------------------
Total Dipole Moment    :     -2.231237762      -0.310620819      -1.298644151
                        -----------------------------------------
Magnitude (a.u.)       :      2.600266116
Magnitude (Debye)      :      6.609351214

Rotational constants in cm-1:             0.012161             0.001346             0.001257
Rotational constants in MHz :           364.568686            40.353436            37.686545

                             ****ORCA TERMINATED NORMALLY****
TOTAL RUN TIME: 0 days 0 hours 7 minutes 33 seconds 621 msec
