                         Program Version 6.0.0  -   RELEASE  -
|  1> ! B3LYP 6-31G* SP
|  2>
|  3> * xyz 0 1
|  4> C -1.5119 1.5671 -2.4027
|  5> O -1.5547 1.4364 -0.9875
|  6> C -0.6626 2.1266 -0.1628
|  7> C 0.4538 1.4588 0.3648
|  8> N 0.6629 0.0690 0.0999
|  9> C 0.1642 -0.9355 1.0400
| 10> C -1.2914 -1.2055 0.7833
| 11> C -2.2803 -0.5063 1.4903
| 12> C -3.6329 -0.7308 1.2187
| 13> C -4.0190 -1.6493 0.2364
| 14> O -5.3921 -1.8456 0.0148
| 15> C -5.9509 -2.7538 -0.9324
| 16> F -5.5339 -4.0438 -0.6591
| 17> F -7.3289 -2.7025 -0.8441
| 18> F -5.5732 -2.3967 -2.2151
| 19> C -3.0246 -2.3390 -0.4851
| 20> C -1.6723 -2.1156 -0.2125
| 21> S 1.6578 -0.4045 -1.2430
| 22> O 2.2945 0.8082 -1.8647
| 23> O 0.8036 -1.0845 -2.2772
| 24> C 2.9288 -1.4881 -0.6855
| 25> C 3.8676 -1.0328 0.2475
| 26> C 4.8607 -1.8928 0.7262
| 27> C 4.9273 -3.2239 0.2773
| 28> C 5.9724 -4.1349 0.7943
| 29> O 6.0517 -5.3212 0.3741
| 30> O 6.8762 -3.6909 1.7557
| 31> C 3.9816 -3.6750 -0.6620
| 32> C 2.9879 -2.8136 -1.1365
| 33> N 1.3485 2.1302 1.1356
| 34> C 1.2012 3.4461 1.4328
| 35> C 0.0899 4.1531 0.9601
| 36> C -0.0850 5.5085 1.2748
| 37> C -1.2111 6.1937 0.8144
| 38> C -2.1713 5.5312 0.0475
| 39> C -2.0061 4.1826 -0.2759
| 40> C -0.8665 3.4825 0.1613
| 41> H -2.3162 0.9477 -2.8512
| 42> H -1.6598 2.6242 -2.7028
| 43> H -0.5308 1.2197 -2.7870
| 44> H 0.7344 -1.8825 0.9325
| 45> H 0.3249 -0.5891 2.0847
| 46> H -2.0045 0.2164 2.2478
| 47> H -4.3864 -0.1867 1.7742
| 48> H -3.2818 -3.0480 -1.2577
| 49> H -0.9212 -2.6543 -0.7776
| 50> H 3.8239 -0.0135 0.6109
| 51> H 5.5723 -1.5160 1.4507
| 52> H 7.5906 -4.3085 2.1216
| 53> H 4.0049 -4.6955 -1.0253
| 54> H 2.2624 -3.1864 -1.8485
| 55> H 1.9470 3.9345 2.0460
| 56> H 0.6458 6.0353 1.8757
| 57> H -1.3435 7.2387 1.0570
| 58> H -3.0478 6.0638 -0.2972
| 59> H -2.7764 3.6931 -0.8578
| 60> *
| 61>
| 62>                          ****END OF INPUT****

CARTESIAN COORDINATES (ANGSTROEM)
---------------------------------
  C     -1.511900    1.567100   -2.402700
  O     -1.554700    1.436400   -0.987500
  C     -0.662600    2.126600   -0.162800
  C      0.453800    1.458800    0.364800
  N      0.662900    0.069000    0.099900
  C      0.164200   -0.935500    1.040000
  C     -1.291400   -1.205500    0.783300
  C     -2.280300   -0.506300    1.490300
  C     -3.632900   -0.730800    1.218700
  C     -4.019000   -1.649300    0.236400
  O     -5.392100   -1.845600    0.014800
  C     -5.950900   -2.753800   -0.932400
  F     -5.533900   -4.043800   -0.659100
  F     -7.328900   -2.702500   -0.844100
  F     -5.573200   -2.396700   -2.215100
  C     -3.024600   -2.339000   -0.485100
  C     -1.672300   -2.115600   -0.212500
  S      1.657800   -0.404500   -1.243000
  O      2.294500    0.808200   -1.864700
  O      0.803600   -1.084500   -2.277200
  C      2.928800   -1.488100   -0.685500
  C      3.867600   -1.032800    0.247500
  C      4.860700   -1.892800    0.726200
  C      4.927300   -3.223900    0.277300
  C      5.972400   -4.134900    0.794300
  O      6.051700   -5.321200    0.374100
  O      6.876200   -3.690900    1.755700
  C      3.981600   -3.675000   -0.662000
  C      2.987900   -2.813600   -1.136500
  N      1.348500    2.130200    1.135600
  C      1.201200    3.446100    1.432800
  C      0.089900    4.153100    0.960100
  C     -0.085000    5.508500    1.274800
  C     -1.211100    6.193700    0.814400
  C     -2.171300    5.531200    0.047500
  C     -2.006100    4.182600   -0.275900
  C     -0.866500    3.482500    0.161300
  H     -2.316200    0.947700   -2.851200
  H     -1.659800    2.624200   -2.702800
  H     -0.530800    1.219700   -2.787000
  H      0.734400   -1.882500    0.932500
  H      0.324900   -0.589100    2.084700
  H     -2.004500    0.216400    2.247800
  H     -4.386400   -0.186700    1.774200
  H     -3.281800   -3.048000   -1.257700
  H     -0.921200   -2.654300   -0.777600
  H      3.823900   -0.013500    0.610900
  H      5.572300   -1.516000    1.450700
  H      7.590600   -4.308500    2.121600
  H      4.004900   -4.695500   -1.025300
  H      2.262400   -3.186400   -1.848500
  H      1.947000    3.934500    2.046000
  H      0.645800    6.035300    1.875700
  H     -1.343500    7.238700    1.057000
  H     -3.047800    6.063800   -0.297200
  H     -2.776400    3.693100   -0.857800

 Total Charge           Charge          ....    0
 Multiplicity           Mult            ....    1
 Number of Electrons    NEL             ....  274
 Basis Dimension        Dim             ....  560

ORBITAL ENERGIES
----------------

  NO   OCC          E(Eh)            E(eV)
   0   2.0000     -89.096883     -2424.4494
   1   2.0000     -24.736724      -673.1205
   2   2.0000     -24.734232      -673.0527
   3   2.0000     -24.733511      -673.0331
   4   2.0000     -19.206386      -522.6323
   5   2.0000     -19.197238      -522.3834
   6   2.0000     -19.157869      -521.3121
   7   2.0000     -19.138732      -520.7914
   8   2.0000     -19.125225      -520.4238
   9   2.0000     -19.124287      -520.3983
  10   2.0000     -14.367579      -390.9617
  11   2.0000     -14.337709      -390.1489
  12   2.0000     -10.498696      -285.6840
  13   2.0000     -10.336333      -281.2659
  14   2.0000     -10.260442      -279.2008
  15   2.0000     -10.259657      -279.1795
  16   2.0000     -10.257701      -279.1262
  17   2.0000     -10.243331      -278.7352
  18   2.0000     -10.233243      -278.4607
  19   2.0000     -10.233129      -278.4576
  20   2.0000     -10.227524      -278.3051
  21   2.0000     -10.220961      -278.1265
  22   2.0000     -10.220362      -278.1102
  23   2.0000     -10.220161      -278.1047
  24   2.0000     -10.218155      -278.0501
  25   2.0000     -10.218103      -278.0487
  26   2.0000     -10.209337      -277.8102
  27   2.0000     -10.205527      -277.7065
  28   2.0000     -10.200530      -277.5705
  29   2.0000     -10.199657      -277.5468
  30   2.0000     -10.199138      -277.5326
  31   2.0000     -10.198258      -277.5087
  32   2.0000     -10.189014      -277.2572
  33   2.0000     -10.188628      -277.2467
  34   2.0000     -10.188262      -277.2367
  35   2.0000     -10.187417      -277.2137
  36   2.0000     -10.185204      -277.1535
  37   2.0000      -8.132718      -221.3025
  38   2.0000      -6.097676      -165.9262
  39   2.0000      -6.095668      -165.8715
  40   2.0000      -6.095492      -165.8668
  41   2.0000      -1.299084       -35.3499
  42   2.0000      -1.220030       -33.1987
  43   2.0000      -1.219379       -33.1810
  44   2.0000      -1.082699       -29.4617
  45   2.0000      -1.081895       -29.4399
  46   2.0000      -1.076123       -29.2828
  47   2.0000      -1.043528       -28.3958
  48   2.0000      -0.995879       -27.0993
  49   2.0000      -0.962639       -26.1947
  50   2.0000      -0.959340       -26.1050
  51   2.0000      -0.916445       -24.9377
  52   2.0000      -0.890826       -24.2406
  53   2.0000      -0.867764       -23.6130
  54   2.0000      -0.855473       -23.2786
  55   2.0000      -0.808115       -21.9899
  56   2.0000      -0.794308       -21.6142
  57   2.0000      -0.783856       -21.3298
  58   2.0000      -0.777222       -21.1493
  59   2.0000      -0.773557       -21.0496
  60   2.0000      -0.750172       -20.4132
  61   2.0000      -0.743484       -20.2312
  62   2.0000      -0.724012       -19.7014
  63   2.0000      -0.707317       -19.2471
  64   2.0000      -0.687879       -18.7181
  65   2.0000      -0.675169       -18.3723
  66   2.0000      -0.657184       -17.8829
  67   2.0000      -0.647617       -17.6225
  68   2.0000      -0.637102       -17.3364
  69   2.0000      -0.627513       -17.0755
  70   2.0000      -0.622075       -16.9275
  71   2.0000      -0.613070       -16.6825
  72   2.0000      -0.604411       -16.4469
  73   2.0000      -0.594985       -16.1904
  74   2.0000      -0.591131       -16.0855
  75   2.0000      -0.586339       -15.9551
  76   2.0000      -0.566939       -15.4272
  77   2.0000      -0.560450       -15.2506
  78   2.0000      -0.541021       -14.7219
  79   2.0000      -0.539965       -14.6932
  80   2.0000      -0.520629       -14.1670
  81   2.0000      -0.515655       -14.0317
  82   2.0000      -0.495163       -13.4741
  83   2.0000      -0.493820       -13.4375
  84   2.0000      -0.490155       -13.3378
  85   2.0000      -0.487382       -13.2623
  86   2.0000      -0.474977       -12.9248
  87   2.0000      -0.472700       -12.8628
  88   2.0000      -0.468951       -12.7608
  89   2.0000      -0.464950       -12.6519
  90   2.0000      -0.464648       -12.6437
  91   2.0000      -0.461746       -12.5648
  92   2.0000      -0.456365       -12.4183
  93   2.0000      -0.454955       -12.3800
  94   2.0000      -0.450731       -12.2650
  95   2.0000      -0.448470       -12.2035
  96   2.0000      -0.445944       -12.1348
  97   2.0000      -0.443223       -12.0607
  98   2.0000      -0.442231       -12.0337
  99   2.0000      -0.440054       -11.9745
 100   2.0000      -0.429903       -11.6982
 101   2.0000      -0.428390       -11.6571
 102   2.0000      -0.426574       -11.6077
 103   2.0000      -0.423955       -11.5364
 104   2.0000      -0.419723       -11.4212
 105   2.0000      -0.413694       -11.2572
 106   2.0000      -0.411632       -11.2011
 107   2.0000      -0.409603       -11.1459
 108   2.0000      -0.404910       -11.0182
 109   2.0000      -0.399610       -10.8739
 110   2.0000      -0.392981       -10.6935
 111   2.0000      -0.385770       -10.4973
 112   2.0000      -0.379550       -10.3281
 113   2.0000      -0.376608       -10.2480
 114   2.0000      -0.370408       -10.0793
 115   2.0000      -0.368810       -10.0358
 116   2.0000      -0.366145        -9.9633
 117   2.0000      -0.355845        -9.6830
 118   2.0000      -0.343044        -9.3347
 119   2.0000      -0.340719        -9.2714
 120   2.0000      -0.336158        -9.1473
 121   2.0000      -0.323692        -8.8081
 122   2.0000      -0.321614        -8.7515
 123   2.0000      -0.307032        -8.3548
 124   2.0000      -0.301624        -8.2076
 125   2.0000      -0.290577        -7.9070
 126   2.0000      -0.284076        -7.7301
 127   2.0000      -0.281541        -7.6611
 128   2.0000      -0.278575        -7.5804
 129   2.0000      -0.276099        -7.5130
 130   2.0000      -0.273997        -7.4558
 131   2.0000      -0.271123        -7.3776
 132   2.0000      -0.252714        -6.8767
 133   2.0000      -0.251116        -6.8332
 134   2.0000      -0.248876        -6.7722
 135   2.0000      -0.229170        -6.2360
 136   2.0000      -0.223686        -6.0868
 137   0.0000      -0.085270        -2.3203
 138   0.0000      -0.061633        -1.6771
 139   0.0000      -0.036728        -0.9994
 140   0.0000      -0.030984        -0.8431
 141   0.0000      -0.005508        -0.1499

MULLIKEN ATOMIC CHARGES
-----------------------
   0 C :   -0.215258
   1 O :   -0.509888
   2 C :    0.269805
   3 C :    0.326767
   4 N :   -0.582657
   5 C :   -0.274057
   6 C :    0.200010
   7 C :   -0.160208
   8 C :   -0.168189
   9 C :    0.351387
  10 O :   -0.547328
  11 C :    1.085493
  12 F :   -0.291593
  13 F :   -0.280818
  14 F :   -0.291917
  15 C :   -0.193862
  16 C :   -0.154273
  17 S :    1.230423
  18 O :   -0.547568
  19 O :   -0.552596
  20 C :   -0.139968
  21 C :   -0.142817
  22 C :   -0.148141
  23 C :    0.083064
  24 C :    0.528491
  25 O :   -0.443647
  26 O :   -0.623100
  27 C :   -0.138974
  28 C :   -0.149161
  29 N :   -0.402190
  30 C :   -0.049947
  31 C :    0.133683
  32 C :   -0.205013
  33 C :   -0.124370
  34 C :   -0.125414
  35 C :   -0.185846
  36 C :    0.141419
  37 H :    0.165156
  38 H :    0.128934
  39 H :    0.190887
  40 H :    0.165171
  41 H :    0.170517
  42 H :    0.132847
  43 H :    0.142778
  44 H :    0.150973
  45 H :    0.148197
  46 H :    0.194813
  47 H :    0.174125
  48 H :    0.434528
  49 H :    0.181611
  50 H :    0.189679
  51 H :    0.152158
  52 H :    0.140390
  53 H :    0.138127
  54 H :    0.140424
  55 H :    0.156942
Sum of atomic charges:    0.0000000

LOEWDIN ATOMIC CHARGES
----------------------
   0 C :   -0.201863
   1 O :   -0.193027
   2 C :    0.089833
   3 C :    0.015433
   4 N :   -0.274841
   5 C :   -0.146389
   6 C :   -0.034156
   7 C :   -0.118575
   8 C :   -0.140681
   9 C :    0.086048
  10 O :   -0.161642
  11 C :    0.359234
  12 F :   -0.104877
  13 F :   -0.089164
  14 F :   -0.105788
  15 C :   -0.158261
  16 C :   -0.108730
  17 S :    1.262562
  18 O :   -0.572083
  19 O :   -0.577840
  20 C :   -0.176247
  21 C :   -0.099347
  22 C :   -0.098975
  23 C :   -0.038293
  24 C :    0.179839
  25 O :   -0.259838
  26 O :   -0.334076
  27 C :   -0.086602
  28 C :   -0.105959
  29 N :   -0.127303
  30 C :   -0.063589
  31 C :   -0.025677
  32 C :   -0.114089
  33 C :   -0.122242
  34 C :   -0.118929
  35 C :   -0.112701
  36 C :   -0.018759
  37 H :    0.134156
  38 H :    0.105700
  39 H :    0.134909
  40 H :    0.137933
  41 H :    0.136158
  42 H :    0.134722
  43 H :    0.142527
  44 H :    0.141411
  45 H :    0.141391
  46 H :    0.163078
  47 H :    0.155297
  48 H :    0.350017
  49 H :    0.160870
  50 H :    0.162661
  51 H :    0.137458
  52 H :    0.138055
  53 H :    0.136591
  54 H :    0.137820
  55 H :    0.146839

  Mayer bond orders larger than 0.100000
B(  0-C ,  1-O ) :   0.8990 B(  0-C , 37-H ) :   0.9466 B(  0-C , 38-H ) :   0.9317
B(  0-C , 39-H ) :   0.9143 B(  1-O ,  2-C ) :   0.9514 B(  2-C ,  3-C ) :   1.3859
B(  2-C , 36-C ) :   1.2108 B(  3-C ,  4-N ) :   0.9087 B(  3-C , 29-N ) :   1.2861
B(  4-N ,  5-C ) :   0.9334 B(  4-N , 17-S ) :   0.8108 B(  5-C ,  6-C ) :   0.9399
B(  5-C , 40-H ) :   0.9223 B(  5-C , 41-H ) :   0.9241 B(  6-C ,  7-C ) :   1.4370
B(  6-C , 16-C ) :   1.4283 B(  7-C ,  8-C ) :   1.4338 B(  7-C , 42-H ) :   0.9226
B(  8-C ,  9-C ) :   1.4255 B(  8-C , 43-H ) :   0.9189 B(  9-C , 10-O ) :   0.8197
B(  9-C , 15-C ) :   1.3866 B( 10-O , 11-C ) :   0.9938 B( 11-C , 12-F ) :   0.9678
B( 11-C , 13-F ) :   1.0061 B( 11-C , 14-F ) :   0.9687 B( 15-C , 16-C ) :   1.4411
B( 15-C , 44-H ) :   0.9100 B( 16-C , 45-H ) :   0.9134 B( 17-S , 18-O ) :   1.6325
B( 17-S , 19-O ) :   1.6046 B( 17-S , 20-C ) :   0.8124 B( 20-C , 21-C ) :   1.3884
B( 20-C , 28-C ) :   1.3878 B( 21-C , 22-C ) :   1.4257 B( 21-C , 46-H ) :   0.9035
B( 22-C , 23-C ) :   1.3799 B( 22-C , 47-H ) :   0.9149 B( 23-C , 24-C ) :   1.0074
B( 23-C , 27-C ) :   1.4045 B( 24-C , 25-O ) :   1.8635 B( 24-C , 26-O ) :   1.0259
B( 26-O , 48-H ) :   0.7416 B( 27-C , 28-C ) :   1.4136 B( 27-C , 49-H ) :   0.9095
B( 28-C , 50-H ) :   0.9072 B( 29-N , 30-C ) :   1.4898 B( 30-C , 31-C ) :   1.2430
B( 30-C , 51-H ) :   0.9267 B( 31-C , 32-C ) :   1.2856 B( 31-C , 36-C ) :   1.2950
B( 32-C , 33-C ) :   1.5126 B( 32-C , 35-C ) :   0.1052 B( 32-C , 52-H ) :   0.9231
B( 33-C , 34-C ) :   1.3504 B( 33-C , 53-H ) :   0.9294 B( 34-C , 35-C ) :   1.5014
B( 34-C , 54-H ) :   0.9291 B( 35-C , 36-C ) :   1.2855 B( 35-C , 55-H ) :   0.9161

FINAL SINGLE POINT ENERGY     -2221.486253397874

DIPOLE MOMENT
-------------

Method             : SCF
Type of density    : Electron Density
Multiplicity       :   1
Irrep              :   0
Energy             : -2221.4862533978744068 Eh
Relativity type    :
Basis              : AO
                                X                 Y                 Z
Electronic contribution:    -24.089949374     -22.526697003      -5.657517667
Nuclear contribution   :     24.550141221      23.740035795       7.402741241
                        -----------------------------------------
Total Dipole Moment    :      0.460191847       1.213338792       1.745223574
                        -----------------------------------------
Magnitude (a.u.)       :      2.174804102
Magnitude (Debye)      :      5.527912718

Rotational constants in cm-1:             0.003370             0.002103             0.001427
Rotational constants in MHz :           101.036818            63.034033            42.777618

                             ****ORCA TERMINATED NORMALLY****
TOTAL RUN TIME: 0 days 0 hours 7 minutes 25 seconds 965 msec
