                         Program Version 6.0.0  -   RELEASE  -
|  1> ! B3LYP 6-31G* SP
|  2>
|  3> * xyz 0 1
|  4> C -5.8159 2.9454 0.7951
|  5> N -5.1784 1.6853 0.3656
|  6> C -3.8566 1.4681 0.6405
|  7> O -3.2249 2.3284 1.3130
|  8> C -3.2181 0.2765 0.2180
|  9> C -1.8085 0.0374 0.3720
| 10> C -0.8402 1.1258 0.8335
| 11> C 0.6045 0.8602 0.5095
| 12> O 1.4014 0.5584 1.4390
| 13> N 1.0552 0.9267 -0.8525
| 14> C 2.3960 0.6340 -1.2648
| 15> N 3.3881 0.2764 -0.4219
| 16> C 4.5610 0.0492 -1.0767
| 17> C 5.7940 -0.3570 -0.3527
| 18> C 7.0651 -0.1261 -0.9156
| 19> C 8.2244 -0.5001 -0.2318
| 20> C 8.1351 -1.1062 1.0211
| 21> C 6.8844 -1.3401 1.5975
| 22> Cl 6.7880 -2.1060 3.1746
| 23> C 5.7157 -0.9675 0.9184
| 24> F 4.5116 -1.2245 1.4918
| 25> C 4.4913 0.2286 -2.4626
| 26> S 2.9200 0.6819 -2.8579
| 27> C -1.3094 -1.2521 0.1006
| 28> C -2.1276 -2.2428 -0.4161
| 29> C -3.4654 -1.9848 -0.6708
| 30> C -4.0414 -0.7304 -0.3625
| 31> N -5.3794 -0.4868 -0.5953
| 32> C -6.2301 -1.5149 -1.2349
| 33> C -5.9360 0.7116 -0.2248
| 34> O -7.1688 0.9191 -0.4155
| 35> H -5.0967 3.7922 0.7715
| 36> H -6.6462 3.2331 0.1152
| 37> H -6.2113 2.8307 1.8264
| 38> H -1.0859 2.0807 0.3237
| 39> H -0.9517 1.2672 1.9305
| 40> H 0.3633 1.1851 -1.5918
| 41> H 7.1706 0.3618 -1.8750
| 42> H 9.1953 -0.3145 -0.6729
| 43> H 9.0388 -1.3925 1.5441
| 44> H 5.2909 0.0818 -3.1754
| 45> H -0.2715 -1.5046 0.2706
| 46> H -1.7163 -3.2201 -0.6353
| 47> H -4.0429 -2.7968 -1.0879
| 48> H -7.2617 -1.1654 -1.4444
| 49> H -5.7984 -1.8093 -2.2153
| 50> H -6.3114 -2.4028 -0.5725
| 51> *
| 52>
| 53>                          ****END OF INPUT****

CARTESIAN COORDINATES (ANGSTROEM)
---------------------------------
  C     -5.815900    2.945400    0.795100
  N     -5.178400    1.685300    0.365600
  C     -3.856600    1.468100    0.640500
  O     -3.224900    2.328400    1.313000
  C     -3.218100    0.276500    0.218000
  C     -1.808500    0.037400    0.372000
  C     -0.840200    1.125800    0.833500
  C      0.604500    0.860200    0.509500
  O      1.401400    0.558400    1.439000
  N      1.055200    0.926700   -0.852500
  C      2.396000    0.634000   -1.264800
  N      3.388100    0.276400   -0.421900
  C      4.561000    0.049200   -1.076700
  C      5.794000   -0.357000   -0.352700
  C      7.065100   -0.126100   -0.915600
  C      8.224400   -0.500100   -0.231800
  C      8.135100   -1.106200    1.021100
  C      6.884400   -1.340100    1.597500
  Cl     6.788000   -2.106000    3.174600
  C      5.715700   -0.967500    0.918400
  F      4.511600   -1.224500    1.491800
  C      4.491300    0.228600   -2.462600
  S      2.920000    0.681900   -2.857900
  C     -1.309400   -1.252100    0.100600
  C     -2.127600   -2.242800   -0.416100
  C     -3.465400   -1.984800   -0.670800
  C     -4.041400   -0.730400   -0.362500
  N     -5.379400   -0.486800   -0.595300
  C     -6.230100   -1.514900   -1.234900
  C     -5.936000    0.711600   -0.224800
  O     -7.168800    0.919100   -0.415500
  H     -5.096700    3.792200    0.771500
  H     -6.646200    3.233100    0.115200
  H     -6.211300    2.830700    1.826400
  H     -1.085900    2.080700    0.323700
  H     -0.951700    1.267200    1.930500
  H      0.363300    1.185100   -1.591800
  H      7.170600    0.361800   -1.875000
  H      9.195300   -0.314500   -0.672900
  H      9.038800   -1.392500    1.544100
  H      5.290900    0.081800   -3.175400
  H     -0.271500   -1.504600    0.270600
  H     -1.716300   -3.220100   -0.635300
  H     -4.042900   -2.796800   -1.087900
  H     -7.261700   -1.165400   -1.444400
  H     -5.798400   -1.809300   -2.215300
  H     -6.311400   -2.402800   -0.572500

 Total Charge           Charge          ....    0
 Multiplicity           Mult            ....    1
 Number of Electrons    NEL             ....  236
 Basis Dimension        Dim             ....  474

ORBITAL ENERGIES
----------------

  NO   OCC          E(Eh)            E(eV)
   0   2.0000    -101.524893     -2762.6328
   1   2.0000     -88.908438     -2419.3216
   2   2.0000     -24.692455      -671.9159
   3   2.0000     -19.115327      -520.1545
   4   2.0000     -19.114136      -520.1221
   5   2.0000     -19.111982      -520.0635
   6   2.0000     -14.405221      -391.9860
   7   2.0000     -14.398437      -391.8014
   8   2.0000     -14.392749      -391.6466
   9   2.0000     -14.323132      -389.7522
  10   2.0000     -10.327788      -281.0334
  11   2.0000     -10.297326      -280.2045
  12   2.0000     -10.296573      -280.1840
  13   2.0000     -10.289554      -279.9930
  14   2.0000     -10.278831      -279.7012
  15   2.0000     -10.261351      -279.2256
  16   2.0000     -10.247556      -278.8502
  17   2.0000     -10.236245      -278.5424
  18   2.0000     -10.230044      -278.3737
  19   2.0000     -10.229310      -278.3537
  20   2.0000     -10.220773      -278.1214
  21   2.0000     -10.215542      -277.9790
  22   2.0000     -10.212545      -277.8975
  23   2.0000     -10.211361      -277.8653
  24   2.0000     -10.206791      -277.7409
  25   2.0000     -10.202738      -277.6306
  26   2.0000     -10.199877      -277.5528
  27   2.0000     -10.198779      -277.5229
  28   2.0000     -10.198017      -277.5022
  29   2.0000     -10.194812      -277.4149
  30   2.0000     -10.193578      -277.3814
  31   2.0000      -9.456314      -257.3194
  32   2.0000      -7.986157      -217.3144
  33   2.0000      -7.219620      -196.4558
  34   2.0000      -7.209887      -196.1910
  35   2.0000      -7.209442      -196.1789
  36   2.0000      -5.949206      -161.8861
  37   2.0000      -5.945156      -161.7759
  38   2.0000      -5.942976      -161.7166
  39   2.0000      -1.203995       -32.7624
  40   2.0000      -1.070870       -29.1399
  41   2.0000      -1.024922       -27.8895
  42   2.0000      -1.017811       -27.6961
  43   2.0000      -0.974020       -26.5044
  44   2.0000      -0.973084       -26.4790
  45   2.0000      -0.942197       -25.6385
  46   2.0000      -0.914849       -24.8943
  47   2.0000      -0.886759       -24.1299
  48   2.0000      -0.871815       -23.7233
  49   2.0000      -0.839831       -22.8530
  50   2.0000      -0.812933       -22.1210
  51   2.0000      -0.799400       -21.7528
  52   2.0000      -0.789707       -21.4890
  53   2.0000      -0.774980       -21.0883
  54   2.0000      -0.747765       -20.3477
  55   2.0000      -0.740351       -20.1460
  56   2.0000      -0.732459       -19.9312
  57   2.0000      -0.719470       -19.5778
  58   2.0000      -0.707285       -19.2462
  59   2.0000      -0.659917       -17.9573
  60   2.0000      -0.654398       -17.8071
  61   2.0000      -0.640050       -17.4166
  62   2.0000      -0.623612       -16.9694
  63   2.0000      -0.612629       -16.6705
  64   2.0000      -0.602819       -16.4035
  65   2.0000      -0.591612       -16.0986
  66   2.0000      -0.575694       -15.6654
  67   2.0000      -0.551863       -15.0170
  68   2.0000      -0.548423       -14.9234
  69   2.0000      -0.531531       -14.4637
  70   2.0000      -0.521475       -14.1901
  71   2.0000      -0.516841       -14.0640
  72   2.0000      -0.505631       -13.7589
  73   2.0000      -0.493622       -13.4321
  74   2.0000      -0.490361       -13.3434
  75   2.0000      -0.486889       -13.2489
  76   2.0000      -0.478502       -13.0207
  77   2.0000      -0.464487       -12.6393
  78   2.0000      -0.463503       -12.6126
  79   2.0000      -0.461807       -12.5664
  80   2.0000      -0.456111       -12.4114
  81   2.0000      -0.452403       -12.3105
  82   2.0000      -0.450282       -12.2528
  83   2.0000      -0.446532       -12.1507
  84   2.0000      -0.433881       -11.8065
  85   2.0000      -0.433394       -11.7933
  86   2.0000      -0.429280       -11.6813
  87   2.0000      -0.424005       -11.5378
  88   2.0000      -0.412542       -11.2258
  89   2.0000      -0.405481       -11.0337
  90   2.0000      -0.404124       -10.9968
  91   2.0000      -0.396909       -10.8005
  92   2.0000      -0.392951       -10.6927
  93   2.0000      -0.390726       -10.6322
  94   2.0000      -0.384845       -10.4722
  95   2.0000      -0.382539       -10.4094
  96   2.0000      -0.380895       -10.3647
  97   2.0000      -0.378751       -10.3063
  98   2.0000      -0.374985       -10.2039
  99   2.0000      -0.374030       -10.1779
 100   2.0000      -0.369231       -10.0473
 101   2.0000      -0.358836        -9.7644
 102   2.0000      -0.349685        -9.5154
 103   2.0000      -0.333986        -9.0882
 104   2.0000      -0.316468        -8.6115
 105   2.0000      -0.306670        -8.3449
 106   2.0000      -0.304723        -8.2919
 107   2.0000      -0.292289        -7.9536
 108   2.0000      -0.276477        -7.5233
 109   2.0000      -0.274939        -7.4815
 110   2.0000      -0.267720        -7.2850
 111   2.0000      -0.265045        -7.2122
 112   2.0000      -0.254408        -6.9228
 113   2.0000      -0.251382        -6.8404
 114   2.0000      -0.240520        -6.5449
 115   2.0000      -0.233015        -6.3407
 116   2.0000      -0.229144        -6.2353
 117   2.0000      -0.213389        -5.8066
 118   0.0000      -0.061067        -1.6617
 119   0.0000      -0.040141        -1.0923
 120   0.0000      -0.021572        -0.5870
 121   0.0000      -0.020407        -0.5553
 122   0.0000      -0.006270        -0.1706

MULLIKEN ATOMIC CHARGES
-----------------------
   0 C :   -0.312826
   1 N :   -0.462276
   2 C :    0.498175
   3 O :   -0.494130
   4 C :   -0.001938
   5 C :    0.065643
   6 C :   -0.379870
   7 C :    0.539783
   8 O :   -0.422068
   9 N :   -0.654095
  10 C :    0.250417
  11 N :   -0.357099
  12 C :    0.224192
  13 C :    0.037284
  14 C :   -0.168633
  15 C :   -0.129683
  16 C :   -0.117072
  17 C :   -0.160853
  18 Cl:    0.002981
  19 C :    0.385665
  20 F :   -0.275538
  21 C :   -0.390562
  22 S :    0.245279
  23 C :   -0.189339
  24 C :   -0.109677
  25 C :   -0.197544
  26 C :    0.315278
  27 N :   -0.508834
  28 C :   -0.335488
  29 C :    0.670500
  30 O :   -0.510511
  31 H :    0.191537
  32 H :    0.194557
  33 H :    0.180358
  34 H :    0.171543
  35 H :    0.222198
  36 H :    0.342616
  37 H :    0.137341
  38 H :    0.139211
  39 H :    0.156653
  40 H :    0.181164
  41 H :    0.168397
  42 H :    0.148347
  43 H :    0.140941
  44 H :    0.223651
  45 H :    0.170162
  46 H :    0.174165
Sum of atomic charges:   -0.0000000

LOEWDIN ATOMIC CHARGES
----------------------
   0 C :   -0.257950
   1 N :   -0.021115
   2 C :    0.112607
   3 O :   -0.288545
   4 C :   -0.077916
   5 C :    0.029762
   6 C :   -0.236938
   7 C :    0.143884
   8 O :   -0.235176
   9 N :   -0.210878
  10 C :   -0.083194
  11 N :   -0.143944
  12 C :   -0.000984
  13 C :   -0.037511
  14 C :   -0.120505
  15 C :   -0.132911
  16 C :   -0.127650
  17 C :   -0.113895
  18 Cl:    0.051338
  19 C :    0.130107
  20 F :   -0.071353
  21 C :   -0.347883
  22 S :    0.384107
  23 C :   -0.149093
  24 C :   -0.099036
  25 C :   -0.167438
  26 C :    0.051049
  27 N :   -0.027462
  28 C :   -0.265028
  29 C :    0.136497
  30 O :   -0.319585
  31 H :    0.150681
  32 H :    0.152139
  33 H :    0.142141
  34 H :    0.152487
  35 H :    0.178698
  36 H :    0.265755
  37 H :    0.136995
  38 H :    0.138059
  39 H :    0.147687
  40 H :    0.160276
  41 H :    0.150803
  42 H :    0.142163
  43 H :    0.140243
  44 H :    0.167754
  45 H :    0.134647
  46 H :    0.136111

  Mayer bond orders larger than 0.100000
B(  0-C ,  1-N ) :   0.9174 B(  0-C , 31-H ) :   0.9257 B(  0-C , 32-H ) :   0.9254
B(  0-C , 33-H ) :   0.9401 B(  1-N ,  2-C ) :   1.0026 B(  1-N , 29-C ) :   1.0412
B(  2-C ,  3-O ) :   1.7440 B(  2-C ,  4-C ) :   1.0592 B(  4-C ,  5-C ) :   1.3562
B(  4-C , 26-C ) :   1.2899 B(  5-C ,  6-C ) :   1.0024 B(  5-C , 23-C ) :   1.4429
B(  6-C ,  7-C ) :   0.9425 B(  6-C , 34-H ) :   0.8968 B(  6-C , 35-H ) :   0.8978
B(  7-C ,  8-O ) :   1.8837 B(  7-C ,  9-N ) :   0.9663 B(  9-N , 10-C ) :   0.9537
B(  9-N , 36-H ) :   0.8213 B( 10-C , 11-N ) :   1.5136 B( 10-C , 21-C ) :   0.1093
B( 10-C , 22-S ) :   1.1328 B( 11-N , 12-C ) :   1.2660 B( 12-C , 13-C ) :   1.0262
B( 12-C , 21-C ) :   1.5158 B( 13-C , 14-C ) :   1.4008 B( 13-C , 19-C ) :   1.3052
B( 14-C , 15-C ) :   1.4441 B( 14-C , 37-H ) :   0.9211 B( 15-C , 16-C ) :   1.4483
B( 15-C , 38-H ) :   0.9272 B( 16-C , 17-C ) :   1.4089 B( 16-C , 39-H ) :   0.9225
B( 17-C , 18-Cl) :   1.0340 B( 17-C , 19-C ) :   1.3067 B( 19-C , 20-F ) :   0.9819
B( 21-C , 22-S ) :   1.1185 B( 21-C , 40-H ) :   0.9037 B( 23-C , 24-C ) :   1.4002
B( 23-C , 41-H ) :   0.9070 B( 24-C , 25-C ) :   1.4672 B( 24-C , 42-H ) :   0.9257
B( 25-C , 26-C ) :   1.3465 B( 25-C , 43-H ) :   0.9145 B( 26-C , 27-N ) :   0.9701
B( 27-N , 28-C ) :   0.9346 B( 27-N , 29-C ) :   1.0464 B( 28-C , 44-H ) :   0.9142
B( 28-C , 45-H ) :   0.9318 B( 28-C , 46-H ) :   0.9321 B( 29-C , 30-O ) :   1.7840

FINAL SINGLE POINT ENERGY     -2211.871243550823

DIPOLE MOMENT
-------------

Method             : SCF
Type of density    : Electron Density
Multiplicity       :   1
Irrep              :   0
Energy             : -2211.8712435508227827 Eh
Relativity type    :
Basis              : AO
                                X                 Y                 Z
Electronic contribution:     36.643283397      -5.600949909       9.899409723
Nuclear contribution   :    -36.984613618       4.969127551     -12.527433530
                        -----------------------------------------
Total Dipole Moment    :     -0.341330220      -0.631822358      -2.628023807
                        -----------------------------------------
Magnitude (a.u.)       :      2.724374229
Magnitude (Debye)      :      6.924808968

Rotational constants in cm-1:             0.010286             0.001467             0.001417
Rotational constants in MHz :           308.377487            43.990488            42.470845

                             ****ORCA TERMINATED NORMALLY****
TOTAL RUN TIME: 0 days 0 hours 8 minutes 2 seconds 760 msec
