                         Program Version 6.0.0  -   RELEASE  -
|  1> ! B3LYP 6-31G* SP
|  2>
|  3> * xyz 0 1
|  4> C -6.9760 -2.1117 1.7034
|  5> N -6.2527 -0.8927 1.2911
|  6> C -5.0591 -0.9984 0.6267
|  7> O -4.6012 -2.1456 0.3731
|  8> C -4.3535 0.1643 0.2248
|  9> C -3.1185 0.1508 -0.5089
| 10> C -2.4248 -1.1531 -0.9018
| 11> C -1.1083 -0.9953 -1.6127
| 12> O -1.0866 -1.0041 -2.8730
| 13> N 0.0972 -0.8065 -0.8529
| 14> C 1.3915 -0.5377 -1.4128
| 15> N 2.5073 -0.4783 -0.6558
| 16> C 3.6201 -0.1908 -1.3896
| 17> C 4.9608 -0.0926 -0.7545
| 18> C 6.0553 0.4823 -1.4281
| 19> C 7.3074 0.5657 -0.8117
| 20> C 7.4927 0.0768 0.4948
| 21> O 8.7297 0.1357 1.1581
| 22> C 9.9307 0.6825 0.6173
| 23> F 10.3014 -0.0133 -0.5198
| 24> F 10.9375 0.5689 1.5566
| 25> F 9.7523 2.0212 0.3154
| 26> C 6.4055 -0.4917 1.1677
| 27> F 6.5636 -0.9674 2.4289
| 28> C 5.1525 -0.5736 0.5532
| 29> C 3.3794 -0.0166 -2.7568
| 30> S 1.7339 -0.2276 -3.0306
| 31> C -2.5509 1.3872 -0.8840
| 32> C -3.1661 2.5796 -0.5340
| 33> N -4.3146 2.5670 0.1757
| 34> C -4.9247 1.4156 0.5696
| 35> N -6.0832 1.4813 1.2969
| 36> C -6.6515 2.7986 1.6454
| 37> C -6.7492 0.3349 1.6392
| 38> O -7.8361 0.4094 2.2817
| 39> H -8.0760 -1.9512 1.6935
| 40> H -6.6587 -2.4050 2.7267
| 41> H -6.7871 -2.9560 1.0063
| 42> H -2.2319 -1.7508 0.0144
| 43> H -3.1027 -1.7340 -1.5641
| 44> H 0.0341 -0.8711 0.1879
| 45> H 5.9506 0.8854 -2.4257
| 46> H 8.1214 1.0164 -1.3619
| 47> H 4.3332 -1.0205 1.1030
| 48> H 4.1085 0.1959 -3.5255
| 49> H -1.6321 1.4510 -1.4497
| 50> H -2.7251 3.5240 -0.8240
| 51> H -5.8503 3.5093 1.9414
| 52> H -7.3431 2.7406 2.5127
| 53> H -7.2027 3.2091 0.7728
| 54> *
| 55>
| 56>                          ****END OF INPUT****

CARTESIAN COORDINATES (ANGSTROEM)
---------------------------------
  C     -6.976000   -2.111700    1.703400
  N     -6.252700   -0.892700    1.291100
  C     -5.059100   -0.998400    0.626700
  O     -4.601200   -2.145600    0.373100
  C     -4.353500    0.164300    0.224800
  C     -3.118500    0.150800   -0.508900
  C     -2.424800   -1.153100   -0.901800
  C     -1.108300   -0.995300   -1.612700
  O     -1.086600   -1.004100   -2.873000
  N      0.097200   -0.806500   -0.852900
  C      1.391500   -0.537700   -1.412800
  N      2.507300   -0.478300   -0.655800
  C      3.620100   -0.190800   -1.389600
  C      4.960800   -0.092600   -0.754500
  C      6.055300    0.482300   -1.428100
  C      7.307400    0.565700   -0.811700
  C      7.492700    0.076800    0.494800
  O      8.729700    0.135700    1.158100
  C      9.930700    0.682500    0.617300
  F     10.301400   -0.013300   -0.519800
  F     10.937500    0.568900    1.556600
  F      9.752300    2.021200    0.315400
  C      6.405500   -0.491700    1.167700
  F      6.563600   -0.967400    2.428900
  C      5.152500   -0.573600    0.553200
  C      3.379400   -0.016600   -2.756800
  S      1.733900   -0.227600   -3.030600
  C     -2.550900    1.387200   -0.884000
  C     -3.166100    2.579600   -0.534000
  N     -4.314600    2.567000    0.175700
  C     -4.924700    1.415600    0.569600
  N     -6.083200    1.481300    1.296900
  C     -6.651500    2.798600    1.645400
  C     -6.749200    0.334900    1.639200
  O     -7.836100    0.409400    2.281700
  H     -8.076000   -1.951200    1.693500
  H     -6.658700   -2.405000    2.726700
  H     -6.787100   -2.956000    1.006300
  H     -2.231900   -1.750800    0.014400
  H     -3.102700   -1.734000   -1.564100
  H      0.034100   -0.871100    0.187900
  H      5.950600    0.885400   -2.425700
  H      8.121400    1.016400   -1.361900
  H      4.333200   -1.020500    1.103000
  H      4.108500    0.195900   -3.525500
  H     -1.632100    1.451000   -1.449700
  H     -2.725100    3.524000   -0.824000
  H     -5.850300    3.509300    1.941400
  H     -7.343100    2.740600    2.512700
  H     -7.202700    3.209100    0.772800

 Total Charge           Charge          ....    0
 Multiplicity           Mult            ....    1
 Number of Electrons    NEL             ....  260
 Basis Dimension        Dim             ....  524

ORBITAL ENERGIES
----------------

  NO   OCC          E(Eh)            E(eV)
   0   2.0000     -88.909709     -2419.3562
   1   2.0000     -24.742041      -673.2652
   2   2.0000     -24.740919      -673.2346
   3   2.0000     -24.740830      -673.2322
   4   2.0000     -24.704829      -672.2526
   5   2.0000     -19.215678      -522.8852
   6   2.0000     -19.140285      -520.8336
   7   2.0000     -19.124107      -520.3934
   8   2.0000     -19.118547      -520.2421
   9   2.0000     -14.410572      -392.1316
  10   2.0000     -14.407052      -392.0358
  11   2.0000     -14.406743      -392.0274
  12   2.0000     -14.346842      -390.3974
  13   2.0000     -14.339814      -390.2062
  14   2.0000     -10.506318      -285.8915
  15   2.0000     -10.334816      -281.2247
  16   2.0000     -10.318690      -280.7858
  17   2.0000     -10.306548      -280.4554
  18   2.0000     -10.297784      -280.2169
  19   2.0000     -10.294397      -280.1248
  20   2.0000     -10.281413      -279.7715
  21   2.0000     -10.273958      -279.5686
  22   2.0000     -10.251604      -278.9603
  23   2.0000     -10.248769      -278.8832
  24   2.0000     -10.235261      -278.5156
  25   2.0000     -10.227713      -278.3102
  26   2.0000     -10.226451      -278.2759
  27   2.0000     -10.225952      -278.2623
  28   2.0000     -10.217549      -278.0336
  29   2.0000     -10.213952      -277.9358
  30   2.0000     -10.213386      -277.9204
  31   2.0000     -10.208345      -277.7832
  32   2.0000     -10.205205      -277.6977
  33   2.0000     -10.202160      -277.6149
  34   2.0000     -10.199304      -277.5372
  35   2.0000      -7.985834      -217.3056
  36   2.0000      -5.948945      -161.8790
  37   2.0000      -5.944665      -161.7626
  38   2.0000      -5.942864      -161.7135
  39   2.0000      -1.305535       -35.5254
  40   2.0000      -1.226646       -33.3787
  41   2.0000      -1.225441       -33.3459
  42   2.0000      -1.217643       -33.1337
  43   2.0000      -1.084969       -29.5235
  44   2.0000      -1.079346       -29.3705
  45   2.0000      -1.041727       -28.3468
  46   2.0000      -1.033680       -28.1278
  47   2.0000      -0.994045       -27.0493
  48   2.0000      -0.985642       -26.8207
  49   2.0000      -0.950607       -25.8673
  50   2.0000      -0.934639       -25.4328
  51   2.0000      -0.926064       -25.1995
  52   2.0000      -0.872846       -23.7513
  53   2.0000      -0.846759       -23.0415
  54   2.0000      -0.816726       -22.2243
  55   2.0000      -0.803227       -21.8569
  56   2.0000      -0.793067       -21.5805
  57   2.0000      -0.767585       -20.8870
  58   2.0000      -0.761864       -20.7314
  59   2.0000      -0.748790       -20.3756
  60   2.0000      -0.736242       -20.0342
  61   2.0000      -0.720846       -19.6152
  62   2.0000      -0.701926       -19.1004
  63   2.0000      -0.675543       -18.3825
  64   2.0000      -0.673431       -18.3250
  65   2.0000      -0.649694       -17.6791
  66   2.0000      -0.640490       -17.4286
  67   2.0000      -0.632862       -17.2210
  68   2.0000      -0.624883       -17.0039
  69   2.0000      -0.602152       -16.3854
  70   2.0000      -0.597943       -16.2709
  71   2.0000      -0.594009       -16.1638
  72   2.0000      -0.585969       -15.9450
  73   2.0000      -0.580756       -15.8032
  74   2.0000      -0.569122       -15.4866
  75   2.0000      -0.561906       -15.2903
  76   2.0000      -0.535619       -14.5749
  77   2.0000      -0.529619       -14.4117
  78   2.0000      -0.526062       -14.3149
  79   2.0000      -0.513135       -13.9631
  80   2.0000      -0.506004       -13.7691
  81   2.0000      -0.498906       -13.5759
  82   2.0000      -0.496217       -13.5027
  83   2.0000      -0.491083       -13.3631
  84   2.0000      -0.480041       -13.0626
  85   2.0000      -0.474330       -12.9072
  86   2.0000      -0.473136       -12.8747
  87   2.0000      -0.469110       -12.7651
  88   2.0000      -0.465485       -12.6665
  89   2.0000      -0.464834       -12.6488
  90   2.0000      -0.463532       -12.6133
  91   2.0000      -0.450283       -12.2528
  92   2.0000      -0.449087       -12.2203
  93   2.0000      -0.447910       -12.1883
  94   2.0000      -0.443513       -12.0686
  95   2.0000      -0.442034       -12.0284
  96   2.0000      -0.435446       -11.8491
  97   2.0000      -0.433760       -11.8032
  98   2.0000      -0.429431       -11.6854
  99   2.0000      -0.422921       -11.5083
 100   2.0000      -0.419602       -11.4179
 101   2.0000      -0.417801       -11.3689
 102   2.0000      -0.415111       -11.2957
 103   2.0000      -0.413645       -11.2558
 104   2.0000      -0.409342       -11.1388
 105   2.0000      -0.400661       -10.9025
 106   2.0000      -0.400024       -10.8852
 107   2.0000      -0.397649       -10.8206
 108   2.0000      -0.396493       -10.7891
 109   2.0000      -0.388908       -10.5827
 110   2.0000      -0.386549       -10.5185
 111   2.0000      -0.382722       -10.4144
 112   2.0000      -0.380292       -10.3483
 113   2.0000      -0.363008        -9.8779
 114   2.0000      -0.357094        -9.7170
 115   2.0000      -0.355382        -9.6704
 116   2.0000      -0.328905        -8.9499
 117   2.0000      -0.320199        -8.7130
 118   2.0000      -0.295559        -8.0426
 119   2.0000      -0.293858        -7.9963
 120   2.0000      -0.287338        -7.8189
 121   2.0000      -0.284315        -7.7366
 122   2.0000      -0.278291        -7.5727
 123   2.0000      -0.275818        -7.5054
 124   2.0000      -0.270881        -7.3711
 125   2.0000      -0.259595        -7.0640
 126   2.0000      -0.254225        -6.9178
 127   2.0000      -0.252140        -6.8611
 128   2.0000      -0.247408        -6.7323
 129   2.0000      -0.217006        -5.9050
 130   0.0000      -0.076057        -2.0696
 131   0.0000      -0.045369        -1.2345
 132   0.0000      -0.036322        -0.9884
 133   0.0000      -0.033391        -0.9086
 134   0.0000      -0.013694        -0.3726

MULLIKEN ATOMIC CHARGES
-----------------------
   0 C :   -0.317002
   1 N :   -0.467666
   2 C :    0.502212
   3 O :   -0.495713
   4 C :    0.009452
   5 C :    0.112618
   6 C :   -0.390382
   7 C :    0.541283
   8 O :   -0.449003
   9 N :   -0.640784
  10 C :    0.258432
  11 N :   -0.435419
  12 C :    0.211672
  13 C :    0.134377
  14 C :   -0.183203
  15 C :   -0.189415
  16 C :    0.284059
  17 O :   -0.537757
  18 C :    1.088994
  19 F :   -0.291046
  20 F :   -0.276996
  21 F :   -0.291251
  22 C :    0.379392
  23 F :   -0.306886
  24 C :   -0.262548
  25 C :   -0.404274
  26 S :    0.321387
  27 C :   -0.197570
  28 C :    0.033189
  29 N :   -0.438010
  30 C :    0.418573
  31 N :   -0.475020
  32 C :   -0.316514
  33 C :    0.677698
  34 O :   -0.501083
  35 H :    0.198318
  36 H :    0.179811
  37 H :    0.197618
  38 H :    0.182513
  39 H :    0.226115
  40 H :    0.357499
  41 H :    0.135828
  42 H :    0.161647
  43 H :    0.172485
  44 H :    0.183763
  45 H :    0.159550
  46 H :    0.166803
  47 H :    0.189519
  48 H :    0.204322
  49 H :    0.178411
Sum of atomic charges:    0.0000000

LOEWDIN ATOMIC CHARGES
----------------------
   0 C :   -0.259104
   1 N :   -0.021211
   2 C :    0.113789
   3 O :   -0.289165
   4 C :   -0.086396
   5 C :    0.056718
   6 C :   -0.238345
   7 C :    0.144674
   8 O :   -0.256018
   9 N :   -0.200739
  10 C :   -0.082085
  11 N :   -0.187393
  12 C :   -0.005924
  13 C :   -0.017163
  14 C :   -0.126450
  15 C :   -0.151827
  16 C :    0.059735
  17 O :   -0.154225
  18 C :    0.361149
  19 F :   -0.104773
  20 F :   -0.085518
  21 F :   -0.105017
  22 C :    0.108120
  23 F :   -0.094820
  24 C :   -0.137189
  25 C :   -0.349627
  26 S :    0.429905
  27 C :   -0.168344
  28 C :   -0.038709
  29 N :   -0.158372
  30 C :    0.081265
  31 N :   -0.017598
  32 C :   -0.259985
  33 C :    0.138204
  34 O :   -0.309112
  35 H :    0.154176
  36 H :    0.141874
  37 H :    0.153765
  38 H :    0.156681
  39 H :    0.181964
  40 H :    0.277092
  41 H :    0.136561
  42 H :    0.147132
  43 H :    0.160517
  44 H :    0.161898
  45 H :    0.148757
  46 H :    0.144407
  47 H :    0.148744
  48 H :    0.157283
  49 H :    0.140699

  Mayer bond orders larger than 0.100000
B(  0-C ,  1-N ) :   0.9151 B(  0-C , 35-H ) :   0.9253 B(  0-C , 36-H ) :   0.9402
B(  0-C , 37-H ) :   0.9231 B(  1-N ,  2-C ) :   1.0082 B(  1-N , 33-C ) :   1.0360
B(  2-C ,  3-O ) :   1.7400 B(  2-C ,  4-C ) :   1.0515 B(  4-C ,  5-C ) :   1.3682
B(  4-C , 30-C ) :   1.2530 B(  5-C ,  6-C ) :   1.0070 B(  5-C , 27-C ) :   1.4307
B(  6-C ,  7-C ) :   0.9363 B(  6-C , 38-H ) :   0.8955 B(  6-C , 39-H ) :   0.8928
B(  7-C ,  8-O ) :   1.8140 B(  7-C ,  9-N ) :   1.0164 B(  9-N , 10-C ) :   0.9428
B(  9-N , 40-H ) :   0.8081 B( 10-C , 11-N ) :   1.4774 B( 10-C , 25-C ) :   0.1091
B( 10-C , 26-S ) :   1.1857 B( 11-N , 12-C ) :   1.2907 B( 12-C , 13-C ) :   1.0577
B( 12-C , 25-C ) :   1.5168 B( 13-C , 14-C ) :   1.4021 B( 13-C , 24-C ) :   1.3691
B( 14-C , 15-C ) :   1.4396 B( 14-C , 41-H ) :   0.9188 B( 15-C , 16-C ) :   1.3799
B( 15-C , 42-H ) :   0.9081 B( 16-C , 17-O ) :   0.8324 B( 16-C , 22-C ) :   1.3205
B( 17-O , 18-C ) :   0.9863 B( 18-C , 19-F ) :   0.9692 B( 18-C , 20-F ) :   1.0097
B( 18-C , 21-F ) :   0.9686 B( 22-C , 23-F ) :   0.9380 B( 22-C , 24-C ) :   1.3706
B( 24-C , 43-H ) :   0.9018 B( 25-C , 26-S ) :   1.1065 B( 25-C , 44-H ) :   0.9011
B( 27-C , 28-C ) :   1.3813 B( 27-C , 45-H ) :   0.9059 B( 28-C , 29-N ) :   1.4393
B( 28-C , 46-H ) :   0.9261 B( 29-N , 30-C ) :   1.3482 B( 30-C , 31-N ) :   1.0152
B( 31-N , 32-C ) :   0.9190 B( 31-N , 33-C ) :   1.0425 B( 32-C , 47-H ) :   0.9275
B( 32-C , 48-H ) :   0.9208 B( 32-C , 49-H ) :   0.9393 B( 33-C , 34-O ) :   1.7956

FINAL SINGLE POINT ENERGY     -2180.489496311978

DIPOLE MOMENT
-------------

Method             : SCF
Type of density    : Electron Density
Multiplicity       :   1
Irrep              :   0
Energy             : -2180.4894963119782005 Eh
Relativity type    :
Basis              : AO
                                X                 Y                 Z
Electronic contribution:     73.394324270      -0.121505804       1.564486708
Nuclear contribution   :    -73.918300248       0.999088258      -1.880374962
                        -----------------------------------------
Total Dipole Moment    :     -0.523975978       0.877582454      -0.315888254
                        -----------------------------------------
Magnitude (a.u.)       :      1.069807076
Magnitude (Debye)      :      2.719233485

Rotational constants in cm-1:             0.008822             0.000896             0.000875
Rotational constants in MHz :           264.482262            26.872570            26.226342

                             ****ORCA TERMINATED NORMALLY****
TOTAL RUN TIME: 0 days 0 hours 6 minutes 10 seconds 644 msec
