                         Program Version 6.0.0  -   RELEASE  -
|  1> ! B3LYP 6-31G* SP
|  2>
|  3> * xyz 0 1
|  4> C -6.5387 -0.6304 2.6852
|  5> O -5.1703 -0.5965 2.3305
|  6> C -4.8649 -0.0420 1.0426
|  7> C -5.8989 -0.4581 -0.0488
|  8> C -3.4716 -0.5722 0.6382
|  9> C -2.6401 -1.2233 1.5808
| 10> C -1.3450 -1.6253 1.2446
| 11> C -0.8312 -1.3692 -0.0307
| 12> C 0.6257 -1.6254 -0.3216
| 13> N 1.4750 -0.6864 0.4256
| 14> C 1.1055 0.6965 0.5482
| 15> N 0.5631 1.1138 1.7217
| 16> C 0.0584 2.3596 1.8918
| 17> C 0.0432 3.2608 0.8256
| 18> C -0.5336 4.5297 0.9815
| 19> C -0.5747 5.4182 -0.0940
| 20> C -0.0439 5.0472 -1.3285
| 21> C 0.5384 3.7883 -1.4959
| 22> C 0.5979 2.8736 -0.4208
| 23> C 1.1750 1.5819 -0.5536
| 24> C 1.8354 1.1485 -1.8423
| 25> S 2.7711 -1.3057 1.4000
| 26> O 2.2480 -2.3896 2.3015
| 27> O 3.3489 -0.2124 2.2571
| 28> C 4.0304 -1.9296 0.3416
| 29> C 4.8068 -1.0393 -0.4086
| 30> C 5.8023 -1.5196 -1.2646
| 31> C 6.0360 -2.9017 -1.3808
| 32> C 7.0955 -3.4153 -2.2762
| 33> O 7.7898 -2.6196 -2.9649
| 34> O 7.3422 -4.7842 -2.3605
| 35> C 5.2517 -3.7912 -0.6246
| 36> C 4.2550 -3.3083 0.2300
| 37> C -1.6381 -0.7278 -0.9775
| 38> C -2.9384 -0.3392 -0.6523
| 39> C -4.7756 1.5091 1.1588
| 40> F -6.0144 2.0733 1.4015
| 41> F -4.2875 2.0761 -0.0050
| 42> F -3.9281 1.8507 2.2014
| 43> H -7.0535 0.3354 2.5281
| 44> H -7.0630 -1.4507 2.1503
| 45> H -6.6097 -0.8569 3.7687
| 46> H -6.9100 -0.0582 0.1692
| 47> H -5.6404 -0.0596 -1.0485
| 48> H -5.9570 -1.5659 -0.1158
| 49> H -2.9726 -1.4118 2.5924
| 50> H -0.7220 -2.0930 1.9966
| 51> H 0.8328 -1.5253 -1.4079
| 52> H 0.8702 -2.6747 -0.0484
| 53> H -0.3679 2.6283 2.8497
| 54> H -0.9653 4.8280 1.9292
| 55> H -1.0273 6.3929 0.0260
| 56> H -0.0918 5.7339 -2.1630
| 57> H 0.9172 3.5378 -2.4774
| 58> H 2.4506 0.2334 -1.7211
| 59> H 2.5296 1.9376 -2.2002
| 60> H 1.0611 0.9644 -2.6148
| 61> H 4.6400 0.0273 -0.3328
| 62> H 6.3910 -0.8086 -1.8315
| 63> H 8.0684 -5.1448 -2.9664
| 64> H 5.4092 -4.8602 -0.6911
| 65> H 3.6590 -4.0118 0.7974
| 66> H -1.2481 -0.4947 -1.9618
| 67> H -3.5008 0.1823 -1.4108
| 68> *
| 69>
| 70>                          ****END OF INPUT****

CARTESIAN COORDINATES (ANGSTROEM)
---------------------------------
  C     -6.538700   -0.630400    2.685200
  O     -5.170300   -0.596500    2.330500
  C     -4.864900   -0.042000    1.042600
  C     -5.898900   -0.458100   -0.048800
  C     -3.471600   -0.572200    0.638200
  C     -2.640100   -1.223300    1.580800
  C     -1.345000   -1.625300    1.244600
  C     -0.831200   -1.369200   -0.030700
  C      0.625700   -1.625400   -0.321600
  N      1.475000   -0.686400    0.425600
  C      1.105500    0.696500    0.548200
  N      0.563100    1.113800    1.721700
  C      0.058400    2.359600    1.891800
  C      0.043200    3.260800    0.825600
  C     -0.533600    4.529700    0.981500
  C     -0.574700    5.418200   -0.094000
  C     -0.043900    5.047200   -1.328500
  C      0.538400    3.788300   -1.495900
  C      0.597900    2.873600   -0.420800
  C      1.175000    1.581900   -0.553600
  C      1.835400    1.148500   -1.842300
  S      2.771100   -1.305700    1.400000
  O      2.248000   -2.389600    2.301500
  O      3.348900   -0.212400    2.257100
  C      4.030400   -1.929600    0.341600
  C      4.806800   -1.039300   -0.408600
  C      5.802300   -1.519600   -1.264600
  C      6.036000   -2.901700   -1.380800
  C      7.095500   -3.415300   -2.276200
  O      7.789800   -2.619600   -2.964900
  O      7.342200   -4.784200   -2.360500
  C      5.251700   -3.791200   -0.624600
  C      4.255000   -3.308300    0.230000
  C     -1.638100   -0.727800   -0.977500
  C     -2.938400   -0.339200   -0.652300
  C     -4.775600    1.509100    1.158800
  F     -6.014400    2.073300    1.401500
  F     -4.287500    2.076100   -0.005000
  F     -3.928100    1.850700    2.201400
  H     -7.053500    0.335400    2.528100
  H     -7.063000   -1.450700    2.150300
  H     -6.609700   -0.856900    3.768700
  H     -6.910000   -0.058200    0.169200
  H     -5.640400   -0.059600   -1.048500
  H     -5.957000   -1.565900   -0.115800
  H     -2.972600   -1.411800    2.592400
  H     -0.722000   -2.093000    1.996600
  H      0.832800   -1.525300   -1.407900
  H      0.870200   -2.674700   -0.048400
  H     -0.367900    2.628300    2.849700
  H     -0.965300    4.828000    1.929200
  H     -1.027300    6.392900    0.026000
  H     -0.091800    5.733900   -2.163000
  H      0.917200    3.537800   -2.477400
  H      2.450600    0.233400   -1.721100
  H      2.529600    1.937600   -2.200200
  H      1.061100    0.964400   -2.614800
  H      4.640000    0.027300   -0.332800
  H      6.391000   -0.808600   -1.831500
  H      8.068400   -5.144800   -2.966400
  H      5.409200   -4.860200   -0.691100
  H      3.659000   -4.011800    0.797400
  H     -1.248100   -0.494700   -1.961800
  H     -3.500800    0.182300   -1.410800

 Total Charge           Charge          ....    0
 Multiplicity           Mult            ....    1
 Number of Electrons    NEL             ....  290
 Basis Dimension        Dim             ....  600

ORBITAL ENERGIES
----------------

  NO   OCC          E(Eh)            E(eV)
   0   2.0000     -89.092053     -2424.3180
   1   2.0000     -24.721349      -672.7021
   2   2.0000     -24.719180      -672.6431
   3   2.0000     -24.710724      -672.4130
   4   2.0000     -19.196557      -522.3649
   5   2.0000     -19.158848      -521.3388
   6   2.0000     -19.138563      -520.7868
   7   2.0000     -19.119832      -520.2771
   8   2.0000     -19.119168      -520.2590
   9   2.0000     -14.367032      -390.9468
  10   2.0000     -14.320072      -389.6690
  11   2.0000     -10.427929      -283.7584
  12   2.0000     -10.335949      -281.2555
  13   2.0000     -10.273472      -279.5554
  14   2.0000     -10.254336      -279.0347
  15   2.0000     -10.241703      -278.6909
  16   2.0000     -10.232142      -278.4307
  17   2.0000     -10.230836      -278.3952
  18   2.0000     -10.225374      -278.2466
  19   2.0000     -10.220914      -278.1252
  20   2.0000     -10.219477      -278.0861
  21   2.0000     -10.218191      -278.0511
  22   2.0000     -10.217562      -278.0340
  23   2.0000     -10.215402      -277.9752
  24   2.0000     -10.205537      -277.7068
  25   2.0000     -10.201722      -277.6030
  26   2.0000     -10.197342      -277.4838
  27   2.0000     -10.193121      -277.3689
  28   2.0000     -10.193090      -277.3681
  29   2.0000     -10.191769      -277.3321
  30   2.0000     -10.191482      -277.3243
  31   2.0000     -10.190109      -277.2870
  32   2.0000     -10.189921      -277.2818
  33   2.0000     -10.189083      -277.2590
  34   2.0000     -10.188818      -277.2518
  35   2.0000     -10.184362      -277.1306
  36   2.0000     -10.183058      -277.0951
  37   2.0000     -10.177802      -276.9521
  38   2.0000     -10.174934      -276.8740
  39   2.0000      -8.127760      -221.1676
  40   2.0000      -6.092710      -165.7911
  41   2.0000      -6.090697      -165.7363
  42   2.0000      -6.090590      -165.7334
  43   2.0000      -1.278412       -34.7874
  44   2.0000      -1.205207       -32.7954
  45   2.0000      -1.198441       -32.6112
  46   2.0000      -1.081182       -29.4205
  47   2.0000      -1.076946       -29.3052
  48   2.0000      -1.044538       -28.4233
  49   2.0000      -0.995711       -27.0947
  50   2.0000      -0.956529       -26.0285
  51   2.0000      -0.953827       -25.9549
  52   2.0000      -0.907023       -24.6813
  53   2.0000      -0.890019       -24.2186
  54   2.0000      -0.858858       -23.3707
  55   2.0000      -0.853290       -23.2192
  56   2.0000      -0.808584       -22.0027
  57   2.0000      -0.806930       -21.9577
  58   2.0000      -0.800952       -21.7950
  59   2.0000      -0.776615       -21.1328
  60   2.0000      -0.770772       -20.9738
  61   2.0000      -0.754012       -20.5177
  62   2.0000      -0.741822       -20.1860
  63   2.0000      -0.739090       -20.1117
  64   2.0000      -0.712514       -19.3885
  65   2.0000      -0.707318       -19.2471
  66   2.0000      -0.700730       -19.0678
  67   2.0000      -0.687886       -18.7183
  68   2.0000      -0.675601       -18.3840
  69   2.0000      -0.651604       -17.7311
  70   2.0000      -0.639361       -17.3979
  71   2.0000      -0.638022       -17.3615
  72   2.0000      -0.621002       -16.8983
  73   2.0000      -0.612960       -16.6795
  74   2.0000      -0.602627       -16.3983
  75   2.0000      -0.593611       -16.1530
  76   2.0000      -0.590668       -16.0729
  77   2.0000      -0.582493       -15.8504
  78   2.0000      -0.567317       -15.4375
  79   2.0000      -0.565636       -15.3918
  80   2.0000      -0.558395       -15.1947
  81   2.0000      -0.540432       -14.7059
  82   2.0000      -0.534410       -14.5420
  83   2.0000      -0.525404       -14.2970
  84   2.0000      -0.518338       -14.1047
  85   2.0000      -0.503120       -13.6906
  86   2.0000      -0.496587       -13.5128
  87   2.0000      -0.488739       -13.2993
  88   2.0000      -0.482319       -13.1246
  89   2.0000      -0.479313       -13.0428
  90   2.0000      -0.473435       -12.8828
  91   2.0000      -0.470980       -12.8160
  92   2.0000      -0.461251       -12.5513
  93   2.0000      -0.458851       -12.4860
  94   2.0000      -0.454029       -12.3548
  95   2.0000      -0.450217       -12.2510
  96   2.0000      -0.448751       -12.2111
  97   2.0000      -0.447239       -12.1700
  98   2.0000      -0.444219       -12.0878
  99   2.0000      -0.443888       -12.0788
 100   2.0000      -0.442303       -12.0357
 101   2.0000      -0.440123       -11.9763
 102   2.0000      -0.438058       -11.9202
 103   2.0000      -0.432919       -11.7803
 104   2.0000      -0.425032       -11.5657
 105   2.0000      -0.421161       -11.4604
 106   2.0000      -0.417667       -11.3653
 107   2.0000      -0.416170       -11.3246
 108   2.0000      -0.415681       -11.3113
 109   2.0000      -0.413799       -11.2601
 110   2.0000      -0.408158       -11.1065
 111   2.0000      -0.403221       -10.9722
 112   2.0000      -0.400146       -10.8885
 113   2.0000      -0.398446       -10.8423
 114   2.0000      -0.395269       -10.7558
 115   2.0000      -0.392417       -10.6782
 116   2.0000      -0.389374       -10.5954
 117   2.0000      -0.386554       -10.5187
 118   2.0000      -0.382460       -10.4073
 119   2.0000      -0.381449       -10.3797
 120   2.0000      -0.376105       -10.2343
 121   2.0000      -0.368400       -10.0247
 122   2.0000      -0.364323        -9.9137
 123   2.0000      -0.357589        -9.7305
 124   2.0000      -0.347363        -9.4522
 125   2.0000      -0.345054        -9.3894
 126   2.0000      -0.340319        -9.2606
 127   2.0000      -0.339486        -9.2379
 128   2.0000      -0.321171        -8.7395
 129   2.0000      -0.319694        -8.6993
 130   2.0000      -0.313808        -8.5392
 131   2.0000      -0.304084        -8.2745
 132   2.0000      -0.295642        -8.0448
 133   2.0000      -0.284913        -7.7529
 134   2.0000      -0.280128        -7.6227
 135   2.0000      -0.278404        -7.5758
 136   2.0000      -0.275316        -7.4917
 137   2.0000      -0.270865        -7.3706
 138   2.0000      -0.269901        -7.3444
 139   2.0000      -0.259976        -7.0743
 140   2.0000      -0.249191        -6.7808
 141   2.0000      -0.246812        -6.7161
 142   2.0000      -0.241422        -6.5694
 143   2.0000      -0.233221        -6.3463
 144   2.0000      -0.216958        -5.9037
 145   0.0000      -0.083408        -2.2697
 146   0.0000      -0.054371        -1.4795
 147   0.0000      -0.032267        -0.8780
 148   0.0000      -0.025422        -0.6918
 149   0.0000      -0.012476        -0.3395

MULLIKEN ATOMIC CHARGES
-----------------------
   0 C :   -0.207965
   1 O :   -0.491896
   2 C :    0.170331
   3 C :   -0.497651
   4 C :    0.075000
   5 C :   -0.157665
   6 C :   -0.146386
   7 C :    0.138747
   8 C :   -0.220477
   9 N :   -0.616861
  10 C :    0.332881
  11 N :   -0.359261
  12 C :   -0.041853
  13 C :    0.135026
  14 C :   -0.198445
  15 C :   -0.127222
  16 C :   -0.119927
  17 C :   -0.202692
  18 C :    0.128821
  19 C :    0.091132
  20 C :   -0.547533
  21 S :    1.207125
  22 O :   -0.547182
  23 O :   -0.530745
  24 C :   -0.120799
  25 C :   -0.146215
  26 C :   -0.143442
  27 C :    0.083001
  28 C :    0.528258
  29 O :   -0.444624
  30 O :   -0.623984
  31 C :   -0.145466
  32 C :   -0.149321
  33 C :   -0.178130
  34 C :   -0.163536
  35 C :    0.931082
  36 F :   -0.301647
  37 F :   -0.299436
  38 F :   -0.301679
  39 H :    0.152022
  40 H :    0.139237
  41 H :    0.161198
  42 H :    0.161315
  43 H :    0.168166
  44 H :    0.173332
  45 H :    0.158137
  46 H :    0.168633
  47 H :    0.146423
  48 H :    0.180628
  49 H :    0.157604
  50 H :    0.142216
  51 H :    0.134392
  52 H :    0.134503
  53 H :    0.132825
  54 H :    0.165955
  55 H :    0.162840
  56 H :    0.162536
  57 H :    0.182111
  58 H :    0.180099
  59 H :    0.434248
  60 H :    0.173363
  61 H :    0.187319
  62 H :    0.121918
  63 H :    0.129615
Sum of atomic charges:   -0.0000000

LOEWDIN ATOMIC CHARGES
----------------------
   0 C :   -0.215069
   1 O :   -0.214393
   2 C :    0.049966
   3 C :   -0.365108
   4 C :   -0.023879
   5 C :   -0.112514
   6 C :   -0.110009
   7 C :   -0.033315
   8 C :   -0.145352
   9 N :   -0.286454
  10 C :    0.038317
  11 N :   -0.106617
  12 C :   -0.050349
  13 C :   -0.026524
  14 C :   -0.107858
  15 C :   -0.127375
  16 C :   -0.118872
  17 C :   -0.127661
  18 C :   -0.005856
  19 C :   -0.019621
  20 C :   -0.361558
  21 S :    1.263261
  22 O :   -0.577518
  23 O :   -0.559696
  24 C :   -0.174075
  25 C :   -0.105043
  26 C :   -0.086833
  27 C :   -0.040294
  28 C :    0.180206
  29 O :   -0.260846
  30 O :   -0.335150
  31 C :   -0.098280
  32 C :   -0.106252
  33 C :   -0.136099
  34 C :   -0.130164
  35 C :    0.300986
  36 F :   -0.113117
  37 F :   -0.110584
  38 F :   -0.110198
  39 H :    0.116056
  40 H :    0.110163
  41 H :    0.129360
  42 H :    0.132882
  43 H :    0.138912
  44 H :    0.142533
  45 H :    0.147496
  46 H :    0.150562
  47 H :    0.118158
  48 H :    0.147224
  49 H :    0.140314
  50 H :    0.138829
  51 H :    0.134834
  52 H :    0.135082
  53 H :    0.135630
  54 H :    0.136735
  55 H :    0.136244
  56 H :    0.135603
  57 H :    0.157786
  58 H :    0.160041
  59 H :    0.349735
  60 H :    0.154952
  61 H :    0.161328
  62 H :    0.127957
  63 H :    0.131381

  Mayer bond orders larger than 0.100000
B(  0-C ,  1-O ) :   0.9254 B(  0-C , 39-H ) :   0.9209 B(  0-C , 40-H ) :   0.9329
B(  0-C , 41-H ) :   0.9480 B(  1-O ,  2-C ) :   0.8921 B(  2-C ,  3-C ) :   0.9755
B(  2-C ,  4-C ) :   0.9564 B(  2-C , 35-C ) :   0.8902 B(  3-C , 42-H ) :   0.9308
B(  3-C , 43-H ) :   0.9275 B(  3-C , 44-H ) :   0.9378 B(  4-C ,  5-C ) :   1.4262
B(  4-C , 34-C ) :   1.4058 B(  5-C ,  6-C ) :   1.4175 B(  5-C , 45-H ) :   0.9136
B(  6-C ,  7-C ) :   1.4284 B(  6-C , 46-H ) :   0.9109 B(  7-C ,  8-C ) :   0.9793
B(  7-C , 33-C ) :   1.4344 B(  8-C ,  9-N ) :   0.9104 B(  8-C , 47-H ) :   0.9209
B(  8-C , 48-H ) :   0.9108 B(  9-N , 10-C ) :   0.8921 B(  9-N , 21-S ) :   0.8059
B( 10-C , 11-N ) :   1.2835 B( 10-C , 19-C ) :   1.4409 B( 11-N , 12-C ) :   1.4996
B( 12-C , 13-C ) :   1.2305 B( 12-C , 49-H ) :   0.9253 B( 13-C , 14-C ) :   1.2873
B( 13-C , 18-C ) :   1.2917 B( 14-C , 15-C ) :   1.5099 B( 14-C , 17-C ) :   0.1058
B( 14-C , 50-H ) :   0.9225 B( 15-C , 16-C ) :   1.3561 B( 15-C , 51-H ) :   0.9295
B( 16-C , 17-C ) :   1.5082 B( 16-C , 52-H ) :   0.9295 B( 17-C , 18-C ) :   1.2948
B( 17-C , 53-H ) :   0.9179 B( 18-C , 19-C ) :   1.2636 B( 19-C , 20-C ) :   0.9967
B( 20-C , 54-H ) :   0.9288 B( 20-C , 55-H ) :   0.9294 B( 20-C , 56-H ) :   0.9247
B( 21-S , 22-O ) :   1.6221 B( 21-S , 23-O ) :   1.6513 B( 21-S , 24-C ) :   0.8112
B( 24-C , 25-C ) :   1.3763 B( 24-C , 32-C ) :   1.4026 B( 25-C , 26-C ) :   1.4297
B( 25-C , 57-H ) :   0.9107 B( 26-C , 27-C ) :   1.3966 B( 26-C , 58-H ) :   0.9095
B( 27-C , 28-C ) :   1.0086 B( 27-C , 31-C ) :   1.3886 B( 28-C , 29-O ) :   1.8624
B( 28-C , 30-O ) :   1.0246 B( 30-O , 59-H ) :   0.7418 B( 31-C , 32-C ) :   1.4079
B( 31-C , 60-H ) :   0.9148 B( 32-C , 61-H ) :   0.9080 B( 33-C , 34-C ) :   1.4317
B( 33-C , 62-H ) :   0.9220 B( 34-C , 63-H ) :   0.9182 B( 35-C , 36-F ) :   0.9497
B( 35-C , 37-F ) :   0.9514 B( 35-C , 38-F ) :   0.9720

FINAL SINGLE POINT ENERGY     -2264.151200983214

DIPOLE MOMENT
-------------

Method             : SCF
Type of density    : Electron Density
Multiplicity       :   1
Irrep              :   0
Energy             : -2264.1512009832135845 Eh
Relativity type    :
Basis              : AO
                                X                 Y                 Z
Electronic contribution:      4.259689908       4.723993139      10.720620436
Nuclear contribution   :     -5.389467309      -5.012117037     -13.109313010
                        -----------------------------------------
Total Dipole Moment    :     -1.129777401      -0.288123899      -2.388692574
                        -----------------------------------------
Magnitude (a.u.)       :      2.658056540
Magnitude (Debye)      :      6.756242797

Rotational constants in cm-1:             0.005445             0.001503             0.001324
Rotational constants in MHz :           163.231351            45.046580            39.678453

                             ****ORCA TERMINATED NORMALLY****
TOTAL RUN TIME: 0 days 0 hours 8 minutes 47 seconds 422 msec
