                         Program Version 6.0.0  -   RELEASE  -
|  1> ! B3LYP 6-31G* SP
|  2>
|  3> * xyz 0 1
|  4> C -0.5936 -2.5441 -3.0343
|  5> N -0.7519 -1.5162 -2.0135
|  6> C -1.3004 -1.8101 -0.7221
|  7> O -1.5980 -3.0006 -0.4226
|  8> C -1.4954 -0.6955 0.2831
|  9> C -2.6347 -0.9809 1.2477
| 10> C -3.8529 -0.2813 1.1227
| 11> C -4.9059 -0.5318 2.0057
| 12> C -4.7624 -1.4853 3.0165
| 13> C -3.5623 -2.1879 3.1499
| 14> C -2.5022 -1.9400 2.2721
| 15> N -0.2553 -0.3582 1.0181
| 16> C 0.8292 -1.3319 1.2469
| 17> C 1.8995 -1.1848 0.1959
| 18> C 2.1486 -2.2226 -0.7187
| 19> C 3.1171 -2.0680 -1.7117
| 20> C 3.8495 -0.8815 -1.8006
| 21> C 3.6219 0.1633 -0.8828
| 22> O 4.3269 1.3759 -0.9328
| 23> C 5.3564 1.6689 -1.8745
| 24> C 2.6559 -0.0029 0.1177
| 25> C -0.1922 0.9106 1.6981
| 26> O -0.0214 0.9303 2.9476
| 27> C -0.3460 2.1873 0.9617
| 28> C -0.0344 2.2681 -0.4075
| 29> C -0.1812 3.4771 -1.0976
| 30> C -0.6365 4.6149 -0.4281
| 31> C -0.9388 4.5483 0.9346
| 32> C -0.7895 3.3441 1.6287
| 33> H 0.0185 -3.3820 -2.6401
| 34> H -0.0825 -2.1143 -3.9223
| 35> H -1.5894 -2.9243 -3.3420
| 36> H -0.4438 -0.5429 -2.2317
| 37> H -1.7823 0.1903 -0.3243
| 38> H -3.9875 0.4613 0.3451
| 39> H -5.8386 0.0129 1.9019
| 40> H -5.5784 -1.6758 3.7000
| 41> H -3.4513 -2.9253 3.9352
| 42> H -1.5859 -2.4989 2.3926
| 43> H 0.4295 -2.3667 1.2520
| 44> H 1.2828 -1.1829 2.2514
| 45> H 1.5879 -3.1486 -0.6700
| 46> H 3.2972 -2.8687 -2.4189
| 47> H 4.5897 -0.7862 -2.5816
| 48> H 4.9549 1.6160 -2.9084
| 49> H 6.1973 0.9538 -1.7522
| 50> H 5.7341 2.6953 -1.6931
| 51> H 2.4900 0.7988 0.8296
| 52> H 0.3331 1.4024 -0.9424
| 53> H 0.0546 3.5297 -2.1526
| 54> H -0.7562 5.5456 -0.9647
| 55> H -1.2893 5.4322 1.4529
| 56> H -1.0347 3.3133 2.6833
| 57> *
| 58>
| 59>                          ****END OF INPUT****

CARTESIAN COORDINATES (ANGSTROEM)
---------------------------------
  C     -0.593600   -2.544100   -3.034300
  N     -0.751900   -1.516200   -2.013500
  C     -1.300400   -1.810100   -0.722100
  O     -1.598000   -3.000600   -0.422600
  C     -1.495400   -0.695500    0.283100
  C     -2.634700   -0.980900    1.247700
  C     -3.852900   -0.281300    1.122700
  C     -4.905900   -0.531800    2.005700
  C     -4.762400   -1.485300    3.016500
  C     -3.562300   -2.187900    3.149900
  C     -2.502200   -1.940000    2.272100
  N     -0.255300   -0.358200    1.018100
  C      0.829200   -1.331900    1.246900
  C      1.899500   -1.184800    0.195900
  C      2.148600   -2.222600   -0.718700
  C      3.117100   -2.068000   -1.711700
  C      3.849500   -0.881500   -1.800600
  C      3.621900    0.163300   -0.882800
  O      4.326900    1.375900   -0.932800
  C      5.356400    1.668900   -1.874500
  C      2.655900   -0.002900    0.117700
  C     -0.192200    0.910600    1.698100
  O     -0.021400    0.930300    2.947600
  C     -0.346000    2.187300    0.961700
  C     -0.034400    2.268100   -0.407500
  C     -0.181200    3.477100   -1.097600
  C     -0.636500    4.614900   -0.428100
  C     -0.938800    4.548300    0.934600
  C     -0.789500    3.344100    1.628700
  H      0.018500   -3.382000   -2.640100
  H     -0.082500   -2.114300   -3.922300
  H     -1.589400   -2.924300   -3.342000
  H     -0.443800   -0.542900   -2.231700
  H     -1.782300    0.190300   -0.324300
  H     -3.987500    0.461300    0.345100
  H     -5.838600    0.012900    1.901900
  H     -5.578400   -1.675800    3.700000
  H     -3.451300   -2.925300    3.935200
  H     -1.585900   -2.498900    2.392600
  H      0.429500   -2.366700    1.252000
  H      1.282800   -1.182900    2.251400
  H      1.587900   -3.148600   -0.670000
  H      3.297200   -2.868700   -2.418900
  H      4.589700   -0.786200   -2.581600
  H      4.954900    1.616000   -2.908400
  H      6.197300    0.953800   -1.752200
  H      5.734100    2.695300   -1.693100
  H      2.490000    0.798800    0.829600
  H      0.333100    1.402400   -0.942400
  H      0.054600    3.529700   -2.152600
  H     -0.756200    5.545600   -0.964700
  H     -1.289300    5.432200    1.452900
  H     -1.034700    3.313300    2.683300

 Total Charge           Charge          ....    0
 Multiplicity           Mult            ....    1
 Number of Electrons    NEL             ....  206
 Basis Dimension        Dim             ....  454

ORBITAL ENERGIES
----------------

  NO   OCC          E(Eh)            E(eV)
   0   2.0000     -19.163876      -521.4756
   1   2.0000     -19.117185      -520.2051
   2   2.0000     -19.113159      -520.0955
   3   2.0000     -14.359877      -390.7521
   4   2.0000     -14.341719      -390.2580
   5   2.0000     -10.289843      -280.0009
   6   2.0000     -10.287320      -279.9322
   7   2.0000     -10.246376      -278.8181
   8   2.0000     -10.238131      -278.5937
   9   2.0000     -10.235274      -278.5160
  10   2.0000     -10.215058      -277.9658
  11   2.0000     -10.213003      -277.9099
  12   2.0000     -10.200466      -277.5688
  13   2.0000     -10.195981      -277.4467
  14   2.0000     -10.194497      -277.4064
  15   2.0000     -10.192501      -277.3521
  16   2.0000     -10.191865      -277.3347
  17   2.0000     -10.190544      -277.2988
  18   2.0000     -10.188697      -277.2486
  19   2.0000     -10.183334      -277.1026
  20   2.0000     -10.182638      -277.0837
  21   2.0000     -10.180395      -277.0226
  22   2.0000     -10.177712      -276.9496
  23   2.0000     -10.174571      -276.8642
  24   2.0000     -10.173647      -276.8390
  25   2.0000     -10.171567      -276.7824
  26   2.0000     -10.170389      -276.7504
  27   2.0000     -10.170196      -276.7451
  28   2.0000     -10.169478      -276.7256
  29   2.0000      -1.041255       -28.3340
  30   2.0000      -1.014697       -27.6113
  31   2.0000      -1.009400       -27.4672
  32   2.0000      -0.916957       -24.9517
  33   2.0000      -0.899582       -24.4789
  34   2.0000      -0.859599       -23.3909
  35   2.0000      -0.848964       -23.1015
  36   2.0000      -0.837216       -22.7818
  37   2.0000      -0.777889       -21.1674
  38   2.0000      -0.766821       -20.8663
  39   2.0000      -0.751964       -20.4620
  40   2.0000      -0.750809       -20.4306
  41   2.0000      -0.746694       -20.3186
  42   2.0000      -0.730668       -19.8825
  43   2.0000      -0.714349       -19.4384
  44   2.0000      -0.688709       -18.7407
  45   2.0000      -0.686195       -18.6723
  46   2.0000      -0.669217       -18.2103
  47   2.0000      -0.628244       -17.0954
  48   2.0000      -0.610561       -16.6142
  49   2.0000      -0.599156       -16.3039
  50   2.0000      -0.594091       -16.1660
  51   2.0000      -0.588336       -16.0094
  52   2.0000      -0.578456       -15.7406
  53   2.0000      -0.566202       -15.4071
  54   2.0000      -0.551318       -15.0021
  55   2.0000      -0.525043       -14.2871
  56   2.0000      -0.520168       -14.1545
  57   2.0000      -0.515471       -14.0267
  58   2.0000      -0.496431       -13.5086
  59   2.0000      -0.490731       -13.3535
  60   2.0000      -0.482556       -13.1310
  61   2.0000      -0.474436       -12.9101
  62   2.0000      -0.468024       -12.7356
  63   2.0000      -0.460218       -12.5232
  64   2.0000      -0.457811       -12.4577
  65   2.0000      -0.455418       -12.3925
  66   2.0000      -0.447252       -12.1703
  67   2.0000      -0.443355       -12.0643
  68   2.0000      -0.438873       -11.9424
  69   2.0000      -0.435422       -11.8484
  70   2.0000      -0.430452       -11.7132
  71   2.0000      -0.427169       -11.6239
  72   2.0000      -0.421813       -11.4781
  73   2.0000      -0.415163       -11.2972
  74   2.0000      -0.409394       -11.1402
  75   2.0000      -0.408386       -11.1128
  76   2.0000      -0.402004       -10.9391
  77   2.0000      -0.395245       -10.7552
  78   2.0000      -0.387050       -10.5322
  79   2.0000      -0.382225       -10.4009
  80   2.0000      -0.376965       -10.2577
  81   2.0000      -0.369160       -10.0453
  82   2.0000      -0.363746        -9.8980
  83   2.0000      -0.359883        -9.7929
  84   2.0000      -0.356733        -9.7072
  85   2.0000      -0.352408        -9.5895
  86   2.0000      -0.350065        -9.5258
  87   2.0000      -0.346200        -9.4206
  88   2.0000      -0.337164        -9.1747
  89   2.0000      -0.334651        -9.1063
  90   2.0000      -0.328986        -8.9522
  91   2.0000      -0.313818        -8.5394
  92   2.0000      -0.309105        -8.4112
  93   2.0000      -0.261528        -7.1165
  94   2.0000      -0.259027        -7.0485
  95   2.0000      -0.254149        -6.9157
  96   2.0000      -0.252566        -6.8727
  97   2.0000      -0.247510        -6.7351
  98   2.0000      -0.242314        -6.5937
  99   2.0000      -0.234343        -6.3768
 100   2.0000      -0.232998        -6.3402
 101   2.0000      -0.216775        -5.8988
 102   2.0000      -0.211981        -5.7683
 103   0.0000      -0.052867        -1.4386
 104   0.0000      -0.013481        -0.3668
 105   0.0000      -0.007742        -0.2107
 106   0.0000      -0.000519        -0.0141
 107   0.0000       0.011560         0.3146

MULLIKEN ATOMIC CHARGES
-----------------------
   0 C :   -0.278463
   1 N :   -0.585660
   2 C :    0.553423
   3 O :   -0.477562
   4 C :   -0.168850
   5 C :    0.187046
   6 C :   -0.181839
   7 C :   -0.125239
   8 C :   -0.122052
   9 C :   -0.131348
  10 C :   -0.128086
  11 N :   -0.425936
  12 C :   -0.271251
  13 C :    0.172839
  14 C :   -0.184628
  15 C :   -0.131045
  16 C :   -0.208556
  17 C :    0.366326
  18 O :   -0.512474
  19 C :   -0.193146
  20 C :   -0.235149
  21 C :    0.451360
  22 O :   -0.445417
  23 C :    0.088531
  24 C :   -0.171398
  25 C :   -0.132485
  26 C :   -0.114794
  27 C :   -0.132193
  28 C :   -0.146563
  29 H :    0.171996
  30 H :    0.147502
  31 H :    0.171091
  32 H :    0.334017
  33 H :    0.147636
  34 H :    0.121370
  35 H :    0.123240
  36 H :    0.124131
  37 H :    0.127932
  38 H :    0.138187
  39 H :    0.176868
  40 H :    0.187327
  41 H :    0.137989
  42 H :    0.128005
  43 H :    0.127191
  44 H :    0.141381
  45 H :    0.147912
  46 H :    0.169443
  47 H :    0.150255
  48 H :    0.143995
  49 H :    0.130367
  50 H :    0.135449
  51 H :    0.138230
  52 H :    0.163099
Sum of atomic charges:    0.0000000

LOEWDIN ATOMIC CHARGES
----------------------
   0 C :   -0.270001
   1 N :   -0.240380
   2 C :    0.138846
   3 O :   -0.283160
   4 C :   -0.067649
   5 C :   -0.016707
   6 C :   -0.136050
   7 C :   -0.132008
   8 C :   -0.128236
   9 C :   -0.127079
  10 C :   -0.102295
  11 N :   -0.121192
  12 C :   -0.151085
  13 C :   -0.024728
  14 C :   -0.151276
  15 C :   -0.126496
  16 C :   -0.181514
  17 C :    0.087168
  18 O :   -0.195854
  19 C :   -0.198600
  20 C :   -0.155001
  21 C :    0.146849
  22 O :   -0.246205
  23 C :   -0.055088
  24 C :   -0.118984
  25 C :   -0.132248
  26 C :   -0.113612
  27 C :   -0.127789
  28 C :   -0.090886
  29 H :    0.133360
  30 H :    0.129268
  31 H :    0.132785
  32 H :    0.250095
  33 H :    0.134267
  34 H :    0.127021
  35 H :    0.129139
  36 H :    0.129657
  37 H :    0.131519
  38 H :    0.137146
  39 H :    0.137954
  40 H :    0.149658
  41 H :    0.134366
  42 H :    0.131200
  43 H :    0.132875
  44 H :    0.113251
  45 H :    0.116868
  46 H :    0.135467
  47 H :    0.145463
  48 H :    0.135653
  49 H :    0.132480
  50 H :    0.134681
  51 H :    0.136126
  52 H :    0.150962

  Mayer bond orders larger than 0.100000
B(  0-C ,  1-N ) :   0.9449 B(  0-C , 29-H ) :   0.9325 B(  0-C , 30-H ) :   0.9473
B(  0-C , 31-H ) :   0.9386 B(  1-N ,  2-C ) :   1.0935 B(  1-N , 32-H ) :   0.8224
B(  2-C ,  3-O ) :   1.8120 B(  2-C ,  4-C ) :   0.9216 B(  4-C ,  5-C ) :   0.9444
B(  4-C , 11-N ) :   0.9686 B(  4-C , 33-H ) :   0.8985 B(  5-C ,  6-C ) :   1.4286
B(  5-C , 10-C ) :   1.4198 B(  6-C ,  7-C ) :   1.4355 B(  6-C , 34-H ) :   0.9234
B(  7-C ,  8-C ) :   1.4640 B(  7-C , 35-H ) :   0.9300 B(  8-C ,  9-C ) :   1.4422
B(  8-C , 36-H ) :   0.9308 B(  9-C , 10-C ) :   1.4499 B(  9-C , 37-H ) :   0.9300
B( 10-C , 38-H ) :   0.9186 B( 11-N , 12-C ) :   0.9385 B( 11-N , 21-C ) :   0.9900
B( 12-C , 13-C ) :   0.9404 B( 12-C , 39-H ) :   0.9151 B( 12-C , 40-H ) :   0.9134
B( 13-C , 14-C ) :   1.4335 B( 13-C , 20-C ) :   1.4181 B( 14-C , 15-C ) :   1.4369
B( 14-C , 41-H ) :   0.9163 B( 15-C , 16-C ) :   1.4419 B( 15-C , 42-H ) :   0.9295
B( 16-C , 17-C ) :   1.3656 B( 16-C , 43-H ) :   0.9199 B( 17-C , 18-O ) :   0.9162
B( 17-C , 20-C ) :   1.3895 B( 18-O , 19-C ) :   0.9220 B( 19-C , 44-H ) :   0.9311
B( 19-C , 45-H ) :   0.9310 B( 19-C , 46-H ) :   0.9450 B( 20-C , 47-H ) :   0.9078
B( 21-C , 22-O ) :   1.8438 B( 21-C , 23-C ) :   0.9837 B( 23-C , 24-C ) :   1.3883
B( 23-C , 28-C ) :   1.3951 B( 24-C , 25-C ) :   1.4317 B( 24-C , 48-H ) :   0.9061
B( 25-C , 26-C ) :   1.4518 B( 25-C , 49-H ) :   0.9303 B( 26-C , 27-C ) :   1.4377
B( 26-C , 50-H ) :   0.9296 B( 27-C , 28-C ) :   1.4371 B( 27-C , 51-H ) :   0.9293
B( 28-C , 52-H ) :   0.9145

FINAL SINGLE POINT ENERGY     -1263.362750267855

DIPOLE MOMENT
-------------

Method             : SCF
Type of density    : Electron Density
Multiplicity       :   1
Irrep              :   0
Energy             : -1263.3627502678552901 Eh
Relativity type    :
Basis              : AO
                                X                 Y                 Z
Electronic contribution:     -4.519300780       1.463833585      10.440282008
Nuclear contribution   :      5.123780237      -0.375975389     -12.540326506
                        -----------------------------------------
Total Dipole Moment    :      0.604479457       1.087858196      -2.100044498
                        -----------------------------------------
Magnitude (a.u.)       :      2.441109945
Magnitude (Debye)      :      6.204808375

Rotational constants in cm-1:             0.007325             0.004428             0.003373
Rotational constants in MHz :           219.608459           132.743245           101.114555

                             ****ORCA TERMINATED NORMALLY****
TOTAL RUN TIME: 0 days 0 hours 7 minutes 26 seconds 294 msec
