                         Program Version 6.0.0  -   RELEASE  -
|  1> ! B3LYP 6-31G* SP
|  2>
|  3> * xyz 0 1
|  4> C 4.4097 -0.4166 1.2969
|  5> S 4.1824 0.2230 -0.3908
|  6> C 2.4604 0.6320 -0.1252
|  7> C 1.3907 -0.2068 -0.3552
|  8> C 0.2864 0.5546 -0.0120
|  9> C -1.1336 0.1252 -0.0693
| 10> C -2.1717 1.0762 -0.0799
| 11> C -3.5079 0.6678 -0.1346
| 12> C -3.8255 -0.6921 -0.1797
| 13> Cl -5.5028 -1.2011 -0.2480
| 14> C -2.8044 -1.6457 -0.1715
| 15> C -1.4668 -1.2422 -0.1178
| 16> N 0.7118 1.7699 0.3943
| 17> N 2.0320 1.8236 0.3286
| 18> H 4.2042 0.3836 2.0386
| 19> H 3.7288 -1.2755 1.4737
| 20> H 5.4582 -0.7580 1.4172
| 21> H 1.4227 -1.2206 -0.7307
| 22> H -1.9581 2.1360 -0.0646
| 23> H -4.2955 1.4105 -0.1458
| 24> H -3.0454 -2.7007 -0.2042
| 25> H -0.6981 -2.0032 -0.0996
| 26> H 0.1223 2.5601 0.7356
| 27> *
| 28>
| 29>                          ****END OF INPUT****

CARTESIAN COORDINATES (ANGSTROEM)
---------------------------------
  C      4.409700   -0.416600    1.296900
  S      4.182400    0.223000   -0.390800
  C      2.460400    0.632000   -0.125200
  C      1.390700   -0.206800   -0.355200
  C      0.286400    0.554600   -0.012000
  C     -1.133600    0.125200   -0.069300
  C     -2.171700    1.076200   -0.079900
  C     -3.507900    0.667800   -0.134600
  C     -3.825500   -0.692100   -0.179700
  Cl    -5.502800   -1.201100   -0.248000
  C     -2.804400   -1.645700   -0.171500
  C     -1.466800   -1.242200   -0.117800
  N      0.711800    1.769900    0.394300
  N      2.032000    1.823600    0.328600
  H      4.204200    0.383600    2.038600
  H      3.728800   -1.275500    1.473700
  H      5.458200   -0.758000    1.417200
  H      1.422700   -1.220600   -0.730700
  H     -1.958100    2.136000   -0.064600
  H     -4.295500    1.410500   -0.145800
  H     -3.045400   -2.700700   -0.204200
  H     -0.698100   -2.003200   -0.099600
  H      0.122300    2.560100    0.735600

 Total Charge           Charge          ....    0
 Multiplicity           Mult            ....    1
 Number of Electrons    NEL             ....  116
 Basis Dimension        Dim             ....  222

ORBITAL ENERGIES
----------------

  NO   OCC          E(Eh)            E(eV)
   0   2.0000    -101.533281     -2762.8610
   1   2.0000     -88.854683     -2417.8588
   2   2.0000     -14.419467      -392.3736
   3   2.0000     -14.348320      -390.4376
   4   2.0000     -10.253916      -279.0232
   5   2.0000     -10.230092      -278.3750
   6   2.0000     -10.221602      -278.1439
   7   2.0000     -10.218356      -278.0556
   8   2.0000     -10.207770      -277.7676
   9   2.0000     -10.206975      -277.7459
  10   2.0000     -10.206119      -277.7226
  11   2.0000     -10.204828      -277.6875
  12   2.0000     -10.199179      -277.5338
  13   2.0000     -10.178503      -276.9712
  14   2.0000      -9.465184      -257.5607
  15   2.0000      -7.929743      -215.7793
  16   2.0000      -7.228213      -196.6897
  17   2.0000      -7.218788      -196.4332
  18   2.0000      -7.218469      -196.4245
  19   2.0000      -5.894251      -160.3907
  20   2.0000      -5.890775      -160.2961
  21   2.0000      -5.883487      -160.0978
  22   2.0000      -1.063452       -28.9380
  23   2.0000      -0.896722       -24.4010
  24   2.0000      -0.854381       -23.2489
  25   2.0000      -0.834477       -22.7073
  26   2.0000      -0.798252       -21.7215
  27   2.0000      -0.769170       -20.9302
  28   2.0000      -0.762859       -20.7584
  29   2.0000      -0.734187       -19.9783
  30   2.0000      -0.653973       -17.7955
  31   2.0000      -0.634169       -17.2566
  32   2.0000      -0.626213       -17.0401
  33   2.0000      -0.600911       -16.3516
  34   2.0000      -0.564533       -15.3617
  35   2.0000      -0.555260       -15.1094
  36   2.0000      -0.496408       -13.5079
  37   2.0000      -0.479899       -13.0587
  38   2.0000      -0.472309       -12.8522
  39   2.0000      -0.457616       -12.4524
  40   2.0000      -0.450098       -12.2478
  41   2.0000      -0.441545       -12.0151
  42   2.0000      -0.433870       -11.8062
  43   2.0000      -0.422436       -11.4951
  44   2.0000      -0.413388       -11.2489
  45   2.0000      -0.400767       -10.9054
  46   2.0000      -0.388476       -10.5710
  47   2.0000      -0.375372       -10.2144
  48   2.0000      -0.367199        -9.9920
  49   2.0000      -0.345495        -9.4014
  50   2.0000      -0.331022        -9.0076
  51   2.0000      -0.316866        -8.6224
  52   2.0000      -0.284169        -7.7326
  53   2.0000      -0.278157        -7.5690
  54   2.0000      -0.271466        -7.3870
  55   2.0000      -0.265076        -7.2131
  56   2.0000      -0.224492        -6.1087
  57   2.0000      -0.221947        -6.0395
  58   0.0000      -0.039476        -1.0742
  59   0.0000      -0.022737        -0.6187
  60   0.0000       0.017147         0.4666
  61   0.0000       0.024702         0.6722
  62   0.0000       0.043931         1.1954

MULLIKEN ATOMIC CHARGES
-----------------------
   0 C :   -0.576992
   1 S :    0.126014
   2 C :    0.016938
   3 C :   -0.232514
   4 C :    0.277317
   5 C :    0.136446
   6 C :   -0.172529
   7 C :   -0.135048
   8 C :   -0.062892
   9 Cl:   -0.014019
  10 C :   -0.136256
  11 C :   -0.162772
  12 N :   -0.463292
  13 N :   -0.226438
  14 H :    0.190406
  15 H :    0.174319
  16 H :    0.173067
  17 H :    0.150581
  18 H :    0.124902
  19 H :    0.155310
  20 H :    0.156777
  21 H :    0.145836
  22 H :    0.354839
Sum of atomic charges:    0.0000000

LOEWDIN ATOMIC CHARGES
----------------------
   0 C :   -0.457974
   1 S :    0.162483
   2 C :   -0.141873
   3 C :   -0.192426
   4 C :   -0.007982
   5 C :   -0.018660
   6 C :   -0.130903
   7 C :   -0.127540
   8 C :   -0.089486
   9 Cl:    0.039121
  10 C :   -0.126940
  11 C :   -0.115907
  12 N :   -0.051332
  13 N :   -0.139121
  14 H :    0.141311
  15 H :    0.132757
  16 H :    0.140906
  17 H :    0.146530
  18 H :    0.130021
  19 H :    0.146165
  20 H :    0.147008
  21 H :    0.141439
  22 H :    0.272403

  Mayer bond orders larger than 0.100000
B(  0-C ,  1-S ) :   0.9835 B(  0-C , 14-H ) :   0.9315 B(  0-C , 15-H ) :   0.9352
B(  0-C , 16-H ) :   0.9369 B(  1-S ,  2-C ) :   1.0271 B(  2-C ,  3-C ) :   1.3411
B(  2-C , 13-N ) :   1.4313 B(  3-C ,  4-C ) :   1.4647 B(  3-C , 17-H ) :   0.9259
B(  4-C ,  5-C ) :   1.0437 B(  4-C , 12-N ) :   1.0561 B(  5-C ,  6-C ) :   1.3758
B(  5-C , 11-C ) :   1.4000 B(  6-C ,  7-C ) :   1.4424 B(  6-C , 18-H ) :   0.9231
B(  7-C ,  8-C ) :   1.4159 B(  7-C , 19-H ) :   0.9222 B(  8-C ,  9-Cl) :   1.0166
B(  8-C , 10-C ) :   1.4078 B( 10-C , 11-C ) :   1.4408 B( 10-C , 20-H ) :   0.9223
B( 11-C , 21-H ) :   0.9179 B( 12-N , 13-N ) :   1.2266 B( 12-N , 22-H ) :   0.8172

FINAL SINGLE POINT ENERGY     -1353.894316643755

DIPOLE MOMENT
-------------

Method             : SCF
Type of density    : Electron Density
Multiplicity       :   1
Irrep              :   0
Energy             : -1353.8943166437554737 Eh
Relativity type    :
Basis              : AO
                                X                 Y                 Z
Electronic contribution:    -15.431131455      -0.366910383      -4.104653108
Nuclear contribution   :     14.877269755       0.259827276       4.687982995
                        -----------------------------------------
Total Dipole Moment    :     -0.553861700      -0.107083106       0.583329887
                        -----------------------------------------
Magnitude (a.u.)       :      0.811482182
Magnitude (Debye)      :      2.062623788

Rotational constants in cm-1:             0.070209             0.006237             0.005880
Rotational constants in MHz :          2104.803319           186.983015           176.271253

                             ****ORCA TERMINATED NORMALLY****
TOTAL RUN TIME: 0 days 0 hours 1 minutes 39 seconds 105 msec
