                         Program Version 6.0.0  -   RELEASE  -
|  1> ! B3LYP 6-31G* SP
|  2>
|  3> * xyz 0 1
|  4> F -2.4450 0.3548 2.4639
|  5> C -1.8366 -0.8515 2.1716
|  6> F -0.4643 -0.6788 2.1638
|  7> F -2.1464 -1.7513 3.1771
|  8> C -2.3078 -1.3421 0.8159
|  9> C -3.1435 -2.4740 0.7268
| 10> C -3.5837 -2.9403 -0.5139
| 11> C -3.2051 -2.2843 -1.6839
| 12> C -2.3912 -1.1537 -1.6184
| 13> C -1.9451 -0.6680 -0.3795
| 14> C -1.0972 0.5403 -0.3687
| 15> C -1.6850 1.7946 -0.0955
| 16> C -0.8564 2.9090 -0.0956
| 17> C -1.1027 4.2457 0.1278
| 18> N 0.0669 4.9186 -0.0013
| 19> N 1.0240 4.0452 -0.2963
| 20> C 0.4767 2.8217 -0.3559
| 21> C 1.0975 1.6094 -0.6391
| 22> C 0.2966 0.4392 -0.6439
| 23> O 0.8345 -0.8309 -0.9143
| 24> C 2.2238 -1.1437 -0.9946
| 25> C 2.8536 -1.1069 0.4039
| 26> C 3.9693 -0.0950 0.6275
| 27> C 4.3052 -1.5634 0.4379
| 28> H -3.4597 -3.0057 1.6148
| 29> H -4.2209 -3.8136 -0.5675
| 30> H -3.5471 -2.6498 -2.6436
| 31> H -2.1111 -0.6500 -2.5360
| 32> H -2.7445 1.8908 0.1079
| 33> H -2.0547 4.7017 0.3646
| 34> H 2.0264 4.2928 -0.4519
| 35> H 2.1542 1.5881 -0.8566
| 36> H 2.3135 -2.1786 -1.3868
| 37> H 2.7330 -0.4744 -1.7210
| 38> H 2.2649 -1.4189 1.2930
| 39> H 4.2591 0.5367 -0.2387
| 40> H 4.0688 0.2556 1.6763
| 41> H 4.6078 -2.0778 1.3745
| 42> H 4.7724 -1.7918 -0.5445
| 43> *
| 44>
| 45>                          ****END OF INPUT****

CARTESIAN COORDINATES (ANGSTROEM)
---------------------------------
  F     -2.445000    0.354800    2.463900
  C     -1.836600   -0.851500    2.171600
  F     -0.464300   -0.678800    2.163800
  F     -2.146400   -1.751300    3.177100
  C     -2.307800   -1.342100    0.815900
  C     -3.143500   -2.474000    0.726800
  C     -3.583700   -2.940300   -0.513900
  C     -3.205100   -2.284300   -1.683900
  C     -2.391200   -1.153700   -1.618400
  C     -1.945100   -0.668000   -0.379500
  C     -1.097200    0.540300   -0.368700
  C     -1.685000    1.794600   -0.095500
  C     -0.856400    2.909000   -0.095600
  C     -1.102700    4.245700    0.127800
  N      0.066900    4.918600   -0.001300
  N      1.024000    4.045200   -0.296300
  C      0.476700    2.821700   -0.355900
  C      1.097500    1.609400   -0.639100
  C      0.296600    0.439200   -0.643900
  O      0.834500   -0.830900   -0.914300
  C      2.223800   -1.143700   -0.994600
  C      2.853600   -1.106900    0.403900
  C      3.969300   -0.095000    0.627500
  C      4.305200   -1.563400    0.437900
  H     -3.459700   -3.005700    1.614800
  H     -4.220900   -3.813600   -0.567500
  H     -3.547100   -2.649800   -2.643600
  H     -2.111100   -0.650000   -2.536000
  H     -2.744500    1.890800    0.107900
  H     -2.054700    4.701700    0.364600
  H      2.026400    4.292800   -0.451900
  H      2.154200    1.588100   -0.856600
  H      2.313500   -2.178600   -1.386800
  H      2.733000   -0.474400   -1.721000
  H      2.264900   -1.418900    1.293000
  H      4.259100    0.536700   -0.238700
  H      4.068800    0.255600    1.676300
  H      4.607800   -2.077800    1.374500
  H      4.772400   -1.791800   -0.544500

 Total Charge           Charge          ....    0
 Multiplicity           Mult            ....    1
 Number of Electrons    NEL             ....  172
 Basis Dimension        Dim             ....  366

ORBITAL ENERGIES
----------------

  NO   OCC          E(Eh)            E(eV)
   0   2.0000     -24.714153      -672.5063
   1   2.0000     -24.708859      -672.3622
   2   2.0000     -24.708740      -672.3590
   3   2.0000     -19.161161      -521.4017
   4   2.0000     -14.396242      -391.7417
   5   2.0000     -14.341310      -390.2469
   6   2.0000     -10.426497      -283.7194
   7   2.0000     -10.248987      -278.8891
   8   2.0000     -10.242424      -278.7105
   9   2.0000     -10.207544      -277.7614
  10   2.0000     -10.205937      -277.7177
  11   2.0000     -10.202406      -277.6216
  12   2.0000     -10.193244      -277.3723
  13   2.0000     -10.191700      -277.3302
  14   2.0000     -10.189316      -277.2654
  15   2.0000     -10.188579      -277.2453
  16   2.0000     -10.188557      -277.2447
  17   2.0000     -10.187205      -277.2079
  18   2.0000     -10.186598      -277.1914
  19   2.0000     -10.186008      -277.1754
  20   2.0000     -10.184801      -277.1425
  21   2.0000     -10.184579      -277.1365
  22   2.0000     -10.179940      -277.0103
  23   2.0000     -10.163559      -276.5645
  24   2.0000      -1.271564       -34.6010
  25   2.0000      -1.197044       -32.5732
  26   2.0000      -1.194924       -32.5155
  27   2.0000      -1.048190       -28.5227
  28   2.0000      -1.039954       -28.2986
  29   2.0000      -0.869963       -23.6729
  30   2.0000      -0.856211       -23.2987
  31   2.0000      -0.846406       -23.0319
  32   2.0000      -0.816903       -22.2291
  33   2.0000      -0.784328       -21.3427
  34   2.0000      -0.771015       -20.9804
  35   2.0000      -0.746901       -20.3242
  36   2.0000      -0.725355       -19.7379
  37   2.0000      -0.699471       -19.0336
  38   2.0000      -0.685813       -18.6619
  39   2.0000      -0.639919       -17.4131
  40   2.0000      -0.614047       -16.7091
  41   2.0000      -0.612128       -16.6569
  42   2.0000      -0.607407       -16.5284
  43   2.0000      -0.589475       -16.0404
  44   2.0000      -0.583558       -15.8794
  45   2.0000      -0.571699       -15.5567
  46   2.0000      -0.561680       -15.2841
  47   2.0000      -0.558741       -15.2041
  48   2.0000      -0.547174       -14.8894
  49   2.0000      -0.544976       -14.8295
  50   2.0000      -0.510130       -13.8813
  51   2.0000      -0.500699       -13.6247
  52   2.0000      -0.478202       -13.0125
  53   2.0000      -0.474134       -12.9018
  54   2.0000      -0.466262       -12.6876
  55   2.0000      -0.460224       -12.5233
  56   2.0000      -0.457000       -12.4356
  57   2.0000      -0.447160       -12.1678
  58   2.0000      -0.444537       -12.0965
  59   2.0000      -0.443817       -12.0769
  60   2.0000      -0.441412       -12.0114
  61   2.0000      -0.436694       -11.8830
  62   2.0000      -0.434679       -11.8282
  63   2.0000      -0.421169       -11.4606
  64   2.0000      -0.410854       -11.1799
  65   2.0000      -0.405319       -11.0293
  66   2.0000      -0.399337       -10.8665
  67   2.0000      -0.396525       -10.7900
  68   2.0000      -0.389322       -10.5940
  69   2.0000      -0.386248       -10.5103
  70   2.0000      -0.372853       -10.1458
  71   2.0000      -0.366168        -9.9639
  72   2.0000      -0.357963        -9.7407
  73   2.0000      -0.355717        -9.6795
  74   2.0000      -0.346826        -9.4376
  75   2.0000      -0.342209        -9.3120
  76   2.0000      -0.319077        -8.6825
  77   2.0000      -0.307823        -8.3763
  78   2.0000      -0.287190        -7.8148
  79   2.0000      -0.279718        -7.6115
  80   2.0000      -0.271874        -7.3981
  81   2.0000      -0.269187        -7.3250
  82   2.0000      -0.256940        -6.9917
  83   2.0000      -0.249339        -6.7848
  84   2.0000      -0.221020        -6.0143
  85   2.0000      -0.198808        -5.4099
  86   0.0000      -0.021658        -0.5893
  87   0.0000      -0.017683        -0.4812
  88   0.0000      -0.003445        -0.0937
  89   0.0000       0.029900         0.8136
  90   0.0000       0.065805         1.7907

MULLIKEN ATOMIC CHARGES
-----------------------
   0 F :   -0.300903
   1 C :    0.922226
   2 F :   -0.302434
   3 F :   -0.307949
   4 C :   -0.043012
   5 C :   -0.182835
   6 C :   -0.118128
   7 C :   -0.123203
   8 C :   -0.138820
   9 C :    0.055861
  10 C :   -0.064962
  11 C :   -0.217843
  12 C :    0.092985
  13 C :   -0.054069
  14 N :   -0.236943
  15 N :   -0.517662
  16 C :    0.368834
  17 C :   -0.240692
  18 C :    0.338570
  19 O :   -0.525131
  20 C :   -0.028860
  21 C :   -0.109178
  22 C :   -0.305187
  23 C :   -0.320028
  24 H :    0.148944
  25 H :    0.133804
  26 H :    0.133749
  27 H :    0.141085
  28 H :    0.140617
  29 H :    0.145923
  30 H :    0.345424
  31 H :    0.122034
  32 H :    0.158320
  33 H :    0.128884
  34 H :    0.166440
  35 H :    0.141113
  36 H :    0.153888
  37 H :    0.153764
  38 H :    0.145375
Sum of atomic charges:   -0.0000000

LOEWDIN ATOMIC CHARGES
----------------------
   0 F :   -0.111901
   1 C :    0.313560
   2 F :   -0.110735
   3 F :   -0.113291
   4 C :   -0.067910
   5 C :   -0.117298
   6 C :   -0.131033
   7 C :   -0.116416
   8 C :   -0.114694
   9 C :    0.013738
  10 C :   -0.054805
  11 C :   -0.105481
  12 C :   -0.073510
  13 C :   -0.126577
  14 N :   -0.128200
  15 N :   -0.079230
  16 C :    0.003997
  17 C :   -0.194889
  18 C :    0.098969
  19 O :   -0.183297
  20 C :   -0.078324
  21 C :   -0.152651
  22 C :   -0.254979
  23 C :   -0.259354
  24 H :    0.141634
  25 H :    0.134666
  26 H :    0.134155
  27 H :    0.139692
  28 H :    0.141654
  29 H :    0.139856
  30 H :    0.270690
  31 H :    0.133659
  32 H :    0.130384
  33 H :    0.110478
  34 H :    0.144592
  35 H :    0.124834
  36 H :    0.134381
  37 H :    0.134965
  38 H :    0.128670

  Mayer bond orders larger than 0.100000
B(  0-F ,  1-C ) :   0.9562 B(  1-C ,  2-F ) :   0.9399 B(  1-C ,  3-F ) :   0.9406
B(  1-C ,  4-C ) :   0.9762 B(  4-C ,  5-C ) :   1.3906 B(  4-C ,  9-C ) :   1.4102
B(  5-C ,  6-C ) :   1.4349 B(  5-C , 24-H ) :   0.9198 B(  6-C ,  7-C ) :   1.4507
B(  6-C , 25-H ) :   0.9301 B(  7-C ,  8-C ) :   1.4279 B(  7-C , 26-H ) :   0.9285
B(  8-C ,  9-C ) :   1.4285 B(  8-C , 27-H ) :   0.9245 B(  9-C , 10-C ) :   0.9472
B( 10-C , 11-C ) :   1.4779 B( 10-C , 18-C ) :   1.2912 B( 11-C , 12-C ) :   1.2955
B( 11-C , 17-C ) :   0.1040 B( 11-C , 28-H ) :   0.9189 B( 12-C , 13-C ) :   1.2530
B( 12-C , 16-C ) :   1.3342 B( 13-C , 14-N ) :   1.5111 B( 13-C , 29-H ) :   0.9340
B( 14-N , 15-N ) :   1.2086 B( 15-N , 16-C ) :   0.9358 B( 15-N , 30-H ) :   0.8343
B( 16-C , 17-C ) :   1.3085 B( 17-C , 18-C ) :   1.3870 B( 17-C , 31-H ) :   0.9059
B( 18-C , 19-O ) :   0.9271 B( 19-O , 20-C ) :   0.9027 B( 20-C , 21-C ) :   0.9997
B( 20-C , 32-H ) :   0.9342 B( 20-C , 33-H ) :   0.9185 B( 21-C , 22-C ) :   0.9549
B( 21-C , 23-C ) :   0.9342 B( 21-C , 34-H ) :   0.9280 B( 22-C , 23-C ) :   0.9605
B( 22-C , 35-H ) :   0.9430 B( 22-C , 36-H ) :   0.9461 B( 23-C , 37-H ) :   0.9464
B( 23-C , 38-H ) :   0.9460

FINAL SINGLE POINT ENERGY     -1178.456210234142

DIPOLE MOMENT
-------------

Method             : SCF
Type of density    : Electron Density
Multiplicity       :   1
Irrep              :   0
Energy             : -1178.4562102341415084 Eh
Relativity type    :
Basis              : AO
                                X                 Y                 Z
Electronic contribution:    -19.505183623       3.529376476      14.016373538
Nuclear contribution   :     20.241963927      -4.338012806     -14.887963263
                        -----------------------------------------
Total Dipole Moment    :      0.736780304      -0.808636330      -0.871589725
                        -----------------------------------------
Magnitude (a.u.)       :      1.398716046
Magnitude (Debye)      :      3.555253650

Rotational constants in cm-1:             0.009210             0.006774             0.005262
Rotational constants in MHz :           276.095710           203.069336           157.743399

                             ****ORCA TERMINATED NORMALLY****
TOTAL RUN TIME: 0 days 0 hours 3 minutes 18 seconds 716 msec
