                         Program Version 6.0.0  -   RELEASE  -
|  1> ! B3LYP def2-TZVP SP
|  2>
|  3> * xyz 0 1
|  4> O 2.3361 0.3320 -2.1007
|  5> C 1.7197 0.2335 -1.0045
|  6> N 2.4514 0.1901 0.2353
|  7> C 3.8809 0.3129 0.3304
|  8> C 4.5967 1.2149 -0.4749
|  9> C 5.9844 1.3247 -0.3487
| 10> C 6.6793 0.5558 0.5924
| 11> O 8.0728 0.7091 0.6761
| 12> C 8.9223 0.0288 1.5960
| 13> F 10.2244 0.4404 1.3912
| 14> F 8.8498 -1.3373 1.3910
| 15> F 8.5573 0.3319 2.8948
| 16> C 5.9605 -0.3301 1.4168
| 17> C 4.5727 -0.4409 1.2898
| 18> N 0.2830 0.1465 -1.0139
| 19> C -0.4831 1.0726 -1.8561
| 20> C -1.7178 0.3773 -2.4361
| 21> C -2.5643 -0.2938 -1.3335
| 22> C -1.6732 -1.2875 -0.5499
| 23> C -0.4294 -0.6029 0.0283
| 24> C -3.7680 -1.0180 -1.9851
| 25> C -4.7696 -1.5479 -0.9373
| 26> O -5.9551 -1.9577 -1.5747
| 27> C -5.0537 -0.5330 0.1535
| 28> C -6.1549 -0.7013 1.0098
| 29> C -6.3997 0.2164 2.0336
| 30> C -5.5421 1.3016 2.2217
| 31> C -4.4295 1.4686 1.3918
| 32> Br -3.2505 2.9452 1.6850
| 33> C -4.1735 0.5474 0.3673
| 34> O -3.0475 0.7174 -0.4455
| 35> H 1.9328 -0.0106 1.1176
| 36> H 4.0852 1.8543 -1.1822
| 37> H 6.5232 2.0211 -0.9788
| 38> H 6.4594 -0.9346 2.1604
| 39> H 4.0344 -1.1263 1.9322
| 40> H 0.1358 1.4519 -2.6980
| 41> H -0.7944 1.9475 -1.2461
| 42> H -2.3294 1.1315 -2.9784
| 43> H -1.3845 -0.3860 -3.1743
| 44> H -2.2389 -1.7405 0.2913
| 45> H -1.3489 -2.1109 -1.2233
| 46> H -0.7217 0.0892 0.8470
| 47> H 0.2231 -1.3957 0.4527
| 48> H -3.4150 -1.8638 -2.6157
| 49> H -4.2981 -0.3033 -2.6554
| 50> H -4.3280 -2.4446 -0.4528
| 51> H -6.3993 -1.1444 -1.9317
| 52> H -6.8224 -1.5440 0.8866
| 53> H -7.2540 0.0844 2.6846
| 54> H -5.7385 2.0081 3.0172
| 55> *
| 56>
| 57>                          ****END OF INPUT****

CARTESIAN COORDINATES (ANGSTROEM)
---------------------------------
  O      2.336100    0.332000   -2.100700
  C      1.719700    0.233500   -1.004500
  N      2.451400    0.190100    0.235300
  C      3.880900    0.312900    0.330400
  C      4.596700    1.214900   -0.474900
  C      5.984400    1.324700   -0.348700
  C      6.679300    0.555800    0.592400
  O      8.072800    0.709100    0.676100
  C      8.922300    0.028800    1.596000
  F     10.224400    0.440400    1.391200
  F      8.849800   -1.337300    1.391000
  F      8.557300    0.331900    2.894800
  C      5.960500   -0.330100    1.416800
  C      4.572700   -0.440900    1.289800
  N      0.283000    0.146500   -1.013900
  C     -0.483100    1.072600   -1.856100
  C     -1.717800    0.377300   -2.436100
  C     -2.564300   -0.293800   -1.333500
  C     -1.673200   -1.287500   -0.549900
  C     -0.429400   -0.602900    0.028300
  C     -3.768000   -1.018000   -1.985100
  C     -4.769600   -1.547900   -0.937300
  O     -5.955100   -1.957700   -1.574700
  C     -5.053700   -0.533000    0.153500
  C     -6.154900   -0.701300    1.009800
  C     -6.399700    0.216400    2.033600
  C     -5.542100    1.301600    2.221700
  C     -4.429500    1.468600    1.391800
  Br    -3.250500    2.945200    1.685000
  C     -4.173500    0.547400    0.367300
  O     -3.047500    0.717400   -0.445500
  H      1.932800   -0.010600    1.117600
  H      4.085200    1.854300   -1.182200
  H      6.523200    2.021100   -0.978800
  H      6.459400   -0.934600    2.160400
  H      4.034400   -1.126300    1.932200
  H      0.135800    1.451900   -2.698000
  H     -0.794400    1.947500   -1.246100
  H     -2.329400    1.131500   -2.978400
  H     -1.384500   -0.386000   -3.174300
  H     -2.238900   -1.740500    0.291300
  H     -1.348900   -2.110900   -1.223300
  H     -0.721700    0.089200    0.847000
  H      0.223100   -1.395700    0.452700
  H     -3.415000   -1.863800   -2.615700
  H     -4.298100   -0.303300   -2.655400
  H     -4.328000   -2.444600   -0.452800
  H     -6.399300   -1.144400   -1.931700
  H     -6.822400   -1.544000    0.886600
  H     -7.254000    0.084400    2.684600
  H     -5.738500    2.008100    3.017200

 Total Charge           Charge          ....    0
 Multiplicity           Mult            ....    1
 Number of Electrons    NEL             ....  254
 Basis Dimension        Dim             .... 1098

ORBITAL ENERGIES
----------------

  NO   OCC          E(Eh)            E(eV)
   0   2.0000    -482.862412    -13139.3542
   1   2.0000     -62.509549     -1700.9713
   2   2.0000     -56.325161     -1532.6856
   3   2.0000     -56.322524     -1532.6138
   4   2.0000     -56.322493     -1532.6129
   5   2.0000     -24.735486      -673.0868
   6   2.0000     -24.733142      -673.0230
   7   2.0000     -24.732696      -673.0109
   8   2.0000     -19.198905      -522.4288
   9   2.0000     -19.167371      -521.5707
  10   2.0000     -19.143467      -520.9202
  11   2.0000     -19.089331      -519.4471
  12   2.0000     -14.363176      -390.8419
  13   2.0000     -14.341518      -390.2526
  14   2.0000     -10.499404      -285.7033
  15   2.0000     -10.311970      -280.6030
  16   2.0000     -10.262526      -279.2575
  17   2.0000     -10.259149      -279.1656
  18   2.0000     -10.257963      -279.1334
  19   2.0000     -10.247289      -278.8429
  20   2.0000     -10.240712      -278.6639
  21   2.0000     -10.229908      -278.3699
  22   2.0000     -10.224229      -278.2154
  23   2.0000     -10.212448      -277.8948
  24   2.0000     -10.199779      -277.5501
  25   2.0000     -10.197128      -277.4780
  26   2.0000     -10.195124      -277.4234
  27   2.0000     -10.191587      -277.3272
  28   2.0000     -10.191532      -277.3257
  29   2.0000     -10.190812      -277.3061
  30   2.0000     -10.190790      -277.3055
  31   2.0000     -10.188960      -277.2557
  32   2.0000     -10.188659      -277.2475
  33   2.0000     -10.187872      -277.2261
  34   2.0000     -10.185663      -277.1660
  35   2.0000      -8.700304      -236.7473
  36   2.0000      -6.529958      -177.6892
  37   2.0000      -6.518902      -177.3883
  38   2.0000      -6.518317      -177.3724
  39   2.0000      -2.644538       -71.9615
  40   2.0000      -2.641511       -71.8792
  41   2.0000      -2.641097       -71.8679
  42   2.0000      -2.631949       -71.6190
  43   2.0000      -2.631940       -71.6187
  44   2.0000      -1.315975       -35.8095
  45   2.0000      -1.237718       -33.6800
  46   2.0000      -1.237004       -33.6606
  47   2.0000      -1.088096       -29.6086
  48   2.0000      -1.074721       -29.2446
  49   2.0000      -1.042083       -28.3565
  50   2.0000      -1.027551       -27.9611
  51   2.0000      -0.932046       -25.3623
  52   2.0000      -0.924365       -25.1533
  53   2.0000      -0.881868       -23.9969
  54   2.0000      -0.857717       -23.3397
  55   2.0000      -0.830679       -22.6039
  56   2.0000      -0.812867       -22.1192
  57   2.0000      -0.785010       -21.3612
  58   2.0000      -0.777177       -21.1481
  59   2.0000      -0.770953       -20.9787
  60   2.0000      -0.760353       -20.6903
  61   2.0000      -0.741763       -20.1844
  62   2.0000      -0.735211       -20.0061
  63   2.0000      -0.711532       -19.3618
  64   2.0000      -0.674874       -18.3643
  65   2.0000      -0.657330       -17.8868
  66   2.0000      -0.652314       -17.7504
  67   2.0000      -0.647621       -17.6227
  68   2.0000      -0.633919       -17.2498
  69   2.0000      -0.618174       -16.8214
  70   2.0000      -0.612468       -16.6661
  71   2.0000      -0.610674       -16.6173
  72   2.0000      -0.605732       -16.4828
  73   2.0000      -0.589160       -16.0319
  74   2.0000      -0.576092       -15.6763
  75   2.0000      -0.567808       -15.4508
  76   2.0000      -0.551487       -15.0067
  77   2.0000      -0.531520       -14.4634
  78   2.0000      -0.524631       -14.2759
  79   2.0000      -0.508379       -13.8337
  80   2.0000      -0.502868       -13.6837
  81   2.0000      -0.495497       -13.4831
  82   2.0000      -0.491513       -13.3747
  83   2.0000      -0.486801       -13.2465
  84   2.0000      -0.483589       -13.1591
  85   2.0000      -0.482268       -13.1232
  86   2.0000      -0.476367       -12.9626
  87   2.0000      -0.471709       -12.8359
  88   2.0000      -0.466732       -12.7004
  89   2.0000      -0.461904       -12.5691
  90   2.0000      -0.460946       -12.5430
  91   2.0000      -0.458071       -12.4648
  92   2.0000      -0.452932       -12.3249
  93   2.0000      -0.447792       -12.1850
  94   2.0000      -0.439128       -11.9493
  95   2.0000      -0.434881       -11.8337
  96   2.0000      -0.433775       -11.8036
  97   2.0000      -0.428527       -11.6608
  98   2.0000      -0.425058       -11.5664
  99   2.0000      -0.419789       -11.4230
 100   2.0000      -0.417011       -11.3474
 101   2.0000      -0.411180       -11.1888
 102   2.0000      -0.410035       -11.1576
 103   2.0000      -0.407558       -11.0902
 104   2.0000      -0.395889       -10.7727
 105   2.0000      -0.391336       -10.6488
 106   2.0000      -0.386318       -10.5122
 107   2.0000      -0.382195       -10.4000
 108   2.0000      -0.377880       -10.2826
 109   2.0000      -0.373442       -10.1619
 110   2.0000      -0.364667        -9.9231
 111   2.0000      -0.361517        -9.8374
 112   2.0000      -0.358586        -9.7576
 113   2.0000      -0.357189        -9.7196
 114   2.0000      -0.353996        -9.6327
 115   2.0000      -0.326573        -8.8865
 116   2.0000      -0.321668        -8.7530
 117   2.0000      -0.319876        -8.7043
 118   2.0000      -0.297862        -8.1052
 119   2.0000      -0.293885        -7.9970
 120   2.0000      -0.288846        -7.8599
 121   2.0000      -0.274376        -7.4662
 122   2.0000      -0.262237        -7.1358
 123   2.0000      -0.255769        -6.9598
 124   2.0000      -0.241021        -6.5585
 125   2.0000      -0.236381        -6.4323
 126   2.0000      -0.227149        -6.1810
 127   0.0000      -0.039215        -1.0671
 128   0.0000      -0.026201        -0.7130
 129   0.0000      -0.024912        -0.6779
 130   0.0000      -0.021360        -0.5812
 131   0.0000      -0.012563        -0.3419

MULLIKEN ATOMIC CHARGES
-----------------------
   0 O :   -0.415149
   1 C :    0.322144
   2 N :   -0.346254
   3 C :    0.319184
   4 C :   -0.164806
   5 C :   -0.164061
   6 C :    0.269930
   7 O :   -0.266288
   8 C :    0.589495
   9 F :   -0.157600
  10 F :   -0.174814
  11 F :   -0.175377
  12 C :   -0.186176
  13 C :   -0.248287
  14 N :   -0.100169
  15 C :   -0.123056
  16 C :   -0.194031
  17 C :    0.323577
  18 C :   -0.233063
  19 C :   -0.204807
  20 C :   -0.169524
  21 C :    0.125727
  22 O :   -0.440521
  23 C :   -0.091801
  24 C :   -0.195096
  25 C :   -0.101217
  26 C :   -0.128613
  27 C :   -0.076647
  28 Br:   -0.071640
  29 C :    0.252086
  30 O :   -0.318840
  31 H :    0.230638
  32 H :    0.127255
  33 H :    0.121399
  34 H :    0.122538
  35 H :    0.111967
  36 H :    0.138845
  37 H :    0.105247
  38 H :    0.093735
  39 H :    0.100948
  40 H :    0.107152
  41 H :    0.098858
  42 H :    0.105977
  43 H :    0.117579
  44 H :    0.108180
  45 H :    0.084744
  46 H :    0.104316
  47 H :    0.299719
  48 H :    0.124786
  49 H :    0.113943
  50 H :    0.127865
Sum of atomic charges:    0.0000000

LOEWDIN ATOMIC CHARGES
----------------------
   0 O :    0.011993
   1 C :   -0.405580
   2 N :    0.124429
   3 C :   -0.181715
   4 C :   -0.088439
   5 C :   -0.104766
   6 C :   -0.210552
   7 O :    0.257147
   8 C :   -0.619520
   9 F :    0.165105
  10 F :    0.153800
  11 F :    0.154104
  12 C :   -0.123913
  13 C :   -0.117738
  14 N :    0.155713
  15 C :   -0.248118
  16 C :   -0.204964
  17 C :   -0.327396
  18 C :   -0.206324
  19 C :   -0.266789
  20 C :   -0.190626
  21 C :   -0.314777
  22 O :   -0.000649
  23 C :   -0.118087
  24 C :   -0.102698
  25 C :   -0.145215
  26 C :   -0.139688
  27 C :   -0.347939
  28 Br:    0.336337
  29 C :   -0.190409
  30 O :    0.283626
  31 H :    0.193896
  32 H :    0.155423
  33 H :    0.151395
  34 H :    0.146898
  35 H :    0.143441
  36 H :    0.149226
  37 H :    0.133519
  38 H :    0.146144
  39 H :    0.151069
  40 H :    0.146549
  41 H :    0.148499
  42 H :    0.128784
  43 H :    0.137199
  44 H :    0.148651
  45 H :    0.143763
  46 H :    0.154316
  47 H :    0.191754
  48 H :    0.151139
  49 H :    0.144141
  50 H :    0.147842

  Mayer bond orders larger than 0.100000
B(  0-O ,  1-C ) :   1.9260 B(  1-C ,  2-N ) :   1.1213 B(  1-C , 14-N ) :   1.1479
B(  2-N ,  3-C ) :   0.8451 B(  2-N , 31-H ) :   0.9058 B(  3-C ,  4-C ) :   1.4093
B(  3-C , 13-C ) :   1.3710 B(  4-C ,  5-C ) :   1.4202 B(  4-C , 32-H ) :   0.9553
B(  5-C ,  6-C ) :   1.3845 B(  5-C , 33-H ) :   0.9774 B(  6-C ,  7-O ) :   0.9649
B(  6-C , 12-C ) :   1.3594 B(  7-O ,  8-C ) :   1.1340 B(  8-C ,  9-F ) :   1.1579
B(  8-C , 10-F ) :   1.1024 B(  8-C , 11-F ) :   1.1018 B( 12-C , 13-C ) :   1.4372
B( 12-C , 34-H ) :   0.9494 B( 13-C , 35-H ) :   0.9582 B( 14-N , 15-C ) :   0.9254
B( 14-N , 19-C ) :   0.9738 B( 15-C , 16-C ) :   1.0384 B( 15-C , 36-H ) :   0.9521
B( 15-C , 37-H ) :   0.9441 B( 16-C , 17-C ) :   0.9497 B( 16-C , 38-H ) :   0.9549
B( 16-C , 39-H ) :   0.9493 B( 17-C , 18-C ) :   0.9751 B( 17-C , 20-C ) :   0.8978
B( 17-C , 30-O ) :   0.8189 B( 18-C , 19-C ) :   1.0427 B( 18-C , 40-H ) :   0.9563
B( 18-C , 41-H ) :   0.9390 B( 19-C , 42-H ) :   0.9367 B( 19-C , 43-H ) :   0.9548
B( 20-C , 21-C ) :   1.0045 B( 20-C , 44-H ) :   0.9685 B( 20-C , 45-H ) :   0.9528
B( 21-C , 22-O ) :   0.9758 B( 21-C , 23-C ) :   0.9871 B( 21-C , 46-H ) :   0.9424
B( 22-O , 47-H ) :   0.8819 B( 23-C , 24-C ) :   1.3518 B( 23-C , 29-C ) :   1.3187
B( 24-C , 25-C ) :   1.4030 B( 24-C , 48-H ) :   0.9666 B( 25-C , 26-C ) :   1.3866
B( 25-C , 49-H ) :   0.9757 B( 26-C , 27-C ) :   1.3466 B( 26-C , 50-H ) :   0.9678
B( 27-C , 28-Br) :   1.1340 B( 27-C , 29-C ) :   1.3002 B( 29-C , 30-O ) :   1.1150

FINAL SINGLE POINT ENERGY     -4096.023158140451

DIPOLE MOMENT
-------------

Method             : SCF
Type of density    : Electron Density
Multiplicity       :   1
Irrep              :   0
Energy             : -4096.0231581404505050 Eh
Relativity type    :
Basis              : AO
                                X                 Y                 Z
Electronic contribution:     18.910006017      33.841735931      31.376211965
Nuclear contribution   :    -20.894792096     -34.268616285     -30.750067584
                        -----------------------------------------
Total Dipole Moment    :     -1.984786079      -0.426880355       0.626144380
                        -----------------------------------------
Magnitude (a.u.)       :      2.124537456
Magnitude (Debye)      :      5.400145055

Rotational constants in cm-1:             0.008827             0.001186             0.001120
Rotational constants in MHz :           264.618551            35.562580            33.571578

                             ****ORCA TERMINATED NORMALLY****
TOTAL RUN TIME: 0 days 0 hours 19 minutes 14 seconds 457 msec
