                         Program Version 6.0.0  -   RELEASE  -
|  1> ! B3LYP 6-31G* SP
|  2>
|  3> * xyz 0 1
|  4> C 1.6552 2.2296 4.6173
|  5> O 2.2440 1.8962 3.3642
|  6> C 1.5251 1.6955 2.1737
|  7> C 0.1186 1.7905 2.1227
|  8> C -0.5714 1.5760 0.9195
|  9> C -2.0818 1.6854 0.8769
| 10> N -2.7067 0.5074 0.2458
| 11> C -3.8305 0.7058 -0.6497
| 12> O -4.8934 0.0503 -0.4767
| 13> C -3.7862 1.6667 -1.7746
| 14> C -4.8893 2.0831 -2.5169
| 15> C -4.5640 2.9592 -3.5619
| 16> C -3.2081 3.2311 -3.6591
| 17> S -2.4173 2.3759 -2.4480
| 18> C -2.3375 -0.8391 0.7554
| 19> C -3.5353 -1.6651 1.1655
| 20> N -4.3082 -1.2772 2.3018
| 21> O -3.8855 -2.6734 0.4928
| 22> C -1.4333 -1.5606 -0.2298
| 23> C -0.1833 -2.0529 0.1984
| 24> C 0.6692 -2.6957 -0.7023
| 25> C 0.2898 -2.8547 -2.0385
| 26> C -0.9503 -2.3814 -2.4725
| 27> C -1.8138 -1.7451 -1.5743
| 28> C 0.1599 1.2797 -0.2391
| 29> C 1.5502 1.1849 -0.1980
| 30> C 2.2443 1.3933 1.0066
| 31> O 3.6457 1.3184 1.0869
| 32> C 4.5209 0.9941 0.0050
| 33> C 4.4330 -0.4689 -0.3419
| 34> C 4.2236 -0.8796 -1.6695
| 35> C 4.1720 -2.2400 -1.9879
| 36> C 4.3393 -3.2024 -0.9858
| 37> F 4.2731 -4.5201 -1.2939
| 38> C 4.5549 -2.8015 0.3360
| 39> C 4.6052 -1.4410 0.6580
| 40> H 0.9664 1.4225 4.9429
| 41> H 2.4568 2.3395 5.3737
| 42> H 1.1066 3.1916 4.5391
| 43> H -0.4431 2.0247 3.0168
| 44> H -2.3507 2.6209 0.3459
| 45> H -2.4929 1.7848 1.9048
| 46> H -5.9030 1.7629 -2.3156
| 47> H -5.3012 3.3787 -4.2348
| 48> H -2.7417 3.8742 -4.3948
| 49> H -1.7649 -0.7075 1.7014
| 50> H -4.0363 -0.4459 2.8721
| 51> H -5.1709 -1.8090 2.5592
| 52> H 0.1382 -1.9296 1.2280
| 53> H 1.6233 -3.0761 -0.3592
| 54> H 0.9560 -3.3510 -2.7331
| 55> H -1.2445 -2.5081 -3.5049
| 56> H -2.7757 -1.4026 -1.9306
| 57> H -0.3430 1.0874 -1.1736
| 58> H 2.0733 0.9492 -1.1123
| 59> H 4.3016 1.6436 -0.8697
| 60> H 5.5617 1.2148 0.3198
| 61> H 4.1021 -0.1481 -2.4600
| 62> H 3.9969 -2.5498 -3.0099
| 63> H 4.6783 -3.5462 1.1133
| 64> H 4.7784 -1.1454 1.6859
| 65> *
| 66>
| 67>                          ****END OF INPUT****

CARTESIAN COORDINATES (ANGSTROEM)
---------------------------------
  C      1.655200    2.229600    4.617300
  O      2.244000    1.896200    3.364200
  C      1.525100    1.695500    2.173700
  C      0.118600    1.790500    2.122700
  C     -0.571400    1.576000    0.919500
  C     -2.081800    1.685400    0.876900
  N     -2.706700    0.507400    0.245800
  C     -3.830500    0.705800   -0.649700
  O     -4.893400    0.050300   -0.476700
  C     -3.786200    1.666700   -1.774600
  C     -4.889300    2.083100   -2.516900
  C     -4.564000    2.959200   -3.561900
  C     -3.208100    3.231100   -3.659100
  S     -2.417300    2.375900   -2.448000
  C     -2.337500   -0.839100    0.755400
  C     -3.535300   -1.665100    1.165500
  N     -4.308200   -1.277200    2.301800
  O     -3.885500   -2.673400    0.492800
  C     -1.433300   -1.560600   -0.229800
  C     -0.183300   -2.052900    0.198400
  C      0.669200   -2.695700   -0.702300
  C      0.289800   -2.854700   -2.038500
  C     -0.950300   -2.381400   -2.472500
  C     -1.813800   -1.745100   -1.574300
  C      0.159900    1.279700   -0.239100
  C      1.550200    1.184900   -0.198000
  C      2.244300    1.393300    1.006600
  O      3.645700    1.318400    1.086900
  C      4.520900    0.994100    0.005000
  C      4.433000   -0.468900   -0.341900
  C      4.223600   -0.879600   -1.669500
  C      4.172000   -2.240000   -1.987900
  C      4.339300   -3.202400   -0.985800
  F      4.273100   -4.520100   -1.293900
  C      4.554900   -2.801500    0.336000
  C      4.605200   -1.441000    0.658000
  H      0.966400    1.422500    4.942900
  H      2.456800    2.339500    5.373700
  H      1.106600    3.191600    4.539100
  H     -0.443100    2.024700    3.016800
  H     -2.350700    2.620900    0.345900
  H     -2.492900    1.784800    1.904800
  H     -5.903000    1.762900   -2.315600
  H     -5.301200    3.378700   -4.234800
  H     -2.741700    3.874200   -4.394800
  H     -1.764900   -0.707500    1.701400
  H     -4.036300   -0.445900    2.872100
  H     -5.170900   -1.809000    2.559200
  H      0.138200   -1.929600    1.228000
  H      1.623300   -3.076100   -0.359200
  H      0.956000   -3.351000   -2.733100
  H     -1.244500   -2.508100   -3.504900
  H     -2.775700   -1.402600   -1.930600
  H     -0.343000    1.087400   -1.173600
  H      2.073300    0.949200   -1.112300
  H      4.301600    1.643600   -0.869700
  H      5.561700    1.214800    0.319800
  H      4.102100   -0.148100   -2.460000
  H      3.996900   -2.549800   -3.009900
  H      4.678300   -3.546200    1.113300
  H      4.778400   -1.145400    1.685900

 Total Charge           Charge          ....    0
 Multiplicity           Mult            ....    1
 Number of Electrons    NEL             ....  264
 Basis Dimension        Dim             ....  558

ORBITAL ENERGIES
----------------

  NO   OCC          E(Eh)            E(eV)
   0   2.0000     -88.899401     -2419.0757
   1   2.0000     -24.699896      -672.1183
   2   2.0000     -19.162179      -521.4294
   3   2.0000     -19.161978      -521.4239
   4   2.0000     -19.116517      -520.1869
   5   2.0000     -19.090770      -519.4863
   6   2.0000     -14.353369      -390.5750
   7   2.0000     -14.337723      -390.1493
   8   2.0000     -10.298853      -280.2460
   9   2.0000     -10.276743      -279.6444
  10   2.0000     -10.271610      -279.5047
  11   2.0000     -10.247203      -278.8406
  12   2.0000     -10.245730      -278.8005
  13   2.0000     -10.245021      -278.7812
  14   2.0000     -10.237927      -278.5882
  15   2.0000     -10.232357      -278.4366
  16   2.0000     -10.227558      -278.3060
  17   2.0000     -10.218468      -278.0586
  18   2.0000     -10.217630      -278.0358
  19   2.0000     -10.196547      -277.4621
  20   2.0000     -10.195903      -277.4446
  21   2.0000     -10.194017      -277.3933
  22   2.0000     -10.193096      -277.3683
  23   2.0000     -10.192904      -277.3630
  24   2.0000     -10.192684      -277.3570
  25   2.0000     -10.191839      -277.3340
  26   2.0000     -10.187654      -277.2202
  27   2.0000     -10.185375      -277.1581
  28   2.0000     -10.180614      -277.0286
  29   2.0000     -10.180489      -277.0252
  30   2.0000     -10.173891      -276.8457
  31   2.0000     -10.169528      -276.7269
  32   2.0000     -10.167456      -276.6705
  33   2.0000     -10.167121      -276.6614
  34   2.0000     -10.166792      -276.6525
  35   2.0000     -10.165672      -276.6220
  36   2.0000      -7.976047      -217.0393
  37   2.0000      -5.938947      -161.6070
  38   2.0000      -5.934875      -161.4962
  39   2.0000      -5.933396      -161.4559
  40   2.0000      -1.213568       -33.0229
  41   2.0000      -1.048388       -28.5281
  42   2.0000      -1.032561       -28.0974
  43   2.0000      -1.016737       -27.6668
  44   2.0000      -0.988455       -26.8972
  45   2.0000      -0.921857       -25.0850
  46   2.0000      -0.900768       -24.5111
  47   2.0000      -0.863227       -23.4896
  48   2.0000      -0.861061       -23.4307
  49   2.0000      -0.848547       -23.0901
  50   2.0000      -0.835278       -22.7291
  51   2.0000      -0.784173       -21.3384
  52   2.0000      -0.770370       -20.9628
  53   2.0000      -0.758215       -20.6321
  54   2.0000      -0.755834       -20.5673
  55   2.0000      -0.748962       -20.3803
  56   2.0000      -0.743040       -20.2191
  57   2.0000      -0.741475       -20.1766
  58   2.0000      -0.726934       -19.7809
  59   2.0000      -0.704110       -19.1598
  60   2.0000      -0.694682       -18.9033
  61   2.0000      -0.689479       -18.7617
  62   2.0000      -0.661305       -17.9950
  63   2.0000      -0.625232       -17.0134
  64   2.0000      -0.616898       -16.7866
  65   2.0000      -0.609821       -16.5941
  66   2.0000      -0.596518       -16.2321
  67   2.0000      -0.590378       -16.0650
  68   2.0000      -0.588949       -16.0261
  69   2.0000      -0.574426       -15.6309
  70   2.0000      -0.571681       -15.5562
  71   2.0000      -0.553519       -15.0620
  72   2.0000      -0.542284       -14.7563
  73   2.0000      -0.532430       -14.4882
  74   2.0000      -0.529095       -14.3974
  75   2.0000      -0.520333       -14.1590
  76   2.0000      -0.509355       -13.8603
  77   2.0000      -0.503416       -13.6987
  78   2.0000      -0.497272       -13.5315
  79   2.0000      -0.494059       -13.4440
  80   2.0000      -0.484872       -13.1940
  81   2.0000      -0.480063       -13.0632
  82   2.0000      -0.477407       -12.9909
  83   2.0000      -0.464728       -12.6459
  84   2.0000      -0.460198       -12.5226
  85   2.0000      -0.457845       -12.4586
  86   2.0000      -0.455072       -12.3831
  87   2.0000      -0.450308       -12.2535
  88   2.0000      -0.448945       -12.2164
  89   2.0000      -0.447376       -12.1737
  90   2.0000      -0.442327       -12.0363
  91   2.0000      -0.437250       -11.8982
  92   2.0000      -0.430480       -11.7140
  93   2.0000      -0.426500       -11.6057
  94   2.0000      -0.420503       -11.4425
  95   2.0000      -0.414203       -11.2710
  96   2.0000      -0.412182       -11.2161
  97   2.0000      -0.407217       -11.0809
  98   2.0000      -0.403234       -10.9725
  99   2.0000      -0.401875       -10.9356
 100   2.0000      -0.397895       -10.8273
 101   2.0000      -0.395342       -10.7578
 102   2.0000      -0.393411       -10.7053
 103   2.0000      -0.388763       -10.5788
 104   2.0000      -0.379463       -10.3257
 105   2.0000      -0.373363       -10.1597
 106   2.0000      -0.372783       -10.1439
 107   2.0000      -0.364806        -9.9269
 108   2.0000      -0.357194        -9.7198
 109   2.0000      -0.352735        -9.5984
 110   2.0000      -0.350923        -9.5491
 111   2.0000      -0.346500        -9.4287
 112   2.0000      -0.341592        -9.2952
 113   2.0000      -0.337645        -9.1878
 114   2.0000      -0.331770        -9.0279
 115   2.0000      -0.324641        -8.8339
 116   2.0000      -0.318736        -8.6732
 117   2.0000      -0.315064        -8.5733
 118   2.0000      -0.306583        -8.3425
 119   2.0000      -0.304073        -8.2743
 120   2.0000      -0.260503        -7.0886
 121   2.0000      -0.259269        -7.0551
 122   2.0000      -0.254567        -6.9271
 123   2.0000      -0.246212        -6.6998
 124   2.0000      -0.242006        -6.5853
 125   2.0000      -0.240769        -6.5517
 126   2.0000      -0.239061        -6.5052
 127   2.0000      -0.237091        -6.4516
 128   2.0000      -0.233679        -6.3587
 129   2.0000      -0.227436        -6.1889
 130   2.0000      -0.213924        -5.8212
 131   2.0000      -0.201062        -5.4712
 132   0.0000      -0.054886        -1.4935
 133   0.0000      -0.014199        -0.3864
 134   0.0000      -0.007742        -0.2107
 135   0.0000      -0.000564        -0.0153
 136   0.0000       0.005555         0.1512

MULLIKEN ATOMIC CHARGES
-----------------------
   0 C :   -0.190771
   1 O :   -0.505183
   2 C :    0.328175
   3 C :   -0.276935
   4 C :    0.146352
   5 C :   -0.242095
   6 N :   -0.434435
   7 C :    0.516145
   8 O :   -0.443562
   9 C :   -0.219455
  10 C :   -0.088156
  11 C :   -0.113304
  12 C :   -0.344751
  13 S :    0.298831
  14 C :   -0.182495
  15 C :    0.601716
  16 N :   -0.762435
  17 O :   -0.467921
  18 C :    0.201100
  19 C :   -0.169966
  20 C :   -0.125562
  21 C :   -0.129529
  22 C :   -0.136647
  23 C :   -0.156856
  24 C :   -0.167227
  25 C :   -0.190054
  26 C :    0.325476
  27 O :   -0.513773
  28 C :   -0.105247
  29 C :    0.118796
  30 C :   -0.158245
  31 C :   -0.204625
  32 C :    0.410279
  33 F :   -0.318964
  34 C :   -0.211846
  35 C :   -0.143496
  36 H :    0.140957
  37 H :    0.170258
  38 H :    0.143810
  39 H :    0.124727
  40 H :    0.179726
  41 H :    0.135625
  42 H :    0.166768
  43 H :    0.145636
  44 H :    0.184912
  45 H :    0.157866
  46 H :    0.320117
  47 H :    0.349627
  48 H :    0.123292
  49 H :    0.131592
  50 H :    0.119921
  51 H :    0.124919
  52 H :    0.151186
  53 H :    0.157301
  54 H :    0.139323
  55 H :    0.138209
  56 H :    0.168235
  57 H :    0.134998
  58 H :    0.145782
  59 H :    0.148140
  60 H :    0.153739
Sum of atomic charges:    0.0000000

LOEWDIN ATOMIC CHARGES
----------------------
   0 C :   -0.197809
   1 O :   -0.189264
   2 C :    0.071369
   3 C :   -0.179428
   4 C :   -0.050315
   5 C :   -0.144778
   6 N :   -0.119615
   7 C :    0.140581
   8 O :   -0.244428
   9 C :   -0.236500
  10 C :   -0.122086
  11 C :   -0.161983
  12 C :   -0.302119
  13 S :    0.411539
  14 C :   -0.060518
  15 C :    0.142377
  16 N :   -0.401400
  17 O :   -0.276738
  18 C :   -0.006586
  19 C :   -0.126405
  20 C :   -0.131079
  21 C :   -0.131573
  22 C :   -0.132283
  23 C :   -0.115611
  24 C :   -0.131192
  25 C :   -0.157576
  26 C :    0.072696
  27 O :   -0.179820
  28 C :   -0.081314
  29 C :   -0.048002
  30 C :   -0.124379
  31 C :   -0.155961
  32 C :    0.113686
  33 F :   -0.102507
  34 C :   -0.157347
  35 C :   -0.110481
  36 H :    0.112840
  37 H :    0.135933
  38 H :    0.114401
  39 H :    0.132572
  40 H :    0.144668
  41 H :    0.111588
  42 H :    0.154140
  43 H :    0.139755
  44 H :    0.161623
  45 H :    0.143405
  46 H :    0.242901
  47 H :    0.265086
  48 H :    0.128591
  49 H :    0.133966
  50 H :    0.127467
  51 H :    0.130026
  52 H :    0.142054
  53 H :    0.143584
  54 H :    0.140729
  55 H :    0.115493
  56 H :    0.139512
  57 H :    0.134146
  58 H :    0.143400
  59 H :    0.144438
  60 H :    0.144530

  Mayer bond orders larger than 0.100000
B(  0-C ,  1-O ) :   0.9246 B(  0-C , 36-H ) :   0.9304 B(  0-C , 37-H ) :   0.9451
B(  0-C , 38-H ) :   0.9301 B(  1-O ,  2-C ) :   0.9246 B(  2-C ,  3-C ) :   1.3703
B(  2-C , 26-C ) :   1.3286 B(  3-C ,  4-C ) :   1.4025 B(  3-C , 39-H ) :   0.9106
B(  4-C ,  5-C ) :   0.9531 B(  4-C , 24-C ) :   1.4314 B(  5-C ,  6-N ) :   0.9465
B(  5-C , 40-H ) :   0.9108 B(  5-C , 41-H ) :   0.9249 B(  6-N ,  7-C ) :   0.9878
B(  6-N , 14-C ) :   0.9376 B(  7-C ,  8-O ) :   1.8276 B(  7-C ,  9-C ) :   1.0045
B(  9-C , 10-C ) :   1.4937 B(  9-C , 12-C ) :   0.1348 B(  9-C , 13-S ) :   1.1108
B( 10-C , 11-C ) :   1.3714 B( 10-C , 42-H ) :   0.9193 B( 11-C , 12-C ) :   1.5481
B( 11-C , 43-H ) :   0.9273 B( 12-C , 13-S ) :   1.1749 B( 12-C , 44-H ) :   0.9158
B( 14-C , 15-C ) :   0.9096 B( 14-C , 18-C ) :   0.9452 B( 14-C , 45-H ) :   0.9053
B( 15-C , 16-N ) :   1.0595 B( 15-C , 17-O ) :   1.8643 B( 16-N , 46-H ) :   0.8368
B( 16-N , 47-H ) :   0.8249 B( 18-C , 19-C ) :   1.4280 B( 18-C , 23-C ) :   1.4239
B( 19-C , 20-C ) :   1.4404 B( 19-C , 48-H ) :   0.9223 B( 20-C , 21-C ) :   1.4602
B( 20-C , 49-H ) :   0.9180 B( 21-C , 22-C ) :   1.4426 B( 21-C , 50-H ) :   0.9305
B( 22-C , 23-C ) :   1.4433 B( 22-C , 51-H ) :   0.9306 B( 23-C , 52-H ) :   0.9123
B( 24-C , 25-C ) :   1.4257 B( 24-C , 53-H ) :   0.8998 B( 25-C , 26-C ) :   1.3822
B( 25-C , 54-H ) :   0.9124 B( 26-C , 27-O ) :   0.9068 B( 27-O , 28-C ) :   0.9136
B( 28-C , 29-C ) :   0.9626 B( 28-C , 55-H ) :   0.9199 B( 28-C , 56-H ) :   0.9255
B( 29-C , 30-C ) :   1.4323 B( 29-C , 35-C ) :   1.4242 B( 30-C , 31-C ) :   1.4177
B( 30-C , 57-H ) :   0.9225 B( 31-C , 32-C ) :   1.3949 B( 31-C , 58-H ) :   0.9199
B( 32-C , 33-F ) :   0.9145 B( 32-C , 34-C ) :   1.3797 B( 34-C , 35-C ) :   1.4247
B( 34-C , 59-H ) :   0.9206 B( 35-C , 60-H ) :   0.9208

FINAL SINGLE POINT ENERGY     -1989.366982854664

DIPOLE MOMENT
-------------

Method             : SCF
Type of density    : Electron Density
Multiplicity       :   1
Irrep              :   0
Energy             : -1989.3669828546635472 Eh
Relativity type    :
Basis              : AO
                                X                 Y                 Z
Electronic contribution:     -0.173775779      -7.800806995      -9.045823187
Nuclear contribution   :      1.109780637      10.056512099       9.543679202
                        -----------------------------------------
Total Dipole Moment    :      0.936004858       2.255705103       0.497856015
                        -----------------------------------------
Magnitude (a.u.)       :      2.492422761
Magnitude (Debye)      :      6.335235189

Rotational constants in cm-1:             0.004658             0.002369             0.002162
Rotational constants in MHz :           139.636571            71.009582            64.809660

                             ****ORCA TERMINATED NORMALLY****
TOTAL RUN TIME: 0 days 0 hours 11 minutes 14 seconds 452 msec
