                         Program Version 6.0.0  -   RELEASE  -
|  1> ! B3LYP 6-31G* SP
|  2>
|  3> * xyz 0 1
|  4> C -3.1503 2.1359 0.3951
|  5> C -3.5226 0.7369 0.8742
|  6> N -3.6756 -0.1713 -0.2613
|  7> N -4.8479 -0.4731 -0.7917
|  8> N -4.6565 -1.2417 -1.8518
|  9> N -3.3597 -1.4424 -2.0353
| 10> C -2.7457 -0.7698 -1.0421
| 11> C -1.2714 -0.7200 -0.8952
| 12> S -0.3900 -0.1500 0.4220
| 13> C 1.1119 -0.5072 -0.2523
| 14> C 2.4281 -0.2595 0.3795
| 15> C 2.5198 0.3293 1.6550
| 16> C 3.7688 0.5584 2.2406
| 17> C 4.9371 0.2040 1.5628
| 18> C 4.8595 -0.3807 0.2967
| 19> F 5.9944 -0.7244 -0.3607
| 20> C 3.6127 -0.6121 -0.2937
| 21> N 0.9626 -1.0660 -1.4745
| 22> C -0.3454 -1.1874 -1.8302
| 23> O -0.7168 -1.7406 -3.0516
| 24> H -2.1974 2.1145 -0.1728
| 25> H -3.9516 2.5374 -0.2608
| 26> H -3.0309 2.8099 1.2692
| 27> H -2.7711 0.3485 1.5888
| 28> H -4.4846 0.7973 1.4283
| 29> H 1.6310 0.6141 2.2025
| 30> H 3.8305 1.0116 3.2216
| 31> H 5.9020 0.3830 2.0195
| 32> H 3.5756 -1.0665 -1.2759
| 33> H -0.0166 -2.0682 -3.7059
| 34> *
| 35>
| 36>                          ****END OF INPUT****

CARTESIAN COORDINATES (ANGSTROEM)
---------------------------------
  C     -3.150300    2.135900    0.395100
  C     -3.522600    0.736900    0.874200
  N     -3.675600   -0.171300   -0.261300
  N     -4.847900   -0.473100   -0.791700
  N     -4.656500   -1.241700   -1.851800
  N     -3.359700   -1.442400   -2.035300
  C     -2.745700   -0.769800   -1.042100
  C     -1.271400   -0.720000   -0.895200
  S     -0.390000   -0.150000    0.422000
  C      1.111900   -0.507200   -0.252300
  C      2.428100   -0.259500    0.379500
  C      2.519800    0.329300    1.655000
  C      3.768800    0.558400    2.240600
  C      4.937100    0.204000    1.562800
  C      4.859500   -0.380700    0.296700
  F      5.994400   -0.724400   -0.360700
  C      3.612700   -0.612100   -0.293700
  N      0.962600   -1.066000   -1.474500
  C     -0.345400   -1.187400   -1.830200
  O     -0.716800   -1.740600   -3.051600
  H     -2.197400    2.114500   -0.172800
  H     -3.951600    2.537400   -0.260800
  H     -3.030900    2.809900    1.269200
  H     -2.771100    0.348500    1.588800
  H     -4.484600    0.797300    1.428300
  H      1.631000    0.614100    2.202500
  H      3.830500    1.011600    3.221600
  H      5.902000    0.383000    2.019500
  H      3.575600   -1.066500   -1.275900
  H     -0.016600   -2.068200   -3.705900

 Total Charge           Charge          ....    0
 Multiplicity           Mult            ....    1
 Number of Electrons    NEL             ....  150
 Basis Dimension        Dim             ....  304

ORBITAL ENERGIES
----------------

  NO   OCC          E(Eh)            E(eV)
   0   2.0000     -88.921381     -2419.6738
   1   2.0000     -24.709576      -672.3817
   2   2.0000     -19.179439      -521.8991
   3   2.0000     -14.436057      -392.8251
   4   2.0000     -14.382423      -391.3656
   5   2.0000     -14.374760      -391.1571
   6   2.0000     -14.348449      -390.4411
   7   2.0000     -14.345037      -390.3483
   8   2.0000     -10.297102      -280.1984
   9   2.0000     -10.284167      -279.8464
  10   2.0000     -10.273481      -279.5556
  11   2.0000     -10.271422      -279.4996
  12   2.0000     -10.255909      -279.0775
  13   2.0000     -10.240152      -278.6487
  14   2.0000     -10.230295      -278.3805
  15   2.0000     -10.209290      -277.8089
  16   2.0000     -10.207601      -277.7629
  17   2.0000     -10.205342      -277.7015
  18   2.0000     -10.205320      -277.7009
  19   2.0000     -10.199905      -277.5535
  20   2.0000      -7.998357      -217.6464
  21   2.0000      -5.961332      -162.2161
  22   2.0000      -5.957439      -162.1102
  23   2.0000      -5.955309      -162.0522
  24   2.0000      -1.222732       -33.2722
  25   2.0000      -1.131355       -30.7857
  26   2.0000      -1.050686       -28.5906
  27   2.0000      -0.975983       -26.5578
  28   2.0000      -0.960495       -26.1364
  29   2.0000      -0.879713       -23.9382
  30   2.0000      -0.874532       -23.7972
  31   2.0000      -0.825731       -22.4693
  32   2.0000      -0.800488       -21.7824
  33   2.0000      -0.792826       -21.5739
  34   2.0000      -0.764270       -20.7969
  35   2.0000      -0.741300       -20.1718
  36   2.0000      -0.684867       -18.6362
  37   2.0000      -0.664993       -18.0954
  38   2.0000      -0.657730       -17.8977
  39   2.0000      -0.635444       -17.2913
  40   2.0000      -0.617791       -16.8110
  41   2.0000      -0.595745       -16.2111
  42   2.0000      -0.584620       -15.9083
  43   2.0000      -0.545996       -14.8573
  44   2.0000      -0.541081       -14.7236
  45   2.0000      -0.530536       -14.4366
  46   2.0000      -0.511563       -13.9203
  47   2.0000      -0.504520       -13.7287
  48   2.0000      -0.493315       -13.4238
  49   2.0000      -0.482874       -13.1397
  50   2.0000      -0.474879       -12.9221
  51   2.0000      -0.465978       -12.6799
  52   2.0000      -0.453891       -12.3510
  53   2.0000      -0.449600       -12.2342
  54   2.0000      -0.446120       -12.1396
  55   2.0000      -0.419510       -11.4155
  56   2.0000      -0.407599       -11.0913
  57   2.0000      -0.404023       -10.9940
  58   2.0000      -0.401603       -10.9282
  59   2.0000      -0.386643       -10.5211
  60   2.0000      -0.386150       -10.5077
  61   2.0000      -0.380275       -10.3478
  62   2.0000      -0.373584       -10.1657
  63   2.0000      -0.360706        -9.8153
  64   2.0000      -0.357138        -9.7182
  65   2.0000      -0.351168        -9.5558
  66   2.0000      -0.324093        -8.8190
  67   2.0000      -0.311224        -8.4688
  68   2.0000      -0.294413        -8.0114
  69   2.0000      -0.285739        -7.7753
  70   2.0000      -0.281116        -7.6495
  71   2.0000      -0.275080        -7.4853
  72   2.0000      -0.265494        -7.2245
  73   2.0000      -0.260692        -7.0938
  74   2.0000      -0.217555        -5.9200
  75   0.0000      -0.076563        -2.0834
  76   0.0000      -0.019723        -0.5367
  77   0.0000      -0.010365        -0.2820
  78   0.0000       0.007697         0.2095
  79   0.0000       0.014641         0.3984

MULLIKEN ATOMIC CHARGES
-----------------------
   0 C :   -0.448508
   1 C :   -0.177714
   2 N :   -0.287949
   3 N :   -0.085032
   4 N :   -0.089282
   5 N :   -0.300147
   6 C :    0.468016
   7 C :   -0.228958
   8 S :    0.271811
   9 C :   -0.026413
  10 C :    0.159009
  11 C :   -0.197815
  12 C :   -0.121052
  13 C :   -0.199368
  14 C :    0.420904
  15 F :   -0.313801
  16 C :   -0.243840
  17 N :   -0.420684
  18 C :    0.497211
  19 O :   -0.619498
  20 H :    0.172257
  21 H :    0.179373
  22 H :    0.159118
  23 H :    0.187798
  24 H :    0.197151
  25 H :    0.146388
  26 H :    0.147091
  27 H :    0.151758
  28 H :    0.174544
  29 H :    0.427633
Sum of atomic charges:   -0.0000000

LOEWDIN ATOMIC CHARGES
----------------------
   0 C :   -0.364530
   1 C :   -0.158155
   2 N :    0.055021
   3 N :   -0.101327
   4 N :   -0.072711
   5 N :   -0.119947
   6 C :    0.014209
   7 C :   -0.253666
   8 S :    0.391554
   9 C :   -0.115536
  10 C :   -0.021250
  11 C :   -0.134415
  12 C :   -0.116442
  13 C :   -0.148848
  14 C :    0.121470
  15 F :   -0.099178
  16 C :   -0.135069
  17 N :   -0.176597
  18 C :    0.103138
  19 O :   -0.313095
  20 H :    0.135573
  21 H :    0.142404
  22 H :    0.136442
  23 H :    0.142302
  24 H :    0.155108
  25 H :    0.139352
  26 H :    0.141097
  27 H :    0.146744
  28 H :    0.159835
  29 H :    0.346517

  Mayer bond orders larger than 0.100000
B(  0-C ,  1-C ) :   1.0013 B(  0-C , 20-H ) :   0.9370 B(  0-C , 21-H ) :   0.9417
B(  0-C , 22-H ) :   0.9420 B(  1-C ,  2-N ) :   0.9107 B(  1-C , 23-H ) :   0.9126
B(  1-C , 24-H ) :   0.9223 B(  2-N ,  3-N ) :   1.2069 B(  2-N ,  6-C ) :   1.0849
B(  3-N ,  4-N ) :   1.4506 B(  4-N ,  5-N ) :   1.3243 B(  5-N ,  6-C ) :   1.3879
B(  6-C ,  7-C ) :   1.0508 B(  7-C ,  8-S ) :   1.0723 B(  7-C ,  9-C ) :   0.1231
B(  7-C , 18-C ) :   1.4179 B(  8-S ,  9-C ) :   1.1379 B(  9-C , 10-C ) :   1.0273
B(  9-C , 17-N ) :   1.4485 B( 10-C , 11-C ) :   1.3913 B( 10-C , 16-C ) :   1.3736
B( 11-C , 12-C ) :   1.4479 B( 11-C , 25-H ) :   0.9164 B( 12-C , 13-C ) :   1.4273
B( 12-C , 26-H ) :   0.9278 B( 13-C , 14-C ) :   1.3846 B( 13-C , 27-H ) :   0.9197
B( 14-C , 15-F ) :   0.9141 B( 14-C , 16-C ) :   1.3739 B( 16-C , 28-H ) :   0.9036
B( 17-N , 18-C ) :   1.2839 B( 18-C , 19-O ) :   1.0176 B( 19-O , 29-H ) :   0.7527

FINAL SINGLE POINT ENERGY     -1309.650307955757

DIPOLE MOMENT
-------------

Method             : SCF
Type of density    : Electron Density
Multiplicity       :   1
Irrep              :   0
Energy             : -1309.6503079557573983 Eh
Relativity type    :
Basis              : AO
                                X                 Y                 Z
Electronic contribution:      9.089651612      -9.424725675      -6.922639224
Nuclear contribution   :     -7.545913936      10.729198975       8.738789027
                        -----------------------------------------
Total Dipole Moment    :      1.543737676       1.304473300       1.816149803
                        -----------------------------------------
Magnitude (a.u.)       :      2.717200160
Magnitude (Debye)      :      6.906573933

Rotational constants in cm-1:             0.026167             0.004954             0.004264
Rotational constants in MHz :           784.462486           148.523557           127.825330

                             ****ORCA TERMINATED NORMALLY****
TOTAL RUN TIME: 0 days 0 hours 2 minutes 24 seconds 616 msec
