                         Program Version 6.0.0  -   RELEASE  -
|  1> ! B3LYP 6-31G* SP
|  2>
|  3> * xyz 0 1
|  4> O -2.1814 0.0020 -2.8774
|  5> C -1.7841 -0.1352 -1.6892
|  6> C -0.3384 -0.2243 -1.4065
|  7> S 0.3891 0.3216 0.0103
|  8> C 1.9536 -0.0382 -0.5034
|  9> C 3.1938 0.1849 0.2748
| 10> C 4.4437 -0.1564 -0.2746
| 11> C 5.6187 0.0510 0.4543
| 12> C 5.5604 0.6000 1.7368
| 13> C 4.3262 0.9431 2.2939
| 14> F 4.2710 1.4760 3.5394
| 15> C 3.1476 0.7377 1.5690
| 16> N 1.9385 -0.5677 -1.7484
| 17> C 0.6805 -0.6743 -2.2544
| 18> O 0.4692 -1.2203 -3.5191
| 19> N -2.7422 -0.1337 -0.6171
| 20> C -3.9764 0.6432 -0.7530
| 21> C -4.5138 1.0016 0.6366
| 22> O -4.6333 -0.1541 1.4453
| 23> C -3.3526 -0.7082 1.6831
| 24> C -2.7285 -1.2101 0.3781
| 25> H 4.5143 -0.5835 -1.2671
| 26> H 6.5756 -0.2145 0.0237
| 27> H 6.4721 0.7592 2.2982
| 28> H 2.2045 1.0117 2.0233
| 29> H -0.4549 -1.3872 -3.8935
| 30> H -3.7839 1.5811 -1.3189
| 31> H -4.7322 0.0412 -1.3026
| 32> H -5.5191 1.4588 0.5224
| 33> H -3.8611 1.7637 1.1209
| 34> H -2.6799 0.0301 2.1768
| 35> H -3.4622 -1.5666 2.3789
| 36> H -3.3191 -2.0693 -0.0074
| 37> H -1.6958 -1.5633 0.5793
| 38> *
| 39>
| 40>                          ****END OF INPUT****

CARTESIAN COORDINATES (ANGSTROEM)
---------------------------------
  O     -2.181400    0.002000   -2.877400
  C     -1.784100   -0.135200   -1.689200
  C     -0.338400   -0.224300   -1.406500
  S      0.389100    0.321600    0.010300
  C      1.953600   -0.038200   -0.503400
  C      3.193800    0.184900    0.274800
  C      4.443700   -0.156400   -0.274600
  C      5.618700    0.051000    0.454300
  C      5.560400    0.600000    1.736800
  C      4.326200    0.943100    2.293900
  F      4.271000    1.476000    3.539400
  C      3.147600    0.737700    1.569000
  N      1.938500   -0.567700   -1.748400
  C      0.680500   -0.674300   -2.254400
  O      0.469200   -1.220300   -3.519100
  N     -2.742200   -0.133700   -0.617100
  C     -3.976400    0.643200   -0.753000
  C     -4.513800    1.001600    0.636600
  O     -4.633300   -0.154100    1.445300
  C     -3.352600   -0.708200    1.683100
  C     -2.728500   -1.210100    0.378100
  H      4.514300   -0.583500   -1.267100
  H      6.575600   -0.214500    0.023700
  H      6.472100    0.759200    2.298200
  H      2.204500    1.011700    2.023300
  H     -0.454900   -1.387200   -3.893500
  H     -3.783900    1.581100   -1.318900
  H     -4.732200    0.041200   -1.302600
  H     -5.519100    1.458800    0.522400
  H     -3.861100    1.763700    1.120900
  H     -2.679900    0.030100    2.176800
  H     -3.462200   -1.566600    2.378900
  H     -3.319100   -2.069300   -0.007400
  H     -1.695800   -1.563300    0.579300

 Total Charge           Charge          ....    0
 Multiplicity           Mult            ....    1
 Number of Electrons    NEL             ....  160
 Basis Dimension        Dim             ....  324

ORBITAL ENERGIES
----------------

  NO   OCC          E(Eh)            E(eV)
   0   2.0000     -88.909167     -2419.3414
   1   2.0000     -24.707723      -672.3313
   2   2.0000     -19.175271      -521.7857
   3   2.0000     -19.153874      -521.2034
   4   2.0000     -19.126212      -520.4507
   5   2.0000     -14.356908      -390.6713
   6   2.0000     -14.343775      -390.3140
   7   2.0000     -10.304712      -280.4055
   8   2.0000     -10.297158      -280.1999
   9   2.0000     -10.281000      -279.7602
  10   2.0000     -10.270066      -279.4627
  11   2.0000     -10.236972      -278.5622
  12   2.0000     -10.236104      -278.5385
  13   2.0000     -10.225922      -278.2615
  14   2.0000     -10.225462      -278.2490
  15   2.0000     -10.221664      -278.1456
  16   2.0000     -10.219604      -278.0896
  17   2.0000     -10.205810      -277.7142
  18   2.0000     -10.203537      -277.6524
  19   2.0000     -10.201600      -277.5997
  20   2.0000     -10.198403      -277.5127
  21   2.0000      -7.986364      -217.3200
  22   2.0000      -5.949223      -161.8866
  23   2.0000      -5.945319      -161.7804
  24   2.0000      -5.943493      -161.7307
  25   2.0000      -1.221029       -33.2259
  26   2.0000      -1.049447       -28.5569
  27   2.0000      -1.045876       -28.4597
  28   2.0000      -1.022825       -27.8325
  29   2.0000      -0.970068       -26.3969
  30   2.0000      -0.923622       -25.1330
  31   2.0000      -0.873538       -23.7702
  32   2.0000      -0.824937       -22.4477
  33   2.0000      -0.793502       -21.5923
  34   2.0000      -0.782695       -21.2982
  35   2.0000      -0.759342       -20.6627
  36   2.0000      -0.739820       -20.1315
  37   2.0000      -0.713775       -19.4228
  38   2.0000      -0.666494       -18.1362
  39   2.0000      -0.654074       -17.7982
  40   2.0000      -0.634227       -17.2582
  41   2.0000      -0.622714       -16.9449
  42   2.0000      -0.601523       -16.3683
  43   2.0000      -0.581017       -15.8103
  44   2.0000      -0.563254       -15.3269
  45   2.0000      -0.536526       -14.5996
  46   2.0000      -0.533737       -14.5237
  47   2.0000      -0.508704       -13.8425
  48   2.0000      -0.504084       -13.7168
  49   2.0000      -0.489270       -13.3137
  50   2.0000      -0.479382       -13.0446
  51   2.0000      -0.475145       -12.9294
  52   2.0000      -0.473799       -12.8927
  53   2.0000      -0.464117       -12.6293
  54   2.0000      -0.461256       -12.5514
  55   2.0000      -0.451069       -12.2742
  56   2.0000      -0.445765       -12.1299
  57   2.0000      -0.444937       -12.1074
  58   2.0000      -0.439814       -11.9679
  59   2.0000      -0.419154       -11.4058
  60   2.0000      -0.412521       -11.2253
  61   2.0000      -0.403498       -10.9797
  62   2.0000      -0.400804       -10.9064
  63   2.0000      -0.383759       -10.4426
  64   2.0000      -0.381833       -10.3902
  65   2.0000      -0.380683       -10.3589
  66   2.0000      -0.370944       -10.0939
  67   2.0000      -0.360560        -9.8113
  68   2.0000      -0.358490        -9.7550
  69   2.0000      -0.350518        -9.5381
  70   2.0000      -0.343190        -9.3387
  71   2.0000      -0.318911        -8.6780
  72   2.0000      -0.296205        -8.0602
  73   2.0000      -0.285087        -7.7576
  74   2.0000      -0.273550        -7.4437
  75   2.0000      -0.271583        -7.3902
  76   2.0000      -0.265387        -7.2216
  77   2.0000      -0.255135        -6.9426
  78   2.0000      -0.230043        -6.2598
  79   2.0000      -0.223061        -6.0698
  80   0.0000      -0.076326        -2.0769
  81   0.0000      -0.019146        -0.5210
  82   0.0000      -0.012215        -0.3324
  83   0.0000       0.024202         0.6586
  84   0.0000       0.032259         0.8778

MULLIKEN ATOMIC CHARGES
-----------------------
   0 O :   -0.476094
   1 C :    0.493487
   2 C :   -0.272047
   3 S :    0.274130
   4 C :   -0.011305
   5 C :    0.156349
   6 C :   -0.160087
   7 C :   -0.116674
   8 C :   -0.199341
   9 C :    0.412608
  10 F :   -0.315269
  11 C :   -0.279316
  12 N :   -0.401937
  13 C :    0.514745
  14 O :   -0.639643
  15 N :   -0.444122
  16 C :   -0.120018
  17 C :   -0.040114
  18 O :   -0.455866
  19 C :   -0.032740
  20 C :   -0.147465
  21 H :    0.172229
  22 H :    0.149149
  23 H :    0.150857
  24 H :    0.159021
  25 H :    0.442993
  26 H :    0.163321
  27 H :    0.151980
  28 H :    0.151474
  29 H :    0.127503
  30 H :    0.130825
  31 H :    0.147797
  32 H :    0.152650
  33 H :    0.160920
Sum of atomic charges:    0.0000000

LOEWDIN ATOMIC CHARGES
----------------------
   0 O :   -0.280883
   1 C :    0.134254
   2 C :   -0.289553
   3 S :    0.398235
   4 C :   -0.107395
   5 C :   -0.022301
   6 C :   -0.111214
   7 C :   -0.115720
   8 C :   -0.148012
   9 C :    0.119510
  10 F :   -0.101216
  11 C :   -0.152972
  12 N :   -0.158444
  13 C :    0.117451
  14 O :   -0.326150
  15 N :   -0.129669
  16 C :   -0.159399
  17 C :   -0.101645
  18 O :   -0.232774
  19 C :   -0.102303
  20 C :   -0.167131
  21 H :    0.154570
  22 H :    0.142096
  23 H :    0.146300
  24 H :    0.149489
  25 H :    0.352035
  26 H :    0.141253
  27 H :    0.122363
  28 H :    0.129462
  29 H :    0.107128
  30 H :    0.108132
  31 H :    0.127234
  32 H :    0.119808
  33 H :    0.137462

  Mayer bond orders larger than 0.100000
B(  0-O ,  1-C ) :   1.7992 B(  1-C ,  2-C ) :   0.9944 B(  1-C , 15-N ) :   1.0447
B(  2-C ,  3-S ) :   1.0627 B(  2-C ,  4-C ) :   0.1162 B(  2-C , 13-C ) :   1.3705
B(  3-S ,  4-C ) :   1.1567 B(  4-C ,  5-C ) :   1.0244 B(  4-C , 12-N ) :   1.4316
B(  5-C ,  6-C ) :   1.4093 B(  5-C , 11-C ) :   1.3565 B(  6-C ,  7-C ) :   1.4330
B(  6-C , 21-H ) :   0.9094 B(  7-C ,  8-C ) :   1.4231 B(  7-C , 22-H ) :   0.9281
B(  8-C ,  9-C ) :   1.3870 B(  8-C , 23-H ) :   0.9198 B(  9-C , 10-F ) :   0.9151
B(  9-C , 11-C ) :   1.3930 B( 11-C , 24-H ) :   0.9070 B( 12-N , 13-C ) :   1.3189
B( 13-C , 14-O ) :   1.0377 B( 14-O , 25-H ) :   0.7251 B( 15-N , 16-C ) :   0.9421
B( 15-N , 20-C ) :   0.9505 B( 16-C , 17-C ) :   0.9744 B( 16-C , 26-H ) :   0.9268
B( 16-C , 27-H ) :   0.9211 B( 17-C , 18-O ) :   0.9486 B( 17-C , 28-H ) :   0.9367
B( 17-C , 29-H ) :   0.9170 B( 18-O , 19-C ) :   0.9541 B( 19-C , 20-C ) :   0.9776
B( 19-C , 30-H ) :   0.9169 B( 19-C , 31-H ) :   0.9365 B( 20-C , 32-H ) :   0.9204
B( 20-C , 33-H ) :   0.9174

FINAL SINGLE POINT ENERGY     -1373.863686251687

DIPOLE MOMENT
-------------

Method             : SCF
Type of density    : Electron Density
Multiplicity       :   1
Irrep              :   0
Energy             : -1373.8636862516866586 Eh
Relativity type    :
Basis              : AO
                                X                 Y                 Z
Electronic contribution:     17.661931549       2.654862008       0.553297081
Nuclear contribution   :    -17.526406891      -2.753959597       0.335173370
                        -----------------------------------------
Total Dipole Moment    :      0.135524658      -0.099097589       0.888470451
                        -----------------------------------------
Magnitude (a.u.)       :      0.904194120
Magnitude (Debye)      :      2.298278807

Rotational constants in cm-1:             0.016258             0.004772             0.003846
Rotational constants in MHz :           487.411300           143.059584           115.307378

                             ****ORCA TERMINATED NORMALLY****
TOTAL RUN TIME: 0 days 0 hours 2 minutes 10 seconds 352 msec
