                         Program Version 6.0.0  -   RELEASE  -
|  1> ! B3LYP 6-31G* SP
|  2>
|  3> * xyz 0 1
|  4> C 7.0614 0.4389 0.3655
|  5> O 5.6747 0.3776 0.6317
|  6> C 4.8351 1.2374 -0.1506
|  7> C 3.4034 0.9171 0.3441
|  8> C 2.4288 1.8979 0.6519
|  9> C 1.1401 1.5321 1.0491
| 10> C 0.7811 0.1835 1.1467
| 11> C -0.6240 -0.2120 1.5120
| 12> N -1.3139 -0.8125 0.3652
| 13> C -2.2337 -1.8881 0.5974
| 14> N -3.2462 -1.6967 1.4839
| 15> C -4.1833 -2.6419 1.7352
| 16> C -4.1463 -3.8638 1.0598
| 17> C -5.1318 -4.8340 1.2984
| 18> C -5.0989 -6.0502 0.6158
| 19> C -4.0879 -6.3053 -0.3102
| 20> C -3.0986 -5.3493 -0.5561
| 21> C -3.1057 -4.1143 0.1302
| 22> C -2.1116 -3.1233 -0.0833
| 23> C -0.9420 -3.3796 -1.0075
| 24> S -1.4183 0.0563 -1.1423
| 25> O -0.1126 -0.0721 -1.8764
| 26> O -2.5116 -0.5215 -1.9974
| 27> C -1.7876 1.7501 -0.8372
| 28> C -0.9817 2.7653 -1.3683
| 29> C -1.2750 4.1065 -1.1059
| 30> C -2.3816 4.4518 -0.3108
| 31> C -2.6902 5.8725 -0.0364
| 32> O -3.6815 6.1846 0.6777
| 33> O -1.8889 6.8799 -0.5673
| 34> C -3.1890 3.4271 0.2157
| 35> C -2.8935 2.0869 -0.0487
| 36> C 1.7324 -0.7995 0.8566
| 37> C 3.0214 -0.4391 0.4604
| 38> C 4.8786 0.8808 -1.6774
| 39> F 3.7245 1.3172 -2.3094
| 40> F 5.9480 1.4779 -2.3229
| 41> F 4.9770 -0.4890 -1.8515
| 42> C 5.2092 2.7478 0.0643
| 43> F 5.0606 3.0897 1.3976
| 44> F 6.5142 3.0203 -0.3036
| 45> F 4.4084 3.5681 -0.7128
| 46> H 7.5214 -0.5022 0.7302
| 47> H 7.3121 0.5085 -0.7084
| 48> H 7.5299 1.2612 0.9440
| 49> H 2.6336 2.9538 0.6046
| 50> H 0.4176 2.3078 1.2713
| 51> H -1.2059 0.6621 1.8750
| 52> H -0.5730 -0.9400 2.3518
| 53> H -4.9664 -2.4290 2.4526
| 54> H -5.9279 -4.6504 2.0102
| 55> H -5.8616 -6.7952 0.8020
| 56> H -4.0714 -7.2478 -0.8424
| 57> H -2.3427 -5.5859 -1.2919
| 58> H -0.4669 -4.3523 -0.7616
| 59> H -0.1454 -2.6173 -0.9069
| 60> H -1.2930 -3.3902 -2.0603
| 61> H -0.1216 2.5230 -1.9788
| 62> H -0.6342 4.8717 -1.5251
| 63> H -2.0929 7.8559 -0.3877
| 64> H -4.0486 3.6604 0.8317
| 65> H -3.5229 1.3102 0.3668
| 66> H 1.4714 -1.8485 0.9251
| 67> H 3.7251 -1.2306 0.2382
| 68> *
| 69>
| 70>                          ****END OF INPUT****

CARTESIAN COORDINATES (ANGSTROEM)
---------------------------------
  C      7.061400    0.438900    0.365500
  O      5.674700    0.377600    0.631700
  C      4.835100    1.237400   -0.150600
  C      3.403400    0.917100    0.344100
  C      2.428800    1.897900    0.651900
  C      1.140100    1.532100    1.049100
  C      0.781100    0.183500    1.146700
  C     -0.624000   -0.212000    1.512000
  N     -1.313900   -0.812500    0.365200
  C     -2.233700   -1.888100    0.597400
  N     -3.246200   -1.696700    1.483900
  C     -4.183300   -2.641900    1.735200
  C     -4.146300   -3.863800    1.059800
  C     -5.131800   -4.834000    1.298400
  C     -5.098900   -6.050200    0.615800
  C     -4.087900   -6.305300   -0.310200
  C     -3.098600   -5.349300   -0.556100
  C     -3.105700   -4.114300    0.130200
  C     -2.111600   -3.123300   -0.083300
  C     -0.942000   -3.379600   -1.007500
  S     -1.418300    0.056300   -1.142300
  O     -0.112600   -0.072100   -1.876400
  O     -2.511600   -0.521500   -1.997400
  C     -1.787600    1.750100   -0.837200
  C     -0.981700    2.765300   -1.368300
  C     -1.275000    4.106500   -1.105900
  C     -2.381600    4.451800   -0.310800
  C     -2.690200    5.872500   -0.036400
  O     -3.681500    6.184600    0.677700
  O     -1.888900    6.879900   -0.567300
  C     -3.189000    3.427100    0.215700
  C     -2.893500    2.086900   -0.048700
  C      1.732400   -0.799500    0.856600
  C      3.021400   -0.439100    0.460400
  C      4.878600    0.880800   -1.677400
  F      3.724500    1.317200   -2.309400
  F      5.948000    1.477900   -2.322900
  F      4.977000   -0.489000   -1.851500
  C      5.209200    2.747800    0.064300
  F      5.060600    3.089700    1.397600
  F      6.514200    3.020300   -0.303600
  F      4.408400    3.568100   -0.712800
  H      7.521400   -0.502200    0.730200
  H      7.312100    0.508500   -0.708400
  H      7.529900    1.261200    0.944000
  H      2.633600    2.953800    0.604600
  H      0.417600    2.307800    1.271300
  H     -1.205900    0.662100    1.875000
  H     -0.573000   -0.940000    2.351800
  H     -4.966400   -2.429000    2.452600
  H     -5.927900   -4.650400    2.010200
  H     -5.861600   -6.795200    0.802000
  H     -4.071400   -7.247800   -0.842400
  H     -2.342700   -5.585900   -1.291900
  H     -0.466900   -4.352300   -0.761600
  H     -0.145400   -2.617300   -0.906900
  H     -1.293000   -3.390200   -2.060300
  H     -0.121600    2.523000   -1.978800
  H     -0.634200    4.871700   -1.525100
  H     -2.092900    7.855900   -0.387700
  H     -4.048600    3.660400    0.831700
  H     -3.522900    1.310200    0.366800
  H      1.471400   -1.848500    0.925100
  H      3.725100   -1.230600    0.238200

 Total Charge           Charge          ....    0
 Multiplicity           Mult            ....    1
 Number of Electrons    NEL             ....  314
 Basis Dimension        Dim             ....  636

ORBITAL ENERGIES
----------------

  NO   OCC          E(Eh)            E(eV)
   0   2.0000     -89.095032     -2424.3991
   1   2.0000     -24.736724      -673.1205
   2   2.0000     -24.735092      -673.0761
   3   2.0000     -24.733916      -673.0441
   4   2.0000     -24.730963      -672.9637
   5   2.0000     -24.730527      -672.9518
   6   2.0000     -24.723210      -672.7527
   7   2.0000     -19.195732      -522.3424
   8   2.0000     -19.180594      -521.9305
   9   2.0000     -19.137668      -520.7624
  10   2.0000     -19.124141      -520.3943
  11   2.0000     -19.120907      -520.3063
  12   2.0000     -14.371576      -391.0705
  13   2.0000     -14.331606      -389.9828
  14   2.0000     -10.453342      -284.4499
  15   2.0000     -10.447104      -284.2802
  16   2.0000     -10.334969      -281.2288
  17   2.0000     -10.304395      -280.3968
  18   2.0000     -10.256573      -279.0955
  19   2.0000     -10.241057      -278.6733
  20   2.0000     -10.233243      -278.4607
  21   2.0000     -10.231428      -278.4113
  22   2.0000     -10.230460      -278.3850
  23   2.0000     -10.224021      -278.2098
  24   2.0000     -10.219659      -278.0911
  25   2.0000     -10.217568      -278.0342
  26   2.0000     -10.216996      -278.0186
  27   2.0000     -10.215934      -277.9897
  28   2.0000     -10.213299      -277.9180
  29   2.0000     -10.206238      -277.7259
  30   2.0000     -10.203657      -277.6556
  31   2.0000     -10.198262      -277.5088
  32   2.0000     -10.198166      -277.5062
  33   2.0000     -10.195980      -277.4467
  34   2.0000     -10.195565      -277.4354
  35   2.0000     -10.193893      -277.3899
  36   2.0000     -10.193712      -277.3850
  37   2.0000     -10.193298      -277.3737
  38   2.0000     -10.191490      -277.3245
  39   2.0000     -10.189448      -277.2690
  40   2.0000     -10.188179      -277.2345
  41   2.0000     -10.171669      -276.7852
  42   2.0000      -8.130984      -221.2553
  43   2.0000      -6.096184      -165.8856
  44   2.0000      -6.093823      -165.8213
  45   2.0000      -6.093579      -165.8147
  46   2.0000      -1.297950       -35.3190
  47   2.0000      -1.288207       -35.0539
  48   2.0000      -1.221189       -33.2303
  49   2.0000      -1.219739       -33.1908
  50   2.0000      -1.214531       -33.0491
  51   2.0000      -1.209105       -32.9014
  52   2.0000      -1.081039       -29.4166
  53   2.0000      -1.080452       -29.4006
  54   2.0000      -1.065073       -28.9821
  55   2.0000      -0.994636       -27.0654
  56   2.0000      -0.962096       -26.1800
  57   2.0000      -0.958923       -26.0936
  58   2.0000      -0.913594       -24.8601
  59   2.0000      -0.889453       -24.2032
  60   2.0000      -0.866695       -23.5840
  61   2.0000      -0.861303       -23.4373
  62   2.0000      -0.823034       -22.3959
  63   2.0000      -0.808250       -21.9936
  64   2.0000      -0.801904       -21.8209
  65   2.0000      -0.775831       -21.1114
  66   2.0000      -0.775429       -21.1005
  67   2.0000      -0.764149       -20.7935
  68   2.0000      -0.752162       -20.4674
  69   2.0000      -0.738859       -20.1054
  70   2.0000      -0.715998       -19.4833
  71   2.0000      -0.711361       -19.3571
  72   2.0000      -0.705253       -19.1909
  73   2.0000      -0.694577       -18.9004
  74   2.0000      -0.683850       -18.6085
  75   2.0000      -0.652758       -17.7624
  76   2.0000      -0.645228       -17.5575
  77   2.0000      -0.641665       -17.4606
  78   2.0000      -0.638479       -17.3739
  79   2.0000      -0.619959       -16.8699
  80   2.0000      -0.615658       -16.7529
  81   2.0000      -0.605083       -16.4651
  82   2.0000      -0.592947       -16.1349
  83   2.0000      -0.592709       -16.1284
  84   2.0000      -0.589461       -16.0401
  85   2.0000      -0.584627       -15.9085
  86   2.0000      -0.582087       -15.8394
  87   2.0000      -0.575438       -15.6585
  88   2.0000      -0.563407       -15.3311
  89   2.0000      -0.557027       -15.1575
  90   2.0000      -0.540468       -14.7069
  91   2.0000      -0.537435       -14.6244
  92   2.0000      -0.532815       -14.4986
  93   2.0000      -0.518513       -14.1095
  94   2.0000      -0.507871       -13.8199
  95   2.0000      -0.499089       -13.5809
  96   2.0000      -0.487210       -13.2577
  97   2.0000      -0.485205       -13.2031
  98   2.0000      -0.481524       -13.1029
  99   2.0000      -0.476791       -12.9741
 100   2.0000      -0.471951       -12.8425
 101   2.0000      -0.470335       -12.7985
 102   2.0000      -0.466245       -12.6872
 103   2.0000      -0.463738       -12.6190
 104   2.0000      -0.460822       -12.5396
 105   2.0000      -0.458534       -12.4773
 106   2.0000      -0.453586       -12.3427
 107   2.0000      -0.451741       -12.2925
 108   2.0000      -0.447846       -12.1865
 109   2.0000      -0.446871       -12.1600
 110   2.0000      -0.446402       -12.1472
 111   2.0000      -0.443390       -12.0653
 112   2.0000      -0.442319       -12.0361
 113   2.0000      -0.441479       -12.0132
 114   2.0000      -0.435542       -11.8517
 115   2.0000      -0.429759       -11.6943
 116   2.0000      -0.428332       -11.6555
 117   2.0000      -0.426540       -11.6067
 118   2.0000      -0.425227       -11.5710
 119   2.0000      -0.423857       -11.5337
 120   2.0000      -0.418560       -11.3896
 121   2.0000      -0.415604       -11.3092
 122   2.0000      -0.414126       -11.2689
 123   2.0000      -0.411082       -11.1861
 124   2.0000      -0.408737       -11.1223
 125   2.0000      -0.404951       -11.0193
 126   2.0000      -0.400852       -10.9077
 127   2.0000      -0.399344       -10.8667
 128   2.0000      -0.391487       -10.6529
 129   2.0000      -0.391024       -10.6403
 130   2.0000      -0.388520       -10.5722
 131   2.0000      -0.384897       -10.4736
 132   2.0000      -0.376947       -10.2572
 133   2.0000      -0.367235        -9.9930
 134   2.0000      -0.366798        -9.9811
 135   2.0000      -0.364092        -9.9074
 136   2.0000      -0.355879        -9.6840
 137   2.0000      -0.351496        -9.5647
 138   2.0000      -0.349365        -9.5067
 139   2.0000      -0.344975        -9.3873
 140   2.0000      -0.333983        -9.0881
 141   2.0000      -0.321195        -8.7402
 142   2.0000      -0.319598        -8.6967
 143   2.0000      -0.304864        -8.2958
 144   2.0000      -0.302940        -8.2434
 145   2.0000      -0.288647        -7.8545
 146   2.0000      -0.287723        -7.8294
 147   2.0000      -0.281826        -7.6689
 148   2.0000      -0.279393        -7.6027
 149   2.0000      -0.274882        -7.4799
 150   2.0000      -0.272352        -7.4111
 151   2.0000      -0.265243        -7.2176
 152   2.0000      -0.255273        -6.9463
 153   2.0000      -0.253285        -6.8922
 154   2.0000      -0.250867        -6.8264
 155   2.0000      -0.247002        -6.7213
 156   2.0000      -0.218868        -5.9557
 157   0.0000      -0.083295        -2.2666
 158   0.0000      -0.058567        -1.5937
 159   0.0000      -0.031488        -0.8568
 160   0.0000      -0.030377        -0.8266
 161   0.0000      -0.023881        -0.6498

MULLIKEN ATOMIC CHARGES
-----------------------
   0 C :   -0.226465
   1 O :   -0.471572
   2 C :    0.017651
   3 C :    0.090693
   4 C :   -0.163222
   5 C :   -0.183017
   6 C :    0.151156
   7 C :   -0.226493
   8 N :   -0.623234
   9 C :    0.317643
  10 N :   -0.408840
  11 C :   -0.053232
  12 C :    0.136493
  13 C :   -0.203121
  14 C :   -0.126211
  15 C :   -0.120863
  16 C :   -0.195753
  17 C :    0.123319
  18 C :    0.110869
  19 C :   -0.550684
  20 S :    1.235799
  21 O :   -0.546817
  22 O :   -0.537228
  23 C :   -0.129775
  24 C :   -0.142785
  25 C :   -0.151039
  26 C :    0.082133
  27 C :    0.528202
  28 O :   -0.444453
  29 O :   -0.623152
  30 C :   -0.142662
  31 C :   -0.155486
  32 C :   -0.138421
  33 C :   -0.144983
  34 C :    0.932860
  35 F :   -0.286692
  36 F :   -0.294718
  37 F :   -0.293055
  38 C :    0.940353
  39 F :   -0.296906
  40 F :   -0.293375
  41 F :   -0.296676
  42 H :    0.159304
  43 H :    0.160584
  44 H :    0.155335
  45 H :    0.142481
  46 H :    0.137159
  47 H :    0.160769
  48 H :    0.184427
  49 H :    0.150176
  50 H :    0.137421
  51 H :    0.135412
  52 H :    0.137891
  53 H :    0.143907
  54 H :    0.146525
  55 H :    0.196043
  56 H :    0.188171
  57 H :    0.196548
  58 H :    0.174737
  59 H :    0.434434
  60 H :    0.181291
  61 H :    0.191905
  62 H :    0.136506
  63 H :    0.152733
Sum of atomic charges:    0.0000000

LOEWDIN ATOMIC CHARGES
----------------------
   0 C :   -0.227617
   1 O :   -0.197212
   2 C :    0.018568
   3 C :   -0.022304
   4 C :   -0.125945
   5 C :   -0.133334
   6 C :   -0.027295
   7 C :   -0.144354
   8 N :   -0.282039
   9 C :    0.025925
  10 N :   -0.143811
  11 C :   -0.061939
  12 C :   -0.028625
  13 C :   -0.112711
  14 C :   -0.126245
  15 C :   -0.117266
  16 C :   -0.119667
  17 C :   -0.004541
  18 C :    0.000321
  19 C :   -0.365913
  20 S :    1.265152
  21 O :   -0.569603
  22 O :   -0.566885
  23 C :   -0.174071
  24 C :   -0.097520
  25 C :   -0.101930
  26 C :   -0.040260
  27 C :    0.179716
  28 O :   -0.260752
  29 O :   -0.334181
  30 C :   -0.087078
  31 C :   -0.107647
  32 C :   -0.112352
  33 C :   -0.104785
  34 C :    0.303910
  35 F :   -0.100288
  36 F :   -0.107373
  37 F :   -0.100760
  38 C :    0.306609
  39 F :   -0.100096
  40 F :   -0.098559
  41 F :   -0.104908
  42 H :    0.127787
  43 H :    0.121749
  44 H :    0.117846
  45 H :    0.138025
  46 H :    0.135177
  47 H :    0.125613
  48 H :    0.152184
  49 H :    0.135914
  50 H :    0.136304
  51 H :    0.135188
  52 H :    0.136663
  53 H :    0.141209
  54 H :    0.128456
  55 H :    0.150824
  56 H :    0.152299
  57 H :    0.166293
  58 H :    0.155648
  59 H :    0.350038
  60 H :    0.160669
  61 H :    0.161416
  62 H :    0.136485
  63 H :    0.143882

  Mayer bond orders larger than 0.100000
B(  0-C ,  1-O ) :   0.9061 B(  0-C , 42-H ) :   0.9443 B(  0-C , 43-H ) :   0.9188
B(  0-C , 44-H ) :   0.9326 B(  1-O ,  2-C ) :   0.9174 B(  2-C ,  3-C ) :   0.9421
B(  2-C , 34-C ) :   0.8674 B(  2-C , 38-C ) :   0.8907 B(  3-C ,  4-C ) :   1.4403
B(  3-C , 33-C ) :   1.4019 B(  4-C ,  5-C ) :   1.4165 B(  4-C , 45-H ) :   0.9054
B(  5-C ,  6-C ) :   1.4406 B(  5-C , 46-H ) :   0.9176 B(  6-C ,  7-C ) :   0.9597
B(  6-C , 32-C ) :   1.4156 B(  7-C ,  8-N ) :   0.9107 B(  7-C , 47-H ) :   0.9211
B(  7-C , 48-H ) :   0.9181 B(  8-N ,  9-C ) :   0.9049 B(  8-N , 20-S ) :   0.7746
B(  9-C , 10-N ) :   1.2716 B(  9-C , 18-C ) :   1.4393 B( 10-N , 11-C ) :   1.4929
B( 11-C , 12-C ) :   1.2423 B( 11-C , 49-H ) :   0.9267 B( 12-C , 13-C ) :   1.2838
B( 12-C , 17-C ) :   1.2913 B( 13-C , 14-C ) :   1.5125 B( 13-C , 16-C ) :   0.1059
B( 13-C , 50-H ) :   0.9236 B( 14-C , 15-C ) :   1.3531 B( 14-C , 51-H ) :   0.9294
B( 15-C , 16-C ) :   1.5075 B( 15-C , 52-H ) :   0.9291 B( 16-C , 17-C ) :   1.2960
B( 16-C , 53-H ) :   0.9155 B( 17-C , 18-C ) :   1.2651 B( 18-C , 19-C ) :   1.0096
B( 19-C , 54-H ) :   0.9287 B( 19-C , 55-H ) :   0.9153 B( 19-C , 56-H ) :   0.9187
B( 20-S , 21-O ) :   1.6198 B( 20-S , 22-O ) :   1.6583 B( 20-S , 23-C ) :   0.8102
B( 23-C , 24-C ) :   1.4034 B( 23-C , 31-C ) :   1.3718 B( 24-C , 25-C ) :   1.4100
B( 24-C , 57-H ) :   0.9049 B( 25-C , 26-C ) :   1.3825 B( 25-C , 58-H ) :   0.9147
B( 26-C , 27-C ) :   1.0080 B( 26-C , 30-C ) :   1.4002 B( 27-C , 28-O ) :   1.8627
B( 27-C , 29-O ) :   1.0258 B( 29-O , 59-H ) :   0.7416 B( 30-C , 31-C ) :   1.4283
B( 30-C , 60-H ) :   0.9096 B( 31-C , 61-H ) :   0.9036 B( 32-C , 33-C ) :   1.4414
B( 32-C , 62-H ) :   0.9214 B( 33-C , 63-H ) :   0.9140 B( 34-C , 35-F ) :   0.9765
B( 34-C , 36-F ) :   0.9470 B( 34-C , 37-F ) :   0.9535 B( 38-C , 39-F ) :   0.9533
B( 38-C , 40-F ) :   0.9499 B( 38-C , 41-F ) :   0.9255

FINAL SINGLE POINT ENERGY     -2561.764509894829

DIPOLE MOMENT
-------------

Method             : SCF
Type of density    : Electron Density
Multiplicity       :   1
Irrep              :   0
Energy             : -2561.7645098948291889 Eh
Relativity type    :
Basis              : AO
                                X                 Y                 Z
Electronic contribution:     40.713917092      30.177768749     -11.962610631
Nuclear contribution   :    -40.579747960     -30.716314354      13.162662701
                        -----------------------------------------
Total Dipole Moment    :      0.134169132      -0.538545605       1.200052070
                        -----------------------------------------
Magnitude (a.u.)       :      1.322179146
Magnitude (Debye)      :      3.360712309

Rotational constants in cm-1:             0.003172             0.001590             0.001169
Rotational constants in MHz :            95.094659            47.662071            35.058923

                             ****ORCA TERMINATED NORMALLY****
TOTAL RUN TIME: 0 days 0 hours 15 minutes 20 seconds 917 msec
