                         Program Version 6.0.0  -   RELEASE  -
|  1> ! B3LYP 6-31G* SP
|  2>
|  3> * xyz 0 1
|  4> C -1.9210 -0.9364 -3.1255
|  5> C -1.4429 -1.1146 -1.6852
|  6> N -1.2360 0.1894 -1.0256
|  7> C -0.3198 1.1441 -1.6006
|  8> O -0.6638 2.3544 -1.6896
|  9> C 1.0092 0.7373 -2.1127
| 10> C 1.4876 1.3118 -3.3027
| 11> C 2.7451 0.9679 -3.8004
| 12> C 3.5434 0.0566 -3.1110
| 13> C 3.0909 -0.5096 -1.9178
| 14> C 1.8242 -0.1701 -1.4002
| 15> O 1.3538 -0.6989 -0.1856
| 16> C 2.1180 -1.4777 0.7345
| 17> C 3.1342 -0.6164 1.4327
| 18> C 4.4942 -0.9667 1.4310
| 19> C 5.4292 -0.1586 2.0848
| 20> C 5.0137 0.9988 2.7487
| 21> C 3.6598 1.3500 2.7628
| 22> Cl 3.1376 2.8010 3.5984
| 23> C 2.7215 0.5432 2.1096
| 24> C -2.0163 0.5818 0.1669
| 25> C -1.7799 -0.3865 1.3407
| 26> C -2.4661 0.1138 2.6279
| 27> C -3.7544 0.9222 2.3655
| 28> C -4.4455 0.4913 1.0597
| 29> N -5.7026 1.2217 0.8911
| 30> C -3.5239 0.7312 -0.1625
| 31> H -2.8322 -0.3033 -3.1557
| 32> H -1.1293 -0.4636 -3.7433
| 33> H -2.1604 -1.9284 -3.5632
| 34> H -2.2024 -1.7169 -1.1454
| 35> H -0.5016 -1.7009 -1.6827
| 36> H 0.8801 2.0192 -3.8539
| 37> H 3.1010 1.4090 -4.7225
| 38> H 4.5181 -0.2089 -3.4996
| 39> H 3.7376 -1.2075 -1.4071
| 40> H 2.5816 -2.3439 0.2155
| 41> H 1.4294 -1.8937 1.4992
| 42> H 4.8317 -1.8612 0.9224
| 43> H 6.4769 -0.4304 2.0774
| 44> H 5.7431 1.6201 3.2527
| 45> H 1.6740 0.8198 2.1252
| 46> H -1.6592 1.5765 0.5217
| 47> H -0.6913 -0.4909 1.5301
| 48> H -2.1781 -1.3933 1.0936
| 49> H -2.7051 -0.7642 3.2670
| 50> H -1.7567 0.7522 3.1986
| 51> H -3.5050 2.0049 2.3036
| 52> H -4.4467 0.7878 3.2252
| 53> H -4.6693 -0.5989 1.1293
| 54> H -6.3407 0.9668 1.6799
| 55> H -6.1688 0.8739 0.0214
| 56> H -3.8294 0.0227 -0.9597
| 57> H -3.6877 1.7556 -0.5648
| 58> *
| 59>
| 60>                          ****END OF INPUT****

CARTESIAN COORDINATES (ANGSTROEM)
---------------------------------
  C     -1.921000   -0.936400   -3.125500
  C     -1.442900   -1.114600   -1.685200
  N     -1.236000    0.189400   -1.025600
  C     -0.319800    1.144100   -1.600600
  O     -0.663800    2.354400   -1.689600
  C      1.009200    0.737300   -2.112700
  C      1.487600    1.311800   -3.302700
  C      2.745100    0.967900   -3.800400
  C      3.543400    0.056600   -3.111000
  C      3.090900   -0.509600   -1.917800
  C      1.824200   -0.170100   -1.400200
  O      1.353800   -0.698900   -0.185600
  C      2.118000   -1.477700    0.734500
  C      3.134200   -0.616400    1.432700
  C      4.494200   -0.966700    1.431000
  C      5.429200   -0.158600    2.084800
  C      5.013700    0.998800    2.748700
  C      3.659800    1.350000    2.762800
  Cl     3.137600    2.801000    3.598400
  C      2.721500    0.543200    2.109600
  C     -2.016300    0.581800    0.166900
  C     -1.779900   -0.386500    1.340700
  C     -2.466100    0.113800    2.627900
  C     -3.754400    0.922200    2.365500
  C     -4.445500    0.491300    1.059700
  N     -5.702600    1.221700    0.891100
  C     -3.523900    0.731200   -0.162500
  H     -2.832200   -0.303300   -3.155700
  H     -1.129300   -0.463600   -3.743300
  H     -2.160400   -1.928400   -3.563200
  H     -2.202400   -1.716900   -1.145400
  H     -0.501600   -1.700900   -1.682700
  H      0.880100    2.019200   -3.853900
  H      3.101000    1.409000   -4.722500
  H      4.518100   -0.208900   -3.499600
  H      3.737600   -1.207500   -1.407100
  H      2.581600   -2.343900    0.215500
  H      1.429400   -1.893700    1.499200
  H      4.831700   -1.861200    0.922400
  H      6.476900   -0.430400    2.077400
  H      5.743100    1.620100    3.252700
  H      1.674000    0.819800    2.125200
  H     -1.659200    1.576500    0.521700
  H     -0.691300   -0.490900    1.530100
  H     -2.178100   -1.393300    1.093600
  H     -2.705100   -0.764200    3.267000
  H     -1.756700    0.752200    3.198600
  H     -3.505000    2.004900    2.303600
  H     -4.446700    0.787800    3.225200
  H     -4.669300   -0.598900    1.129300
  H     -6.340700    0.966800    1.679900
  H     -6.168800    0.873900    0.021400
  H     -3.829400    0.022700   -0.959700
  H     -3.687700    1.755600   -0.564800

 Total Charge           Charge          ....    0
 Multiplicity           Mult            ....    1
 Number of Electrons    NEL             ....  206
 Basis Dimension        Dim             ....  436

ORBITAL ENERGIES
----------------

  NO   OCC          E(Eh)            E(eV)
   0   2.0000    -101.527735     -2762.7101
   1   2.0000     -19.175991      -521.8052
   2   2.0000     -19.099774      -519.7313
   3   2.0000     -14.326429      -389.8419
   4   2.0000     -14.297778      -389.0623
   5   2.0000     -10.274403      -279.5807
   6   2.0000     -10.259303      -279.1698
   7   2.0000     -10.255048      -279.0540
   8   2.0000     -10.250412      -278.9279
   9   2.0000     -10.207746      -277.7669
  10   2.0000     -10.207233      -277.7529
  11   2.0000     -10.206716      -277.7389
  12   2.0000     -10.199781      -277.5502
  13   2.0000     -10.199774      -277.5500
  14   2.0000     -10.199093      -277.5314
  15   2.0000     -10.197597      -277.4907
  16   2.0000     -10.196868      -277.4709
  17   2.0000     -10.195682      -277.4386
  18   2.0000     -10.190710      -277.3033
  19   2.0000     -10.188775      -277.2507
  20   2.0000     -10.188272      -277.2370
  21   2.0000     -10.179835      -277.0074
  22   2.0000     -10.170927      -276.7650
  23   2.0000     -10.168240      -276.6919
  24   2.0000     -10.165999      -276.6309
  25   2.0000     -10.165424      -276.6153
  26   2.0000     -10.161285      -276.5026
  27   2.0000      -9.459661      -257.4105
  28   2.0000      -7.222702      -196.5397
  29   2.0000      -7.213255      -196.2826
  30   2.0000      -7.212938      -196.2740
  31   2.0000      -1.055893       -28.7323
  32   2.0000      -0.997205       -27.1353
  33   2.0000      -0.899232       -24.4693
  34   2.0000      -0.890623       -24.2351
  35   2.0000      -0.871444       -23.7132
  36   2.0000      -0.856050       -23.2943
  37   2.0000      -0.840521       -22.8717
  38   2.0000      -0.798129       -21.7182
  39   2.0000      -0.784544       -21.3485
  40   2.0000      -0.759792       -20.6750
  41   2.0000      -0.746569       -20.3152
  42   2.0000      -0.744136       -20.2490
  43   2.0000      -0.739475       -20.1221
  44   2.0000      -0.714806       -19.4508
  45   2.0000      -0.701608       -19.0917
  46   2.0000      -0.693949       -18.8833
  47   2.0000      -0.638803       -17.3827
  48   2.0000      -0.621445       -16.9104
  49   2.0000      -0.619491       -16.8572
  50   2.0000      -0.607521       -16.5315
  51   2.0000      -0.599068       -16.3015
  52   2.0000      -0.589687       -16.0462
  53   2.0000      -0.585301       -15.9268
  54   2.0000      -0.548875       -14.9356
  55   2.0000      -0.528883       -14.3916
  56   2.0000      -0.518441       -14.1075
  57   2.0000      -0.511564       -13.9204
  58   2.0000      -0.501500       -13.6465
  59   2.0000      -0.489538       -13.3210
  60   2.0000      -0.479715       -13.0537
  61   2.0000      -0.475738       -12.9455
  62   2.0000      -0.474138       -12.9019
  63   2.0000      -0.463988       -12.6258
  64   2.0000      -0.459614       -12.5067
  65   2.0000      -0.455151       -12.3853
  66   2.0000      -0.447133       -12.1671
  67   2.0000      -0.443093       -12.0572
  68   2.0000      -0.439615       -11.9625
  69   2.0000      -0.432622       -11.7722
  70   2.0000      -0.429782       -11.6950
  71   2.0000      -0.426965       -11.6183
  72   2.0000      -0.419592       -11.4177
  73   2.0000      -0.402220       -10.9450
  74   2.0000      -0.397968       -10.8293
  75   2.0000      -0.391071       -10.6416
  76   2.0000      -0.388087       -10.5604
  77   2.0000      -0.384114       -10.4523
  78   2.0000      -0.373591       -10.1659
  79   2.0000      -0.371172       -10.1001
  80   2.0000      -0.369314       -10.0496
  81   2.0000      -0.366995        -9.9864
  82   2.0000      -0.363696        -9.8967
  83   2.0000      -0.358585        -9.7576
  84   2.0000      -0.357115        -9.7176
  85   2.0000      -0.348358        -9.4793
  86   2.0000      -0.346639        -9.4325
  87   2.0000      -0.338352        -9.2070
  88   2.0000      -0.332479        -9.0472
  89   2.0000      -0.329276        -8.9601
  90   2.0000      -0.321341        -8.7441
  91   2.0000      -0.320171        -8.7123
  92   2.0000      -0.310156        -8.4398
  93   2.0000      -0.308953        -8.4070
  94   2.0000      -0.298504        -8.1227
  95   2.0000      -0.292731        -7.9656
  96   2.0000      -0.260700        -7.0940
  97   2.0000      -0.256291        -6.9740
  98   2.0000      -0.247690        -6.7400
  99   2.0000      -0.233876        -6.3641
 100   2.0000      -0.225978        -6.1492
 101   2.0000      -0.222497        -6.0545
 102   2.0000      -0.201525        -5.4838
 103   0.0000      -0.034141        -0.9290
 104   0.0000      -0.022000        -0.5986
 105   0.0000      -0.016238        -0.4419
 106   0.0000       0.003120         0.0849
 107   0.0000       0.031214         0.8494

MULLIKEN ATOMIC CHARGES
-----------------------
   0 C :   -0.440925
   1 C :   -0.138141
   2 N :   -0.399326
   3 C :    0.432963
   4 O :   -0.461892
   5 C :    0.033974
   6 C :   -0.147593
   7 C :   -0.136481
   8 C :   -0.115746
   9 C :   -0.194721
  10 C :    0.335042
  11 O :   -0.514742
  12 C :   -0.114521
  13 C :    0.137752
  14 C :   -0.176837
  15 C :   -0.117198
  16 C :   -0.129156
  17 C :   -0.063052
  18 Cl:   -0.011370
  19 C :   -0.164382
  20 C :    0.037582
  21 C :   -0.274090
  22 C :   -0.270056
  23 C :   -0.259763
  24 C :    0.044767
  25 N :   -0.710652
  26 C :   -0.283166
  27 H :    0.157583
  28 H :    0.151821
  29 H :    0.132810
  30 H :    0.145010
  31 H :    0.146962
  32 H :    0.158774
  33 H :    0.130941
  34 H :    0.134191
  35 H :    0.131584
  36 H :    0.143859
  37 H :    0.171968
  38 H :    0.129315
  39 H :    0.140698
  40 H :    0.153024
  41 H :    0.166423
  42 H :    0.158742
  43 H :    0.145810
  44 H :    0.122304
  45 H :    0.126999
  46 H :    0.134073
  47 H :    0.147557
  48 H :    0.120110
  49 H :    0.092914
  50 H :    0.283592
  51 H :    0.284806
  52 H :    0.122686
  53 H :    0.167170
Sum of atomic charges:   -0.0000000

LOEWDIN ATOMIC CHARGES
----------------------
   0 C :   -0.369057
   1 C :   -0.157926
   2 N :   -0.108262
   3 C :    0.145288
   4 O :   -0.270182
   5 C :   -0.070550
   6 C :   -0.091163
   7 C :   -0.146177
   8 C :   -0.111856
   9 C :   -0.170186
  10 C :    0.100113
  11 O :   -0.175846
  12 C :   -0.083558
  13 C :   -0.034780
  14 C :   -0.135687
  15 C :   -0.120251
  16 C :   -0.131191
  17 C :   -0.082600
  18 Cl:    0.041111
  19 C :   -0.124962
  20 C :   -0.046466
  21 C :   -0.237637
  22 C :   -0.232599
  23 C :   -0.232227
  24 C :   -0.078480
  25 N :   -0.465890
  26 C :   -0.237118
  27 H :    0.128252
  28 H :    0.127577
  29 H :    0.121223
  30 H :    0.124810
  31 H :    0.120991
  32 H :    0.149883
  33 H :    0.133466
  34 H :    0.134630
  35 H :    0.134871
  36 H :    0.117925
  37 H :    0.140021
  38 H :    0.131026
  39 H :    0.138215
  40 H :    0.145063
  41 H :    0.149634
  42 H :    0.137923
  43 H :    0.124085
  44 H :    0.111507
  45 H :    0.117036
  46 H :    0.119590
  47 H :    0.125662
  48 H :    0.116183
  49 H :    0.087620
  50 H :    0.217303
  51 H :    0.218878
  52 H :    0.115867
  53 H :    0.138899

  Mayer bond orders larger than 0.100000
B(  0-C ,  1-C ) :   1.0048 B(  0-C , 27-H ) :   0.9449 B(  0-C , 28-H ) :   0.9440
B(  0-C , 29-H ) :   0.9451 B(  1-C ,  2-N ) :   0.9490 B(  1-C , 30-H ) :   0.9350
B(  1-C , 31-H ) :   0.9225 B(  2-N ,  3-C ) :   1.0634 B(  2-N , 20-C ) :   0.9371
B(  3-C ,  4-O ) :   1.8251 B(  3-C ,  5-C ) :   0.9424 B(  5-C ,  6-C ) :   1.4117
B(  5-C , 10-C ) :   1.3546 B(  6-C ,  7-C ) :   1.4380 B(  6-C , 32-H ) :   0.9162
B(  7-C ,  8-C ) :   1.4404 B(  7-C , 33-H ) :   0.9295 B(  8-C ,  9-C ) :   1.4485
B(  8-C , 34-H ) :   0.9294 B(  9-C , 10-C ) :   1.3586 B(  9-C , 35-H ) :   0.9143
B( 10-C , 11-O ) :   0.8991 B( 11-O , 12-C ) :   0.9059 B( 12-C , 13-C ) :   0.9633
B( 12-C , 36-H ) :   0.9204 B( 12-C , 37-H ) :   0.9211 B( 13-C , 14-C ) :   1.4349
B( 13-C , 19-C ) :   1.4190 B( 14-C , 15-C ) :   1.4324 B( 14-C , 38-H ) :   0.9225
B( 15-C , 16-C ) :   1.4576 B( 15-C , 39-H ) :   0.9272 B( 16-C , 17-C ) :   1.4103
B( 16-C , 40-H ) :   0.9238 B( 17-C , 18-Cl) :   1.0173 B( 17-C , 19-C ) :   1.4108
B( 19-C , 41-H ) :   0.9130 B( 20-C , 21-C ) :   0.9970 B( 20-C , 26-C ) :   0.9806
B( 20-C , 42-H ) :   0.9197 B( 21-C , 22-C ) :   0.9899 B( 21-C , 43-H ) :   0.9290
B( 21-C , 44-H ) :   0.9362 B( 22-C , 23-C ) :   0.9920 B( 22-C , 45-H ) :   0.9469
B( 22-C , 46-H ) :   0.9472 B( 23-C , 24-C ) :   1.0025 B( 23-C , 47-H ) :   0.9366
B( 23-C , 48-H ) :   0.9422 B( 24-C , 25-N ) :   0.9793 B( 24-C , 26-C ) :   0.9738
B( 24-C , 49-H ) :   0.9299 B( 25-N , 50-H ) :   0.8622 B( 25-N , 51-H ) :   0.8632
B( 26-C , 52-H ) :   0.9335 B( 26-C , 53-H ) :   0.9268

FINAL SINGLE POINT ENERGY     -1573.929773983044

DIPOLE MOMENT
-------------

Method             : SCF
Type of density    : Electron Density
Multiplicity       :   1
Irrep              :   0
Energy             : -1573.9297739830444698 Eh
Relativity type    :
Basis              : AO
                                X                 Y                 Z
Electronic contribution:     34.060318639      15.424736876      10.042816945
Nuclear contribution   :    -33.235397598     -17.823905700      -9.996871694
                        -----------------------------------------
Total Dipole Moment    :      0.824921041      -2.399168823       0.045945251
                        -----------------------------------------
Magnitude (a.u.)       :      2.537442952
Magnitude (Debye)      :      6.449667420

Rotational constants in cm-1:             0.006989             0.004045             0.003006
Rotational constants in MHz :           209.536982           121.266079            90.116887

                             ****ORCA TERMINATED NORMALLY****
TOTAL RUN TIME: 0 days 0 hours 7 minutes 40 seconds 425 msec
