                         Program Version 6.0.0  -   RELEASE  -
|  1> ! B3LYP 6-31G* SP
|  2>
|  3> * xyz 0 1
|  4> C 1.9137 -2.0931 -0.9849
|  5> C 1.0178 -0.9239 -0.6490
|  6> C 1.5194 0.2744 -0.2818
|  7> C 2.9561 0.5637 -0.0828
|  8> C 3.7548 -0.2318 0.7583
|  9> C 5.1021 0.0857 0.9568
| 10> C 5.6567 1.2072 0.3345
| 11> C 4.8620 2.0190 -0.4792
| 12> C 3.5141 1.7050 -0.6798
| 13> C -0.4521 -1.1084 -0.7516
| 14> O -0.9134 -1.9051 -1.6137
| 15> N -1.3523 -0.3955 0.1164
| 16> C -2.7803 -0.5401 0.0499
| 17> C -3.3457 -1.8268 0.0937
| 18> C -4.7304 -1.9946 0.1151
| 19> C -5.5682 -0.8813 0.1068
| 20> C -5.0251 0.4042 0.0719
| 21> C -3.6309 0.5963 0.0374
| 22> C -3.1060 1.9824 -0.0467
| 23> O -1.9365 2.2084 -0.4586
| 24> O -3.9205 3.0571 0.3012
| 25> H 1.4198 -2.7872 -1.6959
| 26> H 2.8540 -1.7545 -1.4691
| 27> H 2.1514 -2.6593 -0.0611
| 28> H 0.8508 1.1224 -0.1973
| 29> H 3.3335 -1.0825 1.2774
| 30> H 5.7138 -0.5322 1.6013
| 31> H 6.6991 1.4528 0.4908
| 32> H 5.2895 2.8937 -0.9520
| 33> H 2.9082 2.3455 -1.3092
| 34> H -0.9664 0.2451 0.8450
| 35> H -2.7109 -2.7024 0.1401
| 36> H -5.1542 -2.9899 0.1512
| 37> H -6.6423 -1.0140 0.1274
| 38> H -5.7008 1.2503 0.0554
| 39> H -3.5808 4.0094 0.2385
| 40> *
| 41>
| 42>                          ****END OF INPUT****

CARTESIAN COORDINATES (ANGSTROEM)
---------------------------------
  C      1.913700   -2.093100   -0.984900
  C      1.017800   -0.923900   -0.649000
  C      1.519400    0.274400   -0.281800
  C      2.956100    0.563700   -0.082800
  C      3.754800   -0.231800    0.758300
  C      5.102100    0.085700    0.956800
  C      5.656700    1.207200    0.334500
  C      4.862000    2.019000   -0.479200
  C      3.514100    1.705000   -0.679800
  C     -0.452100   -1.108400   -0.751600
  O     -0.913400   -1.905100   -1.613700
  N     -1.352300   -0.395500    0.116400
  C     -2.780300   -0.540100    0.049900
  C     -3.345700   -1.826800    0.093700
  C     -4.730400   -1.994600    0.115100
  C     -5.568200   -0.881300    0.106800
  C     -5.025100    0.404200    0.071900
  C     -3.630900    0.596300    0.037400
  C     -3.106000    1.982400   -0.046700
  O     -1.936500    2.208400   -0.458600
  O     -3.920500    3.057100    0.301200
  H      1.419800   -2.787200   -1.695900
  H      2.854000   -1.754500   -1.469100
  H      2.151400   -2.659300   -0.061100
  H      0.850800    1.122400   -0.197300
  H      3.333500   -1.082500    1.277400
  H      5.713800   -0.532200    1.601300
  H      6.699100    1.452800    0.490800
  H      5.289500    2.893700   -0.952000
  H      2.908200    2.345500   -1.309200
  H     -0.966400    0.245100    0.845000
  H     -2.710900   -2.702400    0.140100
  H     -5.154200   -2.989900    0.151200
  H     -6.642300   -1.014000    0.127400
  H     -5.700800    1.250300    0.055400
  H     -3.580800    4.009400    0.238500

 Total Charge           Charge          ....    0
 Multiplicity           Mult            ....    1
 Number of Electrons    NEL             ....  148
 Basis Dimension        Dim             ....  324

ORBITAL ENERGIES
----------------

  NO   OCC          E(Eh)            E(eV)
   0   2.0000     -19.186186      -522.0827
   1   2.0000     -19.126449      -520.4571
   2   2.0000     -19.102421      -519.8033
   3   2.0000     -14.357608      -390.6904
   4   2.0000     -10.325548      -280.9724
   5   2.0000     -10.284162      -279.8463
   6   2.0000     -10.242990      -278.7259
   7   2.0000     -10.211924      -277.8806
   8   2.0000     -10.196318      -277.4559
   9   2.0000     -10.196090      -277.4497
  10   2.0000     -10.193559      -277.3808
  11   2.0000     -10.192827      -277.3609
  12   2.0000     -10.189066      -277.2586
  13   2.0000     -10.188154      -277.2338
  14   2.0000     -10.187146      -277.2063
  15   2.0000     -10.183987      -277.1204
  16   2.0000     -10.183143      -277.0974
  17   2.0000     -10.182859      -277.0897
  18   2.0000     -10.182511      -277.0802
  19   2.0000     -10.182261      -277.0734
  20   2.0000     -10.169344      -276.7219
  21   2.0000      -1.071418       -29.1548
  22   2.0000      -1.004429       -27.3319
  23   2.0000      -0.985411       -26.8144
  24   2.0000      -0.911151       -24.7937
  25   2.0000      -0.856287       -23.3007
  26   2.0000      -0.850137       -23.1334
  27   2.0000      -0.806371       -21.9425
  28   2.0000      -0.770012       -20.9531
  29   2.0000      -0.749864       -20.4048
  30   2.0000      -0.743231       -20.2243
  31   2.0000      -0.737435       -20.0666
  32   2.0000      -0.681415       -18.5422
  33   2.0000      -0.662082       -18.0162
  34   2.0000      -0.636487       -17.3197
  35   2.0000      -0.614219       -16.7138
  36   2.0000      -0.603683       -16.4270
  37   2.0000      -0.592444       -16.1212
  38   2.0000      -0.574418       -15.6307
  39   2.0000      -0.543162       -14.7802
  40   2.0000      -0.536254       -14.5922
  41   2.0000      -0.509819       -13.8729
  42   2.0000      -0.504326       -13.7234
  43   2.0000      -0.486640       -13.2421
  44   2.0000      -0.466374       -12.6907
  45   2.0000      -0.461787       -12.5659
  46   2.0000      -0.457573       -12.4512
  47   2.0000      -0.450664       -12.2632
  48   2.0000      -0.440582       -11.9888
  49   2.0000      -0.435065       -11.8387
  50   2.0000      -0.427866       -11.6428
  51   2.0000      -0.424881       -11.5616
  52   2.0000      -0.420650       -11.4465
  53   2.0000      -0.412770       -11.2320
  54   2.0000      -0.395952       -10.7744
  55   2.0000      -0.387429       -10.5425
  56   2.0000      -0.379795       -10.3347
  57   2.0000      -0.375240       -10.2108
  58   2.0000      -0.364125        -9.9084
  59   2.0000      -0.361637        -9.8406
  60   2.0000      -0.361138        -9.8271
  61   2.0000      -0.357593        -9.7306
  62   2.0000      -0.354816        -9.6550
  63   2.0000      -0.343068        -9.3354
  64   2.0000      -0.338142        -9.2013
  65   2.0000      -0.307575        -8.3695
  66   2.0000      -0.286999        -7.8096
  67   2.0000      -0.274338        -7.4651
  68   2.0000      -0.262737        -7.1495
  69   2.0000      -0.256038        -6.9672
  70   2.0000      -0.248642        -6.7659
  71   2.0000      -0.240048        -6.5320
  72   2.0000      -0.226855        -6.1730
  73   2.0000      -0.223487        -6.0814
  74   0.0000      -0.052239        -1.4215
  75   0.0000      -0.040870        -1.1121
  76   0.0000      -0.008097        -0.2203
  77   0.0000      -0.000297        -0.0081
  78   0.0000       0.017587         0.4786

MULLIKEN ATOMIC CHARGES
-----------------------
   0 C :   -0.521038
   1 C :    0.105676
   2 C :   -0.257961
   3 C :    0.121544
   4 C :   -0.160489
   5 C :   -0.130360
   6 C :   -0.122717
   7 C :   -0.130055
   8 C :   -0.167965
   9 C :    0.515860
  10 O :   -0.484516
  11 N :   -0.682440
  12 C :    0.274274
  13 C :   -0.121097
  14 C :   -0.127527
  15 C :   -0.123594
  16 C :   -0.174648
  17 C :    0.065099
  18 C :    0.503285
  19 O :   -0.454104
  20 O :   -0.620284
  21 H :    0.186948
  22 H :    0.166865
  23 H :    0.154226
  24 H :    0.168569
  25 H :    0.131625
  26 H :    0.130073
  27 H :    0.129159
  28 H :    0.130850
  29 H :    0.137639
  30 H :    0.336025
  31 H :    0.158550
  32 H :    0.141430
  33 H :    0.134810
  34 H :    0.158279
  35 H :    0.428007
Sum of atomic charges:    0.0000000

LOEWDIN ATOMIC CHARGES
----------------------
   0 C :   -0.354490
   1 C :   -0.042618
   2 C :   -0.124676
   3 C :   -0.024669
   4 C :   -0.121204
   5 C :   -0.129420
   6 C :   -0.128001
   7 C :   -0.127514
   8 C :   -0.122020
   9 C :    0.147679
  10 O :   -0.284662
  11 N :   -0.203611
  12 C :    0.065226
  13 C :   -0.113341
  14 C :   -0.108438
  15 C :   -0.135250
  16 C :   -0.103079
  17 C :   -0.068135
  18 C :    0.177954
  19 O :   -0.273580
  20 O :   -0.336954
  21 H :    0.148731
  22 H :    0.139960
  23 H :    0.132474
  24 H :    0.146356
  25 H :    0.133899
  26 H :    0.132185
  27 H :    0.131837
  28 H :    0.132526
  29 H :    0.136241
  30 H :    0.260316
  31 H :    0.150747
  32 H :    0.138259
  33 H :    0.135027
  34 H :    0.147252
  35 H :    0.344995

  Mayer bond orders larger than 0.100000
B(  0-C ,  1-C ) :   1.0165 B(  0-C , 21-H ) :   0.9232 B(  0-C , 22-H ) :   0.9345
B(  0-C , 23-H ) :   0.9330 B(  1-C ,  2-C ) :   1.7680 B(  1-C ,  9-C ) :   1.0053
B(  2-C ,  3-C ) :   1.0277 B(  2-C , 24-H ) :   0.9027 B(  3-C ,  4-C ) :   1.4067
B(  3-C ,  8-C ) :   1.4080 B(  4-C ,  5-C ) :   1.4417 B(  4-C , 25-H ) :   0.9233
B(  5-C ,  6-C ) :   1.4496 B(  5-C , 26-H ) :   0.9295 B(  6-C ,  7-C ) :   1.4494
B(  6-C , 27-H ) :   0.9303 B(  7-C ,  8-C ) :   1.4429 B(  7-C , 28-H ) :   0.9296
B(  8-C , 29-H ) :   0.9256 B(  9-C , 10-O ) :   1.7783 B(  9-C , 11-N ) :   1.0242
B( 11-N , 12-C ) :   0.9071 B( 11-N , 30-H ) :   0.8102 B( 12-C , 13-C ) :   1.4204
B( 12-C , 17-C ) :   1.3646 B( 13-C , 14-C ) :   1.4351 B( 13-C , 31-H ) :   0.9140
B( 14-C , 15-C ) :   1.4295 B( 14-C , 32-H ) :   0.9278 B( 15-C , 16-C ) :   1.4447
B( 15-C , 33-H ) :   0.9300 B( 16-C , 17-C ) :   1.3685 B( 16-C , 34-H ) :   0.9177
B( 17-C , 18-C ) :   0.9990 B( 18-C , 19-O ) :   1.8339 B( 18-C , 20-O ) :   1.0227
B( 20-O , 35-H ) :   0.7444

FINAL SINGLE POINT ENERGY      -936.689622167868

DIPOLE MOMENT
-------------

Method             : SCF
Type of density    : Electron Density
Multiplicity       :   1
Irrep              :   0
Energy             :  -936.6896221678680376 Eh
Relativity type    :
Basis              : AO
                                X                 Y                 Z
Electronic contribution:    -11.107162017       4.494000413      -0.283298432
Nuclear contribution   :     11.019405083      -3.869020887       1.505899790
                        -----------------------------------------
Total Dipole Moment    :     -0.087756934       0.624979526       1.222601358
                        -----------------------------------------
Magnitude (a.u.)       :      1.375883268
Magnitude (Debye)      :      3.497217338

Rotational constants in cm-1:             0.021424             0.004654             0.004002
Rotational constants in MHz :           642.269784           139.528686           119.961987

                             ****ORCA TERMINATED NORMALLY****
TOTAL RUN TIME: 0 days 0 hours 2 minutes 51 seconds 426 msec
