                         Program Version 6.0.0  -   RELEASE  -
|  1> ! B3LYP 6-31G* SP
|  2>
|  3> * xyz -1 1
|  4> C 2.6101 2.0971 -0.5156
|  5> C 1.1594 2.4345 -0.3120
|  6> C 0.7532 3.7777 -0.2931
|  7> C -0.5855 4.1057 -0.0503
|  8> C -1.0134 5.4410 -0.0076
|  9> C -2.3553 5.7365 0.2575
| 10> C -3.2737 4.7040 0.4767
| 11> C -2.8551 3.3706 0.4304
| 12> C -1.5141 3.0675 0.1689
| 13> N -1.1007 1.7751 0.1423
| 14> C 0.1940 1.4279 -0.0918
| 15> N 0.5492 0.0376 -0.0853
| 16> C 0.6164 -0.6505 -1.3811
| 17> C 1.5986 -1.7977 -1.3770
| 18> C 1.2548 -3.0136 -1.9901
| 19> C 2.1690 -4.0679 -2.0251
| 20> C 3.4348 -3.9186 -1.4537
| 21> C 3.8023 -2.7140 -0.8454
| 22> O 5.0819 -2.6227 -0.2726
| 23> C 5.5759 -1.5076 0.4649
| 24> F 4.7572 -1.2558 1.5522
| 25> F 5.6390 -0.3886 -0.3457
| 26> F 6.8467 -1.7986 0.9219
| 27> C 2.8831 -1.6467 -0.8256
| 28> S 0.1186 -0.8658 1.3409
| 29> O 1.0109 -2.0650 1.5021
| 30> O 0.2933 0.0060 2.5546
| 31> C -1.5590 -1.3862 1.2221
| 32> C -1.8839 -2.5448 0.5069
| 33> C -3.2164 -2.9494 0.3884
| 34> C -4.2444 -2.1993 0.9850
| 35> C -5.6540 -2.6295 0.8573
| 36> O -6.5792 -1.9581 1.3870
| 37> O -5.9786 -3.7813 0.1503
| 38> C -3.9121 -1.0331 1.6983
| 39> C -2.5789 -0.6305 1.8142
| 40> H 2.7266 1.4293 -1.3924
| 41> H 3.2197 3.0067 -0.7049
| 42> H 3.0055 1.5989 0.3927
| 43> H 1.4795 4.5669 -0.4504
| 44> H -0.3138 6.2518 -0.1704
| 45> H -2.6824 6.7678 0.3000
| 46> H -4.3088 4.9381 0.6910
| 47> H -3.5705 2.5765 0.6055
| 48> H -0.4033 -1.0118 -1.6414
| 49> H 0.9218 0.0590 -2.1817
| 50> H 0.2785 -3.1463 -2.4416
| 51> H 1.8954 -5.0040 -2.4959
| 52> H 4.1336 -4.7452 -1.4807
| 53> H 3.1489 -0.7103 -0.3648
| 54> H -1.1064 -3.1313 0.0340
| 55> H -3.4407 -3.8478 -0.1718
| 56> H -4.6816 -0.4300 2.1634
| 57> H -2.3460 0.2758 2.3594
| 58> *
| 59>
| 60>                          ****END OF INPUT****

CARTESIAN COORDINATES (ANGSTROEM)
---------------------------------
  C      2.610100    2.097100   -0.515600
  C      1.159400    2.434500   -0.312000
  C      0.753200    3.777700   -0.293100
  C     -0.585500    4.105700   -0.050300
  C     -1.013400    5.441000   -0.007600
  C     -2.355300    5.736500    0.257500
  C     -3.273700    4.704000    0.476700
  C     -2.855100    3.370600    0.430400
  C     -1.514100    3.067500    0.168900
  N     -1.100700    1.775100    0.142300
  C      0.194000    1.427900   -0.091800
  N      0.549200    0.037600   -0.085300
  C      0.616400   -0.650500   -1.381100
  C      1.598600   -1.797700   -1.377000
  C      1.254800   -3.013600   -1.990100
  C      2.169000   -4.067900   -2.025100
  C      3.434800   -3.918600   -1.453700
  C      3.802300   -2.714000   -0.845400
  O      5.081900   -2.622700   -0.272600
  C      5.575900   -1.507600    0.464900
  F      4.757200   -1.255800    1.552200
  F      5.639000   -0.388600   -0.345700
  F      6.846700   -1.798600    0.921900
  C      2.883100   -1.646700   -0.825600
  S      0.118600   -0.865800    1.340900
  O      1.010900   -2.065000    1.502100
  O      0.293300    0.006000    2.554600
  C     -1.559000   -1.386200    1.222100
  C     -1.883900   -2.544800    0.506900
  C     -3.216400   -2.949400    0.388400
  C     -4.244400   -2.199300    0.985000
  C     -5.654000   -2.629500    0.857300
  O     -6.579200   -1.958100    1.387000
  O     -5.978600   -3.781300    0.150300
  C     -3.912100   -1.033100    1.698300
  C     -2.578900   -0.630500    1.814200
  H      2.726600    1.429300   -1.392400
  H      3.219700    3.006700   -0.704900
  H      3.005500    1.598900    0.392700
  H      1.479500    4.566900   -0.450400
  H     -0.313800    6.251800   -0.170400
  H     -2.682400    6.767800    0.300000
  H     -4.308800    4.938100    0.691000
  H     -3.570500    2.576500    0.605500
  H     -0.403300   -1.011800   -1.641400
  H      0.921800    0.059000   -2.181700
  H      0.278500   -3.146300   -2.441600
  H      1.895400   -5.004000   -2.495900
  H      4.133600   -4.745200   -1.480700
  H      3.148900   -0.710300   -0.364800
  H     -1.106400   -3.131300    0.034000
  H     -3.440700   -3.847800   -0.171800
  H     -4.681600   -0.430000    2.163400
  H     -2.346000    0.275800    2.359400

 Total Charge           Charge          ....   -1
 Multiplicity           Mult            ....    1
 Number of Electrons    NEL             ....  266
 Basis Dimension        Dim             ....  544

ORBITAL ENERGIES
----------------

  NO   OCC          E(Eh)            E(eV)
   0   2.0000     -89.000005     -2421.8132
   1   2.0000     -24.681231      -671.6104
   2   2.0000     -24.678483      -671.5357
   3   2.0000     -24.670223      -671.3109
   4   2.0000     -19.146022      -520.9897
   5   2.0000     -19.032196      -517.8924
   6   2.0000     -19.029965      -517.8317
   7   2.0000     -18.902309      -514.3580
   8   2.0000     -18.881371      -513.7882
   9   2.0000     -14.294100      -388.9622
  10   2.0000     -14.258296      -387.9880
  11   2.0000     -10.439916      -284.0846
  12   2.0000     -10.197002      -277.4745
  13   2.0000     -10.196024      -277.4479
  14   2.0000     -10.166954      -276.6569
  15   2.0000     -10.153239      -276.2837
  16   2.0000     -10.142486      -275.9911
  17   2.0000     -10.136890      -275.8388
  18   2.0000     -10.134008      -275.7604
  19   2.0000     -10.131109      -275.6815
  20   2.0000     -10.129289      -275.6320
  21   2.0000     -10.128682      -275.6155
  22   2.0000     -10.126545      -275.5573
  23   2.0000     -10.126137      -275.5462
  24   2.0000     -10.125705      -275.5344
  25   2.0000     -10.124258      -275.4951
  26   2.0000     -10.121322      -275.4152
  27   2.0000     -10.119406      -275.3630
  28   2.0000     -10.118129      -275.3283
  29   2.0000     -10.109304      -275.0882
  30   2.0000     -10.088209      -274.5141
  31   2.0000     -10.087636      -274.4985
  32   2.0000     -10.085862      -274.4503
  33   2.0000     -10.068323      -273.9730
  34   2.0000     -10.067926      -273.9622
  35   2.0000     -10.067051      -273.9384
  36   2.0000      -8.035961      -218.6696
  37   2.0000      -6.001457      -163.3079
  38   2.0000      -5.999163      -163.2455
  39   2.0000      -5.997821      -163.2090
  40   2.0000      -1.241200       -33.7748
  41   2.0000      -1.164628       -31.6911
  42   2.0000      -1.158256       -31.5177
  43   2.0000      -1.015768       -27.6405
  44   2.0000      -0.989169       -26.9167
  45   2.0000      -0.892755       -24.2931
  46   2.0000      -0.867294       -23.6003
  47   2.0000      -0.845928       -23.0189
  48   2.0000      -0.811729       -22.0883
  49   2.0000      -0.793716       -21.5981
  50   2.0000      -0.780394       -21.2356
  51   2.0000      -0.754666       -20.5355
  52   2.0000      -0.749821       -20.4037
  53   2.0000      -0.716919       -19.5084
  54   2.0000      -0.701326       -19.0841
  55   2.0000      -0.693123       -18.8608
  56   2.0000      -0.692216       -18.8362
  57   2.0000      -0.677078       -18.4242
  58   2.0000      -0.661267       -17.9940
  59   2.0000      -0.642888       -17.4939
  60   2.0000      -0.637028       -17.3344
  61   2.0000      -0.631312       -17.1789
  62   2.0000      -0.623015       -16.9531
  63   2.0000      -0.596409       -16.2291
  64   2.0000      -0.571176       -15.5425
  65   2.0000      -0.555417       -15.1137
  66   2.0000      -0.548712       -14.9312
  67   2.0000      -0.541312       -14.7299
  68   2.0000      -0.538903       -14.6643
  69   2.0000      -0.531697       -14.4682
  70   2.0000      -0.522382       -14.2147
  71   2.0000      -0.505637       -13.7591
  72   2.0000      -0.496443       -13.5089
  73   2.0000      -0.489966       -13.3326
  74   2.0000      -0.469642       -12.7796
  75   2.0000      -0.455439       -12.3931
  76   2.0000      -0.446437       -12.1482
  77   2.0000      -0.436068       -11.8660
  78   2.0000      -0.429698       -11.6927
  79   2.0000      -0.417769       -11.3681
  80   2.0000      -0.407464       -11.0877
  81   2.0000      -0.407282       -11.0827
  82   2.0000      -0.406895       -11.0722
  83   2.0000      -0.402180       -10.9439
  84   2.0000      -0.394318       -10.7299
  85   2.0000      -0.390418       -10.6238
  86   2.0000      -0.381283       -10.3752
  87   2.0000      -0.378946       -10.3117
  88   2.0000      -0.375248       -10.2110
  89   2.0000      -0.374955       -10.2030
  90   2.0000      -0.370765       -10.0890
  91   2.0000      -0.366512        -9.9733
  92   2.0000      -0.359139        -9.7727
  93   2.0000      -0.354963        -9.6590
  94   2.0000      -0.353049        -9.6070
  95   2.0000      -0.352106        -9.5813
  96   2.0000      -0.345963        -9.4141
  97   2.0000      -0.340111        -9.2549
  98   2.0000      -0.337761        -9.1909
  99   2.0000      -0.336796        -9.1647
 100   2.0000      -0.330321        -8.9885
 101   2.0000      -0.325228        -8.8499
 102   2.0000      -0.323195        -8.7946
 103   2.0000      -0.317238        -8.6325
 104   2.0000      -0.311137        -8.4665
 105   2.0000      -0.300773        -8.1844
 106   2.0000      -0.297369        -8.0918
 107   2.0000      -0.289525        -7.8784
 108   2.0000      -0.289006        -7.8643
 109   2.0000      -0.282852        -7.6968
 110   2.0000      -0.277237        -7.5440
 111   2.0000      -0.269414        -7.3311
 112   2.0000      -0.266391        -7.2489
 113   2.0000      -0.239211        -6.5093
 114   2.0000      -0.236682        -6.4405
 115   2.0000      -0.235162        -6.3991
 116   2.0000      -0.225840        -6.1454
 117   2.0000      -0.215183        -5.8554
 118   2.0000      -0.204452        -5.5634
 119   2.0000      -0.199305        -5.4234
 120   2.0000      -0.194474        -5.2919
 121   2.0000      -0.184205        -5.0125
 122   2.0000      -0.182879        -4.9764
 123   2.0000      -0.180776        -4.9192
 124   2.0000      -0.173299        -4.7157
 125   2.0000      -0.172089        -4.6828
 126   2.0000      -0.168857        -4.5948
 127   2.0000      -0.159200        -4.3321
 128   2.0000      -0.142289        -3.8719
 129   2.0000      -0.124873        -3.3980
 130   2.0000      -0.056609        -1.5404
 131   2.0000      -0.035027        -0.9531
 132   2.0000      -0.018276        -0.4973
 133   0.0000       0.005115         0.1392
 134   0.0000       0.047417         1.2903
 135   0.0000       0.053744         1.4625
 136   0.0000       0.064693         1.7604
 137   0.0000       0.070779         1.9260

MULLIKEN ATOMIC CHARGES
-----------------------
   0 C :   -0.530391
   1 C :    0.149853
   2 C :   -0.222072
   3 C :    0.182055
   4 C :   -0.210825
   5 C :   -0.128902
   6 C :   -0.135802
   7 C :   -0.150461
   8 C :    0.206787
   9 N :   -0.438831
  10 C :    0.338186
  11 N :   -0.613137
  12 C :   -0.230123
  13 C :    0.153496
  14 C :   -0.184321
  15 C :   -0.118247
  16 C :   -0.169138
  17 C :    0.353907
  18 O :   -0.552827
  19 C :    1.083454
  20 F :   -0.280590
  21 F :   -0.298098
  22 F :   -0.287230
  23 C :   -0.194074
  24 S :    1.207902
  25 O :   -0.549461
  26 O :   -0.562649
  27 C :   -0.139894
  28 C :   -0.170757
  29 C :   -0.153784
  30 C :    0.106134
  31 C :    0.409598
  32 O :   -0.554027
  33 O :   -0.660990
  34 C :   -0.166530
  35 C :   -0.123546
  36 H :    0.155887
  37 H :    0.141837
  38 H :    0.194088
  39 H :    0.125738
  40 H :    0.117916
  41 H :    0.118948
  42 H :    0.132804
  43 H :    0.169345
  44 H :    0.180034
  45 H :    0.169874
  46 H :    0.134265
  47 H :    0.130529
  48 H :    0.130904
  49 H :    0.158478
  50 H :    0.138742
  51 H :    0.147074
  52 H :    0.141530
  53 H :    0.147343
Sum of atomic charges:   -1.0000000

LOEWDIN ATOMIC CHARGES
----------------------
   0 C :   -0.352991
   1 C :   -0.030995
   2 C :   -0.105874
   3 C :   -0.027151
   4 C :   -0.129547
   5 C :   -0.132812
   6 C :   -0.128372
   7 C :   -0.109351
   8 C :    0.015564
   9 N :   -0.114939
  10 C :    0.059596
  11 N :   -0.290731
  12 C :   -0.144756
  13 C :   -0.014511
  14 C :   -0.140594
  15 C :   -0.120326
  16 C :   -0.146983
  17 C :    0.087936
  18 O :   -0.163566
  19 C :    0.357309
  20 F :   -0.096708
  21 F :   -0.110562
  22 F :   -0.094509
  23 C :   -0.142636
  24 S :    1.267983
  25 O :   -0.571156
  26 O :   -0.586312
  27 C :   -0.212944
  28 C :   -0.136214
  29 C :   -0.112299
  30 C :   -0.004243
  31 C :    0.071327
  32 O :   -0.379503
  33 O :   -0.509181
  34 C :   -0.118461
  35 C :   -0.109315
  36 H :    0.131762
  37 H :    0.124791
  38 H :    0.150984
  39 H :    0.131809
  40 H :    0.126552
  41 H :    0.127450
  42 H :    0.134353
  43 H :    0.154700
  44 H :    0.135589
  45 H :    0.141468
  46 H :    0.134156
  47 H :    0.134231
  48 H :    0.137038
  49 H :    0.143985
  50 H :    0.134765
  51 H :    0.147862
  52 H :    0.144022
  53 H :    0.142309

  Mayer bond orders larger than 0.100000
B(  0-C ,  1-C ) :   0.9912 B(  0-C , 36-H ) :   0.9275 B(  0-C , 37-H ) :   0.9437
B(  0-C , 38-H ) :   0.9207 B(  1-C ,  2-C ) :   1.4933 B(  1-C , 10-C ) :   1.2898
B(  2-C ,  3-C ) :   1.2840 B(  2-C , 39-H ) :   0.9177 B(  3-C ,  4-C ) :   1.2866
B(  3-C ,  8-C ) :   1.2514 B(  4-C ,  5-C ) :   1.5106 B(  4-C ,  7-C ) :   0.1070
B(  4-C , 40-H ) :   0.9265 B(  5-C ,  6-C ) :   1.3490 B(  5-C , 41-H ) :   0.9324
B(  6-C ,  7-C ) :   1.5135 B(  6-C , 42-H ) :   0.9302 B(  7-C ,  8-C ) :   1.3041
B(  7-C , 43-H ) :   0.9101 B(  8-C ,  9-N ) :   1.2423 B(  9-N , 10-C ) :   1.4463
B( 10-C , 11-N ) :   0.9258 B( 11-N , 12-C ) :   0.9228 B( 11-N , 24-S ) :   0.7513
B( 12-C , 13-C ) :   0.9683 B( 12-C , 44-H ) :   0.9112 B( 12-C , 45-H ) :   0.9140
B( 13-C , 14-C ) :   1.4344 B( 13-C , 23-C ) :   1.4141 B( 14-C , 15-C ) :   1.4345
B( 14-C , 46-H ) :   0.9206 B( 15-C , 16-C ) :   1.4535 B( 15-C , 47-H ) :   0.9292
B( 16-C , 17-C ) :   1.4135 B( 16-C , 48-H ) :   0.9214 B( 17-C , 18-O ) :   0.8073
B( 17-C , 23-C ) :   1.3938 B( 18-O , 19-C ) :   0.9998 B( 19-C , 20-F ) :   0.9816
B( 19-C , 21-F ) :   0.9570 B( 19-C , 22-F ) :   0.9992 B( 23-C , 49-H ) :   0.8890
B( 24-S , 25-O ) :   1.6329 B( 24-S , 26-O ) :   1.6277 B( 24-S , 27-C ) :   0.8415
B( 27-C , 28-C ) :   1.3582 B( 27-C , 35-C ) :   1.3772 B( 28-C , 29-C ) :   1.4010
B( 28-C , 50-H ) :   0.9169 B( 29-C , 30-C ) :   1.4078 B( 29-C , 51-H ) :   0.9024
B( 30-C , 31-C ) :   0.9277 B( 30-C , 34-C ) :   1.3853 B( 31-C , 32-O ) :   1.7068
B( 31-C , 33-O ) :   1.5508 B( 32-O , 33-O ) :   0.1470 B( 34-C , 35-C ) :   1.4106
B( 34-C , 52-H ) :   0.9085 B( 35-C , 53-H ) :   0.9177

FINAL SINGLE POINT ENERGY     -2145.761925052444

DIPOLE MOMENT
-------------

Method             : SCF
Type of density    : Electron Density
Multiplicity       :   1
Irrep              :   0
Energy             : -2145.7619250524435301 Eh
Relativity type    :
Basis              : AO
                                X                 Y                 Z
Electronic contribution:     29.842122930     -12.052179393       9.584476845
Nuclear contribution   :    -21.278556039      16.966791828     -12.286770026
                        -----------------------------------------
Total Dipole Moment    :      8.563566890       4.914612435      -2.702293182
                        -----------------------------------------
Magnitude (a.u.)       :     10.236722215
Magnitude (Debye)      :     26.019680054

Rotational constants in cm-1:             0.004180             0.002435             0.001711
Rotational constants in MHz :           125.302238            72.991469            51.287762

                             ****ORCA TERMINATED NORMALLY****
TOTAL RUN TIME: 0 days 0 hours 7 minutes 16 seconds 218 msec
