                         Program Version 6.0.0  -   RELEASE  -
|  1> ! B3LYP 6-31G* SP
|  2>
|  3> * xyz 0 1
|  4> C -3.4784 0.8582 0.3008
|  5> C -2.4600 1.8013 -0.2797
|  6> C -2.8254 3.1391 -0.4994
|  7> C -1.9005 4.0471 -1.0308
|  8> C -2.2318 5.3959 -1.2363
|  9> C -1.2765 6.2831 -1.7580
| 10> C 0.0075 5.8303 -2.0783
| 11> C 0.3445 4.4872 -1.8764
| 12> C -0.6044 3.5930 -1.3547
| 13> N -0.2741 2.2900 -1.1536
| 14> C -1.1553 1.3880 -0.6331
| 15> N -0.7191 0.0389 -0.4260
| 16> C -0.2426 -0.3864 0.8922
| 17> C 1.2463 -0.6387 0.9241
| 18> C 1.7707 -1.4420 1.9456
| 19> C 3.1474 -1.6528 2.0505
| 20> C 4.0267 -1.0562 1.1377
| 21> C 5.5110 -1.2491 1.2835
| 22> C 6.0965 -0.1429 2.1667
| 23> C 7.4294 -0.4804 2.8240
| 24> C 6.1568 -0.4548 3.6568
| 25> C 3.5113 -0.2271 0.1317
| 26> C 2.1330 -0.0195 0.0264
| 27> S -0.8249 -1.0976 -1.7361
| 28> O -0.8584 -0.3578 -3.0466
| 29> O 0.3800 -1.9966 -1.7388
| 30> C -2.2875 -2.0606 -1.5591
| 31> C -2.2838 -3.1913 -0.7315
| 32> C -3.4491 -3.9443 -0.5605
| 33> C -4.6358 -3.5821 -1.2234
| 34> C -5.8650 -4.3880 -1.0488
| 35> O -6.9201 -4.0845 -1.6679
| 36> O -5.8669 -5.4937 -0.2003
| 37> C -4.6331 -2.4435 -2.0515
| 38> C -3.4681 -1.6862 -2.2139
| 39> H -3.9684 1.3319 1.1768
| 40> H -3.0307 -0.0969 0.6384
| 41> H -4.2510 0.6395 -0.4628
| 42> H -3.8237 3.4728 -0.2430
| 43> H -3.2235 5.7634 -0.9930
| 44> H -1.5317 7.3233 -1.9212
| 45> H 0.7410 6.5194 -2.4920
| 46> H 1.3390 4.1447 -2.1303
| 47> H -0.4784 0.3854 1.6551
| 48> H -0.7853 -1.3102 1.1850
| 49> H 1.1117 -1.9009 2.6705
| 50> H 3.5301 -2.2747 2.8489
| 51> H 5.9983 -1.2023 0.2890
| 52> H 5.7225 -2.2588 1.6981
| 53> H 5.9685 0.9245 1.8872
| 54> H 8.0982 0.3936 3.0027
| 55> H 7.8190 -1.5069 2.6280
| 56> H 5.7890 -1.4607 3.9622
| 57> H 6.0532 0.4386 4.3102
| 58> H 4.1784 0.2659 -0.5663
| 59> H 1.7691 0.6229 -0.7588
| 60> H -1.3794 -3.4866 -0.2135
| 61> H -3.4210 -4.8081 0.0920
| 62> H -6.6990 -6.0592 -0.0854
| 63> H -5.5316 -2.1334 -2.5724
| 64> H -3.4946 -0.8032 -2.8411
| 65> *
| 66>
| 67>                          ****END OF INPUT****

CARTESIAN COORDINATES (ANGSTROEM)
---------------------------------
  C     -3.478400    0.858200    0.300800
  C     -2.460000    1.801300   -0.279700
  C     -2.825400    3.139100   -0.499400
  C     -1.900500    4.047100   -1.030800
  C     -2.231800    5.395900   -1.236300
  C     -1.276500    6.283100   -1.758000
  C      0.007500    5.830300   -2.078300
  C      0.344500    4.487200   -1.876400
  C     -0.604400    3.593000   -1.354700
  N     -0.274100    2.290000   -1.153600
  C     -1.155300    1.388000   -0.633100
  N     -0.719100    0.038900   -0.426000
  C     -0.242600   -0.386400    0.892200
  C      1.246300   -0.638700    0.924100
  C      1.770700   -1.442000    1.945600
  C      3.147400   -1.652800    2.050500
  C      4.026700   -1.056200    1.137700
  C      5.511000   -1.249100    1.283500
  C      6.096500   -0.142900    2.166700
  C      7.429400   -0.480400    2.824000
  C      6.156800   -0.454800    3.656800
  C      3.511300   -0.227100    0.131700
  C      2.133000   -0.019500    0.026400
  S     -0.824900   -1.097600   -1.736100
  O     -0.858400   -0.357800   -3.046600
  O      0.380000   -1.996600   -1.738800
  C     -2.287500   -2.060600   -1.559100
  C     -2.283800   -3.191300   -0.731500
  C     -3.449100   -3.944300   -0.560500
  C     -4.635800   -3.582100   -1.223400
  C     -5.865000   -4.388000   -1.048800
  O     -6.920100   -4.084500   -1.667900
  O     -5.866900   -5.493700   -0.200300
  C     -4.633100   -2.443500   -2.051500
  C     -3.468100   -1.686200   -2.213900
  H     -3.968400    1.331900    1.176800
  H     -3.030700   -0.096900    0.638400
  H     -4.251000    0.639500   -0.462800
  H     -3.823700    3.472800   -0.243000
  H     -3.223500    5.763400   -0.993000
  H     -1.531700    7.323300   -1.921200
  H      0.741000    6.519400   -2.492000
  H      1.339000    4.144700   -2.130300
  H     -0.478400    0.385400    1.655100
  H     -0.785300   -1.310200    1.185000
  H      1.111700   -1.900900    2.670500
  H      3.530100   -2.274700    2.848900
  H      5.998300   -1.202300    0.289000
  H      5.722500   -2.258800    1.698100
  H      5.968500    0.924500    1.887200
  H      8.098200    0.393600    3.002700
  H      7.819000   -1.506900    2.628000
  H      5.789000   -1.460700    3.962200
  H      6.053200    0.438600    4.310200
  H      4.178400    0.265900   -0.566300
  H      1.769100    0.622900   -0.758800
  H     -1.379400   -3.486600   -0.213500
  H     -3.421000   -4.808100    0.092000
  H     -6.699000   -6.059200   -0.085400
  H     -5.531600   -2.133400   -2.572400
  H     -3.494600   -0.803200   -2.841100

 Total Charge           Charge          ....    0
 Multiplicity           Mult            ....    1
 Number of Electrons    NEL             ....  256
 Basis Dimension        Dim             ....  546

ORBITAL ENERGIES
----------------

  NO   OCC          E(Eh)            E(eV)
   0   2.0000     -89.096049     -2424.4268
   1   2.0000     -19.198112      -522.4072
   2   2.0000     -19.140061      -520.8275
   3   2.0000     -19.123512      -520.3772
   4   2.0000     -19.122696      -520.3550
   5   2.0000     -14.370041      -391.0287
   6   2.0000     -14.330714      -389.9586
   7   2.0000     -10.337557      -281.2992
   8   2.0000     -10.266067      -279.3539
   9   2.0000     -10.243273      -278.7336
  10   2.0000     -10.234316      -278.4899
  11   2.0000     -10.233770      -278.4750
  12   2.0000     -10.222384      -278.1652
  13   2.0000     -10.222065      -278.1565
  14   2.0000     -10.221704      -278.1467
  15   2.0000     -10.219942      -278.0988
  16   2.0000     -10.219938      -278.0986
  17   2.0000     -10.210666      -277.8463
  18   2.0000     -10.203437      -277.6496
  19   2.0000     -10.199246      -277.5356
  20   2.0000     -10.194122      -277.3962
  21   2.0000     -10.193478      -277.3786
  22   2.0000     -10.193038      -277.3667
  23   2.0000     -10.191151      -277.3153
  24   2.0000     -10.187835      -277.2251
  25   2.0000     -10.179217      -276.9906
  26   2.0000     -10.175770      -276.8968
  27   2.0000     -10.171840      -276.7898
  28   2.0000     -10.171607      -276.7835
  29   2.0000     -10.171006      -276.7671
  30   2.0000     -10.170274      -276.7472
  31   2.0000     -10.167906      -276.6828
  32   2.0000     -10.164473      -276.5894
  33   2.0000     -10.161263      -276.5020
  34   2.0000     -10.159183      -276.4454
  35   2.0000      -8.131510      -221.2696
  36   2.0000      -6.096611      -165.8972
  37   2.0000      -6.094486      -165.8394
  38   2.0000      -6.094211      -165.8319
  39   2.0000      -1.082627       -29.4598
  40   2.0000      -1.080298       -29.3964
  41   2.0000      -0.997211       -27.1355
  42   2.0000      -0.962782       -26.1986
  43   2.0000      -0.958101       -26.0712
  44   2.0000      -0.916774       -24.9467
  45   2.0000      -0.891737       -24.2654
  46   2.0000      -0.849390       -23.1131
  47   2.0000      -0.846341       -23.0301
  48   2.0000      -0.832551       -22.6549
  49   2.0000      -0.821289       -22.3484
  50   2.0000      -0.808010       -21.9871
  51   2.0000      -0.778585       -21.1864
  52   2.0000      -0.775917       -21.1138
  53   2.0000      -0.764585       -20.8054
  54   2.0000      -0.744474       -20.2582
  55   2.0000      -0.725539       -19.7429
  56   2.0000      -0.721830       -19.6420
  57   2.0000      -0.704498       -19.1704
  58   2.0000      -0.695379       -18.9222
  59   2.0000      -0.663926       -18.0664
  60   2.0000      -0.656539       -17.8653
  61   2.0000      -0.641041       -17.4436
  62   2.0000      -0.625070       -17.0090
  63   2.0000      -0.614358       -16.7175
  64   2.0000      -0.606963       -16.5163
  65   2.0000      -0.598448       -16.2846
  66   2.0000      -0.589820       -16.0498
  67   2.0000      -0.574463       -15.6319
  68   2.0000      -0.568031       -15.4569
  69   2.0000      -0.558716       -15.2034
  70   2.0000      -0.549737       -14.9591
  71   2.0000      -0.541774       -14.7424
  72   2.0000      -0.534655       -14.5487
  73   2.0000      -0.512180       -13.9371
  74   2.0000      -0.501569       -13.6484
  75   2.0000      -0.492398       -13.3988
  76   2.0000      -0.491702       -13.3799
  77   2.0000      -0.481270       -13.0960
  78   2.0000      -0.476892       -12.9769
  79   2.0000      -0.471322       -12.8253
  80   2.0000      -0.467489       -12.7210
  81   2.0000      -0.462694       -12.5906
  82   2.0000      -0.452563       -12.3149
  83   2.0000      -0.450528       -12.2595
  84   2.0000      -0.447298       -12.1716
  85   2.0000      -0.443998       -12.0818
  86   2.0000      -0.440856       -11.9963
  87   2.0000      -0.438074       -11.9206
  88   2.0000      -0.436426       -11.8757
  89   2.0000      -0.432924       -11.7805
  90   2.0000      -0.424528       -11.5520
  91   2.0000      -0.421872       -11.4797
  92   2.0000      -0.417130       -11.3507
  93   2.0000      -0.412100       -11.2138
  94   2.0000      -0.405330       -11.0296
  95   2.0000      -0.403895       -10.9905
  96   2.0000      -0.401005       -10.9119
  97   2.0000      -0.399316       -10.8659
  98   2.0000      -0.393225       -10.7002
  99   2.0000      -0.389342       -10.5945
 100   2.0000      -0.386649       -10.5213
 101   2.0000      -0.370866       -10.0918
 102   2.0000      -0.370179       -10.0731
 103   2.0000      -0.363174        -9.8825
 104   2.0000      -0.361829        -9.8459
 105   2.0000      -0.357623        -9.7314
 106   2.0000      -0.355689        -9.6788
 107   2.0000      -0.340734        -9.2718
 108   2.0000      -0.335228        -9.1220
 109   2.0000      -0.329214        -8.9584
 110   2.0000      -0.322530        -8.7765
 111   2.0000      -0.322159        -8.7664
 112   2.0000      -0.319141        -8.6843
 113   2.0000      -0.304793        -8.2938
 114   2.0000      -0.302710        -8.2372
 115   2.0000      -0.290145        -7.8952
 116   2.0000      -0.287968        -7.8360
 117   2.0000      -0.280615        -7.6359
 118   2.0000      -0.276793        -7.5319
 119   2.0000      -0.270414        -7.3583
 120   2.0000      -0.268371        -7.3027
 121   2.0000      -0.261441        -7.1142
 122   2.0000      -0.258332        -7.0296
 123   2.0000      -0.252885        -6.8813
 124   2.0000      -0.250651        -6.8206
 125   2.0000      -0.229751        -6.2518
 126   2.0000      -0.226178        -6.1546
 127   2.0000      -0.214671        -5.8415
 128   0.0000      -0.084744        -2.3060
 129   0.0000      -0.066336        -1.8051
 130   0.0000      -0.034203        -0.9307
 131   0.0000      -0.022356        -0.6083
 132   0.0000       0.010120         0.2754

MULLIKEN ATOMIC CHARGES
-----------------------
   0 C :   -0.537914
   1 C :    0.153561
   2 C :   -0.205400
   3 C :    0.177678
   4 C :   -0.208948
   5 C :   -0.127673
   6 C :   -0.131244
   7 C :   -0.141904
   8 C :    0.214451
   9 N :   -0.426825
  10 C :    0.310294
  11 N :   -0.620622
  12 C :   -0.225538
  13 C :    0.162490
  14 C :   -0.181392
  15 C :   -0.169954
  16 C :    0.182519
  17 C :   -0.369504
  18 C :   -0.067426
  19 C :   -0.313298
  20 C :   -0.301252
  21 C :   -0.181170
  22 C :   -0.150871
  23 S :    1.202602
  24 O :   -0.533742
  25 O :   -0.528605
  26 C :   -0.117672
  27 C :   -0.153876
  28 C :   -0.147142
  29 C :    0.082712
  30 C :    0.528386
  31 O :   -0.443548
  32 O :   -0.624332
  33 C :   -0.142211
  34 C :   -0.147710
  35 H :    0.161937
  36 H :    0.165189
  37 H :    0.170437
  38 H :    0.137492
  39 H :    0.132798
  40 H :    0.135266
  41 H :    0.138896
  42 H :    0.151074
  43 H :    0.182127
  44 H :    0.148802
  45 H :    0.105257
  46 H :    0.113286
  47 H :    0.142629
  48 H :    0.133009
  49 H :    0.141323
  50 H :    0.141614
  51 H :    0.143754
  52 H :    0.142238
  53 H :    0.142261
  54 H :    0.121584
  55 H :    0.172609
  56 H :    0.183927
  57 H :    0.173614
  58 H :    0.434531
  59 H :    0.180645
  60 H :    0.188782
Sum of atomic charges:    0.0000000

LOEWDIN ATOMIC CHARGES
----------------------
   0 C :   -0.359220
   1 C :   -0.036774
   2 C :   -0.097300
   3 C :   -0.022396
   4 C :   -0.123748
   5 C :   -0.123155
   6 C :   -0.123329
   7 C :   -0.109431
   8 C :    0.017017
   9 N :   -0.105837
  10 C :    0.046496
  11 N :   -0.284549
  12 C :   -0.144159
  13 C :   -0.037971
  14 C :   -0.138443
  15 C :   -0.135551
  16 C :   -0.013621
  17 C :   -0.212236
  18 C :   -0.130374
  19 C :   -0.260728
  20 C :   -0.257293
  21 C :   -0.131876
  22 C :   -0.114971
  23 S :    1.266457
  24 O :   -0.563649
  25 O :   -0.555359
  26 C :   -0.173463
  27 C :   -0.110714
  28 C :   -0.098994
  29 C :   -0.040047
  30 C :    0.180077
  31 O :   -0.259807
  32 O :   -0.335619
  33 C :   -0.086998
  34 C :   -0.104725
  35 H :    0.137235
  36 H :    0.135600
  37 H :    0.141789
  38 H :    0.137500
  39 H :    0.133244
  40 H :    0.134988
  41 H :    0.136932
  42 H :    0.147178
  43 H :    0.148533
  44 H :    0.124337
  45 H :    0.121231
  46 H :    0.125141
  47 H :    0.125917
  48 H :    0.124087
  49 H :    0.130493
  50 H :    0.128858
  51 H :    0.128928
  52 H :    0.127098
  53 H :    0.129424
  54 H :    0.129108
  55 H :    0.149838
  56 H :    0.157883
  57 H :    0.155004
  58 H :    0.349967
  59 H :    0.160256
  60 H :    0.161718

  Mayer bond orders larger than 0.100000
B(  0-C ,  1-C ) :   0.9827 B(  0-C , 35-H ) :   0.9389 B(  0-C , 36-H ) :   0.9359
B(  0-C , 37-H ) :   0.9293 B(  1-C ,  2-C ) :   1.4588 B(  1-C , 10-C ) :   1.3048
B(  2-C ,  3-C ) :   1.2977 B(  2-C , 38-H ) :   0.9197 B(  3-C ,  4-C ) :   1.2816
B(  3-C ,  8-C ) :   1.2434 B(  4-C ,  5-C ) :   1.5133 B(  4-C ,  7-C ) :   0.1092
B(  4-C , 39-H ) :   0.9251 B(  5-C ,  6-C ) :   1.3453 B(  5-C , 40-H ) :   0.9298
B(  6-C ,  7-C ) :   1.5186 B(  6-C , 41-H ) :   0.9288 B(  7-C ,  8-C ) :   1.2972
B(  7-C , 42-H ) :   0.9167 B(  8-C ,  9-N ) :   1.2356 B(  9-N , 10-C ) :   1.4639
B( 10-C , 11-N ) :   0.8959 B( 11-N , 12-C ) :   0.9163 B( 11-N , 23-S ) :   0.8023
B( 12-C , 13-C ) :   0.9590 B( 12-C , 43-H ) :   0.9138 B( 12-C , 44-H ) :   0.9225
B( 13-C , 14-C ) :   1.4222 B( 13-C , 22-C ) :   1.4431 B( 14-C , 15-C ) :   1.4276
B( 14-C , 45-H ) :   0.9275 B( 15-C , 16-C ) :   1.4366 B( 15-C , 46-H ) :   0.9249
B( 16-C , 17-C ) :   0.9702 B( 16-C , 21-C ) :   1.4272 B( 17-C , 18-C ) :   1.0069
B( 17-C , 47-H ) :   0.9309 B( 17-C , 48-H ) :   0.9322 B( 18-C , 19-C ) :   0.9449
B( 18-C , 20-C ) :   0.9572 B( 18-C , 49-H ) :   0.9338 B( 19-C , 20-C ) :   0.9628
B( 19-C , 50-H ) :   0.9467 B( 19-C , 51-H ) :   0.9450 B( 20-C , 52-H ) :   0.9448
B( 20-C , 53-H ) :   0.9470 B( 21-C , 22-C ) :   1.4280 B( 21-C , 54-H ) :   0.9263
B( 22-C , 55-H ) :   0.8942 B( 23-S , 24-O ) :   1.6450 B( 23-S , 25-O ) :   1.6507
B( 23-S , 26-C ) :   0.8082 B( 26-C , 27-C ) :   1.3886 B( 26-C , 34-C ) :   1.3848
B( 27-C , 28-C ) :   1.4160 B( 27-C , 56-H ) :   0.9090 B( 28-C , 29-C ) :   1.3858
B( 28-C , 57-H ) :   0.9146 B( 29-C , 30-C ) :   1.0080 B( 29-C , 33-C ) :   1.3993
B( 30-C , 31-O ) :   1.8637 B( 30-C , 32-O ) :   1.0242 B( 32-O , 58-H ) :   0.7416
B( 33-C , 34-C ) :   1.4176 B( 33-C , 59-H ) :   0.9097 B( 34-C , 60-H ) :   0.9082

FINAL SINGLE POINT ENERGY     -1890.116655459087

DIPOLE MOMENT
-------------

Method             : SCF
Type of density    : Electron Density
Multiplicity       :   1
Irrep              :   0
Energy             : -1890.1166554590872693 Eh
Relativity type    :
Basis              : AO
                                X                 Y                 Z
Electronic contribution:    -29.508575411      -6.896396754     -20.325467784
Nuclear contribution   :     28.004659907       7.488074836      22.209586591
                        -----------------------------------------
Total Dipole Moment    :     -1.503915505       0.591678082       1.884118807
                        -----------------------------------------
Magnitude (a.u.)       :      2.482286945
Magnitude (Debye)      :      6.309471992

Rotational constants in cm-1:             0.003788             0.002264             0.001543
Rotational constants in MHz :           113.548280            67.875302            46.262258

                             ****ORCA TERMINATED NORMALLY****
TOTAL RUN TIME: 0 days 0 hours 7 minutes 35 seconds 467 msec
