                         Program Version 6.0.0  -   RELEASE  -
|  1> ! B3LYP 6-31G* SP
|  2>
|  3> * xyz 0 1
|  4> C -2.5415 -2.6401 -1.3507
|  5> N -3.3444 -1.4953 -0.8761
|  6> C -2.8107 -0.2364 -0.9036
|  7> O -1.6378 -0.0838 -1.3386
|  8> C -3.5620 0.8769 -0.4538
|  9> C -3.0501 2.2207 -0.4195
| 10> C -1.6465 2.6192 -0.8445
| 11> C -0.6274 2.2139 0.1836
| 12> O -0.8328 2.4888 1.3969
| 13> N 0.5975 1.5863 -0.2293
| 14> C 1.5541 0.9921 0.6603
| 15> N 2.7259 0.4827 0.2257
| 16> C 3.4672 -0.0567 1.2348
| 17> C 4.7996 -0.6671 0.9754
| 18> C 5.4545 -1.4421 1.9490
| 19> C 6.7013 -2.0079 1.6840
| 20> C 7.3201 -1.8185 0.4460
| 21> Cl 8.8936 -2.5668 0.1853
| 22> C 6.6830 -1.0496 -0.5524
| 23> C 7.3404 -0.8393 -1.9004
| 24> F 7.5427 -2.0626 -2.5137
| 25> F 8.5599 -0.2091 -1.7292
| 26> F 6.5633 -0.0580 -2.7385
| 27> C 5.4233 -0.4820 -0.2732
| 28> C 2.8662 0.0260 2.4961
| 29> S 1.3775 0.7875 2.3205
| 30> C -3.8632 3.2523 0.0756
| 31> C -5.1535 3.0003 0.5096
| 32> C -5.6674 1.7132 0.4669
| 33> C -4.8939 0.6281 -0.0107
| 34> N -5.4148 -0.6491 -0.0528
| 35> C -6.8086 -0.9067 0.3735
| 36> C -4.6406 -1.6949 -0.4886
| 37> O -5.1270 -2.8612 -0.5375
| 38> H -2.6893 -2.7717 -2.4433
| 39> H -2.8237 -3.5789 -0.8282
| 40> H -1.4599 -2.4925 -1.1439
| 41> H -1.4111 2.2089 -1.8476
| 42> H -1.5677 3.7206 -0.9737
| 43> H 0.8068 1.5405 -1.2521
| 44> H 5.0067 -1.6297 2.9141
| 45> H 7.1876 -2.6024 2.4474
| 46> H 4.9252 0.1131 -1.0275
| 47> H 3.2721 -0.3162 3.4365
| 48> H -3.4947 4.2697 0.1316
| 49> H -5.7630 3.8123 0.8856
| 50> H -6.6798 1.5869 0.8216
| 51> H -6.9280 -0.6512 1.4480
| 52> H -7.5110 -0.3045 -0.2417
| 53> H -7.1179 -1.9657 0.2585
| 54> *
| 55>
| 56>                          ****END OF INPUT****

CARTESIAN COORDINATES (ANGSTROEM)
---------------------------------
  C     -2.541500   -2.640100   -1.350700
  N     -3.344400   -1.495300   -0.876100
  C     -2.810700   -0.236400   -0.903600
  O     -1.637800   -0.083800   -1.338600
  C     -3.562000    0.876900   -0.453800
  C     -3.050100    2.220700   -0.419500
  C     -1.646500    2.619200   -0.844500
  C     -0.627400    2.213900    0.183600
  O     -0.832800    2.488800    1.396900
  N      0.597500    1.586300   -0.229300
  C      1.554100    0.992100    0.660300
  N      2.725900    0.482700    0.225700
  C      3.467200   -0.056700    1.234800
  C      4.799600   -0.667100    0.975400
  C      5.454500   -1.442100    1.949000
  C      6.701300   -2.007900    1.684000
  C      7.320100   -1.818500    0.446000
  Cl     8.893600   -2.566800    0.185300
  C      6.683000   -1.049600   -0.552400
  C      7.340400   -0.839300   -1.900400
  F      7.542700   -2.062600   -2.513700
  F      8.559900   -0.209100   -1.729200
  F      6.563300   -0.058000   -2.738500
  C      5.423300   -0.482000   -0.273200
  C      2.866200    0.026000    2.496100
  S      1.377500    0.787500    2.320500
  C     -3.863200    3.252300    0.075600
  C     -5.153500    3.000300    0.509600
  C     -5.667400    1.713200    0.466900
  C     -4.893900    0.628100   -0.010700
  N     -5.414800   -0.649100   -0.052800
  C     -6.808600   -0.906700    0.373500
  C     -4.640600   -1.694900   -0.488600
  O     -5.127000   -2.861200   -0.537500
  H     -2.689300   -2.771700   -2.443300
  H     -2.823700   -3.578900   -0.828200
  H     -1.459900   -2.492500   -1.143900
  H     -1.411100    2.208900   -1.847600
  H     -1.567700    3.720600   -0.973700
  H      0.806800    1.540500   -1.252100
  H      5.006700   -1.629700    2.914100
  H      7.187600   -2.602400    2.447400
  H      4.925200    0.113100   -1.027500
  H      3.272100   -0.316200    3.436500
  H     -3.494700    4.269700    0.131600
  H     -5.763000    3.812300    0.885600
  H     -6.679800    1.586900    0.821600
  H     -6.928000   -0.651200    1.448000
  H     -7.511000   -0.304500   -0.241700
  H     -7.117900   -1.965700    0.258500

 Total Charge           Charge          ....    0
 Multiplicity           Mult            ....    1
 Number of Electrons    NEL             ....  260
 Basis Dimension        Dim             ....  516

ORBITAL ENERGIES
----------------

  NO   OCC          E(Eh)            E(eV)
   0   2.0000    -101.527939     -2762.7157
   1   2.0000     -88.902169     -2419.1510
   2   2.0000     -24.716153      -672.5607
   3   2.0000     -24.708628      -672.3560
   4   2.0000     -24.708565      -672.3542
   5   2.0000     -19.130998      -520.5809
   6   2.0000     -19.119458      -520.2669
   7   2.0000     -19.113052      -520.0926
   8   2.0000     -14.407111      -392.0374
   9   2.0000     -14.401403      -391.8821
  10   2.0000     -14.389913      -391.5694
  11   2.0000     -14.329842      -389.9348
  12   2.0000     -10.431476      -283.8549
  13   2.0000     -10.329587      -281.0824
  14   2.0000     -10.310687      -280.5681
  15   2.0000     -10.300790      -280.2988
  16   2.0000     -10.288569      -279.9662
  17   2.0000     -10.263626      -279.2875
  18   2.0000     -10.257884      -279.1312
  19   2.0000     -10.237184      -278.5679
  20   2.0000     -10.230250      -278.3793
  21   2.0000     -10.227316      -278.2994
  22   2.0000     -10.222049      -278.1561
  23   2.0000     -10.220261      -278.1074
  24   2.0000     -10.218442      -278.0580
  25   2.0000     -10.210911      -277.8530
  26   2.0000     -10.210909      -277.8530
  27   2.0000     -10.208855      -277.7971
  28   2.0000     -10.206375      -277.7296
  29   2.0000     -10.205293      -277.7001
  30   2.0000     -10.203830      -277.6603
  31   2.0000     -10.203377      -277.6480
  32   2.0000     -10.201581      -277.5991
  33   2.0000     -10.197728      -277.4943
  34   2.0000      -9.459798      -257.4142
  35   2.0000      -7.978303      -217.1007
  36   2.0000      -7.223072      -196.5498
  37   2.0000      -7.213382      -196.2861
  38   2.0000      -7.212828      -196.2710
  39   2.0000      -5.941425      -161.6744
  40   2.0000      -5.937184      -161.5590
  41   2.0000      -5.935293      -161.5075
  42   2.0000      -1.272656       -34.6307
  43   2.0000      -1.198553       -32.6143
  44   2.0000      -1.195132       -32.5212
  45   2.0000      -1.073129       -29.2013
  46   2.0000      -1.031903       -28.0795
  47   2.0000      -1.028133       -27.9769
  48   2.0000      -0.975965       -26.5574
  49   2.0000      -0.974578       -26.5196
  50   2.0000      -0.945065       -25.7165
  51   2.0000      -0.912435       -24.8286
  52   2.0000      -0.895123       -24.3575
  53   2.0000      -0.874248       -23.7895
  54   2.0000      -0.843052       -22.9406
  55   2.0000      -0.808084       -21.9891
  56   2.0000      -0.802989       -21.8504
  57   2.0000      -0.792573       -21.5670
  58   2.0000      -0.788156       -21.4468
  59   2.0000      -0.766197       -20.8493
  60   2.0000      -0.749784       -20.4027
  61   2.0000      -0.735120       -20.0036
  62   2.0000      -0.719501       -19.5786
  63   2.0000      -0.709257       -19.2999
  64   2.0000      -0.689330       -18.7576
  65   2.0000      -0.661611       -18.0034
  66   2.0000      -0.657630       -17.8950
  67   2.0000      -0.634210       -17.2577
  68   2.0000      -0.624169       -16.9845
  69   2.0000      -0.620535       -16.8856
  70   2.0000      -0.608029       -16.5453
  71   2.0000      -0.586570       -15.9614
  72   2.0000      -0.576117       -15.6769
  73   2.0000      -0.566788       -15.4231
  74   2.0000      -0.562119       -15.2960
  75   2.0000      -0.559365       -15.2211
  76   2.0000      -0.551566       -15.0089
  77   2.0000      -0.533660       -14.5216
  78   2.0000      -0.520521       -14.1641
  79   2.0000      -0.514555       -14.0018
  80   2.0000      -0.507751       -13.8166
  81   2.0000      -0.501861       -13.6563
  82   2.0000      -0.492342       -13.3973
  83   2.0000      -0.491087       -13.3631
  84   2.0000      -0.478073       -13.0090
  85   2.0000      -0.468985       -12.7617
  86   2.0000      -0.466077       -12.6826
  87   2.0000      -0.465036       -12.6543
  88   2.0000      -0.464305       -12.6344
  89   2.0000      -0.452744       -12.3198
  90   2.0000      -0.449588       -12.2339
  91   2.0000      -0.443801       -12.0764
  92   2.0000      -0.442143       -12.0313
  93   2.0000      -0.438804       -11.9405
  94   2.0000      -0.432809       -11.7773
  95   2.0000      -0.427477       -11.6322
  96   2.0000      -0.425481       -11.5779
  97   2.0000      -0.417355       -11.3568
  98   2.0000      -0.416350       -11.3295
  99   2.0000      -0.410402       -11.1676
 100   2.0000      -0.406611       -11.0645
 101   2.0000      -0.405326       -11.0295
 102   2.0000      -0.401526       -10.9261
 103   2.0000      -0.399012       -10.8577
 104   2.0000      -0.392559       -10.6821
 105   2.0000      -0.392167       -10.6714
 106   2.0000      -0.390302       -10.6207
 107   2.0000      -0.388014       -10.5584
 108   2.0000      -0.380466       -10.3530
 109   2.0000      -0.378838       -10.3087
 110   2.0000      -0.375901       -10.2288
 111   2.0000      -0.368432       -10.0255
 112   2.0000      -0.366285        -9.9671
 113   2.0000      -0.365410        -9.9433
 114   2.0000      -0.349671        -9.5150
 115   2.0000      -0.338759        -9.2181
 116   2.0000      -0.318982        -8.6799
 117   2.0000      -0.308860        -8.4045
 118   2.0000      -0.308397        -8.3919
 119   2.0000      -0.288354        -7.8465
 120   2.0000      -0.277987        -7.5644
 121   2.0000      -0.275402        -7.4941
 122   2.0000      -0.272407        -7.4126
 123   2.0000      -0.270436        -7.3589
 124   2.0000      -0.269371        -7.3300
 125   2.0000      -0.262519        -7.1435
 126   2.0000      -0.255845        -6.9619
 127   2.0000      -0.249066        -6.7774
 128   2.0000      -0.235024        -6.3953
 129   2.0000      -0.211096        -5.7442
 130   0.0000      -0.063722        -1.7340
 131   0.0000      -0.044687        -1.2160
 132   0.0000      -0.032026        -0.8715
 133   0.0000      -0.022967        -0.6250
 134   0.0000      -0.019660        -0.5350

MULLIKEN ATOMIC CHARGES
-----------------------
   0 C :   -0.315203
   1 N :   -0.464191
   2 C :    0.510858
   3 O :   -0.511761
   4 C :    0.008989
   5 C :    0.132755
   6 C :   -0.439081
   7 C :    0.590009
   8 O :   -0.462616
   9 N :   -0.628688
  10 C :    0.266630
  11 N :   -0.438608
  12 C :    0.217097
  13 C :    0.120182
  14 C :   -0.159279
  15 C :   -0.137826
  16 C :   -0.107313
  17 Cl:    0.011054
  18 C :   -0.015342
  19 C :    0.908819
  20 F :   -0.298361
  21 F :   -0.298555
  22 F :   -0.304240
  23 C :   -0.203806
  24 C :   -0.407509
  25 S :    0.318452
  26 C :   -0.177685
  27 C :   -0.105274
  28 C :   -0.195916
  29 C :    0.319227
  30 N :   -0.511493
  31 C :   -0.336876
  32 C :    0.672741
  33 O :   -0.509132
  34 H :    0.178115
  35 H :    0.197111
  36 H :    0.196204
  37 H :    0.181840
  38 H :    0.178565
  39 H :    0.361513
  40 H :    0.138945
  41 H :    0.159042
  42 H :    0.179791
  43 H :    0.179121
  44 H :    0.141395
  45 H :    0.146338
  46 H :    0.142800
  47 H :    0.174480
  48 H :    0.171798
  49 H :    0.224880
Sum of atomic charges:   -0.0000000

LOEWDIN ATOMIC CHARGES
----------------------
   0 C :   -0.258492
   1 N :   -0.019105
   2 C :    0.116127
   3 O :   -0.298319
   4 C :   -0.072628
   5 C :    0.044819
   6 C :   -0.241306
   7 C :    0.161757
   8 O :   -0.265089
   9 N :   -0.187093
  10 C :   -0.073015
  11 N :   -0.188608
  12 C :   -0.009630
  13 C :   -0.013670
  14 C :   -0.109255
  15 C :   -0.129900
  16 C :   -0.072514
  17 Cl:    0.046438
  18 C :   -0.075810
  19 C :    0.315138
  20 F :   -0.109577
  21 F :   -0.109708
  22 F :   -0.109886
  23 C :   -0.099033
  24 C :   -0.351647
  25 S :    0.428473
  26 C :   -0.134655
  27 C :   -0.096965
  28 C :   -0.162861
  29 C :    0.054363
  30 N :   -0.026360
  31 C :   -0.265280
  32 C :    0.137142
  33 O :   -0.318032
  34 H :    0.141003
  35 H :    0.153594
  36 H :    0.152879
  37 H :    0.149340
  38 H :    0.149256
  39 H :    0.280006
  40 H :    0.138301
  41 H :    0.148504
  42 H :    0.159887
  43 H :    0.159229
  44 H :    0.139389
  45 H :    0.141582
  46 H :    0.141100
  47 H :    0.136350
  48 H :    0.135374
  49 H :    0.168387

  Mayer bond orders larger than 0.100000
B(  0-C ,  1-N ) :   0.9160 B(  0-C , 34-H ) :   0.9406 B(  0-C , 35-H ) :   0.9253
B(  0-C , 36-H ) :   0.9239 B(  1-N ,  2-C ) :   1.0052 B(  1-N , 32-C ) :   1.0381
B(  2-C ,  3-O ) :   1.7296 B(  2-C ,  4-C ) :   1.0648 B(  4-C ,  5-C ) :   1.3573
B(  4-C , 29-C ) :   1.2855 B(  5-C ,  6-C ) :   0.9950 B(  5-C , 26-C ) :   1.4428
B(  6-C ,  7-C ) :   0.9405 B(  6-C , 37-H ) :   0.9026 B(  6-C , 38-H ) :   0.9105
B(  7-C ,  8-O ) :   1.8275 B(  7-C ,  9-N ) :   1.0236 B(  9-N , 10-C ) :   0.9596
B(  9-N , 39-H ) :   0.8059 B( 10-C , 11-N ) :   1.4756 B( 10-C , 24-C ) :   0.1046
B( 10-C , 25-S ) :   1.1801 B( 11-N , 12-C ) :   1.2882 B( 12-C , 13-C ) :   1.0555
B( 12-C , 24-C ) :   1.5149 B( 13-C , 14-C ) :   1.4039 B( 13-C , 23-C ) :   1.3666
B( 14-C , 15-C ) :   1.4395 B( 14-C , 40-H ) :   0.9180 B( 15-C , 16-C ) :   1.4032
B( 15-C , 41-H ) :   0.9214 B( 16-C , 17-Cl) :   1.0523 B( 16-C , 18-C ) :   1.3611
B( 18-C , 19-C ) :   0.9781 B( 18-C , 23-C ) :   1.3782 B( 19-C , 20-F ) :   0.9560
B( 19-C , 21-F ) :   0.9555 B( 19-C , 22-F ) :   0.9421 B( 23-C , 42-H ) :   0.8974
B( 24-C , 25-S ) :   1.1074 B( 24-C , 43-H ) :   0.9020 B( 26-C , 27-C ) :   1.4035
B( 26-C , 44-H ) :   0.9211 B( 27-C , 28-C ) :   1.4704 B( 27-C , 45-H ) :   0.9254
B( 28-C , 29-C ) :   1.3442 B( 28-C , 46-H ) :   0.9142 B( 29-C , 30-N ) :   0.9700
B( 30-N , 31-C ) :   0.9337 B( 30-N , 32-C ) :   1.0462 B( 31-C , 47-H ) :   0.9317
B( 31-C , 48-H ) :   0.9318 B( 31-C , 49-H ) :   0.9137 B( 32-C , 33-O ) :   1.7857

FINAL SINGLE POINT ENERGY     -2449.602304542911

DIPOLE MOMENT
-------------

Method             : SCF
Type of density    : Electron Density
Multiplicity       :   1
Irrep              :   0
Energy             : -2449.6023045429105878 Eh
Relativity type    :
Basis              : AO
                                X                 Y                 Z
Electronic contribution:     68.734975337      -7.064950970      -8.443954276
Nuclear contribution   :    -71.531762181       8.021479902       9.069540717
                        -----------------------------------------
Total Dipole Moment    :     -2.796786844       0.956528931       0.625586441
                        -----------------------------------------
Magnitude (a.u.)       :      3.021311411
Magnitude (Debye)      :      7.679563303

Rotational constants in cm-1:             0.007897             0.001199             0.001159
Rotational constants in MHz :           236.735032            35.940226            34.735880

                             ****ORCA TERMINATED NORMALLY****
TOTAL RUN TIME: 0 days 0 hours 6 minutes 20 seconds 102 msec
