                         Program Version 6.0.0  -   RELEASE  -
|  1> ! B3LYP 6-31G* SP
|  2>
|  3> * xyz -1 1
|  4> C 0.3701 -0.6751 2.0837
|  5> C -0.8102 -1.1486 1.2639
|  6> C -1.4357 -0.2868 0.3313
|  7> N -0.9751 1.0549 0.1329
|  8> C -0.2310 1.3974 -1.0794
|  9> C 1.1205 0.7414 -1.0482
| 10> C 2.1995 1.3736 -0.3890
| 11> C 3.4325 0.7162 -0.2539
| 12> C 3.5641 -0.5735 -0.7772
| 13> C 2.5206 -1.1849 -1.4114
| 14> C 1.2864 -0.5597 -1.5667
| 15> O 2.8536 -2.4520 -1.8342
| 16> C 4.2038 -2.7550 -1.4872
| 17> C 4.7439 -1.4965 -0.7299
| 18> C 5.9486 -0.8765 -1.4580
| 19> C 5.1029 -1.8353 0.7267
| 20> S -1.5218 2.3091 1.1993
| 21> O -0.3448 3.1320 1.6437
| 22> O -2.1678 1.7068 2.4161
| 23> C -2.6972 3.3093 0.3554
| 24> C -2.3777 4.6168 -0.0304
| 25> C -3.3116 5.3951 -0.7206
| 26> C -4.5784 4.8735 -1.0388
| 27> C -5.5695 5.6921 -1.7712
| 28> O -5.2900 6.8670 -2.1301
| 29> O -6.8242 5.1758 -2.0742
| 30> C -4.8900 3.5583 -0.6526
| 31> C -3.9541 2.7823 0.0373
| 32> N -2.4730 -0.7342 -0.4234
| 33> C -2.9585 -1.9944 -0.3185
| 34> C -2.3864 -2.8945 0.5838
| 35> C -2.8830 -4.2031 0.6889
| 36> C -2.3046 -5.1032 1.5845
| 37> C -1.2292 -4.7059 2.3793
| 38> C -0.7251 -3.4058 2.2858
| 39> C -1.2960 -2.4763 1.3878
| 40> H 0.1360 -0.7648 3.1656
| 41> H 0.6357 0.3825 1.8928
| 42> H 1.2629 -1.2905 1.8422
| 43> H -0.8025 1.0686 -1.9748
| 44> H -0.1099 2.4993 -1.1620
| 45> H 2.0760 2.3613 0.0378
| 46> H 4.2564 1.1939 0.2600
| 47> H 0.4695 -1.0798 -2.0509
| 48> H 4.2210 -3.6681 -0.8543
| 49> H 4.7782 -2.9634 -2.4152
| 50> H 5.6773 -0.6054 -2.5017
| 51> H 6.2909 0.0426 -0.9349
| 52> H 6.7925 -1.5994 -1.4890
| 53> H 5.9182 -2.5898 0.7561
| 54> H 4.2191 -2.2494 1.2601
| 55> H 5.4444 -0.9268 1.2674
| 56> H -1.4063 5.0355 0.1972
| 57> H -3.0407 6.4034 -1.0070
| 58> H -5.8551 3.1266 -0.8859
| 59> H -4.2077 1.7687 0.3206
| 60> H -3.7896 -2.2921 -0.9460
| 61> H -3.7161 -4.5292 0.0771
| 62> H -2.6894 -6.1122 1.6619
| 63> H -0.7831 -5.4089 3.0714
| 64> H 0.1105 -3.1429 2.9206
| 65> *
| 66>
| 67>                          ****END OF INPUT****

CARTESIAN COORDINATES (ANGSTROEM)
---------------------------------
  C      0.370100   -0.675100    2.083700
  C     -0.810200   -1.148600    1.263900
  C     -1.435700   -0.286800    0.331300
  N     -0.975100    1.054900    0.132900
  C     -0.231000    1.397400   -1.079400
  C      1.120500    0.741400   -1.048200
  C      2.199500    1.373600   -0.389000
  C      3.432500    0.716200   -0.253900
  C      3.564100   -0.573500   -0.777200
  C      2.520600   -1.184900   -1.411400
  C      1.286400   -0.559700   -1.566700
  O      2.853600   -2.452000   -1.834200
  C      4.203800   -2.755000   -1.487200
  C      4.743900   -1.496500   -0.729900
  C      5.948600   -0.876500   -1.458000
  C      5.102900   -1.835300    0.726700
  S     -1.521800    2.309100    1.199300
  O     -0.344800    3.132000    1.643700
  O     -2.167800    1.706800    2.416100
  C     -2.697200    3.309300    0.355400
  C     -2.377700    4.616800   -0.030400
  C     -3.311600    5.395100   -0.720600
  C     -4.578400    4.873500   -1.038800
  C     -5.569500    5.692100   -1.771200
  O     -5.290000    6.867000   -2.130100
  O     -6.824200    5.175800   -2.074200
  C     -4.890000    3.558300   -0.652600
  C     -3.954100    2.782300    0.037300
  N     -2.473000   -0.734200   -0.423400
  C     -2.958500   -1.994400   -0.318500
  C     -2.386400   -2.894500    0.583800
  C     -2.883000   -4.203100    0.688900
  C     -2.304600   -5.103200    1.584500
  C     -1.229200   -4.705900    2.379300
  C     -0.725100   -3.405800    2.285800
  C     -1.296000   -2.476300    1.387800
  H      0.136000   -0.764800    3.165600
  H      0.635700    0.382500    1.892800
  H      1.262900   -1.290500    1.842200
  H     -0.802500    1.068600   -1.974800
  H     -0.109900    2.499300   -1.162000
  H      2.076000    2.361300    0.037800
  H      4.256400    1.193900    0.260000
  H      0.469500   -1.079800   -2.050900
  H      4.221000   -3.668100   -0.854300
  H      4.778200   -2.963400   -2.415200
  H      5.677300   -0.605400   -2.501700
  H      6.290900    0.042600   -0.934900
  H      6.792500   -1.599400   -1.489000
  H      5.918200   -2.589800    0.756100
  H      4.219100   -2.249400    1.260100
  H      5.444400   -0.926800    1.267400
  H     -1.406300    5.035500    0.197200
  H     -3.040700    6.403400   -1.007000
  H     -5.855100    3.126600   -0.885900
  H     -4.207700    1.768700    0.320600
  H     -3.789600   -2.292100   -0.946000
  H     -3.716100   -4.529200    0.077100
  H     -2.689400   -6.112200    1.661900
  H     -0.783100   -5.408900    3.071400
  H      0.110500   -3.142900    2.920600

 Total Charge           Charge          ....   -1
 Multiplicity           Mult            ....    1
 Number of Electrons    NEL             ....  264
 Basis Dimension        Dim             ....  558

ORBITAL ENERGIES
----------------

  NO   OCC          E(Eh)            E(eV)
   0   2.0000     -88.998392     -2421.7694
   1   2.0000     -19.108235      -519.9615
   2   2.0000     -19.031263      -517.8670
   3   2.0000     -19.029379      -517.8157
   4   2.0000     -18.901184      -514.3274
   5   2.0000     -18.880555      -513.7660
   6   2.0000     -14.279971      -388.5778
   7   2.0000     -14.260028      -388.0351
   8   2.0000     -10.183843      -277.1165
   9   2.0000     -10.183489      -277.1068
  10   2.0000     -10.173435      -276.8332
  11   2.0000     -10.154799      -276.3261
  12   2.0000     -10.151557      -276.2379
  13   2.0000     -10.151450      -276.2350
  14   2.0000     -10.138452      -275.8813
  15   2.0000     -10.136744      -275.8348
  16   2.0000     -10.135876      -275.8112
  17   2.0000     -10.135127      -275.7908
  18   2.0000     -10.134283      -275.7679
  19   2.0000     -10.133629      -275.7501
  20   2.0000     -10.132575      -275.7214
  21   2.0000     -10.130148      -275.6553
  22   2.0000     -10.129627      -275.6412
  23   2.0000     -10.127590      -275.5857
  24   2.0000     -10.124471      -275.5009
  25   2.0000     -10.118902      -275.3493
  26   2.0000     -10.117643      -275.3151
  27   2.0000     -10.112474      -275.1744
  28   2.0000     -10.109847      -275.1029
  29   2.0000     -10.103676      -274.9350
  30   2.0000     -10.087909      -274.5060
  31   2.0000     -10.086606      -274.4705
  32   2.0000     -10.085394      -274.4375
  33   2.0000     -10.068111      -273.9672
  34   2.0000     -10.067412      -273.9482
  35   2.0000     -10.066104      -273.9126
  36   2.0000      -8.034146      -218.6202
  37   2.0000      -5.999519      -163.2552
  38   2.0000      -5.997462      -163.1992
  39   2.0000      -5.996090      -163.1619
  40   2.0000      -1.007917       -27.4268
  41   2.0000      -0.987690       -26.8764
  42   2.0000      -0.884367       -24.0649
  43   2.0000      -0.867245       -23.5989
  44   2.0000      -0.836343       -22.7581
  45   2.0000      -0.810610       -22.0578
  46   2.0000      -0.799117       -21.7451
  47   2.0000      -0.793425       -21.5902
  48   2.0000      -0.765226       -20.8228
  49   2.0000      -0.750448       -20.4207
  50   2.0000      -0.736859       -20.0510
  51   2.0000      -0.711379       -19.3576
  52   2.0000      -0.697493       -18.9798
  53   2.0000      -0.691588       -18.8191
  54   2.0000      -0.681272       -18.5384
  55   2.0000      -0.675552       -18.3827
  56   2.0000      -0.658471       -17.9179
  57   2.0000      -0.639900       -17.4126
  58   2.0000      -0.636532       -17.3209
  59   2.0000      -0.629212       -17.1217
  60   2.0000      -0.628884       -17.1128
  61   2.0000      -0.616698       -16.7812
  62   2.0000      -0.582688       -15.8558
  63   2.0000      -0.577578       -15.7167
  64   2.0000      -0.559242       -15.2178
  65   2.0000      -0.541773       -14.7424
  66   2.0000      -0.527328       -14.3493
  67   2.0000      -0.517173       -14.0730
  68   2.0000      -0.506452       -13.7813
  69   2.0000      -0.496827       -13.5194
  70   2.0000      -0.494258       -13.4494
  71   2.0000      -0.465702       -12.6724
  72   2.0000      -0.452461       -12.3121
  73   2.0000      -0.438780       -11.9398
  74   2.0000      -0.433727       -11.8023
  75   2.0000      -0.430432       -11.7127
  76   2.0000      -0.428821       -11.6688
  77   2.0000      -0.426113       -11.5951
  78   2.0000      -0.415400       -11.3036
  79   2.0000      -0.411534       -11.1984
  80   2.0000      -0.403323       -10.9750
  81   2.0000      -0.385671       -10.4947
  82   2.0000      -0.383146       -10.4259
  83   2.0000      -0.381623       -10.3845
  84   2.0000      -0.378515       -10.2999
  85   2.0000      -0.373312       -10.1583
  86   2.0000      -0.366615        -9.9761
  87   2.0000      -0.362588        -9.8665
  88   2.0000      -0.357907        -9.7391
  89   2.0000      -0.354964        -9.6591
  90   2.0000      -0.350482        -9.5371
  91   2.0000      -0.343013        -9.3339
  92   2.0000      -0.341150        -9.2832
  93   2.0000      -0.336096        -9.1456
  94   2.0000      -0.329885        -8.9766
  95   2.0000      -0.326790        -8.8924
  96   2.0000      -0.323707        -8.8085
  97   2.0000      -0.321064        -8.7366
  98   2.0000      -0.312800        -8.5117
  99   2.0000      -0.311616        -8.4795
 100   2.0000      -0.310118        -8.4387
 101   2.0000      -0.306862        -8.3501
 102   2.0000      -0.299076        -8.1383
 103   2.0000      -0.297773        -8.1028
 104   2.0000      -0.287392        -7.8203
 105   2.0000      -0.287191        -7.8149
 106   2.0000      -0.285647        -7.7729
 107   2.0000      -0.283365        -7.7107
 108   2.0000      -0.273998        -7.4559
 109   2.0000      -0.267161        -7.2698
 110   2.0000      -0.260075        -7.0770
 111   2.0000      -0.248511        -6.7623
 112   2.0000      -0.238099        -6.4790
 113   2.0000      -0.234719        -6.3870
 114   2.0000      -0.225188        -6.1277
 115   2.0000      -0.222628        -6.0580
 116   2.0000      -0.209368        -5.6972
 117   2.0000      -0.208403        -5.6709
 118   2.0000      -0.198051        -5.3892
 119   2.0000      -0.191642        -5.2148
 120   2.0000      -0.183888        -5.0038
 121   2.0000      -0.181306        -4.9336
 122   2.0000      -0.180122        -4.9014
 123   2.0000      -0.179012        -4.8712
 124   2.0000      -0.168027        -4.5722
 125   2.0000      -0.155955        -4.2437
 126   2.0000      -0.149568        -4.0700
 127   2.0000      -0.142749        -3.8844
 128   2.0000      -0.123389        -3.3576
 129   2.0000      -0.055517        -1.5107
 130   2.0000      -0.033958        -0.9240
 131   2.0000      -0.017249        -0.4694
 132   0.0000       0.005934         0.1615
 133   0.0000       0.035615         0.9691
 134   0.0000       0.054012         1.4697
 135   0.0000       0.071570         1.9475
 136   0.0000       0.075613         2.0575

MULLIKEN ATOMIC CHARGES
-----------------------
   0 C :   -0.543877
   1 C :    0.134927
   2 C :    0.315847
   3 N :   -0.613864
   4 C :   -0.231866
   5 C :    0.161056
   6 C :   -0.187742
   7 C :   -0.192437
   8 C :    0.103923
   9 C :    0.326427
  10 C :   -0.243149
  11 O :   -0.513202
  12 C :   -0.034758
  13 C :    0.006045
  14 C :   -0.444571
  15 C :   -0.444565
  16 S :    1.209425
  17 O :   -0.578777
  18 O :   -0.564883
  19 C :   -0.143642
  20 C :   -0.159513
  21 C :   -0.158221
  22 C :    0.105413
  23 C :    0.410280
  24 O :   -0.553787
  25 O :   -0.659299
  26 C :   -0.152362
  27 C :   -0.147033
  28 N :   -0.385616
  29 C :   -0.060546
  30 C :    0.139850
  31 C :   -0.203240
  32 C :   -0.128738
  33 C :   -0.123480
  34 C :   -0.192951
  35 C :    0.116676
  36 H :    0.160487
  37 H :    0.208934
  38 H :    0.144302
  39 H :    0.170191
  40 H :    0.180512
  41 H :    0.154661
  42 H :    0.118927
  43 H :    0.140951
  44 H :    0.136806
  45 H :    0.135430
  46 H :    0.150290
  47 H :    0.143147
  48 H :    0.129157
  49 H :    0.129038
  50 H :    0.152052
  51 H :    0.144344
  52 H :    0.142462
  53 H :    0.143447
  54 H :    0.150993
  55 H :    0.146415
  56 H :    0.145615
  57 H :    0.129686
  58 H :    0.119850
  59 H :    0.121234
  60 H :    0.133317
Sum of atomic charges:   -1.0000000

LOEWDIN ATOMIC CHARGES
----------------------
   0 C :   -0.360363
   1 C :    0.005324
   2 C :    0.038501
   3 N :   -0.288424
   4 C :   -0.142918
   5 C :   -0.017054
   6 C :   -0.140949
   7 C :   -0.130691
   8 C :   -0.050291
   9 C :    0.070213
  10 C :   -0.161242
  11 O :   -0.180682
  12 C :   -0.070993
  13 C :   -0.044681
  14 C :   -0.342860
  15 C :   -0.342587
  16 S :    1.262087
  17 O :   -0.599506
  18 O :   -0.587708
  19 C :   -0.215863
  20 C :   -0.128351
  21 C :   -0.117159
  22 C :   -0.003902
  23 C :    0.071537
  24 O :   -0.379251
  25 O :   -0.507363
  26 C :   -0.106650
  27 C :   -0.119605
  28 N :   -0.125276
  29 C :   -0.067242
  30 C :   -0.028966
  31 C :   -0.114697
  32 C :   -0.135555
  33 C :   -0.127391
  34 C :   -0.120961
  35 C :   -0.006264
  36 H :    0.137491
  37 H :    0.157322
  38 H :    0.127504
  39 H :    0.133357
  40 H :    0.149003
  41 H :    0.144045
  42 H :    0.127329
  43 H :    0.141495
  44 H :    0.115934
  45 H :    0.114812
  46 H :    0.127352
  47 H :    0.124091
  48 H :    0.115862
  49 H :    0.115781
  50 H :    0.127369
  51 H :    0.124765
  52 H :    0.139003
  53 H :    0.145074
  54 H :    0.149824
  55 H :    0.140196
  56 H :    0.133751
  57 H :    0.132771
  58 H :    0.127873
  59 H :    0.128838
  60 H :    0.136942

  Mayer bond orders larger than 0.100000
B(  0-C ,  1-C ) :   1.0077 B(  0-C , 36-H ) :   0.9258 B(  0-C , 37-H ) :   0.9125
B(  0-C , 38-H ) :   0.9254 B(  1-C ,  2-C ) :   1.4283 B(  1-C , 29-C ) :   0.1038
B(  1-C , 35-C ) :   1.2642 B(  2-C ,  3-N ) :   0.9118 B(  2-C , 28-N ) :   1.2803
B(  3-N ,  4-C ) :   0.9291 B(  3-N , 16-S ) :   0.7774 B(  4-C ,  5-C ) :   0.9553
B(  4-C , 39-H ) :   0.9199 B(  4-C , 40-H ) :   0.9168 B(  5-C ,  6-C ) :   1.4184
B(  5-C , 10-C ) :   1.4189 B(  6-C ,  7-C ) :   1.4094 B(  6-C , 41-H ) :   0.9153
B(  7-C ,  8-C ) :   1.4194 B(  7-C , 42-H ) :   0.9261 B(  8-C ,  9-C ) :   1.3818
B(  8-C , 13-C ) :   0.9867 B(  9-C , 10-C ) :   1.3743 B(  9-C , 11-O ) :   0.9141
B( 10-C , 43-H ) :   0.9129 B( 11-O , 12-C ) :   0.9266 B( 12-C , 13-C ) :   0.9472
B( 12-C , 44-H ) :   0.9288 B( 12-C , 45-H ) :   0.9283 B( 13-C , 14-C ) :   0.9907
B( 13-C , 15-C ) :   0.9918 B( 14-C , 46-H ) :   0.9459 B( 14-C , 47-H ) :   0.9439
B( 14-C , 48-H ) :   0.9445 B( 15-C , 49-H ) :   0.9439 B( 15-C , 50-H ) :   0.9445
B( 15-C , 51-H ) :   0.9437 B( 16-S , 17-O ) :   1.5936 B( 16-S , 18-O ) :   1.6401
B( 16-S , 19-C ) :   0.8462 B( 19-C , 20-C ) :   1.3744 B( 19-C , 27-C ) :   1.3580
B( 20-C , 21-C ) :   1.4042 B( 20-C , 52-H ) :   0.9204 B( 21-C , 22-C ) :   1.3937
B( 21-C , 53-H ) :   0.9079 B( 22-C , 23-C ) :   0.9276 B( 22-C , 26-C ) :   1.3966
B( 23-C , 24-O ) :   1.7071 B( 23-C , 25-O ) :   1.5497 B( 24-O , 25-O ) :   0.1475
B( 26-C , 27-C ) :   1.4160 B( 26-C , 54-H ) :   0.9023 B( 27-C , 55-H ) :   0.9175
B( 28-N , 29-C ) :   1.4962 B( 29-C , 30-C ) :   1.2364 B( 29-C , 56-H ) :   0.9281
B( 30-C , 31-C ) :   1.2841 B( 30-C , 35-C ) :   1.2901 B( 31-C , 32-C ) :   1.5135
B( 31-C , 34-C ) :   0.1067 B( 31-C , 57-H ) :   0.9243 B( 32-C , 33-C ) :   1.3517
B( 32-C , 58-H ) :   0.9318 B( 33-C , 34-C ) :   1.5098 B( 33-C , 59-H ) :   0.9317
B( 34-C , 35-C ) :   1.2946 B( 34-C , 60-H ) :   0.9160

FINAL SINGLE POINT ENERGY     -1964.794096437287

DIPOLE MOMENT
-------------

Method             : SCF
Type of density    : Electron Density
Multiplicity       :   1
Irrep              :   0
Energy             : -1964.7940964372874078 Eh
Relativity type    :
Basis              : AO
                                X                 Y                 Z
Electronic contribution:    -32.633723625      17.646839030      -0.682598924
Nuclear contribution   :     41.443916654     -27.052562683       2.619038248
                        -----------------------------------------
Total Dipole Moment    :      8.810193029      -9.405723653       1.936439323
                        -----------------------------------------
Magnitude (a.u.)       :     13.032150087
Magnitude (Debye)      :     33.125093027

Rotational constants in cm-1:             0.005038             0.002032             0.001645
Rotational constants in MHz :           151.040187            60.924815            49.318543

                             ****ORCA TERMINATED NORMALLY****
TOTAL RUN TIME: 0 days 0 hours 12 minutes 58 seconds 574 msec
