                         Program Version 6.0.0  -   RELEASE  -
|  1> ! B3LYP 6-31G* SP
|  2>
|  3> * xyz -1 1
|  4> C -2.4383 0.3198 0.9984
|  5> C -2.7829 1.4148 0.0139
|  6> C -2.7442 1.1717 -1.3799
|  7> N -2.4065 -0.1186 -1.9030
|  8> C -1.0991 -0.3257 -2.5288
|  9> C -0.0271 -0.3761 -1.4750
| 10> C 0.3216 -1.5954 -0.8758
| 11> C 1.2564 -1.6289 0.1618
| 12> C 1.8546 -0.4499 0.6209
| 13> O 2.7831 -0.5448 1.6702
| 14> C 3.5801 0.5279 2.1742
| 15> C 4.7154 0.8755 1.1958
| 16> C 5.6077 1.9943 1.7161
| 17> C 6.9515 1.7930 1.0275
| 18> C 6.9954 0.3377 0.5608
| 19> C 5.6636 -0.2924 0.9513
| 20> C 1.4977 0.7759 0.0261
| 21> C 0.5634 0.8095 -1.0126
| 22> S -3.6562 -1.3123 -2.0755
| 23> O -4.8535 -0.9214 -1.2538
| 24> O -4.0739 -1.3940 -3.5169
| 25> C -3.0702 -2.8788 -1.5239
| 26> C -2.4757 -3.7676 -2.4285
| 27> C -1.9680 -4.9915 -1.9836
| 28> C -2.0483 -5.3444 -0.6246
| 29> C -1.5030 -6.6335 -0.1464
| 30> O -0.9556 -7.4350 -0.9495
| 31> O -1.5863 -6.9779 1.1979
| 32> C -2.6535 -4.4517 0.2765
| 33> C -3.1622 -3.2295 -0.1713
| 34> N -3.0176 2.1742 -2.2552
| 35> C -3.3466 3.4244 -1.8505
| 36> C -3.4197 3.7249 -0.4883
| 37> C -3.7686 5.0173 -0.0665
| 38> C -3.8428 5.3149 1.2944
| 39> C -3.5712 4.3284 2.2421
| 40> C -3.2220 3.0375 1.8365
| 41> C -3.1382 2.7131 0.4639
| 42> H -1.6091 0.6543 1.6567
| 43> H -3.3295 0.0754 1.6135
| 44> H -2.0988 -0.6110 0.5071
| 45> H -1.0937 -1.2686 -3.1160
| 46> H -0.8929 0.4957 -3.2492
| 47> H -0.1352 -2.5195 -1.2040
| 48> H 1.5151 -2.5770 0.6158
| 49> H 2.9484 1.4183 2.3795
| 50> H 4.0130 0.2084 3.1465
| 51> H 4.2869 1.1944 0.2199
| 52> H 5.1780 2.9928 1.4832
| 53> H 5.7465 1.9061 2.8171
| 54> H 7.7875 2.0125 1.7269
| 55> H 7.0306 2.4728 0.1505
| 56> H 7.8397 -0.2064 1.0379
| 57> H 7.1236 0.2984 -0.5433
| 58> H 5.8003 -0.8874 1.8820
| 59> H 5.2804 -0.9588 0.1479
| 60> H 1.9237 1.7101 0.3623
| 61> H 0.2869 1.7632 -1.4453
| 62> H -2.3914 -3.5088 -3.4761
| 63> H -1.5070 -5.6576 -2.7021
| 64> H -2.7322 -4.6950 1.3285
| 65> H -3.6223 -2.5562 0.5402
| 66> H -3.5551 4.1815 -2.5964
| 67> H -3.9843 5.7957 -0.7890
| 68> H -4.1124 6.3128 1.6157
| 69> H -3.6319 4.5647 3.2966
| 70> H -3.0246 2.3040 2.6062
| 71> *
| 72>
| 73>                          ****END OF INPUT****

CARTESIAN COORDINATES (ANGSTROEM)
---------------------------------
  C     -2.438300    0.319800    0.998400
  C     -2.782900    1.414800    0.013900
  C     -2.744200    1.171700   -1.379900
  N     -2.406500   -0.118600   -1.903000
  C     -1.099100   -0.325700   -2.528800
  C     -0.027100   -0.376100   -1.475000
  C      0.321600   -1.595400   -0.875800
  C      1.256400   -1.628900    0.161800
  C      1.854600   -0.449900    0.620900
  O      2.783100   -0.544800    1.670200
  C      3.580100    0.527900    2.174200
  C      4.715400    0.875500    1.195800
  C      5.607700    1.994300    1.716100
  C      6.951500    1.793000    1.027500
  C      6.995400    0.337700    0.560800
  C      5.663600   -0.292400    0.951300
  C      1.497700    0.775900    0.026100
  C      0.563400    0.809500   -1.012600
  S     -3.656200   -1.312300   -2.075500
  O     -4.853500   -0.921400   -1.253800
  O     -4.073900   -1.394000   -3.516900
  C     -3.070200   -2.878800   -1.523900
  C     -2.475700   -3.767600   -2.428500
  C     -1.968000   -4.991500   -1.983600
  C     -2.048300   -5.344400   -0.624600
  C     -1.503000   -6.633500   -0.146400
  O     -0.955600   -7.435000   -0.949500
  O     -1.586300   -6.977900    1.197900
  C     -2.653500   -4.451700    0.276500
  C     -3.162200   -3.229500   -0.171300
  N     -3.017600    2.174200   -2.255200
  C     -3.346600    3.424400   -1.850500
  C     -3.419700    3.724900   -0.488300
  C     -3.768600    5.017300   -0.066500
  C     -3.842800    5.314900    1.294400
  C     -3.571200    4.328400    2.242100
  C     -3.222000    3.037500    1.836500
  C     -3.138200    2.713100    0.463900
  H     -1.609100    0.654300    1.656700
  H     -3.329500    0.075400    1.613500
  H     -2.098800   -0.611000    0.507100
  H     -1.093700   -1.268600   -3.116000
  H     -0.892900    0.495700   -3.249200
  H     -0.135200   -2.519500   -1.204000
  H      1.515100   -2.577000    0.615800
  H      2.948400    1.418300    2.379500
  H      4.013000    0.208400    3.146500
  H      4.286900    1.194400    0.219900
  H      5.178000    2.992800    1.483200
  H      5.746500    1.906100    2.817100
  H      7.787500    2.012500    1.726900
  H      7.030600    2.472800    0.150500
  H      7.839700   -0.206400    1.037900
  H      7.123600    0.298400   -0.543300
  H      5.800300   -0.887400    1.882000
  H      5.280400   -0.958800    0.147900
  H      1.923700    1.710100    0.362300
  H      0.286900    1.763200   -1.445300
  H     -2.391400   -3.508800   -3.476100
  H     -1.507000   -5.657600   -2.702100
  H     -2.732200   -4.695000    1.328500
  H     -3.622300   -2.556200    0.540200
  H     -3.555100    4.181500   -2.596400
  H     -3.984300    5.795700   -0.789000
  H     -4.112400    6.312800    1.615700
  H     -3.631900    4.564700    3.296600
  H     -3.024600    2.304000    2.606200

 Total Charge           Charge          ....   -1
 Multiplicity           Mult            ....    1
 Number of Electrons    NEL             ....  280
 Basis Dimension        Dim             ....  594

ORBITAL ENERGIES
----------------

  NO   OCC          E(Eh)            E(eV)
   0   2.0000     -88.996436     -2421.7161
   1   2.0000     -19.096678      -519.6470
   2   2.0000     -19.026966      -517.7501
   3   2.0000     -19.022438      -517.6269
   4   2.0000     -18.908331      -514.5218
   5   2.0000     -18.887719      -513.9610
   6   2.0000     -14.276515      -388.4837
   7   2.0000     -14.258810      -388.0019
   8   2.0000     -10.182561      -277.0816
   9   2.0000     -10.178523      -276.9717
  10   2.0000     -10.177669      -276.9484
  11   2.0000     -10.154437      -276.3163
  12   2.0000     -10.147096      -276.1165
  13   2.0000     -10.137668      -275.8600
  14   2.0000     -10.135349      -275.7969
  15   2.0000     -10.135118      -275.7906
  16   2.0000     -10.134981      -275.7869
  17   2.0000     -10.134121      -275.7635
  18   2.0000     -10.133210      -275.7387
  19   2.0000     -10.131611      -275.6952
  20   2.0000     -10.125467      -275.5280
  21   2.0000     -10.124858      -275.5114
  22   2.0000     -10.123604      -275.4773
  23   2.0000     -10.119573      -275.3676
  24   2.0000     -10.117777      -275.3187
  25   2.0000     -10.114879      -275.2399
  26   2.0000     -10.114781      -275.2372
  27   2.0000     -10.114167      -275.2205
  28   2.0000     -10.110701      -275.1262
  29   2.0000     -10.108047      -275.0539
  30   2.0000     -10.106741      -275.0184
  31   2.0000     -10.102120      -274.8927
  32   2.0000     -10.096612      -274.7428
  33   2.0000     -10.094315      -274.6803
  34   2.0000     -10.093665      -274.6626
  35   2.0000     -10.077801      -274.2309
  36   2.0000     -10.076712      -274.2013
  37   2.0000     -10.075243      -274.1613
  38   2.0000      -8.032208      -218.5675
  39   2.0000      -5.997533      -163.2012
  40   2.0000      -5.995280      -163.1399
  41   2.0000      -5.994454      -163.1174
  42   2.0000      -0.983406       -26.7598
  43   2.0000      -0.975913       -26.5559
  44   2.0000      -0.881895       -23.9976
  45   2.0000      -0.862203       -23.4617
  46   2.0000      -0.833699       -22.6861
  47   2.0000      -0.817812       -22.2538
  48   2.0000      -0.797812       -21.7096
  49   2.0000      -0.790905       -21.5216
  50   2.0000      -0.776944       -21.1417
  51   2.0000      -0.758717       -20.6457
  52   2.0000      -0.736225       -20.0337
  53   2.0000      -0.711219       -19.3533
  54   2.0000      -0.702820       -19.1247
  55   2.0000      -0.698728       -19.0133
  56   2.0000      -0.681591       -18.5470
  57   2.0000      -0.674290       -18.3484
  58   2.0000      -0.672883       -18.3101
  59   2.0000      -0.662721       -18.0336
  60   2.0000      -0.657613       -17.8946
  61   2.0000      -0.645924       -17.5765
  62   2.0000      -0.626807       -17.0563
  63   2.0000      -0.618131       -16.8202
  64   2.0000      -0.588325       -16.0091
  65   2.0000      -0.583307       -15.8726
  66   2.0000      -0.576778       -15.6949
  67   2.0000      -0.542341       -14.7578
  68   2.0000      -0.539558       -14.6821
  69   2.0000      -0.526724       -14.3329
  70   2.0000      -0.514716       -14.0061
  71   2.0000      -0.508382       -13.8338
  72   2.0000      -0.503729       -13.7072
  73   2.0000      -0.499646       -13.5961
  74   2.0000      -0.497556       -13.5392
  75   2.0000      -0.465342       -12.6626
  76   2.0000      -0.456556       -12.4235
  77   2.0000      -0.451547       -12.2872
  78   2.0000      -0.436968       -11.8905
  79   2.0000      -0.435159       -11.8413
  80   2.0000      -0.434283       -11.8174
  81   2.0000      -0.419801       -11.4234
  82   2.0000      -0.418954       -11.4003
  83   2.0000      -0.412608       -11.2276
  84   2.0000      -0.405889       -11.0448
  85   2.0000      -0.395581       -10.7643
  86   2.0000      -0.385095       -10.4790
  87   2.0000      -0.382638       -10.4121
  88   2.0000      -0.380169       -10.3449
  89   2.0000      -0.369754       -10.0615
  90   2.0000      -0.366780        -9.9806
  91   2.0000      -0.366275        -9.9668
  92   2.0000      -0.362761        -9.8712
  93   2.0000      -0.358272        -9.7491
  94   2.0000      -0.354187        -9.6379
  95   2.0000      -0.349801        -9.5186
  96   2.0000      -0.347958        -9.4684
  97   2.0000      -0.338818        -9.2197
  98   2.0000      -0.335160        -9.1202
  99   2.0000      -0.329216        -8.9584
 100   2.0000      -0.325879        -8.8676
 101   2.0000      -0.323310        -8.7977
 102   2.0000      -0.320040        -8.7087
 103   2.0000      -0.314758        -8.5650
 104   2.0000      -0.311595        -8.4789
 105   2.0000      -0.300554        -8.1785
 106   2.0000      -0.296609        -8.0711
 107   2.0000      -0.292986        -7.9726
 108   2.0000      -0.291542        -7.9333
 109   2.0000      -0.285958        -7.7813
 110   2.0000      -0.284878        -7.7519
 111   2.0000      -0.283406        -7.7119
 112   2.0000      -0.280875        -7.6430
 113   2.0000      -0.279381        -7.6023
 114   2.0000      -0.276230        -7.5166
 115   2.0000      -0.271643        -7.3918
 116   2.0000      -0.265945        -7.2367
 117   2.0000      -0.260813        -7.0971
 118   2.0000      -0.246590        -6.7101
 119   2.0000      -0.241184        -6.5630
 120   2.0000      -0.237687        -6.4678
 121   2.0000      -0.230557        -6.2738
 122   2.0000      -0.228830        -6.2268
 123   2.0000      -0.221945        -6.0394
 124   2.0000      -0.213185        -5.8011
 125   2.0000      -0.202652        -5.5144
 126   2.0000      -0.200992        -5.4693
 127   2.0000      -0.194608        -5.2956
 128   2.0000      -0.187545        -5.1034
 129   2.0000      -0.180237        -4.9045
 130   2.0000      -0.179179        -4.8757
 131   2.0000      -0.176832        -4.8118
 132   2.0000      -0.165290        -4.4978
 133   2.0000      -0.152819        -4.1584
 134   2.0000      -0.149337        -4.0637
 135   2.0000      -0.143403        -3.9022
 136   2.0000      -0.131879        -3.5886
 137   2.0000      -0.062532        -1.7016
 138   2.0000      -0.040798        -1.1102
 139   2.0000      -0.024190        -0.6582
 140   0.0000       0.006650         0.1810
 141   0.0000       0.036185         0.9847
 142   0.0000       0.062965         1.7134
 143   0.0000       0.068193         1.8556
 144   0.0000       0.076689         2.0868

MULLIKEN ATOMIC CHARGES
-----------------------
   0 C :   -0.542771
   1 C :    0.126684
   2 C :    0.326626
   3 N :   -0.606259
   4 C :   -0.242268
   5 C :    0.158912
   6 C :   -0.177897
   7 C :   -0.184951
   8 C :    0.364631
   9 O :   -0.525961
  10 C :   -0.019826
  11 C :   -0.103785
  12 C :   -0.272388
  13 C :   -0.260402
  14 C :   -0.265196
  15 C :   -0.258888
  16 C :   -0.205944
  17 C :   -0.174620
  18 S :    1.186664
  19 O :   -0.569644
  20 O :   -0.548890
  21 C :   -0.152381
  22 C :   -0.161999
  23 C :   -0.161011
  24 C :    0.104032
  25 C :    0.411072
  26 O :   -0.550741
  27 O :   -0.656005
  28 C :   -0.153224
  29 C :   -0.150334
  30 N :   -0.379179
  31 C :   -0.062326
  32 C :    0.140106
  33 C :   -0.205178
  34 C :   -0.129089
  35 C :   -0.124747
  36 C :   -0.194753
  37 C :    0.114817
  38 H :    0.151764
  39 H :    0.165284
  40 H :    0.194681
  41 H :    0.173880
  42 H :    0.162543
  43 H :    0.171157
  44 H :    0.157656
  45 H :    0.125040
  46 H :    0.140614
  47 H :    0.136149
  48 H :    0.128390
  49 H :    0.121094
  50 H :    0.125013
  51 H :    0.128251
  52 H :    0.127739
  53 H :    0.131279
  54 H :    0.128298
  55 H :    0.152354
  56 H :    0.119421
  57 H :    0.126656
  58 H :    0.146898
  59 H :    0.148459
  60 H :    0.154187
  61 H :    0.147481
  62 H :    0.137438
  63 H :    0.125099
  64 H :    0.118301
  65 H :    0.123025
  66 H :    0.138962
Sum of atomic charges:   -1.0000000

LOEWDIN ATOMIC CHARGES
----------------------
   0 C :   -0.360674
   1 C :    0.003597
   2 C :    0.042206
   3 N :   -0.288681
   4 C :   -0.144792
   5 C :   -0.049344
   6 C :   -0.117221
   7 C :   -0.144316
   8 C :    0.085343
   9 O :   -0.187818
  10 C :   -0.083061
  11 C :   -0.143478
  12 C :   -0.229958
  13 C :   -0.234400
  14 C :   -0.235982
  15 C :   -0.226816
  16 C :   -0.183749
  17 C :   -0.131384
  18 S :    1.258956
  19 O :   -0.592753
  20 O :   -0.587805
  21 C :   -0.216299
  22 C :   -0.131504
  23 C :   -0.117900
  24 C :   -0.004382
  25 C :    0.070744
  26 O :   -0.376453
  27 O :   -0.504290
  28 C :   -0.107356
  29 C :   -0.124912
  30 N :   -0.120235
  31 C :   -0.070626
  32 C :   -0.030140
  33 C :   -0.117572
  34 C :   -0.136663
  35 C :   -0.128065
  36 C :   -0.120155
  37 C :   -0.007372
  38 H :    0.132383
  39 H :    0.139162
  40 H :    0.151555
  41 H :    0.143673
  42 H :    0.131065
  43 H :    0.152729
  44 H :    0.149438
  45 H :    0.106225
  46 H :    0.123472
  47 H :    0.123749
  48 H :    0.118325
  49 H :    0.112488
  50 H :    0.116116
  51 H :    0.116764
  52 H :    0.117650
  53 H :    0.118346
  54 H :    0.117477
  55 H :    0.131051
  56 H :    0.127633
  57 H :    0.130622
  58 H :    0.139577
  59 H :    0.147241
  60 H :    0.151255
  61 H :    0.140647
  62 H :    0.130007
  63 H :    0.130637
  64 H :    0.127117
  65 H :    0.129669
  66 H :    0.139237

  Mayer bond orders larger than 0.100000
B(  0-C ,  1-C ) :   1.0053 B(  0-C , 38-H ) :   0.9262 B(  0-C , 39-H ) :   0.9234
B(  0-C , 40-H ) :   0.9131 B(  1-C ,  2-C ) :   1.4245 B(  1-C , 31-C ) :   0.1038
B(  1-C , 37-C ) :   1.2636 B(  2-C ,  3-N ) :   0.9133 B(  2-C , 30-N ) :   1.2824
B(  3-N ,  4-C ) :   0.9245 B(  3-N , 18-S ) :   0.7855 B(  4-C ,  5-C ) :   0.9474
B(  4-C , 41-H ) :   0.9196 B(  4-C , 42-H ) :   0.9218 B(  5-C ,  6-C ) :   1.4137
B(  5-C , 17-C ) :   1.4387 B(  6-C ,  7-C ) :   1.4495 B(  6-C , 43-H ) :   0.9060
B(  7-C ,  8-C ) :   1.3940 B(  7-C , 44-H ) :   0.9170 B(  8-C ,  9-O ) :   0.8997
B(  8-C , 16-C ) :   1.3678 B(  9-O , 10-C ) :   0.9085 B( 10-C , 11-C ) :   0.9895
B( 10-C , 45-H ) :   0.9216 B( 10-C , 46-H ) :   0.9305 B( 11-C , 12-C ) :   0.9880
B( 11-C , 15-C ) :   0.9952 B( 11-C , 47-H ) :   0.9240 B( 12-C , 13-C ) :   1.0022
B( 12-C , 48-H ) :   0.9462 B( 12-C , 49-H ) :   0.9440 B( 13-C , 14-C ) :   0.9987
B( 13-C , 50-H ) :   0.9538 B( 13-C , 51-H ) :   0.9531 B( 14-C , 15-C ) :   0.9994
B( 14-C , 52-H ) :   0.9539 B( 14-C , 53-H ) :   0.9531 B( 15-C , 54-H ) :   0.9465
B( 15-C , 55-H ) :   0.9432 B( 16-C , 17-C ) :   1.4209 B( 16-C , 56-H ) :   0.9191
B( 17-C , 57-H ) :   0.9228 B( 18-S , 19-O ) :   1.6101 B( 18-S , 20-O ) :   1.6610
B( 18-S , 21-C ) :   0.8373 B( 21-C , 22-C ) :   1.3647 B( 21-C , 29-C ) :   1.3634
B( 22-C , 23-C ) :   1.4014 B( 22-C , 58-H ) :   0.9186 B( 23-C , 24-C ) :   1.3867
B( 23-C , 59-H ) :   0.9071 B( 24-C , 25-C ) :   0.9271 B( 24-C , 28-C ) :   1.3986
B( 25-C , 26-O ) :   1.7078 B( 25-C , 27-O ) :   1.5497 B( 26-O , 27-O ) :   0.1490
B( 28-C , 29-C ) :   1.4051 B( 28-C , 60-H ) :   0.9010 B( 29-C , 61-H ) :   0.9180
B( 30-N , 31-C ) :   1.4999 B( 31-C , 32-C ) :   1.2363 B( 31-C , 62-H ) :   0.9294
B( 32-C , 33-C ) :   1.2839 B( 32-C , 37-C ) :   1.2900 B( 33-C , 34-C ) :   1.5136
B( 33-C , 36-C ) :   0.1067 B( 33-C , 63-H ) :   0.9249 B( 34-C , 35-C ) :   1.3517
B( 34-C , 64-H ) :   0.9320 B( 35-C , 36-C ) :   1.5103 B( 35-C , 65-H ) :   0.9314
B( 36-C , 37-C ) :   1.2938 B( 36-C , 66-H ) :   0.9153

FINAL SINGLE POINT ENERGY     -2043.342845638118

DIPOLE MOMENT
-------------

Method             : SCF
Type of density    : Electron Density
Multiplicity       :   1
Irrep              :   0
Energy             : -2043.3428456381179785 Eh
Relativity type    :
Basis              : AO
                                X                 Y                 Z
Electronic contribution:    -46.364651393     -16.543748863     -17.196276843
Nuclear contribution   :     49.754428695      26.923040845      18.256795618
                        -----------------------------------------
Total Dipole Moment    :      3.389777302      10.379291982       1.060518776
                        -----------------------------------------
Magnitude (a.u.)       :     10.970186520
Magnitude (Debye)      :     27.883998157

Rotational constants in cm-1:             0.002761             0.002345             0.001451
Rotational constants in MHz :            82.786289            70.292483            43.487502

                             ****ORCA TERMINATED NORMALLY****
TOTAL RUN TIME: 0 days 0 hours 12 minutes 5 seconds 867 msec
