                         Program Version 6.0.0  -   RELEASE  -
|  1> ! B3LYP 6-31G* SP
|  2>
|  3> * xyz 0 1
|  4> O -2.5874 0.2421 -1.8537
|  5> C -1.9524 0.0347 -0.7836
|  6> N -2.6614 -0.1858 0.4475
|  7> C -4.0954 -0.1802 0.5508
|  8> C -4.8825 -0.8666 -0.3885
|  9> C -6.2743 -0.8852 -0.2700
| 10> C -6.9083 -0.2112 0.7862
| 11> C -8.4071 -0.2725 0.9415
| 12> F -8.7406 -1.3743 1.7067
| 13> F -8.8804 0.8695 1.5644
| 14> F -9.0233 -0.3778 -0.2935
| 15> C -6.1195 0.4372 1.7510
| 16> C -4.7244 0.4571 1.6366
| 17> Cl -3.7884 1.3140 2.8551
| 18> N -0.5145 0.0218 -0.8054
| 19> C 0.1809 -0.4552 -2.0056
| 20> C 1.4897 -1.1575 -1.6210
| 21> C 2.3784 -0.2991 -0.6913
| 22> C 2.9815 0.9036 -1.4716
| 23> C 4.0340 1.6601 -0.6476
| 24> C 5.0058 0.7255 0.0241
| 25> C 6.2317 1.2146 0.4996
| 26> C 7.1302 0.3576 1.1402
| 27> C 6.8085 -0.9901 1.3176
| 28> C 5.5827 -1.4860 0.8605
| 29> Cl 5.1915 -3.1814 1.1006
| 30> C 4.6733 -0.6292 0.2234
| 31> O 3.4474 -1.1321 -0.2310
| 32> C 1.5441 0.1422 0.5398
| 33> C 0.2391 0.8440 0.1487
| 34> H -2.1105 -0.3326 1.3219
| 35> H -4.4193 -1.4145 -1.1986
| 36> H -6.8546 -1.4358 -0.9998
| 37> H -6.5865 0.9284 2.5958
| 38> H 0.3825 0.4000 -2.6850
| 39> H -0.4543 -1.1834 -2.5566
| 40> H 2.0471 -1.4292 -2.5439
| 41> H 1.2355 -2.1086 -1.1021
| 42> H 3.4772 0.5241 -2.3927
| 43> H 2.1976 1.6178 -1.7963
| 44> H 4.5852 2.3479 -1.3254
| 45> H 3.5362 2.2843 0.1239
| 46> H 6.4917 2.2582 0.3711
| 47> H 8.0770 0.7388 1.5003
| 48> H 7.5110 -1.6477 1.8136
| 49> H 1.2847 -0.7598 1.1374
| 50> H 2.1345 0.8028 1.2079
| 51> H -0.3480 1.0359 1.0704
| 52> H 0.4540 1.8337 -0.3058
| 53> *
| 54>
| 55>                          ****END OF INPUT****

CARTESIAN COORDINATES (ANGSTROEM)
---------------------------------
  O     -2.587400    0.242100   -1.853700
  C     -1.952400    0.034700   -0.783600
  N     -2.661400   -0.185800    0.447500
  C     -4.095400   -0.180200    0.550800
  C     -4.882500   -0.866600   -0.388500
  C     -6.274300   -0.885200   -0.270000
  C     -6.908300   -0.211200    0.786200
  C     -8.407100   -0.272500    0.941500
  F     -8.740600   -1.374300    1.706700
  F     -8.880400    0.869500    1.564400
  F     -9.023300   -0.377800   -0.293500
  C     -6.119500    0.437200    1.751000
  C     -4.724400    0.457100    1.636600
  Cl    -3.788400    1.314000    2.855100
  N     -0.514500    0.021800   -0.805400
  C      0.180900   -0.455200   -2.005600
  C      1.489700   -1.157500   -1.621000
  C      2.378400   -0.299100   -0.691300
  C      2.981500    0.903600   -1.471600
  C      4.034000    1.660100   -0.647600
  C      5.005800    0.725500    0.024100
  C      6.231700    1.214600    0.499600
  C      7.130200    0.357600    1.140200
  C      6.808500   -0.990100    1.317600
  C      5.582700   -1.486000    0.860500
  Cl     5.191500   -3.181400    1.100600
  C      4.673300   -0.629200    0.223400
  O      3.447400   -1.132100   -0.231000
  C      1.544100    0.142200    0.539800
  C      0.239100    0.844000    0.148700
  H     -2.110500   -0.332600    1.321900
  H     -4.419300   -1.414500   -1.198600
  H     -6.854600   -1.435800   -0.999800
  H     -6.586500    0.928400    2.595800
  H      0.382500    0.400000   -2.685000
  H     -0.454300   -1.183400   -2.556600
  H      2.047100   -1.429200   -2.543900
  H      1.235500   -2.108600   -1.102100
  H      3.477200    0.524100   -2.392700
  H      2.197600    1.617800   -1.796300
  H      4.585200    2.347900   -1.325400
  H      3.536200    2.284300    0.123900
  H      6.491700    2.258200    0.371100
  H      8.077000    0.738800    1.500300
  H      7.511000   -1.647700    1.813600
  H      1.284700   -0.759800    1.137400
  H      2.134500    0.802800    1.207900
  H     -0.348000    1.035900    1.070400
  H      0.454000    1.833700   -0.305800

 Total Charge           Charge          ....    0
 Multiplicity           Mult            ....    1
 Number of Electrons    NEL             ....  236
 Basis Dimension        Dim             ....  466

ORBITAL ENERGIES
----------------

  NO   OCC          E(Eh)            E(eV)
   0   2.0000    -101.546245     -2763.2138
   1   2.0000    -101.522597     -2762.5703
   2   2.0000     -24.720838      -672.6882
   3   2.0000     -24.720798      -672.6871
   4   2.0000     -24.717065      -672.5855
   5   2.0000     -19.172066      -521.6984
   6   2.0000     -19.114210      -520.1241
   7   2.0000     -14.381766      -391.3477
   8   2.0000     -14.356708      -390.6659
   9   2.0000     -10.436994      -284.0050
  10   2.0000     -10.326933      -281.0101
  11   2.0000     -10.263866      -279.2940
  12   2.0000     -10.260437      -279.2007
  13   2.0000     -10.259188      -279.1667
  14   2.0000     -10.257958      -279.1332
  15   2.0000     -10.243614      -278.7429
  16   2.0000     -10.233953      -278.4800
  17   2.0000     -10.225283      -278.2441
  18   2.0000     -10.220106      -278.1032
  19   2.0000     -10.215700      -277.9833
  20   2.0000     -10.207568      -277.7620
  21   2.0000     -10.204501      -277.6786
  22   2.0000     -10.199470      -277.5417
  23   2.0000     -10.198545      -277.5165
  24   2.0000     -10.195023      -277.4207
  25   2.0000     -10.194528      -277.4072
  26   2.0000     -10.193837      -277.3884
  27   2.0000     -10.191805      -277.3331
  28   2.0000     -10.189906      -277.2814
  29   2.0000     -10.187165      -277.2069
  30   2.0000      -9.477730      -257.9021
  31   2.0000      -9.454046      -257.2577
  32   2.0000      -7.240816      -197.0326
  33   2.0000      -7.231333      -196.7746
  34   2.0000      -7.231058      -196.7671
  35   2.0000      -7.217236      -196.3910
  36   2.0000      -7.207690      -196.1312
  37   2.0000      -7.207236      -196.1189
  38   2.0000      -1.280471       -34.8434
  39   2.0000      -1.205941       -32.8153
  40   2.0000      -1.204675       -32.7809
  41   2.0000      -1.058445       -28.8018
  42   2.0000      -1.029605       -28.0170
  43   2.0000      -0.938162       -25.5287
  44   2.0000      -0.931138       -25.3376
  45   2.0000      -0.888109       -24.1667
  46   2.0000      -0.882988       -24.0273
  47   2.0000      -0.854789       -23.2600
  48   2.0000      -0.839447       -22.8425
  49   2.0000      -0.820180       -22.3182
  50   2.0000      -0.787785       -21.4367
  51   2.0000      -0.780399       -21.2357
  52   2.0000      -0.774230       -21.0679
  53   2.0000      -0.752357       -20.4727
  54   2.0000      -0.735975       -20.0269
  55   2.0000      -0.728330       -19.8189
  56   2.0000      -0.701600       -19.0915
  57   2.0000      -0.667838       -18.1728
  58   2.0000      -0.652664       -17.7599
  59   2.0000      -0.645770       -17.5723
  60   2.0000      -0.638258       -17.3679
  61   2.0000      -0.624331       -16.9889
  62   2.0000      -0.604477       -16.4487
  63   2.0000      -0.600352       -16.3364
  64   2.0000      -0.577846       -15.7240
  65   2.0000      -0.571475       -15.5506
  66   2.0000      -0.570401       -15.5214
  67   2.0000      -0.558040       -15.1850
  68   2.0000      -0.553801       -15.0697
  69   2.0000      -0.541692       -14.7402
  70   2.0000      -0.530438       -14.4339
  71   2.0000      -0.518000       -14.0955
  72   2.0000      -0.499588       -13.5945
  73   2.0000      -0.487063       -13.2537
  74   2.0000      -0.486954       -13.2507
  75   2.0000      -0.474608       -12.9147
  76   2.0000      -0.467622       -12.7246
  77   2.0000      -0.463091       -12.6014
  78   2.0000      -0.460436       -12.5291
  79   2.0000      -0.450460       -12.2576
  80   2.0000      -0.449584       -12.2338
  81   2.0000      -0.447621       -12.1804
  82   2.0000      -0.445536       -12.1236
  83   2.0000      -0.442931       -12.0528
  84   2.0000      -0.441759       -12.0209
  85   2.0000      -0.431873       -11.7519
  86   2.0000      -0.424927       -11.5628
  87   2.0000      -0.420201       -11.4343
  88   2.0000      -0.417338       -11.3564
  89   2.0000      -0.414394       -11.2762
  90   2.0000      -0.410686       -11.1753
  91   2.0000      -0.408698       -11.1212
  92   2.0000      -0.401636       -10.9291
  93   2.0000      -0.399201       -10.8628
  94   2.0000      -0.399096       -10.8599
  95   2.0000      -0.387392       -10.5415
  96   2.0000      -0.384394       -10.4599
  97   2.0000      -0.379265       -10.3203
  98   2.0000      -0.375896       -10.2286
  99   2.0000      -0.373621       -10.1667
 100   2.0000      -0.372263       -10.1298
 101   2.0000      -0.360685        -9.8147
 102   2.0000      -0.358208        -9.7473
 103   2.0000      -0.354170        -9.6375
 104   2.0000      -0.345979        -9.4146
 105   2.0000      -0.341158        -9.2834
 106   2.0000      -0.329431        -8.9643
 107   2.0000      -0.321385        -8.7453
 108   2.0000      -0.311676        -8.4811
 109   2.0000      -0.307642        -8.3714
 110   2.0000      -0.301608        -8.2072
 111   2.0000      -0.299989        -8.1631
 112   2.0000      -0.271641        -7.3917
 113   2.0000      -0.260429        -7.0866
 114   2.0000      -0.242146        -6.5891
 115   2.0000      -0.241844        -6.5809
 116   2.0000      -0.230964        -6.2849
 117   2.0000      -0.223253        -6.0750
 118   0.0000      -0.038908        -1.0587
 119   0.0000      -0.024421        -0.6645
 120   0.0000      -0.013700        -0.3728
 121   0.0000       0.002443         0.0665
 122   0.0000       0.013103         0.3565

MULLIKEN ATOMIC CHARGES
-----------------------
   0 O :   -0.477590
   1 C :    0.666889
   2 N :   -0.705011
   3 C :    0.329112
   4 C :   -0.109920
   5 C :   -0.176483
   6 C :    0.000111
   7 C :    0.897035
   8 F :   -0.295481
   9 F :   -0.304142
  10 F :   -0.303340
  11 C :   -0.174827
  12 C :   -0.121385
  13 Cl:   -0.004366
  14 N :   -0.437067
  15 C :   -0.127631
  16 C :   -0.294815
  17 C :    0.337437
  18 C :   -0.308829
  19 C :   -0.351681
  20 C :    0.116928
  21 C :   -0.183752
  22 C :   -0.124564
  23 C :   -0.132970
  24 C :   -0.143301
  25 Cl:   -0.009776
  26 C :    0.328436
  27 O :   -0.540289
  28 C :   -0.287668
  29 C :   -0.153599
  30 H :    0.343485
  31 H :    0.170529
  32 H :    0.161039
  33 H :    0.173399
  34 H :    0.146465
  35 H :    0.173569
  36 H :    0.148641
  37 H :    0.155354
  38 H :    0.151346
  39 H :    0.146469
  40 H :    0.155943
  41 H :    0.155337
  42 H :    0.128689
  43 H :    0.132616
  44 H :    0.151091
  45 H :    0.152639
  46 H :    0.144786
  47 H :    0.153078
  48 H :    0.148065
Sum of atomic charges:   -0.0000000

LOEWDIN ATOMIC CHARGES
----------------------
   0 O :   -0.297731
   1 C :    0.166572
   2 N :   -0.220604
   3 C :    0.039797
   4 C :   -0.108232
   5 C :   -0.110161
   6 C :   -0.070469
   7 C :    0.311478
   8 F :   -0.113102
   9 F :   -0.112697
  10 F :   -0.111359
  11 C :   -0.116733
  12 C :   -0.099921
  13 Cl:    0.039203
  14 N :   -0.139682
  15 C :   -0.141395
  16 C :   -0.227530
  17 C :    0.076143
  18 C :   -0.235565
  19 C :   -0.223826
  20 C :   -0.051174
  21 C :   -0.127834
  22 C :   -0.140365
  23 C :   -0.131271
  24 C :   -0.110025
  25 Cl:    0.039101
  26 C :    0.075783
  27 O :   -0.163422
  28 C :   -0.238841
  29 C :   -0.151890
  30 H :    0.262333
  31 H :    0.157697
  32 H :    0.148415
  33 H :    0.155792
  34 H :    0.115782
  35 H :    0.145310
  36 H :    0.132622
  37 H :    0.133709
  38 H :    0.130209
  39 H :    0.128112
  40 H :    0.136374
  41 H :    0.129468
  42 H :    0.132853
  43 H :    0.134903
  44 H :    0.145497
  45 H :    0.132205
  46 H :    0.128892
  47 H :    0.131104
  48 H :    0.114476

  Mayer bond orders larger than 0.100000
B(  0-O ,  1-C ) :   1.8164 B(  1-C ,  2-N ) :   1.0077 B(  1-C , 14-N ) :   1.0405
B(  2-N ,  3-C ) :   0.9071 B(  2-N , 30-H ) :   0.8091 B(  3-C ,  4-C ) :   1.4156
B(  3-C , 12-C ) :   1.3535 B(  4-C ,  5-C ) :   1.4291 B(  4-C , 31-H ) :   0.9088
B(  5-C ,  6-C ) :   1.3968 B(  5-C , 32-H ) :   0.9180 B(  6-C ,  7-C ) :   0.9804
B(  6-C , 11-C ) :   1.4135 B(  7-C ,  8-F ) :   0.9873 B(  7-C ,  9-F ) :   0.9488
B(  7-C , 10-F ) :   0.9496 B( 11-C , 12-C ) :   1.3975 B( 11-C , 33-H ) :   0.9110
B( 12-C , 13-Cl) :   1.0337 B( 14-N , 15-C ) :   0.9402 B( 14-N , 29-C ) :   0.9546
B( 15-C , 16-C ) :   0.9723 B( 15-C , 34-H ) :   0.9221 B( 15-C , 35-H ) :   0.9295
B( 16-C , 17-C ) :   0.9959 B( 16-C , 36-H ) :   0.9260 B( 16-C , 37-H ) :   0.9261
B( 17-C , 18-C ) :   0.9720 B( 17-C , 27-O ) :   0.8278 B( 17-C , 28-C ) :   0.9836
B( 18-C , 19-C ) :   0.9958 B( 18-C , 38-H ) :   0.9304 B( 18-C , 39-H ) :   0.9225
B( 19-C , 20-C ) :   0.9792 B( 19-C , 40-H ) :   0.9316 B( 19-C , 41-H ) :   0.9212
B( 20-C , 21-C ) :   1.4192 B( 20-C , 26-C ) :   1.3658 B( 21-C , 22-C ) :   1.4376
B( 21-C , 42-H ) :   0.9268 B( 22-C , 23-C ) :   1.4449 B( 22-C , 43-H ) :   0.9285
B( 23-C , 24-C ) :   1.4259 B( 23-C , 44-H ) :   0.9231 B( 24-C , 25-Cl) :   1.0257
B( 24-C , 26-C ) :   1.3228 B( 26-C , 27-O ) :   0.9418 B( 28-C , 29-C ) :   0.9759
B( 28-C , 45-H ) :   0.9278 B( 28-C , 46-H ) :   0.9231 B( 29-C , 47-H ) :   0.9299
B( 29-C , 48-H ) :   0.9185

FINAL SINGLE POINT ENERGY     -2290.645224665627

DIPOLE MOMENT
-------------

Method             : SCF
Type of density    : Electron Density
Multiplicity       :   1
Irrep              :   0
Energy             : -2290.6452246656272109 Eh
Relativity type    :
Basis              : AO
                                X                 Y                 Z
Electronic contribution:    -53.556289198      -9.643314302      18.640955303
Nuclear contribution   :     54.984072995      10.273045689     -18.454040183
                        -----------------------------------------
Total Dipole Moment    :      1.427783797       0.629731388       0.186915119
                        -----------------------------------------
Magnitude (a.u.)       :      1.571644188
Magnitude (Debye)      :      3.994802053

Rotational constants in cm-1:             0.012308             0.001277             0.001270
Rotational constants in MHz :           368.981876            38.283728            38.068193

                             ****ORCA TERMINATED NORMALLY****
TOTAL RUN TIME: 0 days 0 hours 6 minutes 16 seconds 984 msec
