                         Program Version 6.0.0  -   RELEASE  -
|  1> ! B3LYP 6-31G* SP
|  2>
|  3> * xyz 0 1
|  4> O 2.2639 -1.9763 -1.5233
|  5> C 1.5088 -1.0125 -0.8571
|  6> N 0.1758 -1.2024 -0.6627
|  7> C -0.4065 -0.1761 -0.0019
|  8> C -1.8478 -0.1342 0.3366
|  9> C -2.3983 0.9623 1.0271
| 10> C -3.7607 0.9896 1.3407
| 11> C -4.5874 -0.0732 0.9704
| 12> C -4.0534 -1.1668 0.2851
| 13> F -4.8568 -2.1983 -0.0740
| 14> C -2.6912 -1.1992 -0.0311
| 15> S 0.7284 1.0130 0.3658
| 16> C 2.0145 0.1913 -0.3435
| 17> C 3.3934 0.7112 -0.3769
| 18> N 3.7573 1.8946 0.1575
| 19> N 5.0555 1.9920 -0.0775
| 20> N 5.4583 0.9136 -0.7260
| 21> N 4.4486 0.0871 -0.9330
| 22> H 3.2544 -1.8850 -1.6936
| 23> H -1.7812 1.7993 1.3262
| 24> H -4.1760 1.8365 1.8718
| 25> H -5.6415 -0.0482 1.2151
| 26> H -2.2984 -2.0569 -0.5629
| 27> H 6.4403 0.7386 -1.0329
| 28> *
| 29>
| 30>                          ****END OF INPUT****

CARTESIAN COORDINATES (ANGSTROEM)
---------------------------------
  O      2.263900   -1.976300   -1.523300
  C      1.508800   -1.012500   -0.857100
  N      0.175800   -1.202400   -0.662700
  C     -0.406500   -0.176100   -0.001900
  C     -1.847800   -0.134200    0.336600
  C     -2.398300    0.962300    1.027100
  C     -3.760700    0.989600    1.340700
  C     -4.587400   -0.073200    0.970400
  C     -4.053400   -1.166800    0.285100
  F     -4.856800   -2.198300   -0.074000
  C     -2.691200   -1.199200   -0.031100
  S      0.728400    1.013000    0.365800
  C      2.014500    0.191300   -0.343500
  C      3.393400    0.711200   -0.376900
  N      3.757300    1.894600    0.157500
  N      5.055500    1.992000   -0.077500
  N      5.458300    0.913600   -0.726000
  N      4.448600    0.087100   -0.933000
  H      3.254400   -1.885000   -1.693600
  H     -1.781200    1.799300    1.326200
  H     -4.176000    1.836500    1.871800
  H     -5.641500   -0.048200    1.215100
  H     -2.298400   -2.056900   -0.562900
  H      6.440300    0.738600   -1.032900

 Total Charge           Charge          ....    0
 Multiplicity           Mult            ....    1
 Number of Electrons    NEL             ....  134
 Basis Dimension        Dim             ....  268

ORBITAL ENERGIES
----------------

  NO   OCC          E(Eh)            E(eV)
   0   2.0000     -88.906708     -2419.2745
   1   2.0000     -24.701196      -672.1537
   2   2.0000     -19.174668      -521.7692
   3   2.0000     -14.477248      -393.9459
   4   2.0000     -14.418364      -392.3436
   5   2.0000     -14.391264      -391.6062
   6   2.0000     -14.377526      -391.2324
   7   2.0000     -14.337415      -390.1409
   8   2.0000     -10.292997      -280.0867
   9   2.0000     -10.275142      -279.6008
  10   2.0000     -10.274490      -279.5831
  11   2.0000     -10.263612      -279.2871
  12   2.0000     -10.228258      -278.3251
  13   2.0000     -10.220507      -278.1141
  14   2.0000     -10.200230      -277.5624
  15   2.0000     -10.197945      -277.5002
  16   2.0000     -10.196904      -277.4719
  17   2.0000     -10.195781      -277.4413
  18   2.0000      -7.983506      -217.2422
  19   2.0000      -5.946448      -161.8111
  20   2.0000      -5.942473      -161.7029
  21   2.0000      -5.940576      -161.6513
  22   2.0000      -1.214368       -33.0446
  23   2.0000      -1.163328       -31.6558
  24   2.0000      -1.044167       -28.4132
  25   2.0000      -0.966826       -26.3087
  26   2.0000      -0.959788       -26.1172
  27   2.0000      -0.904847       -24.6221
  28   2.0000      -0.868484       -23.6326
  29   2.0000      -0.819070       -22.2880
  30   2.0000      -0.788397       -21.4534
  31   2.0000      -0.755282       -20.5523
  32   2.0000      -0.735524       -20.0146
  33   2.0000      -0.705143       -19.1879
  34   2.0000      -0.677136       -18.4258
  35   2.0000      -0.636847       -17.3295
  36   2.0000      -0.623433       -16.9645
  37   2.0000      -0.605930       -16.4882
  38   2.0000      -0.585084       -15.9209
  39   2.0000      -0.568582       -15.4719
  40   2.0000      -0.542376       -14.7588
  41   2.0000      -0.523289       -14.2394
  42   2.0000      -0.513781       -13.9807
  43   2.0000      -0.502315       -13.6687
  44   2.0000      -0.495886       -13.4937
  45   2.0000      -0.465354       -12.6629
  46   2.0000      -0.457597       -12.4518
  47   2.0000      -0.444348       -12.0913
  48   2.0000      -0.442375       -12.0376
  49   2.0000      -0.435607       -11.8535
  50   2.0000      -0.412124       -11.2145
  51   2.0000      -0.399684       -10.8760
  52   2.0000      -0.397257       -10.8099
  53   2.0000      -0.381280       -10.3752
  54   2.0000      -0.378664       -10.3040
  55   2.0000      -0.354603        -9.6492
  56   2.0000      -0.353174        -9.6103
  57   2.0000      -0.344037        -9.3617
  58   2.0000      -0.342753        -9.3268
  59   2.0000      -0.328700        -8.9444
  60   2.0000      -0.318719        -8.6728
  61   2.0000      -0.305466        -8.3122
  62   2.0000      -0.283328        -7.7098
  63   2.0000      -0.276675        -7.5287
  64   2.0000      -0.266041        -7.2394
  65   2.0000      -0.251981        -6.8568
  66   2.0000      -0.215530        -5.8649
  67   0.0000      -0.067819        -1.8454
  68   0.0000      -0.038580        -1.0498
  69   0.0000      -0.010013        -0.2725
  70   0.0000       0.002724         0.0741
  71   0.0000       0.030478         0.8293

MULLIKEN ATOMIC CHARGES
-----------------------
   0 O :   -0.652432
   1 C :    0.496104
   2 N :   -0.402020
   3 C :   -0.014558
   4 C :    0.153898
   5 C :   -0.196644
   6 C :   -0.121764
   7 C :   -0.199497
   8 C :    0.419461
   9 F :   -0.315141
  10 C :   -0.244813
  11 S :    0.300958
  12 C :   -0.244496
  13 C :    0.431570
  14 N :   -0.306138
  15 N :   -0.044229
  16 N :   -0.183612
  17 N :   -0.340380
  18 H :    0.444517
  19 H :    0.152401
  20 H :    0.145762
  21 H :    0.148770
  22 H :    0.180677
  23 H :    0.391606
Sum of atomic charges:    0.0000000

LOEWDIN ATOMIC CHARGES
----------------------
   0 O :   -0.334020
   1 C :    0.104594
   2 N :   -0.159417
   3 C :   -0.112727
   4 C :   -0.021167
   5 C :   -0.132318
   6 C :   -0.117637
   7 C :   -0.149790
   8 C :    0.119857
   9 F :   -0.100439
  10 C :   -0.133659
  11 S :    0.426900
  12 C :   -0.267798
  13 C :    0.002363
  14 N :   -0.114706
  15 N :   -0.062103
  16 N :   -0.016965
  17 N :   -0.160408
  18 H :    0.346804
  19 H :    0.142115
  20 H :    0.140445
  21 H :    0.145275
  22 H :    0.162524
  23 H :    0.292274

  Mayer bond orders larger than 0.100000
B(  0-O ,  1-C ) :   1.0158 B(  0-O , 18-H ) :   0.7186 B(  1-C ,  2-N ) :   1.3191
B(  1-C , 12-C ) :   1.3769 B(  2-N ,  3-C ) :   1.4323 B(  3-C ,  4-C ) :   1.0268
B(  3-C , 11-S ) :   1.1548 B(  3-C , 12-C ) :   0.1212 B(  4-C ,  5-C ) :   1.3919
B(  4-C , 10-C ) :   1.3761 B(  5-C ,  6-C ) :   1.4480 B(  5-C , 19-H ) :   0.9155
B(  6-C ,  7-C ) :   1.4268 B(  6-C , 20-H ) :   0.9281 B(  7-C ,  8-C ) :   1.3856
B(  7-C , 21-H ) :   0.9203 B(  8-C ,  9-F ) :   0.9127 B(  8-C , 10-C ) :   1.3726
B( 10-C , 22-H ) :   0.9017 B( 11-S , 12-C ) :   1.0811 B( 12-C , 13-C ) :   1.0620
B( 13-C , 14-N ) :   1.2715 B( 13-C , 17-N ) :   1.3775 B( 14-N , 15-N ) :   1.4606
B( 15-N , 16-N ) :   1.2470 B( 15-N , 17-N ) :   0.1379 B( 16-N , 17-N ) :   1.2206
B( 16-N , 23-H ) :   0.7952

FINAL SINGLE POINT ENERGY     -1231.088288661807

DIPOLE MOMENT
-------------

Method             : SCF
Type of density    : Electron Density
Multiplicity       :   1
Irrep              :   0
Energy             : -1231.0882886618073826 Eh
Relativity type    :
Basis              : AO
                                X                 Y                 Z
Electronic contribution:      1.751199271      -1.994181974      -1.421135468
Nuclear contribution   :     -0.645571512       2.355580652       1.365707097
                        -----------------------------------------
Total Dipole Moment    :      1.105627759       0.361398678      -0.055428371
                        -----------------------------------------
Magnitude (a.u.)       :      1.164514513
Magnitude (Debye)      :      2.959960659

Rotational constants in cm-1:             0.040861             0.005504             0.004851
Rotational constants in MHz :          1224.973857           165.019211           145.428222

                             ****ORCA TERMINATED NORMALLY****
TOTAL RUN TIME: 0 days 0 hours 3 minutes 0 seconds 124 msec
