                         Program Version 6.0.0  -   RELEASE  -
|  1> ! B3LYP 6-31G* SP
|  2>
|  3> * xyz 0 1
|  4> C 1.6097 2.9924 -1.1047
|  5> C 1.4469 2.9596 0.4034
|  6> C 1.0455 1.7661 1.0581
|  7> N 0.6856 0.5860 0.3231
|  8> C -0.4713 0.5890 -0.5786
|  9> C -1.5750 -0.2847 -0.0478
| 10> C -2.1431 -0.0177 1.2160
| 11> C -3.1942 -0.8052 1.7056
| 12> C -3.6853 -1.8474 0.9123
| 13> C -3.1478 -2.0982 -0.3265
| 14> C -2.0847 -1.3421 -0.8259
| 15> C -3.8391 -3.2130 -1.0194
| 16> C -5.0676 -3.4826 -0.1366
| 17> C -4.8143 -2.7862 1.2289
| 18> O -5.9712 -2.0711 1.6051
| 19> C -4.4096 -3.8213 2.3129
| 20> F -5.4800 -4.6581 2.5879
| 21> F -3.3413 -4.5897 1.8765
| 22> F -4.0411 -3.1838 3.4840
| 23> S 1.5976 -0.8732 0.5643
| 24> O 2.7112 -0.6270 1.5444
| 25> O 0.7061 -1.9471 1.1242
| 26> C 2.2965 -1.3858 -0.9656
| 27> C 1.8052 -2.5136 -1.6339
| 28> C 2.3808 -2.9226 -2.8427
| 29> C 3.4521 -2.2017 -3.4023
| 30> C 4.0849 -2.6428 -4.6644
| 31> O 3.7246 -3.7143 -5.2206
| 32> O 5.0959 -1.8820 -5.2423
| 33> C 3.9223 -1.0567 -2.7371
| 34> C 3.3516 -0.6562 -1.5248
| 35> N 0.9982 1.7193 2.4149
| 36> C 1.2836 2.7921 3.1916
| 37> C 1.6179 4.0137 2.6063
| 38> C 1.8729 5.1331 3.4106
| 39> C 2.1828 6.3556 2.8306
| 40> C 2.2399 6.4746 1.4443
| 41> C 1.9928 5.3695 0.6277
| 42> C 1.6895 4.1142 1.1943
| 43> H 1.7294 1.9783 -1.5252
| 44> H 2.5320 3.5311 -1.3948
| 45> H 0.7317 3.4771 -1.5735
| 46> H -0.1429 0.2487 -1.5889
| 47> H -0.8680 1.6202 -0.6946
| 48> H -1.7781 0.8110 1.8116
| 49> H -3.6232 -0.5998 2.6771
| 50> H -1.6746 -1.5701 -1.8016
| 51> H -4.1423 -2.9134 -2.0464
| 52> H -3.1734 -4.1057 -1.0511
| 53> H -5.9575 -3.0329 -0.6314
| 54> H -5.2531 -4.5738 -0.0389
| 55> H -5.8372 -1.7217 2.5198
| 56> H 0.9806 -3.0813 -1.2189
| 57> H 1.9869 -3.8016 -3.3384
| 58> H 5.5438 -2.1732 -6.1043
| 59> H 4.7368 -0.4742 -3.1447
| 60> H 3.7357 0.2199 -1.0180
| 61> H 1.2297 2.6916 4.2678
| 62> H 1.8246 5.0599 4.4918
| 63> H 2.3747 7.2174 3.4545
| 64> H 2.4804 7.4318 0.9953
| 65> H 2.0355 5.5196 -0.4416
| 66> *
| 67>
| 68>                          ****END OF INPUT****

CARTESIAN COORDINATES (ANGSTROEM)
---------------------------------
  C      1.609700    2.992400   -1.104700
  C      1.446900    2.959600    0.403400
  C      1.045500    1.766100    1.058100
  N      0.685600    0.586000    0.323100
  C     -0.471300    0.589000   -0.578600
  C     -1.575000   -0.284700   -0.047800
  C     -2.143100   -0.017700    1.216000
  C     -3.194200   -0.805200    1.705600
  C     -3.685300   -1.847400    0.912300
  C     -3.147800   -2.098200   -0.326500
  C     -2.084700   -1.342100   -0.825900
  C     -3.839100   -3.213000   -1.019400
  C     -5.067600   -3.482600   -0.136600
  C     -4.814300   -2.786200    1.228900
  O     -5.971200   -2.071100    1.605100
  C     -4.409600   -3.821300    2.312900
  F     -5.480000   -4.658100    2.587900
  F     -3.341300   -4.589700    1.876500
  F     -4.041100   -3.183800    3.484000
  S      1.597600   -0.873200    0.564300
  O      2.711200   -0.627000    1.544400
  O      0.706100   -1.947100    1.124200
  C      2.296500   -1.385800   -0.965600
  C      1.805200   -2.513600   -1.633900
  C      2.380800   -2.922600   -2.842700
  C      3.452100   -2.201700   -3.402300
  C      4.084900   -2.642800   -4.664400
  O      3.724600   -3.714300   -5.220600
  O      5.095900   -1.882000   -5.242300
  C      3.922300   -1.056700   -2.737100
  C      3.351600   -0.656200   -1.524800
  N      0.998200    1.719300    2.414900
  C      1.283600    2.792100    3.191600
  C      1.617900    4.013700    2.606300
  C      1.872900    5.133100    3.410600
  C      2.182800    6.355600    2.830600
  C      2.239900    6.474600    1.444300
  C      1.992800    5.369500    0.627700
  C      1.689500    4.114200    1.194300
  H      1.729400    1.978300   -1.525200
  H      2.532000    3.531100   -1.394800
  H      0.731700    3.477100   -1.573500
  H     -0.142900    0.248700   -1.588900
  H     -0.868000    1.620200   -0.694600
  H     -1.778100    0.811000    1.811600
  H     -3.623200   -0.599800    2.677100
  H     -1.674600   -1.570100   -1.801600
  H     -4.142300   -2.913400   -2.046400
  H     -3.173400   -4.105700   -1.051100
  H     -5.957500   -3.032900   -0.631400
  H     -5.253100   -4.573800   -0.038900
  H     -5.837200   -1.721700    2.519800
  H      0.980600   -3.081300   -1.218900
  H      1.986900   -3.801600   -3.338400
  H      5.543800   -2.173200   -6.104300
  H      4.736800   -0.474200   -3.144700
  H      3.735700    0.219900   -1.018000
  H      1.229700    2.691600    4.267800
  H      1.824600    5.059900    4.491800
  H      2.374700    7.217400    3.454500
  H      2.480400    7.431800    0.995300
  H      2.035500    5.519600   -0.441600

 Total Charge           Charge          ....    0
 Multiplicity           Mult            ....    1
 Number of Electrons    NEL             ....  288
 Basis Dimension        Dim             ....  596

ORBITAL ENERGIES
----------------

  NO   OCC          E(Eh)            E(eV)
   0   2.0000     -89.094028     -2424.3718
   1   2.0000     -24.718423      -672.6225
   2   2.0000     -24.713085      -672.4772
   3   2.0000     -24.710357      -672.4030
   4   2.0000     -19.199006      -522.4315
   5   2.0000     -19.150866      -521.1216
   6   2.0000     -19.140326      -520.8348
   7   2.0000     -19.119931      -520.2798
   8   2.0000     -19.117584      -520.2159
   9   2.0000     -14.371939      -391.0804
  10   2.0000     -14.328126      -389.8881
  11   2.0000     -10.422714      -283.6165
  12   2.0000     -10.337911      -281.3089
  13   2.0000     -10.263078      -279.2725
  14   2.0000     -10.255690      -279.0715
  15   2.0000     -10.243857      -278.7495
  16   2.0000     -10.238703      -278.6093
  17   2.0000     -10.234814      -278.5034
  18   2.0000     -10.223606      -278.1985
  19   2.0000     -10.223353      -278.1916
  20   2.0000     -10.221826      -278.1500
  21   2.0000     -10.220440      -278.1123
  22   2.0000     -10.220113      -278.1034
  23   2.0000     -10.212043      -277.8838
  24   2.0000     -10.208498      -277.7874
  25   2.0000     -10.199648      -277.5465
  26   2.0000     -10.199057      -277.5305
  27   2.0000     -10.197575      -277.4901
  28   2.0000     -10.197315      -277.4830
  29   2.0000     -10.195124      -277.4234
  30   2.0000     -10.194164      -277.3973
  31   2.0000     -10.192112      -277.3415
  32   2.0000     -10.182858      -277.0896
  33   2.0000     -10.182489      -277.0796
  34   2.0000     -10.180687      -277.0306
  35   2.0000     -10.180276      -277.0194
  36   2.0000     -10.179769      -277.0056
  37   2.0000     -10.178498      -276.9710
  38   2.0000     -10.176585      -276.9190
  39   2.0000      -8.129585      -221.2173
  40   2.0000      -6.094794      -165.8478
  41   2.0000      -6.092457      -165.7842
  42   2.0000      -6.092258      -165.7788
  43   2.0000      -1.273208       -34.6457
  44   2.0000      -1.200775       -32.6747
  45   2.0000      -1.195873       -32.5414
  46   2.0000      -1.083976       -29.4965
  47   2.0000      -1.077570       -29.3222
  48   2.0000      -1.033160       -28.1137
  49   2.0000      -0.997870       -27.1534
  50   2.0000      -0.961236       -26.1566
  51   2.0000      -0.954683       -25.9783
  52   2.0000      -0.914596       -24.8874
  53   2.0000      -0.892607       -24.2891
  54   2.0000      -0.871360       -23.7109
  55   2.0000      -0.865957       -23.5639
  56   2.0000      -0.818213       -22.2647
  57   2.0000      -0.811635       -22.0857
  58   2.0000      -0.805906       -21.9298
  59   2.0000      -0.778999       -21.1976
  60   2.0000      -0.777795       -21.1649
  61   2.0000      -0.762334       -20.7442
  62   2.0000      -0.751241       -20.4423
  63   2.0000      -0.744348       -20.2547
  64   2.0000      -0.716916       -19.5083
  65   2.0000      -0.713298       -19.4098
  66   2.0000      -0.704138       -19.1606
  67   2.0000      -0.683568       -18.6008
  68   2.0000      -0.661057       -17.9883
  69   2.0000      -0.654216       -17.8021
  70   2.0000      -0.645984       -17.5781
  71   2.0000      -0.639505       -17.4018
  72   2.0000      -0.620850       -16.8942
  73   2.0000      -0.610507       -16.6127
  74   2.0000      -0.600202       -16.3323
  75   2.0000      -0.596553       -16.2330
  76   2.0000      -0.591375       -16.0921
  77   2.0000      -0.574885       -15.6434
  78   2.0000      -0.564875       -15.3710
  79   2.0000      -0.562024       -15.2934
  80   2.0000      -0.555657       -15.1202
  81   2.0000      -0.549623       -14.9560
  82   2.0000      -0.543283       -14.7835
  83   2.0000      -0.530912       -14.4469
  84   2.0000      -0.516396       -14.0518
  85   2.0000      -0.507777       -13.8173
  86   2.0000      -0.503281       -13.6950
  87   2.0000      -0.494789       -13.4639
  88   2.0000      -0.485915       -13.2224
  89   2.0000      -0.479802       -13.0561
  90   2.0000      -0.475055       -12.9269
  91   2.0000      -0.465386       -12.6638
  92   2.0000      -0.463598       -12.6152
  93   2.0000      -0.461662       -12.5624
  94   2.0000      -0.455359       -12.3909
  95   2.0000      -0.452564       -12.3149
  96   2.0000      -0.450907       -12.2698
  97   2.0000      -0.447525       -12.1778
  98   2.0000      -0.445018       -12.1096
  99   2.0000      -0.443594       -12.0708
 100   2.0000      -0.442894       -12.0518
 101   2.0000      -0.442493       -12.0408
 102   2.0000      -0.435621       -11.8538
 103   2.0000      -0.430386       -11.7114
 104   2.0000      -0.422058       -11.4848
 105   2.0000      -0.419631       -11.4188
 106   2.0000      -0.416194       -11.3252
 107   2.0000      -0.414836       -11.2883
 108   2.0000      -0.410982       -11.1834
 109   2.0000      -0.409423       -11.1410
 110   2.0000      -0.402758       -10.9596
 111   2.0000      -0.401340       -10.9210
 112   2.0000      -0.399784       -10.8787
 113   2.0000      -0.393470       -10.7069
 114   2.0000      -0.392708       -10.6861
 115   2.0000      -0.389998       -10.6124
 116   2.0000      -0.386498       -10.5171
 117   2.0000      -0.383198       -10.4273
 118   2.0000      -0.371759       -10.1161
 119   2.0000      -0.370496       -10.0817
 120   2.0000      -0.366976        -9.9859
 121   2.0000      -0.364515        -9.9190
 122   2.0000      -0.355024        -9.6607
 123   2.0000      -0.354027        -9.6336
 124   2.0000      -0.349105        -9.4996
 125   2.0000      -0.343207        -9.3391
 126   2.0000      -0.332814        -9.0563
 127   2.0000      -0.329115        -8.9557
 128   2.0000      -0.323199        -8.7947
 129   2.0000      -0.316149        -8.6028
 130   2.0000      -0.305959        -8.3256
 131   2.0000      -0.298887        -8.1331
 132   2.0000      -0.290877        -7.9152
 133   2.0000      -0.284371        -7.7381
 134   2.0000      -0.280039        -7.6203
 135   2.0000      -0.279349        -7.6015
 136   2.0000      -0.277251        -7.5444
 137   2.0000      -0.273335        -7.4378
 138   2.0000      -0.263892        -7.1809
 139   2.0000      -0.251643        -6.8475
 140   2.0000      -0.246046        -6.6953
 141   2.0000      -0.239998        -6.5307
 142   2.0000      -0.232592        -6.3292
 143   2.0000      -0.220418        -5.9979
 144   0.0000      -0.086358        -2.3499
 145   0.0000      -0.061118        -1.6631
 146   0.0000      -0.034261        -0.9323
 147   0.0000      -0.029386        -0.7996
 148   0.0000      -0.008056        -0.2192

MULLIKEN ATOMIC CHARGES
-----------------------
   0 C :   -0.542900
   1 C :    0.083555
   2 C :    0.328754
   3 N :   -0.608347
   4 C :   -0.264108
   5 C :    0.191964
   6 C :   -0.156463
   7 C :   -0.175340
   8 C :    0.117719
   9 C :    0.140950
  10 C :   -0.233881
  11 C :   -0.348550
  12 C :   -0.330237
  13 C :    0.132219
  14 O :   -0.639119
  15 C :    0.911340
  16 F :   -0.303460
  17 F :   -0.301764
  18 F :   -0.305902
  19 S :    1.209335
  20 O :   -0.531609
  21 O :   -0.524476
  22 C :   -0.128436
  23 C :   -0.151394
  24 C :   -0.139741
  25 C :    0.084210
  26 C :    0.527706
  27 O :   -0.442372
  28 O :   -0.623696
  29 C :   -0.149779
  30 C :   -0.144792
  31 N :   -0.362486
  32 C :   -0.051010
  33 C :    0.134930
  34 C :   -0.200669
  35 C :   -0.126694
  36 C :   -0.120920
  37 C :   -0.202337
  38 C :    0.126736
  39 H :    0.166026
  40 H :    0.163599
  41 H :    0.163819
  42 H :    0.152954
  43 H :    0.182657
  44 H :    0.142623
  45 H :    0.121522
  46 H :    0.114684
  47 H :    0.148461
  48 H :    0.161005
  49 H :    0.172627
  50 H :    0.159965
  51 H :    0.401530
  52 H :    0.196193
  53 H :    0.181562
  54 H :    0.434855
  55 H :    0.172353
  56 H :    0.179474
  57 H :    0.157121
  58 H :    0.141101
  59 H :    0.135898
  60 H :    0.136244
  61 H :    0.134791
Sum of atomic charges:   -0.0000000

LOEWDIN ATOMIC CHARGES
----------------------
   0 C :   -0.363046
   1 C :   -0.027238
   2 C :    0.035653
   3 N :   -0.282898
   4 C :   -0.147089
   5 C :   -0.021026
   6 C :   -0.114748
   7 C :   -0.115929
   8 C :   -0.036466
   9 C :   -0.012689
  10 C :   -0.137462
  11 C :   -0.224189
  12 C :   -0.217847
  13 C :    0.027428
  14 O :   -0.365989
  15 C :    0.296917
  16 F :   -0.114698
  17 F :   -0.111559
  18 F :   -0.113729
  19 S :    1.267909
  20 O :   -0.560148
  21 O :   -0.559109
  22 C :   -0.176432
  23 C :   -0.105217
  24 C :   -0.085520
  25 C :   -0.038974
  26 C :    0.178561
  27 O :   -0.258495
  28 O :   -0.334226
  29 C :   -0.100622
  30 C :   -0.105192
  31 N :   -0.112088
  32 C :   -0.053975
  33 C :   -0.030271
  34 C :   -0.109448
  35 C :   -0.128665
  36 C :   -0.116856
  37 C :   -0.128224
  38 C :   -0.006367
  39 H :    0.136693
  40 H :    0.136519
  41 H :    0.137531
  42 H :    0.123467
  43 H :    0.149759
  44 H :    0.139830
  45 H :    0.128728
  46 H :    0.125970
  47 H :    0.130112
  48 H :    0.135373
  49 H :    0.143315
  50 H :    0.133142
  51 H :    0.316340
  52 H :    0.165386
  53 H :    0.160778
  54 H :    0.350473
  55 H :    0.154489
  56 H :    0.156172
  57 H :    0.139857
  58 H :    0.138065
  59 H :    0.135634
  60 H :    0.135741
  61 H :    0.136588

  Mayer bond orders larger than 0.100000
B(  0-C ,  1-C ) :   0.9962 B(  0-C , 39-H ) :   0.9293 B(  0-C , 40-H ) :   0.9307
B(  0-C , 41-H ) :   0.9267 B(  1-C ,  2-C ) :   1.4263 B(  1-C , 32-C ) :   0.1019
B(  1-C , 38-C ) :   1.2714 B(  2-C ,  3-N ) :   0.8941 B(  2-C , 31-N ) :   1.2863
B(  3-N ,  4-C ) :   0.9205 B(  3-N , 19-S ) :   0.7880 B(  4-C ,  5-C ) :   0.9518
B(  4-C , 42-H ) :   0.9261 B(  4-C , 43-H ) :   0.9163 B(  5-C ,  6-C ) :   1.3965
B(  5-C , 10-C ) :   1.4245 B(  6-C ,  7-C ) :   1.4512 B(  6-C , 44-H ) :   0.9161
B(  7-C ,  8-C ) :   1.3807 B(  7-C , 45-H ) :   0.9221 B(  8-C ,  9-C ) :   1.4865
B(  8-C , 13-C ) :   0.9106 B(  9-C , 10-C ) :   1.3877 B(  9-C , 11-C ) :   0.9810
B( 10-C , 46-H ) :   0.9191 B( 11-C , 12-C ) :   0.9838 B( 11-C , 47-H ) :   0.9360
B( 11-C , 48-H ) :   0.9245 B( 12-C , 13-C ) :   0.9596 B( 12-C , 49-H ) :   0.9320
B( 12-C , 50-H ) :   0.9344 B( 13-C , 14-O ) :   0.9287 B( 13-C , 15-C ) :   0.9111
B( 14-O , 51-H ) :   0.7698 B( 15-C , 16-F ) :   0.9614 B( 15-C , 17-F ) :   0.9560
B( 15-C , 18-F ) :   0.9453 B( 19-S , 20-O ) :   1.6466 B( 19-S , 21-O ) :   1.6560
B( 19-S , 22-C ) :   0.8089 B( 22-C , 23-C ) :   1.3913 B( 22-C , 30-C ) :   1.3853
B( 23-C , 24-C ) :   1.4096 B( 23-C , 52-H ) :   0.9039 B( 24-C , 25-C ) :   1.4059
B( 24-C , 53-H ) :   0.9097 B( 25-C , 26-C ) :   1.0067 B( 25-C , 29-C ) :   1.3802
B( 26-C , 27-O ) :   1.8660 B( 26-C , 28-O ) :   1.0256 B( 28-O , 54-H ) :   0.7412
B( 29-C , 30-C ) :   1.4253 B( 29-C , 55-H ) :   0.9148 B( 30-C , 56-H ) :   0.9114
B( 31-N , 32-C ) :   1.4951 B( 32-C , 33-C ) :   1.2323 B( 32-C , 57-H ) :   0.9259
B( 33-C , 34-C ) :   1.2837 B( 33-C , 38-C ) :   1.2906 B( 34-C , 35-C ) :   1.5159
B( 34-C , 37-C ) :   0.1051 B( 34-C , 58-H ) :   0.9227 B( 35-C , 36-C ) :   1.3523
B( 35-C , 59-H ) :   0.9291 B( 36-C , 37-C ) :   1.5113 B( 36-C , 60-H ) :   0.9291
B( 37-C , 38-C ) :   1.2921 B( 37-C , 61-H ) :   0.9179

FINAL SINGLE POINT ENERGY     -2262.960142232535

DIPOLE MOMENT
-------------

Method             : SCF
Type of density    : Electron Density
Multiplicity       :   1
Irrep              :   0
Energy             : -2262.9601422325345084 Eh
Relativity type    :
Basis              : AO
                                X                 Y                 Z
Electronic contribution:    -11.631029875     -28.655368328      16.786655639
Nuclear contribution   :     12.279267059      31.583248547     -18.764143242
                        -----------------------------------------
Total Dipole Moment    :      0.648237184       2.927880219      -1.977487603
                        -----------------------------------------
Magnitude (a.u.)       :      3.592095662
Magnitude (Debye)      :      9.130381569

Rotational constants in cm-1:             0.002909             0.001997             0.001311
Rotational constants in MHz :            87.210135            59.877075            39.298541

                             ****ORCA TERMINATED NORMALLY****
TOTAL RUN TIME: 0 days 0 hours 13 minutes 24 seconds 896 msec
