                         Program Version 6.0.0  -   RELEASE  -
|  1> ! B3LYP 6-31G* SP
|  2>
|  3> * xyz 0 1
|  4> C -5.3423 0.4998 2.8714
|  5> N -5.4322 0.6955 1.4145
|  6> C -5.2721 -0.3796 0.5689
|  7> O -5.0266 -1.5320 1.0189
|  8> C -5.3986 -0.1655 -0.7991
|  9> C -5.6798 1.0727 -1.2684
| 10> C -5.7457 0.9564 -2.6439
| 11> N -5.4968 -0.3357 -2.9657
| 12> N -5.2930 -1.0172 -1.8418
| 13> C -4.9485 -2.4379 -1.8163
| 14> C -3.4896 -2.6132 -1.5160
| 15> O -2.6404 -1.9713 -2.1921
| 16> N -3.0680 -3.5288 -0.4936
| 17> C -1.7267 -3.5915 0.0056
| 18> N -0.7464 -2.7341 -0.3498
| 19> C 0.4245 -2.9975 0.2946
| 20> C 1.6348 -2.1675 0.0672
| 21> C 1.5120 -0.9062 -0.5441
| 22> C 2.6382 -0.1069 -0.7635
| 23> Cl 2.4458 1.4674 -1.5205
| 24> C 3.9065 -0.5581 -0.3752
| 25> O 5.0253 0.2463 -0.5929
| 26> C 5.5599 1.0709 0.4391
| 27> C 6.7817 1.8650 -0.0744
| 28> C 6.3632 2.7741 -1.2475
| 29> C 7.3323 2.7382 1.0699
| 30> C 7.8827 0.8923 -0.5422
| 31> C 4.0445 -1.8229 0.2159
| 32> Cl 5.6307 -2.4385 0.6573
| 33> C 2.9158 -2.6199 0.4371
| 34> C 0.3636 -4.0770 1.1829
| 35> S -1.1982 -4.7029 1.1449
| 36> N -5.8495 2.1494 -0.4546
| 37> C -6.1941 3.4614 -1.0205
| 38> C -5.7527 1.9448 0.9062
| 39> O -5.9643 2.9065 1.6981
| 40> H -6.3504 0.2776 3.2799
| 41> H -4.9360 1.4045 3.3718
| 42> H -4.6539 -0.3337 3.1272
| 43> H -5.9540 1.7378 -3.3621
| 44> H -5.5764 -2.9611 -1.0644
| 45> H -5.1665 -2.8948 -2.8054
| 46> H -3.7765 -4.1681 -0.0685
| 47> H 0.5398 -0.5336 -0.8431
| 48> H 4.7711 1.7738 0.7885
| 49> H 5.8562 0.4366 1.3034
| 50> H 7.2273 3.3748 -1.6048
| 51> H 5.9864 2.1709 -2.1013
| 52> H 5.5585 3.4732 -0.9327
| 53> H 6.5581 3.4520 1.4261
| 54> H 7.6457 2.1063 1.9291
| 55> H 8.2139 3.3231 0.7289
| 56> H 8.7806 1.4522 -0.8826
| 57> H 7.5255 0.2669 -1.3884
| 58> H 8.1858 0.2166 0.2869
| 59> H 3.0523 -3.5978 0.8779
| 60> H 1.1597 -4.4430 1.8152
| 61> H -7.2722 3.4810 -1.2854
| 62> H -5.9823 4.2854 -0.3070
| 63> H -5.5889 3.6630 -1.9300
| 64> *
| 65>
| 66>                          ****END OF INPUT****

CARTESIAN COORDINATES (ANGSTROEM)
---------------------------------
  C     -5.342300    0.499800    2.871400
  N     -5.432200    0.695500    1.414500
  C     -5.272100   -0.379600    0.568900
  O     -5.026600   -1.532000    1.018900
  C     -5.398600   -0.165500   -0.799100
  C     -5.679800    1.072700   -1.268400
  C     -5.745700    0.956400   -2.643900
  N     -5.496800   -0.335700   -2.965700
  N     -5.293000   -1.017200   -1.841800
  C     -4.948500   -2.437900   -1.816300
  C     -3.489600   -2.613200   -1.516000
  O     -2.640400   -1.971300   -2.192100
  N     -3.068000   -3.528800   -0.493600
  C     -1.726700   -3.591500    0.005600
  N     -0.746400   -2.734100   -0.349800
  C      0.424500   -2.997500    0.294600
  C      1.634800   -2.167500    0.067200
  C      1.512000   -0.906200   -0.544100
  C      2.638200   -0.106900   -0.763500
  Cl     2.445800    1.467400   -1.520500
  C      3.906500   -0.558100   -0.375200
  O      5.025300    0.246300   -0.592900
  C      5.559900    1.070900    0.439100
  C      6.781700    1.865000   -0.074400
  C      6.363200    2.774100   -1.247500
  C      7.332300    2.738200    1.069900
  C      7.882700    0.892300   -0.542200
  C      4.044500   -1.822900    0.215900
  Cl     5.630700   -2.438500    0.657300
  C      2.915800   -2.619900    0.437100
  C      0.363600   -4.077000    1.182900
  S     -1.198200   -4.702900    1.144900
  N     -5.849500    2.149400   -0.454600
  C     -6.194100    3.461400   -1.020500
  C     -5.752700    1.944800    0.906200
  O     -5.964300    2.906500    1.698100
  H     -6.350400    0.277600    3.279900
  H     -4.936000    1.404500    3.371800
  H     -4.653900   -0.333700    3.127200
  H     -5.954000    1.737800   -3.362100
  H     -5.576400   -2.961100   -1.064400
  H     -5.166500   -2.894800   -2.805400
  H     -3.776500   -4.168100   -0.068500
  H      0.539800   -0.533600   -0.843100
  H      4.771100    1.773800    0.788500
  H      5.856200    0.436600    1.303400
  H      7.227300    3.374800   -1.604800
  H      5.986400    2.170900   -2.101300
  H      5.558500    3.473200   -0.932700
  H      6.558100    3.452000    1.426100
  H      7.645700    2.106300    1.929100
  H      8.213900    3.323100    0.728900
  H      8.780600    1.452200   -0.882600
  H      7.525500    0.266900   -1.388400
  H      8.185800    0.216600    0.286900
  H      3.052300   -3.597800    0.877900
  H      1.159700   -4.443000    1.815200
  H     -7.272200    3.481000   -1.285400
  H     -5.982300    4.285400   -0.307000
  H     -5.588900    3.663000   -1.930000

 Total Charge           Charge          ....    0
 Multiplicity           Mult            ....    1
 Number of Electrons    NEL             ....  286
 Basis Dimension        Dim             ....  564

ORBITAL ENERGIES
----------------

  NO   OCC          E(Eh)            E(eV)
   0   2.0000    -101.532529     -2762.8406
   1   2.0000    -101.526638     -2762.6803
   2   2.0000     -88.912108     -2419.4215
   3   2.0000     -19.157233      -521.2948
   4   2.0000     -19.129063      -520.5283
   5   2.0000     -19.120355      -520.2913
   6   2.0000     -19.111236      -520.0432
   7   2.0000     -14.438088      -392.8804
   8   2.0000     -14.402007      -391.8985
   9   2.0000     -14.400972      -391.8704
  10   2.0000     -14.399530      -391.8311
  11   2.0000     -14.373417      -391.1206
  12   2.0000     -14.330396      -389.9499
  13   2.0000     -10.328176      -281.0440
  14   2.0000     -10.313114      -280.6341
  15   2.0000     -10.301877      -280.3283
  16   2.0000     -10.294862      -280.1374
  17   2.0000     -10.260365      -279.1987
  18   2.0000     -10.260251      -279.1956
  19   2.0000     -10.252237      -278.9776
  20   2.0000     -10.248968      -278.8886
  21   2.0000     -10.237988      -278.5898
  22   2.0000     -10.236469      -278.5485
  23   2.0000     -10.231997      -278.4268
  24   2.0000     -10.226916      -278.2885
  25   2.0000     -10.225406      -278.2474
  26   2.0000     -10.222958      -278.1808
  27   2.0000     -10.218750      -278.0663
  28   2.0000     -10.214276      -277.9446
  29   2.0000     -10.211775      -277.8765
  30   2.0000     -10.202811      -277.6326
  31   2.0000     -10.195552      -277.4351
  32   2.0000     -10.187607      -277.2189
  33   2.0000     -10.166297      -276.6390
  34   2.0000     -10.156565      -276.3742
  35   2.0000     -10.155898      -276.3560
  36   2.0000      -9.463678      -257.5198
  37   2.0000      -9.457798      -257.3598
  38   2.0000      -7.989748      -217.4121
  39   2.0000      -7.226961      -196.6556
  40   2.0000      -7.221121      -196.4967
  41   2.0000      -7.217274      -196.3920
  42   2.0000      -7.216884      -196.3814
  43   2.0000      -7.211427      -196.2329
  44   2.0000      -7.210921      -196.2191
  45   2.0000      -5.952817      -161.9844
  46   2.0000      -5.948722      -161.8730
  47   2.0000      -5.946572      -161.8144
  48   2.0000      -1.088632       -29.6232
  49   2.0000      -1.063640       -28.9431
  50   2.0000      -1.045815       -28.4581
  51   2.0000      -1.030092       -28.0302
  52   2.0000      -1.026176       -27.9237
  53   2.0000      -0.980452       -26.6795
  54   2.0000      -0.971352       -26.4318
  55   2.0000      -0.943249       -25.6671
  56   2.0000      -0.921268       -25.0690
  57   2.0000      -0.894917       -24.3519
  58   2.0000      -0.867911       -23.6171
  59   2.0000      -0.866533       -23.5796
  60   2.0000      -0.829605       -22.5747
  61   2.0000      -0.824507       -22.4360
  62   2.0000      -0.815284       -22.1850
  63   2.0000      -0.810764       -22.0620
  64   2.0000      -0.772306       -21.0155
  65   2.0000      -0.755334       -20.5537
  66   2.0000      -0.750192       -20.4138
  67   2.0000      -0.731973       -19.9180
  68   2.0000      -0.726145       -19.7594
  69   2.0000      -0.718463       -19.5504
  70   2.0000      -0.675639       -18.3851
  71   2.0000      -0.671661       -18.2768
  72   2.0000      -0.666707       -18.1420
  73   2.0000      -0.665113       -18.0987
  74   2.0000      -0.654989       -17.8231
  75   2.0000      -0.633540       -17.2395
  76   2.0000      -0.624277       -16.9874
  77   2.0000      -0.611702       -16.6453
  78   2.0000      -0.604655       -16.4535
  79   2.0000      -0.594708       -16.1828
  80   2.0000      -0.591556       -16.0971
  81   2.0000      -0.551979       -15.0201
  82   2.0000      -0.545739       -14.8503
  83   2.0000      -0.535439       -14.5700
  84   2.0000      -0.532498       -14.4900
  85   2.0000      -0.523136       -14.2352
  86   2.0000      -0.518482       -14.1086
  87   2.0000      -0.512845       -13.9552
  88   2.0000      -0.503944       -13.7130
  89   2.0000      -0.494284       -13.4502
  90   2.0000      -0.490555       -13.3487
  91   2.0000      -0.478856       -13.0303
  92   2.0000      -0.477418       -12.9912
  93   2.0000      -0.463823       -12.6213
  94   2.0000      -0.459168       -12.4946
  95   2.0000      -0.455866       -12.4047
  96   2.0000      -0.453166       -12.3313
  97   2.0000      -0.451401       -12.2832
  98   2.0000      -0.450593       -12.2613
  99   2.0000      -0.447832       -12.1861
 100   2.0000      -0.440903       -11.9976
 101   2.0000      -0.433387       -11.7931
 102   2.0000      -0.431619       -11.7450
 103   2.0000      -0.429179       -11.6786
 104   2.0000      -0.416100       -11.3226
 105   2.0000      -0.413417       -11.2496
 106   2.0000      -0.409547       -11.1443
 107   2.0000      -0.408109       -11.1052
 108   2.0000      -0.406497       -11.0614
 109   2.0000      -0.404404       -11.0044
 110   2.0000      -0.403534       -10.9807
 111   2.0000      -0.397568       -10.8184
 112   2.0000      -0.388928       -10.5833
 113   2.0000      -0.385151       -10.4805
 114   2.0000      -0.379853       -10.3363
 115   2.0000      -0.377709       -10.2780
 116   2.0000      -0.373300       -10.1580
 117   2.0000      -0.366032        -9.9602
 118   2.0000      -0.363780        -9.8990
 119   2.0000      -0.360825        -9.8186
 120   2.0000      -0.355749        -9.6804
 121   2.0000      -0.349592        -9.5129
 122   2.0000      -0.333062        -9.0631
 123   2.0000      -0.329023        -8.9532
 124   2.0000      -0.321698        -8.7538
 125   2.0000      -0.316122        -8.6021
 126   2.0000      -0.313608        -8.5337
 127   2.0000      -0.308484        -8.3943
 128   2.0000      -0.305501        -8.3131
 129   2.0000      -0.304745        -8.2925
 130   2.0000      -0.303284        -8.2528
 131   2.0000      -0.288333        -7.8459
 132   2.0000      -0.287909        -7.8344
 133   2.0000      -0.277668        -7.5557
 134   2.0000      -0.271254        -7.3812
 135   2.0000      -0.270523        -7.3613
 136   2.0000      -0.269243        -7.3265
 137   2.0000      -0.257023        -6.9939
 138   2.0000      -0.249721        -6.7953
 139   2.0000      -0.245559        -6.6820
 140   2.0000      -0.242811        -6.6072
 141   2.0000      -0.229656        -6.2493
 142   2.0000      -0.214591        -5.8393
 143   0.0000      -0.050122        -1.3639
 144   0.0000      -0.043490        -1.1834
 145   0.0000      -0.030682        -0.8349
 146   0.0000      -0.017465        -0.4752
 147   0.0000       0.006882         0.1873

MULLIKEN ATOMIC CHARGES
-----------------------
   0 C :   -0.314693
   1 N :   -0.491534
   2 C :    0.571739
   3 O :   -0.528793
   4 C :    0.282833
   5 C :    0.217479
   6 C :   -0.013476
   7 N :   -0.226794
   8 N :   -0.319115
   9 C :   -0.222866
  10 C :    0.565739
  11 O :   -0.413773
  12 N :   -0.648037
  13 C :    0.262386
  14 N :   -0.377513
  15 C :    0.217203
  16 C :    0.141391
  17 C :   -0.187852
  18 C :   -0.109072
  19 Cl:    0.008558
  20 C :    0.355487
  21 O :   -0.512064
  22 C :   -0.007074
  23 C :    0.076843
  24 C :   -0.438204
  25 C :   -0.442381
  26 C :   -0.437839
  27 C :   -0.114313
  28 Cl:    0.003214
  29 C :   -0.195284
  30 C :   -0.394798
  31 S :    0.260731
  32 N :   -0.505760
  33 C :   -0.332222
  34 C :    0.672288
  35 O :   -0.509932
  36 H :    0.176582
  37 H :    0.196942
  38 H :    0.194400
  39 H :    0.162009
  40 H :    0.185344
  41 H :    0.215480
  42 H :    0.351120
  43 H :    0.193665
  44 H :    0.128426
  45 H :    0.130716
  46 H :    0.131634
  47 H :    0.162755
  48 H :    0.134452
  49 H :    0.137309
  50 H :    0.137090
  51 H :    0.144831
  52 H :    0.132272
  53 H :    0.160461
  54 H :    0.134172
  55 H :    0.149733
  56 H :    0.185497
  57 H :    0.175671
  58 H :    0.215142
  59 H :    0.171797
Sum of atomic charges:    0.0000000

LOEWDIN ATOMIC CHARGES
----------------------
   0 C :   -0.259165
   1 N :   -0.028079
   2 C :    0.108622
   3 O :   -0.316314
   4 C :   -0.058944
   5 C :   -0.003119
   6 C :   -0.147132
   7 N :   -0.084695
   8 N :    0.093835
   9 C :   -0.162439
  10 C :    0.143580
  11 O :   -0.230781
  12 N :   -0.195446
  13 C :   -0.077341
  14 N :   -0.151741
  15 C :   -0.001177
  16 C :   -0.014122
  17 C :   -0.113509
  18 C :   -0.097015
  19 Cl:    0.053210
  20 C :    0.063377
  21 O :   -0.189897
  22 C :   -0.075539
  23 C :   -0.049060
  24 C :   -0.347956
  25 C :   -0.345226
  26 C :   -0.347766
  27 C :   -0.099978
  28 Cl:    0.049323
  29 C :   -0.129736
  30 C :   -0.345620
  31 S :    0.396367
  32 N :   -0.025061
  33 C :   -0.260213
  34 C :    0.144112
  35 O :   -0.318945
  36 H :    0.139524
  37 H :    0.153635
  38 H :    0.152324
  39 H :    0.146843
  40 H :    0.148381
  41 H :    0.171690
  42 H :    0.270512
  43 H :    0.166371
  44 H :    0.109829
  45 H :    0.110435
  46 H :    0.118916
  47 H :    0.132580
  48 H :    0.120132
  49 H :    0.120534
  50 H :    0.120353
  51 H :    0.126680
  52 H :    0.119233
  53 H :    0.131621
  54 H :    0.119948
  55 H :    0.144199
  56 H :    0.162139
  57 H :    0.136245
  58 H :    0.164187
  59 H :    0.137282

  Mayer bond orders larger than 0.100000
B(  0-C ,  1-N ) :   0.9189 B(  0-C , 36-H ) :   0.9406 B(  0-C , 37-H ) :   0.9261
B(  0-C , 38-H ) :   0.9240 B(  1-N ,  2-C ) :   0.9884 B(  1-N , 34-C ) :   1.0220
B(  2-C ,  3-O ) :   1.7171 B(  2-C ,  4-C ) :   1.0968 B(  4-C ,  5-C ) :   1.3456
B(  4-C ,  8-N ) :   0.9654 B(  5-C ,  6-C ) :   1.3144 B(  5-C ,  8-N ) :   0.1010
B(  5-C , 32-N ) :   0.9554 B(  6-C ,  7-N ) :   1.4111 B(  6-C , 39-H ) :   0.9277
B(  7-N ,  8-N ) :   1.2939 B(  8-N ,  9-C ) :   0.9637 B(  9-C , 10-C ) :   0.9218
B(  9-C , 40-H ) :   0.9089 B(  9-C , 41-H ) :   0.9030 B( 10-C , 11-O ) :   1.9139
B( 10-C , 12-N ) :   0.9913 B( 12-N , 13-C ) :   0.9528 B( 12-N , 42-H ) :   0.8165
B( 13-C , 14-N ) :   1.5081 B( 13-C , 30-C ) :   0.1081 B( 13-C , 31-S ) :   1.1431
B( 14-N , 15-C ) :   1.2693 B( 15-C , 16-C ) :   1.0520 B( 15-C , 30-C ) :   1.5109
B( 16-C , 17-C ) :   1.3945 B( 16-C , 29-C ) :   1.3944 B( 17-C , 18-C ) :   1.3716
B( 17-C , 43-H ) :   0.8998 B( 18-C , 19-Cl) :   1.0433 B( 18-C , 20-C ) :   1.3377
B( 20-C , 21-O ) :   0.9684 B( 20-C , 27-C ) :   1.3323 B( 21-O , 22-C ) :   0.8686
B( 22-C , 23-C ) :   0.9908 B( 22-C , 44-H ) :   0.9201 B( 22-C , 45-H ) :   0.9170
B( 23-C , 24-C ) :   0.9999 B( 23-C , 25-C ) :   0.9901 B( 23-C , 26-C ) :   0.9995
B( 24-C , 46-H ) :   0.9464 B( 24-C , 47-H ) :   0.9397 B( 24-C , 48-H ) :   0.9459
B( 25-C , 49-H ) :   0.9449 B( 25-C , 50-H ) :   0.9448 B( 25-C , 51-H ) :   0.9454
B( 26-C , 52-H ) :   0.9465 B( 26-C , 53-H ) :   0.9405 B( 26-C , 54-H ) :   0.9459
B( 27-C , 28-Cl) :   1.0342 B( 27-C , 29-C ) :   1.3957 B( 29-C , 55-H ) :   0.9124
B( 30-C , 31-S ) :   1.1183 B( 30-C , 56-H ) :   0.9016 B( 32-N , 33-C ) :   0.9411
B( 32-N , 34-C ) :   1.0625 B( 33-C , 57-H ) :   0.9357 B( 33-C , 58-H ) :   0.9213
B( 33-C , 59-H ) :   0.9320 B( 34-C , 35-O ) :   1.7924

FINAL SINGLE POINT ENERGY     -2837.760650152417

DIPOLE MOMENT
-------------

Method             : SCF
Type of density    : Electron Density
Multiplicity       :   1
Irrep              :   0
Energy             : -2837.7606501524169289 Eh
Relativity type    :
Basis              : AO
                                X                 Y                 Z
Electronic contribution:    -22.089644829     -30.756383294      -4.864571327
Nuclear contribution   :     20.514705949      30.008995149       5.584837328
                        -----------------------------------------
Total Dipole Moment    :     -1.574938880      -0.747388145       0.720266001
                        -----------------------------------------
Magnitude (a.u.)       :      1.886214364
Magnitude (Debye)      :      4.794375898

Rotational constants in cm-1:             0.004462             0.001297             0.001124
Rotational constants in MHz :           133.769945            38.893684            33.710097

                             ****ORCA TERMINATED NORMALLY****
TOTAL RUN TIME: 0 days 0 hours 6 minutes 54 seconds 751 msec
