                         Program Version 6.0.0  -   RELEASE  -
|  1> ! B3LYP 6-31G* SP
|  2>
|  3> * xyz 0 1
|  4> C -5.2367 -0.8606 -0.9057
|  5> C -4.7663 -0.4378 0.4878
|  6> C -3.3066 -0.1206 0.6812
|  7> C -2.8197 1.1614 0.3871
|  8> C -1.4556 1.4422 0.5074
|  9> C -0.5593 0.4427 0.9121
| 10> C 0.9156 0.7321 0.9770
| 11> N 1.4772 0.8138 -0.3744
| 12> C 1.6307 2.0875 -1.0093
| 13> N 0.8137 2.4183 -2.0455
| 14> C 0.9005 3.6153 -2.6806
| 15> C 1.8641 4.5561 -2.2884
| 16> C 1.9368 5.9091 -2.9488
| 17> F 3.2376 6.3804 -2.9485
| 18> F 1.5034 5.8382 -4.2617
| 19> F 1.1348 6.7963 -2.2557
| 20> C 2.7055 4.2401 -1.2114
| 21> C 2.6021 3.0016 -0.5737
| 22> Cl 3.7192 2.6065 0.7234
| 23> S 1.6010 -0.6204 -1.3464
| 24> O 0.2370 -1.0001 -1.8514
| 25> O 2.4993 -0.3624 -2.5236
| 26> C 2.2982 -1.9262 -0.3942
| 27> C 1.5614 -3.0846 -0.1140
| 28> C 2.1260 -4.1093 0.6516
| 29> C 3.4392 -3.9920 1.1421
| 30> C 4.0385 -5.0815 1.9433
| 31> O 5.2379 -5.0069 2.3270
| 32> O 3.2838 -6.2018 2.2798
| 33> C 4.1722 -2.8263 0.8561
| 34> C 3.6028 -1.8006 0.0968
| 35> C -1.0465 -0.8421 1.2030
| 36> C -2.4093 -1.1237 1.0793
| 37> C -5.4789 -1.0838 1.6700
| 38> C -5.7487 0.3740 1.3226
| 39> H -5.0497 -0.0353 -1.6243
| 40> H -4.6670 -1.7556 -1.2321
| 41> H -6.3209 -1.1037 -0.9213
| 42> H -3.4960 1.9389 0.0512
| 43> H -1.0960 2.4359 0.2728
| 44> H 1.0714 1.6872 1.5233
| 45> H 1.4496 -0.0526 1.5546
| 46> H 0.2127 3.8319 -3.4875
| 47> H 3.4438 4.9531 -0.8686
| 48> H 0.5488 -3.1964 -0.4818
| 49> H 1.5348 -4.9945 0.8551
| 50> H 3.6842 -6.9527 2.8281
| 51> H 5.1837 -2.7051 1.2205
| 52> H 4.1786 -0.9073 -0.1091
| 53> H -0.3707 -1.6279 1.5137
| 54> H -2.7645 -2.1251 1.2845
| 55> H -6.3259 -1.7594 1.4245
| 56> H -4.8832 -1.2044 2.6004
| 57> H -5.2975 1.0920 2.0413
| 58> H -6.7471 0.5463 0.8655
| 59> *
| 60>
| 61>                          ****END OF INPUT****

CARTESIAN COORDINATES (ANGSTROEM)
---------------------------------
  C     -5.236700   -0.860600   -0.905700
  C     -4.766300   -0.437800    0.487800
  C     -3.306600   -0.120600    0.681200
  C     -2.819700    1.161400    0.387100
  C     -1.455600    1.442200    0.507400
  C     -0.559300    0.442700    0.912100
  C      0.915600    0.732100    0.977000
  N      1.477200    0.813800   -0.374400
  C      1.630700    2.087500   -1.009300
  N      0.813700    2.418300   -2.045500
  C      0.900500    3.615300   -2.680600
  C      1.864100    4.556100   -2.288400
  C      1.936800    5.909100   -2.948800
  F      3.237600    6.380400   -2.948500
  F      1.503400    5.838200   -4.261700
  F      1.134800    6.796300   -2.255700
  C      2.705500    4.240100   -1.211400
  C      2.602100    3.001600   -0.573700
  Cl     3.719200    2.606500    0.723400
  S      1.601000   -0.620400   -1.346400
  O      0.237000   -1.000100   -1.851400
  O      2.499300   -0.362400   -2.523600
  C      2.298200   -1.926200   -0.394200
  C      1.561400   -3.084600   -0.114000
  C      2.126000   -4.109300    0.651600
  C      3.439200   -3.992000    1.142100
  C      4.038500   -5.081500    1.943300
  O      5.237900   -5.006900    2.327000
  O      3.283800   -6.201800    2.279800
  C      4.172200   -2.826300    0.856100
  C      3.602800   -1.800600    0.096800
  C     -1.046500   -0.842100    1.203000
  C     -2.409300   -1.123700    1.079300
  C     -5.478900   -1.083800    1.670000
  C     -5.748700    0.374000    1.322600
  H     -5.049700   -0.035300   -1.624300
  H     -4.667000   -1.755600   -1.232100
  H     -6.320900   -1.103700   -0.921300
  H     -3.496000    1.938900    0.051200
  H     -1.096000    2.435900    0.272800
  H      1.071400    1.687200    1.523300
  H      1.449600   -0.052600    1.554600
  H      0.212700    3.831900   -3.487500
  H      3.443800    4.953100   -0.868600
  H      0.548800   -3.196400   -0.481800
  H      1.534800   -4.994500    0.855100
  H      3.684200   -6.952700    2.828100
  H      5.183700   -2.705100    1.220500
  H      4.178600   -0.907300   -0.109100
  H     -0.370700   -1.627900    1.513700
  H     -2.764500   -2.125100    1.284500
  H     -6.325900   -1.759400    1.424500
  H     -4.883200   -1.204400    2.600400
  H     -5.297500    1.092000    2.041300
  H     -6.747100    0.546300    0.865500

 Total Charge           Charge          ....    0
 Multiplicity           Mult            ....    1
 Number of Electrons    NEL             ....  270
 Basis Dimension        Dim             ....  538

ORBITAL ENERGIES
----------------

  NO   OCC          E(Eh)            E(eV)
   0   2.0000    -101.555591     -2763.4681
   1   2.0000     -89.101621     -2424.5784
   2   2.0000     -24.733169      -673.0237
   3   2.0000     -24.733129      -673.0227
   4   2.0000     -24.730082      -672.9397
   5   2.0000     -19.201486      -522.4990
   6   2.0000     -19.143735      -520.9275
   7   2.0000     -19.126522      -520.4591
   8   2.0000     -19.120704      -520.3008
   9   2.0000     -14.382498      -391.3677
  10   2.0000     -14.359281      -390.7359
  11   2.0000     -10.451460      -284.3987
  12   2.0000     -10.341037      -281.3939
  13   2.0000     -10.298002      -280.2229
  14   2.0000     -10.280577      -279.7487
  15   2.0000     -10.253073      -279.0003
  16   2.0000     -10.250262      -278.9238
  17   2.0000     -10.241091      -278.6743
  18   2.0000     -10.240271      -278.6520
  19   2.0000     -10.239300      -278.6255
  20   2.0000     -10.238856      -278.6134
  21   2.0000     -10.227934      -278.3162
  22   2.0000     -10.226683      -278.2822
  23   2.0000     -10.224168      -278.2138
  24   2.0000     -10.224048      -278.2105
  25   2.0000     -10.192112      -277.3415
  26   2.0000     -10.189538      -277.2714
  27   2.0000     -10.186066      -277.1769
  28   2.0000     -10.182314      -277.0748
  29   2.0000     -10.181170      -277.0437
  30   2.0000     -10.178237      -276.9639
  31   2.0000     -10.178226      -276.9636
  32   2.0000     -10.175258      -276.8828
  33   2.0000     -10.175055      -276.8773
  34   2.0000     -10.170305      -276.7481
  35   2.0000      -9.486862      -258.1506
  36   2.0000      -8.137381      -221.4294
  37   2.0000      -7.250100      -197.2852
  38   2.0000      -7.240508      -197.0242
  39   2.0000      -7.240015      -197.0108
  40   2.0000      -6.102784      -166.0652
  41   2.0000      -6.100264      -165.9966
  42   2.0000      -6.099775      -165.9833
  43   2.0000      -1.293149       -35.1884
  44   2.0000      -1.218248       -33.1502
  45   2.0000      -1.217396       -33.1270
  46   2.0000      -1.086275       -29.5590
  47   2.0000      -1.084673       -29.5155
  48   2.0000      -1.000372       -27.2215
  49   2.0000      -0.986461       -26.8430
  50   2.0000      -0.960892       -26.1472
  51   2.0000      -0.932116       -25.3642
  52   2.0000      -0.897321       -24.4173
  53   2.0000      -0.895014       -24.3546
  54   2.0000      -0.866749       -23.5854
  55   2.0000      -0.842390       -22.9226
  56   2.0000      -0.835127       -22.7249
  57   2.0000      -0.813646       -22.1404
  58   2.0000      -0.784531       -21.3482
  59   2.0000      -0.783317       -21.3151
  60   2.0000      -0.765655       -20.8345
  61   2.0000      -0.741785       -20.1850
  62   2.0000      -0.730296       -19.8724
  63   2.0000      -0.715192       -19.4614
  64   2.0000      -0.699980       -19.0474
  65   2.0000      -0.686789       -18.6885
  66   2.0000      -0.671666       -18.2770
  67   2.0000      -0.653724       -17.7887
  68   2.0000      -0.645751       -17.5718
  69   2.0000      -0.629586       -17.1319
  70   2.0000      -0.612179       -16.6582
  71   2.0000      -0.606994       -16.5172
  72   2.0000      -0.596235       -16.2244
  73   2.0000      -0.584636       -15.9087
  74   2.0000      -0.584055       -15.8929
  75   2.0000      -0.577105       -15.7038
  76   2.0000      -0.572140       -15.5687
  77   2.0000      -0.565118       -15.3777
  78   2.0000      -0.547097       -14.8873
  79   2.0000      -0.545168       -14.8348
  80   2.0000      -0.531989       -14.4761
  81   2.0000      -0.521222       -14.1832
  82   2.0000      -0.498460       -13.5638
  83   2.0000      -0.493838       -13.4380
  84   2.0000      -0.487562       -13.2672
  85   2.0000      -0.480524       -13.0757
  86   2.0000      -0.477457       -12.9923
  87   2.0000      -0.473382       -12.8814
  88   2.0000      -0.469101       -12.7649
  89   2.0000      -0.464346       -12.6355
  90   2.0000      -0.460690       -12.5360
  91   2.0000      -0.459959       -12.5161
  92   2.0000      -0.455770       -12.4021
  93   2.0000      -0.455051       -12.3826
  94   2.0000      -0.453199       -12.3322
  95   2.0000      -0.447768       -12.1844
  96   2.0000      -0.440785       -11.9944
  97   2.0000      -0.436456       -11.8766
  98   2.0000      -0.431975       -11.7546
  99   2.0000      -0.427469       -11.6320
 100   2.0000      -0.426407       -11.6031
 101   2.0000      -0.425568       -11.5803
 102   2.0000      -0.419490       -11.4149
 103   2.0000      -0.418116       -11.3775
 104   2.0000      -0.410635       -11.1739
 105   2.0000      -0.407545       -11.0899
 106   2.0000      -0.398766       -10.8510
 107   2.0000      -0.396253       -10.7826
 108   2.0000      -0.395621       -10.7654
 109   2.0000      -0.391611       -10.6563
 110   2.0000      -0.391218       -10.6456
 111   2.0000      -0.377235       -10.2651
 112   2.0000      -0.374025       -10.1777
 113   2.0000      -0.368329       -10.0227
 114   2.0000      -0.359454        -9.7812
 115   2.0000      -0.355951        -9.6859
 116   2.0000      -0.343392        -9.3442
 117   2.0000      -0.342318        -9.3150
 118   2.0000      -0.335707        -9.1350
 119   2.0000      -0.328990        -8.9523
 120   2.0000      -0.324103        -8.8193
 121   2.0000      -0.315612        -8.5882
 122   2.0000      -0.311207        -8.4684
 123   2.0000      -0.300240        -8.1699
 124   2.0000      -0.287973        -7.8362
 125   2.0000      -0.286574        -7.7981
 126   2.0000      -0.282189        -7.6787
 127   2.0000      -0.280293        -7.6271
 128   2.0000      -0.279068        -7.5938
 129   2.0000      -0.276154        -7.5145
 130   2.0000      -0.272595        -7.4177
 131   2.0000      -0.265216        -7.2169
 132   2.0000      -0.252080        -6.8595
 133   2.0000      -0.243888        -6.6365
 134   2.0000      -0.230819        -6.2809
 135   0.0000      -0.092294        -2.5114
 136   0.0000      -0.063984        -1.7411
 137   0.0000      -0.051940        -1.4134
 138   0.0000      -0.037744        -1.0271
 139   0.0000      -0.007921        -0.2155

MULLIKEN ATOMIC CHARGES
-----------------------
   0 C :   -0.444024
   1 C :    0.055054
   2 C :    0.117311
   3 C :   -0.163644
   4 C :   -0.154206
   5 C :    0.190582
   6 C :   -0.284530
   7 N :   -0.599669
   8 C :    0.412358
   9 N :   -0.345914
  10 C :   -0.002417
  11 C :   -0.026781
  12 C :    0.904326
  13 F :   -0.300410
  14 F :   -0.299176
  15 F :   -0.292381
  16 C :   -0.131791
  17 C :   -0.096980
  18 Cl:    0.019867
  19 S :    1.222215
  20 O :   -0.524650
  21 O :   -0.533745
  22 C :   -0.144264
  23 C :   -0.143158
  24 C :   -0.148156
  25 C :    0.084393
  26 C :    0.529532
  27 O :   -0.441950
  28 O :   -0.622557
  29 C :   -0.140107
  30 C :   -0.141172
  31 C :   -0.167946
  32 C :   -0.162843
  33 C :   -0.325079
  34 C :   -0.321402
  35 H :    0.150049
  36 H :    0.151717
  37 H :    0.135200
  38 H :    0.131297
  39 H :    0.122098
  40 H :    0.183844
  41 H :    0.167476
  42 H :    0.186079
  43 H :    0.187607
  44 H :    0.198178
  45 H :    0.176509
  46 H :    0.436055
  47 H :    0.183584
  48 H :    0.187773
  49 H :    0.117989
  50 H :    0.127825
  51 H :    0.142301
  52 H :    0.147060
  53 H :    0.148169
  54 H :    0.142502
Sum of atomic charges:    0.0000000

LOEWDIN ATOMIC CHARGES
----------------------
   0 C :   -0.337331
   1 C :   -0.036645
   2 C :   -0.006254
   3 C :   -0.120127
   4 C :   -0.119271
   5 C :   -0.038160
   6 C :   -0.150587
   7 N :   -0.278640
   8 C :    0.065088
   9 N :   -0.093211
  10 C :   -0.044290
  11 C :   -0.077616
  12 C :    0.312525
  13 F :   -0.109193
  14 F :   -0.107074
  15 F :   -0.109803
  16 C :   -0.090885
  17 C :   -0.098313
  18 Cl:    0.057322
  19 S :    1.268189
  20 O :   -0.560912
  21 O :   -0.566970
  22 C :   -0.176105
  23 C :   -0.100751
  24 C :   -0.099932
  25 C :   -0.035643
  26 C :    0.180270
  27 O :   -0.258200
  28 O :   -0.333127
  29 C :   -0.085492
  30 C :   -0.099730
  31 C :   -0.131588
  32 C :   -0.124420
  33 C :   -0.255590
  34 C :   -0.253945
  35 H :    0.127773
  36 H :    0.128942
  37 H :    0.122658
  38 H :    0.134489
  39 H :    0.129347
  40 H :    0.147933
  41 H :    0.133406
  42 H :    0.154096
  43 H :    0.162349
  44 H :    0.166220
  45 H :    0.156520
  46 H :    0.351031
  47 H :    0.161851
  48 H :    0.160462
  49 H :    0.125791
  50 H :    0.132885
  51 H :    0.128350
  52 H :    0.131801
  53 H :    0.132260
  54 H :    0.128248

  Mayer bond orders larger than 0.100000
B(  0-C ,  1-C ) :   1.0160 B(  0-C , 35-H ) :   0.9430 B(  0-C , 36-H ) :   0.9433
B(  0-C , 37-H ) :   0.9414 B(  1-C ,  2-C ) :   1.0009 B(  1-C , 33-C ) :   0.9312
B(  1-C , 34-C ) :   0.9295 B(  2-C ,  3-C ) :   1.4204 B(  2-C , 32-C ) :   1.4330
B(  3-C ,  4-C ) :   1.4277 B(  3-C , 38-H ) :   0.9233 B(  4-C ,  5-C ) :   1.4235
B(  4-C , 39-H ) :   0.9227 B(  5-C ,  6-C ) :   0.9341 B(  5-C , 31-C ) :   1.4338
B(  6-C ,  7-N ) :   0.9200 B(  6-C , 40-H ) :   0.9207 B(  6-C , 41-H ) :   0.9254
B(  7-N ,  8-C ) :   0.9574 B(  7-N , 19-S ) :   0.7769 B(  8-C ,  9-N ) :   1.3825
B(  8-C , 17-C ) :   1.3358 B(  9-N , 10-C ) :   1.4108 B( 10-C , 11-C ) :   1.3553
B( 10-C , 42-H ) :   0.9169 B( 11-C , 12-C ) :   0.9730 B( 11-C , 16-C ) :   1.4094
B( 12-C , 13-F ) :   0.9525 B( 12-C , 14-F ) :   0.9519 B( 12-C , 15-F ) :   0.9882
B( 16-C , 17-C ) :   1.3981 B( 16-C , 43-H ) :   0.9078 B( 17-C , 18-Cl) :   1.0401
B( 19-S , 20-O ) :   1.6558 B( 19-S , 21-O ) :   1.6550 B( 19-S , 22-C ) :   0.8116
B( 22-C , 23-C ) :   1.4028 B( 22-C , 30-C ) :   1.3716 B( 23-C , 24-C ) :   1.4065
B( 23-C , 44-H ) :   0.9035 B( 24-C , 25-C ) :   1.3855 B( 24-C , 45-H ) :   0.9142
B( 25-C , 26-C ) :   1.0063 B( 25-C , 29-C ) :   1.4004 B( 26-C , 27-O ) :   1.8635
B( 26-C , 28-O ) :   1.0279 B( 28-O , 46-H ) :   0.7406 B( 29-C , 30-C ) :   1.4286
B( 29-C , 47-H ) :   0.9089 B( 30-C , 48-H ) :   0.9094 B( 31-C , 32-C ) :   1.4179
B( 31-C , 49-H ) :   0.9177 B( 32-C , 50-H ) :   0.9227 B( 33-C , 34-C ) :   0.9498
B( 33-C , 51-H ) :   0.9414 B( 33-C , 52-H ) :   0.9410 B( 34-C , 53-H ) :   0.9418
B( 34-C , 54-H ) :   0.9418

FINAL SINGLE POINT ENERGY     -2493.723226777208

DIPOLE MOMENT
-------------

Method             : SCF
Type of density    : Electron Density
Multiplicity       :   1
Irrep              :   0
Energy             : -2493.7232267772083105 Eh
Relativity type    :
Basis              : AO
                                X                 Y                 Z
Electronic contribution:     47.848510345      39.549451022     -20.165259226
Nuclear contribution   :    -48.205930969     -39.991936418      22.063880787
                        -----------------------------------------
Total Dipole Moment    :     -0.357420625      -0.442485396       1.898621561
                        -----------------------------------------
Magnitude (a.u.)       :      1.981995626
Magnitude (Debye)      :      5.037832517

Rotational constants in cm-1:             0.003408             0.002241             0.001499
Rotational constants in MHz :           102.182449            67.192176            44.949155

                             ****ORCA TERMINATED NORMALLY****
TOTAL RUN TIME: 0 days 0 hours 11 minutes 4 seconds 947 msec
