                         Program Version 6.0.0  -   RELEASE  -
|  1> ! B3LYP 6-31G* SP
|  2>
|  3> * xyz 0 1
|  4> C -3.3364 1.8521 1.7672
|  5> N -3.3127 0.6166 0.9592
|  6> C -2.6614 0.6080 -0.2433
|  7> O -2.0986 1.6648 -0.6360
|  8> C -2.6225 -0.5653 -1.0357
|  9> C -1.9206 -0.6565 -2.2878
| 10> C -1.1188 0.4746 -2.9102
| 11> C 0.1826 0.6853 -2.1884
| 12> O 0.9052 -0.3106 -1.9103
| 13> N 0.6227 2.0158 -1.8745
| 14> C 1.7656 2.3018 -1.0589
| 15> N 2.5243 1.3596 -0.4599
| 16> C 3.5355 1.9032 0.2743
| 17> C 4.4906 1.0471 1.0261
| 18> C 5.6855 1.5677 1.5593
| 19> C 6.5686 0.7425 2.2604
| 20> C 6.2793 -0.6129 2.4399
| 21> Cl 7.4172 -1.6171 3.3282
| 22> C 5.0952 -1.1474 1.9092
| 23> Cl 4.6935 -2.8479 2.1101
| 24> C 4.2108 -0.3209 1.2063
| 25> C 3.5687 3.3026 0.2597
| 26> S 2.2996 3.8506 -0.6998
| 27> C -1.9185 -1.8742 -2.9860
| 28> C -2.5955 -2.9792 -2.4989
| 29> C -3.2882 -2.9031 -1.3003
| 30> C -3.3196 -1.7071 -0.5437
| 31> N -4.0136 -1.6398 0.6470
| 32> C -4.7662 -2.8128 1.1453
| 33> C -4.0085 -0.4817 1.3830
| 34> O -4.6566 -0.4216 2.4671
| 35> H -3.4215 1.6285 2.8521
| 36> H -2.3950 2.4308 1.6507
| 37> H -4.1947 2.4843 1.4565
| 38> H -0.8770 0.2537 -3.9725
| 39> H -1.7241 1.4028 -2.9538
| 40> H 0.0691 2.8246 -2.2359
| 41> H 5.9541 2.6061 1.4274
| 42> H 7.4835 1.1596 2.6621
| 43> H 3.3000 -0.7510 0.8080
| 44> H 4.2628 3.9434 0.7841
| 45> H -1.3816 -1.9757 -3.9216
| 46> H -2.5813 -3.9076 -3.0559
| 47> H -3.7924 -3.8022 -0.9776
| 48> H -4.0685 -3.6556 1.3375
| 49> H -5.5331 -3.1153 0.4006
| 50> H -5.3071 -2.6207 2.0944
| 51> *
| 52>
| 53>                          ****END OF INPUT****

CARTESIAN COORDINATES (ANGSTROEM)
---------------------------------
  C     -3.336400    1.852100    1.767200
  N     -3.312700    0.616600    0.959200
  C     -2.661400    0.608000   -0.243300
  O     -2.098600    1.664800   -0.636000
  C     -2.622500   -0.565300   -1.035700
  C     -1.920600   -0.656500   -2.287800
  C     -1.118800    0.474600   -2.910200
  C      0.182600    0.685300   -2.188400
  O      0.905200   -0.310600   -1.910300
  N      0.622700    2.015800   -1.874500
  C      1.765600    2.301800   -1.058900
  N      2.524300    1.359600   -0.459900
  C      3.535500    1.903200    0.274300
  C      4.490600    1.047100    1.026100
  C      5.685500    1.567700    1.559300
  C      6.568600    0.742500    2.260400
  C      6.279300   -0.612900    2.439900
  Cl     7.417200   -1.617100    3.328200
  C      5.095200   -1.147400    1.909200
  Cl     4.693500   -2.847900    2.110100
  C      4.210800   -0.320900    1.206300
  C      3.568700    3.302600    0.259700
  S      2.299600    3.850600   -0.699800
  C     -1.918500   -1.874200   -2.986000
  C     -2.595500   -2.979200   -2.498900
  C     -3.288200   -2.903100   -1.300300
  C     -3.319600   -1.707100   -0.543700
  N     -4.013600   -1.639800    0.647000
  C     -4.766200   -2.812800    1.145300
  C     -4.008500   -0.481700    1.383000
  O     -4.656600   -0.421600    2.467100
  H     -3.421500    1.628500    2.852100
  H     -2.395000    2.430800    1.650700
  H     -4.194700    2.484300    1.456500
  H     -0.877000    0.253700   -3.972500
  H     -1.724100    1.402800   -2.953800
  H      0.069100    2.824600   -2.235900
  H      5.954100    2.606100    1.427400
  H      7.483500    1.159600    2.662100
  H      3.300000   -0.751000    0.808000
  H      4.262800    3.943400    0.784100
  H     -1.381600   -1.975700   -3.921600
  H     -2.581300   -3.907600   -3.055900
  H     -3.792400   -3.802200   -0.977600
  H     -4.068500   -3.655600    1.337500
  H     -5.533100   -3.115300    0.400600
  H     -5.307100   -2.620700    2.094400

 Total Charge           Charge          ....    0
 Multiplicity           Mult            ....    1
 Number of Electrons    NEL             ....  244
 Basis Dimension        Dim             ....  478

ORBITAL ENERGIES
----------------

  NO   OCC          E(Eh)            E(eV)
   0   2.0000    -101.524709     -2762.6278
   1   2.0000    -101.522305     -2762.5624
   2   2.0000     -88.903868     -2419.1972
   3   2.0000     -19.116366      -520.1828
   4   2.0000     -19.112495      -520.0774
   5   2.0000     -19.109767      -520.0032
   6   2.0000     -14.402680      -391.9169
   7   2.0000     -14.397872      -391.7860
   8   2.0000     -14.387049      -391.4915
   9   2.0000     -14.323941      -389.7742
  10   2.0000     -10.325693      -280.9764
  11   2.0000     -10.299371      -280.2601
  12   2.0000     -10.296726      -280.1882
  13   2.0000     -10.286987      -279.9231
  14   2.0000     -10.258272      -279.1418
  15   2.0000     -10.250266      -278.9239
  16   2.0000     -10.249797      -278.9111
  17   2.0000     -10.233286      -278.4619
  18   2.0000     -10.227627      -278.3079
  19   2.0000     -10.225218      -278.2423
  20   2.0000     -10.220161      -278.1047
  21   2.0000     -10.212846      -277.9057
  22   2.0000     -10.208596      -277.7900
  23   2.0000     -10.208366      -277.7838
  24   2.0000     -10.204783      -277.6863
  25   2.0000     -10.204731      -277.6849
  26   2.0000     -10.200475      -277.5690
  27   2.0000     -10.199409      -277.5400
  28   2.0000     -10.196770      -277.4682
  29   2.0000     -10.193902      -277.3902
  30   2.0000     -10.193299      -277.3738
  31   2.0000      -9.456384      -257.3213
  32   2.0000      -9.453943      -257.2549
  33   2.0000      -7.981838      -217.1968
  34   2.0000      -7.219598      -196.4553
  35   2.0000      -7.217207      -196.3902
  36   2.0000      -7.210000      -196.1941
  37   2.0000      -7.209497      -196.1804
  38   2.0000      -7.207545      -196.1273
  39   2.0000      -7.207028      -196.1132
  40   2.0000      -5.944888      -161.7686
  41   2.0000      -5.940808      -161.6576
  42   2.0000      -5.938608      -161.5977
  43   2.0000      -1.069469       -29.1017
  44   2.0000      -1.025680       -27.9102
  45   2.0000      -1.015926       -27.6448
  46   2.0000      -0.972200       -26.4549
  47   2.0000      -0.970540       -26.4097
  48   2.0000      -0.941648       -25.6235
  49   2.0000      -0.910135       -24.7660
  50   2.0000      -0.900866       -24.5138
  51   2.0000      -0.869340       -23.6559
  52   2.0000      -0.845154       -22.9978
  53   2.0000      -0.835531       -22.7359
  54   2.0000      -0.809881       -22.0380
  55   2.0000      -0.797749       -21.7079
  56   2.0000      -0.787610       -21.4319
  57   2.0000      -0.763704       -20.7815
  58   2.0000      -0.745940       -20.2981
  59   2.0000      -0.739844       -20.1322
  60   2.0000      -0.729201       -19.8426
  61   2.0000      -0.714160       -19.4333
  62   2.0000      -0.702498       -19.1159
  63   2.0000      -0.657802       -17.8997
  64   2.0000      -0.653492       -17.7824
  65   2.0000      -0.629800       -17.1377
  66   2.0000      -0.620935       -16.8965
  67   2.0000      -0.613446       -16.6927
  68   2.0000      -0.598989       -16.2993
  69   2.0000      -0.582693       -15.8559
  70   2.0000      -0.571851       -15.5608
  71   2.0000      -0.548079       -14.9140
  72   2.0000      -0.542794       -14.7702
  73   2.0000      -0.523454       -14.2439
  74   2.0000      -0.515154       -14.0181
  75   2.0000      -0.504429       -13.7262
  76   2.0000      -0.500791       -13.6272
  77   2.0000      -0.488683       -13.2977
  78   2.0000      -0.486577       -13.2404
  79   2.0000      -0.472886       -12.8679
  80   2.0000      -0.472083       -12.8460
  81   2.0000      -0.464012       -12.6264
  82   2.0000      -0.462578       -12.5874
  83   2.0000      -0.460875       -12.5410
  84   2.0000      -0.452983       -12.3263
  85   2.0000      -0.447528       -12.1779
  86   2.0000      -0.438668       -11.9368
  87   2.0000      -0.430789       -11.7224
  88   2.0000      -0.428665       -11.6646
  89   2.0000      -0.423942       -11.5361
  90   2.0000      -0.422489       -11.4965
  91   2.0000      -0.411011       -11.1842
  92   2.0000      -0.406050       -11.0492
  93   2.0000      -0.402966       -10.9653
  94   2.0000      -0.399713       -10.8767
  95   2.0000      -0.394473       -10.7341
  96   2.0000      -0.388595       -10.5742
  97   2.0000      -0.387926       -10.5560
  98   2.0000      -0.384638       -10.4665
  99   2.0000      -0.376622       -10.2484
 100   2.0000      -0.371821       -10.1178
 101   2.0000      -0.366798        -9.9811
 102   2.0000      -0.362424        -9.8621
 103   2.0000      -0.361391        -9.8339
 104   2.0000      -0.358058        -9.7433
 105   2.0000      -0.335535        -9.1304
 106   2.0000      -0.332828        -9.0567
 107   2.0000      -0.315946        -8.5973
 108   2.0000      -0.314516        -8.5584
 109   2.0000      -0.299388        -8.1468
 110   2.0000      -0.295980        -8.0540
 111   2.0000      -0.287331        -7.8187
 112   2.0000      -0.278532        -7.5792
 113   2.0000      -0.274599        -7.4722
 114   2.0000      -0.268461        -7.3052
 115   2.0000      -0.263707        -7.1758
 116   2.0000      -0.252558        -6.8725
 117   2.0000      -0.248738        -6.7685
 118   2.0000      -0.243278        -6.6199
 119   2.0000      -0.233429        -6.3519
 120   2.0000      -0.230584        -6.2745
 121   2.0000      -0.208424        -5.6715
 122   0.0000      -0.059121        -1.6088
 123   0.0000      -0.039092        -1.0637
 124   0.0000      -0.024527        -0.6674
 125   0.0000      -0.016298        -0.4435
 126   0.0000      -0.010449        -0.2843

MULLIKEN ATOMIC CHARGES
-----------------------
   0 C :   -0.313987
   1 N :   -0.464181
   2 C :    0.514739
   3 O :   -0.516682
   4 C :    0.009108
   5 C :    0.138449
   6 C :   -0.438314
   7 C :    0.587081
   8 O :   -0.435254
   9 N :   -0.645041
  10 C :    0.261059
  11 N :   -0.380386
  12 C :    0.222189
  13 C :    0.120106
  14 C :   -0.167189
  15 C :   -0.131261
  16 C :   -0.073063
  17 Cl:    0.003612
  18 C :   -0.077100
  19 Cl:    0.009653
  20 C :   -0.167288
  21 C :   -0.398103
  22 S :    0.251934
  23 C :   -0.177748
  24 C :   -0.105060
  25 C :   -0.196051
  26 C :    0.319612
  27 N :   -0.511732
  28 C :   -0.336829
  29 C :    0.673204
  30 O :   -0.510712
  31 H :    0.198087
  32 H :    0.192849
  33 H :    0.175687
  34 H :    0.175224
  35 H :    0.174117
  36 H :    0.348920
  37 H :    0.133907
  38 H :    0.157326
  39 H :    0.199930
  40 H :    0.180246
  41 H :    0.140611
  42 H :    0.145577
  43 H :    0.141946
  44 H :    0.175710
  45 H :    0.170931
  46 H :    0.224164
Sum of atomic charges:    0.0000000

LOEWDIN ATOMIC CHARGES
----------------------
   0 C :   -0.258292
   1 N :   -0.018996
   2 C :    0.117706
   3 O :   -0.301483
   4 C :   -0.072038
   5 C :    0.047697
   6 C :   -0.241948
   7 C :    0.161407
   8 O :   -0.248428
   9 N :   -0.196840
  10 C :   -0.075039
  11 N :   -0.155518
  12 C :   -0.003536
  13 C :   -0.011654
  14 C :   -0.122144
  15 C :   -0.128547
  16 C :   -0.096539
  17 Cl:    0.048870
  18 C :   -0.092588
  19 Cl:    0.052672
  20 C :   -0.111467
  21 C :   -0.349053
  22 S :    0.389512
  23 C :   -0.134476
  24 C :   -0.096876
  25 C :   -0.163506
  26 C :    0.054422
  27 N :   -0.026033
  28 C :   -0.265389
  29 C :    0.137332
  30 O :   -0.319454
  31 H :    0.154080
  32 H :    0.151175
  33 H :    0.139627
  34 H :    0.147358
  35 H :    0.144897
  36 H :    0.269422
  37 H :    0.135853
  38 H :    0.148123
  39 H :    0.169444
  40 H :    0.159223
  41 H :    0.139136
  42 H :    0.141241
  43 H :    0.140738
  44 H :    0.136996
  45 H :    0.134910
  46 H :    0.168007

  Mayer bond orders larger than 0.100000
B(  0-C ,  1-N ) :   0.9180 B(  0-C , 31-H ) :   0.9248 B(  0-C , 32-H ) :   0.9252
B(  0-C , 33-H ) :   0.9411 B(  1-N ,  2-C ) :   1.0049 B(  1-N , 29-C ) :   1.0376
B(  2-C ,  3-O ) :   1.7255 B(  2-C ,  4-C ) :   1.0670 B(  4-C ,  5-C ) :   1.3565
B(  4-C , 26-C ) :   1.2858 B(  5-C ,  6-C ) :   0.9975 B(  5-C , 23-C ) :   1.4430
B(  6-C ,  7-C ) :   0.9363 B(  6-C , 34-H ) :   0.9116 B(  6-C , 35-H ) :   0.9032
B(  7-C ,  8-O ) :   1.9046 B(  7-C ,  9-N ) :   0.9793 B(  9-N , 10-C ) :   0.9639
B(  9-N , 36-H ) :   0.8180 B( 10-C , 11-N ) :   1.5067 B( 10-C , 21-C ) :   0.1053
B( 10-C , 22-S ) :   1.1381 B( 11-N , 12-C ) :   1.2665 B( 12-C , 13-C ) :   1.0550
B( 12-C , 21-C ) :   1.5113 B( 13-C , 14-C ) :   1.3954 B( 13-C , 20-C ) :   1.3981
B( 14-C , 15-C ) :   1.4443 B( 14-C , 37-H ) :   0.9191 B( 15-C , 16-C ) :   1.4037
B( 15-C , 38-H ) :   0.9217 B( 16-C , 17-Cl) :   1.0439 B( 16-C , 18-C ) :   1.3714
B( 18-C , 19-Cl) :   1.0485 B( 18-C , 20-C ) :   1.3767 B( 20-C , 39-H ) :   0.8978
B( 21-C , 22-S ) :   1.1145 B( 21-C , 40-H ) :   0.9024 B( 23-C , 24-C ) :   1.4037
B( 23-C , 41-H ) :   0.9211 B( 24-C , 25-C ) :   1.4702 B( 24-C , 42-H ) :   0.9255
B( 25-C , 26-C ) :   1.3446 B( 25-C , 43-H ) :   0.9143 B( 26-C , 27-N ) :   0.9685
B( 27-N , 28-C ) :   0.9340 B( 27-N , 29-C ) :   1.0478 B( 28-C , 44-H ) :   0.9314
B( 28-C , 45-H ) :   0.9320 B( 28-C , 46-H ) :   0.9140 B( 29-C , 30-O ) :   1.7846

FINAL SINGLE POINT ENERGY     -2572.211943070878

DIPOLE MOMENT
-------------

Method             : SCF
Type of density    : Electron Density
Multiplicity       :   1
Irrep              :   0
Energy             : -2572.2119430708776235 Eh
Relativity type    :
Basis              : AO
                                X                 Y                 Z
Electronic contribution:     39.977519136      -4.200188952      11.012779805
Nuclear contribution   :    -41.585216140       5.064024138     -12.347083908
                        -----------------------------------------
Total Dipole Moment    :     -1.607697004       0.863835185      -1.334304102
                        -----------------------------------------
Magnitude (a.u.)       :      2.260811430
Magnitude (Debye)      :      5.746525970

Rotational constants in cm-1:             0.005475             0.001928             0.001708
Rotational constants in MHz :           164.138944            57.814478            51.194241

                             ****ORCA TERMINATED NORMALLY****
TOTAL RUN TIME: 0 days 0 hours 4 minutes 37 seconds 957 msec
