                         Program Version 6.0.0  -   RELEASE  -
|  1> ! B3LYP 6-31G* SP
|  2>
|  3> * xyz 0 1
|  4> C -3.6662 2.4407 -2.2531
|  5> C -4.4481 1.5230 -1.3686
|  6> O -5.5675 1.8726 -0.7613
|  7> C -5.9659 0.8450 -0.0472
|  8> C -5.1086 -0.2033 -0.1772
|  9> C -4.1127 0.2070 -1.0483
| 10> C -2.8764 -0.5425 -1.4636
| 11> C -1.7547 -0.3387 -0.4852
| 12> O -2.0042 -0.2613 0.7497
| 13> N -0.3978 -0.3383 -0.9541
| 14> C 0.7306 0.0379 -0.1533
| 15> N 2.0004 -0.2501 -0.5089
| 16> C 2.9096 0.2454 0.3787
| 17> C 4.3651 0.0176 0.2031
| 18> C 5.3155 0.8521 0.8178
| 19> C 6.6854 0.6211 0.6509
| 20> F 7.5535 1.4665 1.2587
| 21> C 7.1313 -0.4643 -0.1367
| 22> O 8.4879 -0.7718 -0.3383
| 23> C 9.5945 -0.0423 0.1846
| 24> C 10.8945 -0.7090 -0.2476
| 25> F 10.9401 -2.0065 0.2319
| 26> F 10.9762 -0.7302 -1.6301
| 27> F 11.9687 0.0003 0.2585
| 28> C 6.1819 -1.2886 -0.7540
| 29> F 6.5886 -2.3370 -1.5123
| 30> C 4.8149 -1.0486 -0.5928
| 31> C 2.3509 0.9467 1.4523
| 32> S 0.6786 0.9359 1.2704
| 33> C -5.3423 -1.3836 0.5193
| 34> O -4.5511 -2.3600 0.4041
| 35> N -6.4545 -1.4606 1.3273
| 36> C -6.7528 -2.7151 2.0387
| 37> C -7.3326 -0.3922 1.4079
| 38> O -8.3872 -0.4955 2.0967
| 39> N -7.0727 0.7844 0.7405
| 40> C -7.9992 1.9215 0.8122
| 41> H -3.5620 1.9912 -3.2646
| 42> H -2.6595 2.6090 -1.8163
| 43> H -4.1883 3.4185 -2.3461
| 44> H -2.5605 -0.1899 -2.4676
| 45> H -3.0941 -1.6262 -1.5536
| 46> H -0.2108 -0.6616 -1.9305
| 47> H 5.0047 1.6986 1.4161
| 48> H 9.5745 0.9998 -0.2073
| 49> H 9.5492 -0.0274 1.2970
| 50> H 4.1080 -1.7111 -1.0775
| 51> H 2.8822 1.3982 2.2783
| 52> H -7.3500 -3.3833 1.3808
| 53> H -5.8177 -3.2366 2.3373
| 54> H -7.3186 -2.5249 2.9767
| 55> H -8.8492 1.7526 0.1170
| 56> H -7.4935 2.8736 0.5401
| 57> H -8.3884 2.0413 1.8465
| 58> *
| 59>
| 60>                          ****END OF INPUT****

CARTESIAN COORDINATES (ANGSTROEM)
---------------------------------
  C     -3.666200    2.440700   -2.253100
  C     -4.448100    1.523000   -1.368600
  O     -5.567500    1.872600   -0.761300
  C     -5.965900    0.845000   -0.047200
  C     -5.108600   -0.203300   -0.177200
  C     -4.112700    0.207000   -1.048300
  C     -2.876400   -0.542500   -1.463600
  C     -1.754700   -0.338700   -0.485200
  O     -2.004200   -0.261300    0.749700
  N     -0.397800   -0.338300   -0.954100
  C      0.730600    0.037900   -0.153300
  N      2.000400   -0.250100   -0.508900
  C      2.909600    0.245400    0.378700
  C      4.365100    0.017600    0.203100
  C      5.315500    0.852100    0.817800
  C      6.685400    0.621100    0.650900
  F      7.553500    1.466500    1.258700
  C      7.131300   -0.464300   -0.136700
  O      8.487900   -0.771800   -0.338300
  C      9.594500   -0.042300    0.184600
  C     10.894500   -0.709000   -0.247600
  F     10.940100   -2.006500    0.231900
  F     10.976200   -0.730200   -1.630100
  F     11.968700    0.000300    0.258500
  C      6.181900   -1.288600   -0.754000
  F      6.588600   -2.337000   -1.512300
  C      4.814900   -1.048600   -0.592800
  C      2.350900    0.946700    1.452300
  S      0.678600    0.935900    1.270400
  C     -5.342300   -1.383600    0.519300
  O     -4.551100   -2.360000    0.404100
  N     -6.454500   -1.460600    1.327300
  C     -6.752800   -2.715100    2.038700
  C     -7.332600   -0.392200    1.407900
  O     -8.387200   -0.495500    2.096700
  N     -7.072700    0.784400    0.740500
  C     -7.999200    1.921500    0.812200
  H     -3.562000    1.991200   -3.264600
  H     -2.659500    2.609000   -1.816300
  H     -4.188300    3.418500   -2.346100
  H     -2.560500   -0.189900   -2.467600
  H     -3.094100   -1.626200   -1.553600
  H     -0.210800   -0.661600   -1.930500
  H      5.004700    1.698600    1.416100
  H      9.574500    0.999800   -0.207300
  H      9.549200   -0.027400    1.297000
  H      4.108000   -1.711100   -1.077500
  H      2.882200    1.398200    2.278300
  H     -7.350000   -3.383300    1.380800
  H     -5.817700   -3.236600    2.337300
  H     -7.318600   -2.524900    2.976700
  H     -8.849200    1.752600    0.117000
  H     -7.493500    2.873600    0.540100
  H     -8.388400    2.041300    1.846500

 Total Charge           Charge          ....    0
 Multiplicity           Mult            ....    1
 Number of Electrons    NEL             ....  278
 Basis Dimension        Dim             ....  556

ORBITAL ENERGIES
----------------

  NO   OCC          E(Eh)            E(eV)
   0   2.0000     -88.906434     -2419.2671
   1   2.0000     -24.726858      -672.8520
   2   2.0000     -24.722177      -672.7246
   3   2.0000     -24.717616      -672.6005
   4   2.0000     -24.717258      -672.5908
   5   2.0000     -24.704268      -672.2373
   6   2.0000     -19.251364      -523.8563
   7   2.0000     -19.187730      -522.1247
   8   2.0000     -19.132094      -520.6107
   9   2.0000     -19.111924      -520.0619
  10   2.0000     -19.102444      -519.8039
  11   2.0000     -14.411631      -392.1604
  12   2.0000     -14.397152      -391.7664
  13   2.0000     -14.392272      -391.6336
  14   2.0000     -14.335758      -390.0958
  15   2.0000     -10.438011      -284.0327
  16   2.0000     -10.328573      -281.0548
  17   2.0000     -10.313335      -280.6401
  18   2.0000     -10.296581      -280.1842
  19   2.0000     -10.293216      -280.0927
  20   2.0000     -10.287488      -279.9368
  21   2.0000     -10.284065      -279.8436
  22   2.0000     -10.281621      -279.7771
  23   2.0000     -10.273125      -279.5459
  24   2.0000     -10.269221      -279.4397
  25   2.0000     -10.252927      -278.9963
  26   2.0000     -10.239557      -278.6325
  27   2.0000     -10.231003      -278.3997
  28   2.0000     -10.215431      -277.9760
  29   2.0000     -10.214767      -277.9580
  30   2.0000     -10.213212      -277.9156
  31   2.0000     -10.210377      -277.8385
  32   2.0000     -10.208425      -277.7854
  33   2.0000     -10.201589      -277.5993
  34   2.0000     -10.200649      -277.5738
  35   2.0000     -10.195529      -277.4344
  36   2.0000     -10.184836      -277.1435
  37   2.0000      -7.982742      -217.2214
  38   2.0000      -5.945864      -161.7952
  39   2.0000      -5.941626      -161.6799
  40   2.0000      -5.939717      -161.6279
  41   2.0000      -1.280513       -34.8445
  42   2.0000      -1.235685       -33.6247
  43   2.0000      -1.216542       -33.1038
  44   2.0000      -1.208546       -32.8862
  45   2.0000      -1.202821       -32.7304
  46   2.0000      -1.180621       -32.1263
  47   2.0000      -1.066003       -29.0074
  48   2.0000      -1.064935       -28.9784
  49   2.0000      -1.032851       -28.1053
  50   2.0000      -1.013355       -27.5748
  51   2.0000      -0.980425       -26.6787
  52   2.0000      -0.973875       -26.5005
  53   2.0000      -0.934159       -25.4198
  54   2.0000      -0.919200       -25.0127
  55   2.0000      -0.874424       -23.7943
  56   2.0000      -0.851633       -23.1741
  57   2.0000      -0.813960       -22.1490
  58   2.0000      -0.808867       -22.0104
  59   2.0000      -0.802135       -21.8272
  60   2.0000      -0.775454       -21.1012
  61   2.0000      -0.763033       -20.7632
  62   2.0000      -0.759387       -20.6640
  63   2.0000      -0.744912       -20.2701
  64   2.0000      -0.723506       -19.6876
  65   2.0000      -0.720515       -19.6062
  66   2.0000      -0.708736       -19.2857
  67   2.0000      -0.665852       -18.1188
  68   2.0000      -0.661188       -17.9918
  69   2.0000      -0.642146       -17.4737
  70   2.0000      -0.636843       -17.3294
  71   2.0000      -0.628755       -17.1093
  72   2.0000      -0.624042       -16.9810
  73   2.0000      -0.608888       -16.5687
  74   2.0000      -0.591535       -16.0965
  75   2.0000      -0.580036       -15.7836
  76   2.0000      -0.578762       -15.7489
  77   2.0000      -0.574701       -15.6384
  78   2.0000      -0.568645       -15.4736
  79   2.0000      -0.555112       -15.1054
  80   2.0000      -0.544005       -14.8031
  81   2.0000      -0.535232       -14.5644
  82   2.0000      -0.529236       -14.4012
  83   2.0000      -0.527035       -14.3414
  84   2.0000      -0.523672       -14.2498
  85   2.0000      -0.512679       -13.9507
  86   2.0000      -0.503181       -13.6923
  87   2.0000      -0.497842       -13.5470
  88   2.0000      -0.494628       -13.4595
  89   2.0000      -0.491298       -13.3689
  90   2.0000      -0.482093       -13.1184
  91   2.0000      -0.474404       -12.9092
  92   2.0000      -0.472627       -12.8608
  93   2.0000      -0.468269       -12.7422
  94   2.0000      -0.461065       -12.5462
  95   2.0000      -0.458033       -12.4637
  96   2.0000      -0.457531       -12.4500
  97   2.0000      -0.450827       -12.2676
  98   2.0000      -0.447706       -12.1827
  99   2.0000      -0.447518       -12.1776
 100   2.0000      -0.446443       -12.1483
 101   2.0000      -0.438861       -11.9420
 102   2.0000      -0.433600       -11.7988
 103   2.0000      -0.430857       -11.7242
 104   2.0000      -0.430392       -11.7116
 105   2.0000      -0.424514       -11.5516
 106   2.0000      -0.419125       -11.4050
 107   2.0000      -0.418336       -11.3835
 108   2.0000      -0.411011       -11.1842
 109   2.0000      -0.410378       -11.1670
 110   2.0000      -0.408261       -11.1093
 111   2.0000      -0.403639       -10.9836
 112   2.0000      -0.398893       -10.8544
 113   2.0000      -0.396903       -10.8003
 114   2.0000      -0.395025       -10.7492
 115   2.0000      -0.392825       -10.6893
 116   2.0000      -0.391741       -10.6598
 117   2.0000      -0.390761       -10.6332
 118   2.0000      -0.381178       -10.3724
 119   2.0000      -0.377183       -10.2637
 120   2.0000      -0.376114       -10.2346
 121   2.0000      -0.371527       -10.1098
 122   2.0000      -0.361045        -9.8245
 123   2.0000      -0.355919        -9.6850
 124   2.0000      -0.339488        -9.2379
 125   2.0000      -0.336246        -9.1497
 126   2.0000      -0.324429        -8.8282
 127   2.0000      -0.310169        -8.4401
 128   2.0000      -0.289059        -7.8657
 129   2.0000      -0.281677        -7.6648
 130   2.0000      -0.280624        -7.6362
 131   2.0000      -0.273475        -7.4416
 132   2.0000      -0.265570        -7.2265
 133   2.0000      -0.259694        -7.0666
 134   2.0000      -0.252047        -6.8585
 135   2.0000      -0.245280        -6.6744
 136   2.0000      -0.242275        -6.5926
 137   2.0000      -0.211676        -5.7600
 138   2.0000      -0.205335        -5.5875
 139   0.0000      -0.041896        -1.1400
 140   0.0000      -0.027613        -0.7514
 141   0.0000      -0.015400        -0.4191
 142   0.0000      -0.009456        -0.2573
 143   0.0000      -0.003173        -0.0863

MULLIKEN ATOMIC CHARGES
-----------------------
   0 C :   -0.535851
   1 C :    0.254845
   2 O :   -0.408332
   3 C :    0.479716
   4 C :    0.050772
   5 C :    0.048803
   6 C :   -0.457089
   7 C :    0.581142
   8 O :   -0.443088
   9 N :   -0.651286
  10 C :    0.260989
  11 N :   -0.430253
  12 C :    0.203137
  13 C :    0.146385
  14 C :   -0.277347
  15 C :    0.363273
  16 F :   -0.314254
  17 C :    0.228045
  18 O :   -0.518899
  19 C :   -0.118809
  20 C :    0.918282
  21 F :   -0.295609
  22 F :   -0.296637
  23 F :   -0.300707
  24 C :    0.384219
  25 F :   -0.303203
  26 C :   -0.265422
  27 C :   -0.397211
  28 S :    0.315720
  29 C :    0.517702
  30 O :   -0.506971
  31 N :   -0.484205
  32 C :   -0.314410
  33 C :    0.676355
  34 O :   -0.507212
  35 N :   -0.503505
  36 C :   -0.327931
  37 H :    0.174268
  38 H :    0.180078
  39 H :    0.171194
  40 H :    0.142810
  41 H :    0.226542
  42 H :    0.354950
  43 H :    0.145557
  44 H :    0.172386
  45 H :    0.173330
  46 H :    0.172262
  47 H :    0.182393
  48 H :    0.174037
  49 H :    0.198131
  50 H :    0.193172
  51 H :    0.183310
  52 H :    0.179801
  53 H :    0.204623
Sum of atomic charges:    0.0000000

LOEWDIN ATOMIC CHARGES
----------------------
   0 C :   -0.361474
   1 C :    0.018668
   2 O :   -0.003187
   3 C :    0.091600
   4 C :   -0.101034
   5 C :   -0.035492
   6 C :   -0.245804
   7 C :    0.156796
   8 O :   -0.250090
   9 N :   -0.206456
  10 C :   -0.077469
  11 N :   -0.185632
  12 C :   -0.007361
  13 C :   -0.015237
  14 C :   -0.157945
  15 C :    0.086882
  16 F :   -0.096325
  17 C :    0.036681
  18 O :   -0.177687
  19 C :   -0.119224
  20 C :    0.302535
  21 F :   -0.110429
  22 F :   -0.111614
  23 F :   -0.109913
  24 C :    0.111223
  25 F :   -0.089273
  26 C :   -0.144161
  27 C :   -0.348480
  28 S :    0.426969
  29 C :    0.115301
  30 O :   -0.301215
  31 N :   -0.028558
  32 C :   -0.259345
  33 C :    0.143990
  34 O :   -0.316201
  35 N :   -0.024949
  36 C :   -0.259709
  37 H :    0.143557
  38 H :    0.146148
  39 H :    0.146148
  40 H :    0.131018
  41 H :    0.179642
  42 H :    0.274955
  43 H :    0.145456
  44 H :    0.139355
  45 H :    0.139670
  46 H :    0.160378
  47 H :    0.161638
  48 H :    0.138297
  49 H :    0.154154
  50 H :    0.151548
  51 H :    0.140872
  52 H :    0.143365
  53 H :    0.157419

  Mayer bond orders larger than 0.100000
B(  0-C ,  1-C ) :   1.0265 B(  0-C , 37-H ) :   0.9316 B(  0-C , 38-H ) :   0.9298
B(  0-C , 39-H ) :   0.9379 B(  1-C ,  2-O ) :   0.9874 B(  1-C ,  5-C ) :   1.5486
B(  2-O ,  3-C ) :   1.0647 B(  3-C ,  4-C ) :   1.3755 B(  3-C , 35-N ) :   0.9739
B(  4-C ,  5-C ) :   1.3029 B(  4-C , 29-C ) :   1.0821 B(  5-C ,  6-C ) :   1.0094
B(  6-C ,  7-C ) :   0.9499 B(  6-C , 40-H ) :   0.9195 B(  6-C , 41-H ) :   0.8795
B(  7-C ,  8-O ) :   1.8480 B(  7-C ,  9-N ) :   1.0036 B(  9-N , 10-C ) :   0.9464
B(  9-N , 42-H ) :   0.8104 B( 10-C , 11-N ) :   1.4842 B( 10-C , 27-C ) :   0.1086
B( 10-C , 28-S ) :   1.1826 B( 11-N , 12-C ) :   1.2883 B( 12-C , 13-C ) :   1.0514
B( 12-C , 27-C ) :   1.5197 B( 13-C , 14-C ) :   1.3752 B( 13-C , 26-C ) :   1.3675
B( 14-C , 15-C ) :   1.3942 B( 14-C , 43-H ) :   0.9097 B( 15-C , 16-F ) :   0.8823
B( 15-C , 17-C ) :   1.2863 B( 17-C , 18-O ) :   0.9045 B( 17-C , 24-C ) :   1.2991
B( 18-O , 19-C ) :   0.8892 B( 19-C , 20-C ) :   0.9545 B( 19-C , 44-H ) :   0.9076
B( 19-C , 45-H ) :   0.9067 B( 20-C , 21-F ) :   0.9819 B( 20-C , 22-F ) :   0.9804
B( 20-C , 23-F ) :   0.9612 B( 24-C , 25-F ) :   0.9367 B( 24-C , 26-C ) :   1.3781
B( 26-C , 46-H ) :   0.9038 B( 27-C , 28-S ) :   1.1157 B( 27-C , 47-H ) :   0.9028
B( 29-C , 30-O ) :   1.7699 B( 29-C , 31-N ) :   0.9648 B( 31-N , 32-C ) :   0.9189
B( 31-N , 33-C ) :   1.0447 B( 32-C , 48-H ) :   0.9414 B( 32-C , 49-H ) :   0.9235
B( 32-C , 50-H ) :   0.9268 B( 33-C , 34-O ) :   1.7916 B( 33-C , 35-N ) :   1.0443
B( 35-N , 36-C ) :   0.9282 B( 36-C , 51-H ) :   0.9354 B( 36-C , 52-H ) :   0.9314
B( 36-C , 53-H ) :   0.9264

FINAL SINGLE POINT ENERGY     -2339.992720010549

DIPOLE MOMENT
-------------

Method             : SCF
Type of density    : Electron Density
Multiplicity       :   1
Irrep              :   0
Energy             : -2339.9927200105494194 Eh
Relativity type    :
Basis              : AO
                                X                 Y                 Z
Electronic contribution:     84.615071818      -7.749975345      -0.631509728
Nuclear contribution   :    -86.045864491       9.967399547      -0.274046423
                        -----------------------------------------
Total Dipole Moment    :     -1.430792673       2.217424202      -0.905556152
                        -----------------------------------------
Magnitude (a.u.)       :      2.790012492
Magnitude (Debye)      :      7.091648173

Rotational constants in cm-1:             0.011627             0.000724             0.000717
Rotational constants in MHz :           348.570762            21.718106            21.485442

                             ****ORCA TERMINATED NORMALLY****
TOTAL RUN TIME: 0 days 0 hours 5 minutes 22 seconds 138 msec
