                         Program Version 6.0.0  -   RELEASE  -
|  1> ! B3LYP 6-31G* SP
|  2>
|  3> * xyz 0 1
|  4> C -4.5828 1.4587 -4.2773
|  5> O -3.2899 1.3224 -3.7016
|  6> C -3.0960 1.0358 -2.3461
|  7> O -4.0867 0.8784 -1.5811
|  8> C -1.6868 0.8574 -1.8271
|  9> N -1.2361 -0.5436 -1.9508
| 10> C -2.0533 -1.5183 -1.2150
| 11> C -1.2720 -2.7955 -1.0745
| 12> C -0.3274 -2.9347 -0.0443
| 13> C 0.4549 -4.0912 0.0441
| 14> C 0.3048 -5.1126 -0.8973
| 15> C -0.6242 -4.9760 -1.9336
| 16> C -1.4070 -3.8200 -2.0267
| 17> C -1.4903 1.4234 -0.3861
| 18> C -1.3977 2.9645 -0.3855
| 19> C -1.3115 3.5078 1.0183
| 20> C -2.4808 3.7079 1.7715
| 21> C -2.3998 4.1656 3.0906
| 22> C -1.1525 4.4163 3.6697
| 23> C 0.0158 4.2116 2.9297
| 24> C -0.0609 3.7575 1.6093
| 25> N -0.3181 0.8320 0.2762
| 26> C 1.0127 0.8264 -0.2560
| 27> O 1.2855 1.4510 -1.3185
| 28> O 2.0013 0.1026 0.4150
| 29> C 3.3252 -0.0443 -0.0838
| 30> C 4.1025 -0.9245 0.8501
| 31> C 4.9137 -0.3610 1.8494
| 32> C 5.5954 -1.1860 2.7501
| 33> C 5.4606 -2.5755 2.6684
| 34> C 4.6411 -3.1421 1.6874
| 35> C 3.9597 -2.3208 0.7833
| 36> H -5.1352 2.2877 -3.7834
| 37> H -5.1497 0.5111 -4.1634
| 38> H -4.4791 1.6884 -5.3581
| 39> H -1.0340 1.4560 -2.4999
| 40> H -1.2385 -0.8080 -2.9647
| 41> H -2.3122 -1.1474 -0.2002
| 42> H -3.0079 -1.7083 -1.7554
| 43> H -0.1881 -2.1451 0.6839
| 44> H 1.1828 -4.1931 0.8392
| 45> H 0.9139 -6.0052 -0.8298
| 46> H -0.7327 -5.7635 -2.6689
| 47> H -2.1101 -3.7198 -2.8452
| 48> H -2.3821 1.1541 0.2230
| 49> H -0.5188 3.3005 -0.9764
| 50> H -2.2966 3.3899 -0.8842
| 51> H -3.4525 3.5043 1.3381
| 52> H -3.3039 4.3203 3.6658
| 53> H -1.0913 4.7656 4.6923
| 54> H 0.9815 4.4001 3.3802
| 55> H 0.8532 3.5931 1.0519
| 56> H -0.4749 0.3302 1.1789
| 57> H 3.2958 -0.5057 -1.0953
| 58> H 3.8065 0.9549 -0.1724
| 59> H 5.0153 0.7148 1.9336
| 60> H 6.2240 -0.7480 3.5151
| 61> H 5.9862 -3.2116 3.3687
| 62> H 4.5305 -4.2174 1.6299
| 63> H 3.3182 -2.7712 0.0356
| 64> *
| 65>
| 66>                          ****END OF INPUT****

CARTESIAN COORDINATES (ANGSTROEM)
---------------------------------
  C     -4.582800    1.458700   -4.277300
  O     -3.289900    1.322400   -3.701600
  C     -3.096000    1.035800   -2.346100
  O     -4.086700    0.878400   -1.581100
  C     -1.686800    0.857400   -1.827100
  N     -1.236100   -0.543600   -1.950800
  C     -2.053300   -1.518300   -1.215000
  C     -1.272000   -2.795500   -1.074500
  C     -0.327400   -2.934700   -0.044300
  C      0.454900   -4.091200    0.044100
  C      0.304800   -5.112600   -0.897300
  C     -0.624200   -4.976000   -1.933600
  C     -1.407000   -3.820000   -2.026700
  C     -1.490300    1.423400   -0.386100
  C     -1.397700    2.964500   -0.385500
  C     -1.311500    3.507800    1.018300
  C     -2.480800    3.707900    1.771500
  C     -2.399800    4.165600    3.090600
  C     -1.152500    4.416300    3.669700
  C      0.015800    4.211600    2.929700
  C     -0.060900    3.757500    1.609300
  N     -0.318100    0.832000    0.276200
  C      1.012700    0.826400   -0.256000
  O      1.285500    1.451000   -1.318500
  O      2.001300    0.102600    0.415000
  C      3.325200   -0.044300   -0.083800
  C      4.102500   -0.924500    0.850100
  C      4.913700   -0.361000    1.849400
  C      5.595400   -1.186000    2.750100
  C      5.460600   -2.575500    2.668400
  C      4.641100   -3.142100    1.687400
  C      3.959700   -2.320800    0.783300
  H     -5.135200    2.287700   -3.783400
  H     -5.149700    0.511100   -4.163400
  H     -4.479100    1.688400   -5.358100
  H     -1.034000    1.456000   -2.499900
  H     -1.238500   -0.808000   -2.964700
  H     -2.312200   -1.147400   -0.200200
  H     -3.007900   -1.708300   -1.755400
  H     -0.188100   -2.145100    0.683900
  H      1.182800   -4.193100    0.839200
  H      0.913900   -6.005200   -0.829800
  H     -0.732700   -5.763500   -2.668900
  H     -2.110100   -3.719800   -2.845200
  H     -2.382100    1.154100    0.223000
  H     -0.518800    3.300500   -0.976400
  H     -2.296600    3.389900   -0.884200
  H     -3.452500    3.504300    1.338100
  H     -3.303900    4.320300    3.665800
  H     -1.091300    4.765600    4.692300
  H      0.981500    4.400100    3.380200
  H      0.853200    3.593100    1.051900
  H     -0.474900    0.330200    1.178900
  H      3.295800   -0.505700   -1.095300
  H      3.806500    0.954900   -0.172400
  H      5.015300    0.714800    1.933600
  H      6.224000   -0.748000    3.515100
  H      5.986200   -3.211600    3.368700
  H      4.530500   -4.217400    1.629900
  H      3.318200   -2.771200    0.035600

 Total Charge           Charge          ....    0
 Multiplicity           Mult            ....    1
 Number of Electrons    NEL             ....  230
 Basis Dimension        Dim             ....  504

ORBITAL ENERGIES
----------------

  NO   OCC          E(Eh)            E(eV)
   0   2.0000     -19.186008      -522.0778
   1   2.0000     -19.172696      -521.7156
   2   2.0000     -19.131338      -520.5902
   3   2.0000     -19.105342      -519.8828
   4   2.0000     -14.356284      -390.6543
   5   2.0000     -14.325853      -389.8263
   6   2.0000     -10.332580      -281.1638
   7   2.0000     -10.314416      -280.6695
   8   2.0000     -10.239588      -278.6334
   9   2.0000     -10.235284      -278.5162
  10   2.0000     -10.233420      -278.4655
  11   2.0000     -10.224079      -278.2113
  12   2.0000     -10.203552      -277.6528
  13   2.0000     -10.190405      -277.2950
  14   2.0000     -10.184447      -277.1329
  15   2.0000     -10.184104      -277.1235
  16   2.0000     -10.184002      -277.1208
  17   2.0000     -10.183433      -277.1053
  18   2.0000     -10.183161      -277.0979
  19   2.0000     -10.182884      -277.0904
  20   2.0000     -10.181625      -277.0561
  21   2.0000     -10.178995      -276.9845
  22   2.0000     -10.178523      -276.9717
  23   2.0000     -10.178259      -276.9645
  24   2.0000     -10.177775      -276.9513
  25   2.0000     -10.176816      -276.9252
  26   2.0000     -10.176704      -276.9222
  27   2.0000     -10.174541      -276.8633
  28   2.0000     -10.173797      -276.8431
  29   2.0000     -10.172992      -276.8212
  30   2.0000     -10.172928      -276.8195
  31   2.0000     -10.171445      -276.7791
  32   2.0000      -1.078670       -29.3521
  33   2.0000      -1.070750       -29.1366
  34   2.0000      -0.993172       -27.0256
  35   2.0000      -0.980678       -26.6856
  36   2.0000      -0.919447       -25.0194
  37   2.0000      -0.893655       -24.3176
  38   2.0000      -0.851978       -23.1835
  39   2.0000      -0.844368       -22.9764
  40   2.0000      -0.842814       -22.9341
  41   2.0000      -0.786684       -21.4068
  42   2.0000      -0.768620       -20.9152
  43   2.0000      -0.762796       -20.7567
  44   2.0000      -0.743010       -20.2183
  45   2.0000      -0.737696       -20.0737
  46   2.0000      -0.736403       -20.0385
  47   2.0000      -0.733267       -19.9532
  48   2.0000      -0.721815       -19.6416
  49   2.0000      -0.690980       -18.8025
  50   2.0000      -0.679556       -18.4917
  51   2.0000      -0.648500       -17.6466
  52   2.0000      -0.624683       -16.9985
  53   2.0000      -0.604852       -16.4589
  54   2.0000      -0.600096       -16.3294
  55   2.0000      -0.595152       -16.1949
  56   2.0000      -0.588864       -16.0238
  57   2.0000      -0.577218       -15.7069
  58   2.0000      -0.573596       -15.6083
  59   2.0000      -0.565413       -15.3857
  60   2.0000      -0.545356       -14.8399
  61   2.0000      -0.539488       -14.6802
  62   2.0000      -0.512366       -13.9422
  63   2.0000      -0.510918       -13.9028
  64   2.0000      -0.505256       -13.7487
  65   2.0000      -0.500224       -13.6118
  66   2.0000      -0.486978       -13.2513
  67   2.0000      -0.479884       -13.0583
  68   2.0000      -0.475702       -12.9445
  69   2.0000      -0.467650       -12.7254
  70   2.0000      -0.463558       -12.6141
  71   2.0000      -0.459534       -12.5046
  72   2.0000      -0.456895       -12.4328
  73   2.0000      -0.451930       -12.2976
  74   2.0000      -0.444138       -12.0856
  75   2.0000      -0.440966       -11.9993
  76   2.0000      -0.437742       -11.9116
  77   2.0000      -0.431979       -11.7547
  78   2.0000      -0.430508       -11.7147
  79   2.0000      -0.420548       -11.4437
  80   2.0000      -0.417160       -11.3515
  81   2.0000      -0.414743       -11.2857
  82   2.0000      -0.410941       -11.1823
  83   2.0000      -0.410451       -11.1690
  84   2.0000      -0.408657       -11.1201
  85   2.0000      -0.402768       -10.9599
  86   2.0000      -0.387716       -10.5503
  87   2.0000      -0.383506       -10.4357
  88   2.0000      -0.373536       -10.1644
  89   2.0000      -0.367684       -10.0052
  90   2.0000      -0.363616        -9.8945
  91   2.0000      -0.360642        -9.8136
  92   2.0000      -0.358055        -9.7432
  93   2.0000      -0.352229        -9.5847
  94   2.0000      -0.346646        -9.4327
  95   2.0000      -0.343043        -9.3347
  96   2.0000      -0.342228        -9.3125
  97   2.0000      -0.338966        -9.2237
  98   2.0000      -0.334644        -9.1061
  99   2.0000      -0.331660        -9.0249
 100   2.0000      -0.329439        -8.9645
 101   2.0000      -0.326449        -8.8831
 102   2.0000      -0.323018        -8.7898
 103   2.0000      -0.293247        -7.9797
 104   2.0000      -0.280411        -7.6304
 105   2.0000      -0.272343        -7.4108
 106   2.0000      -0.256830        -6.9887
 107   2.0000      -0.248756        -6.7690
 108   2.0000      -0.248661        -6.7664
 109   2.0000      -0.244207        -6.6452
 110   2.0000      -0.242863        -6.6086
 111   2.0000      -0.239254        -6.5104
 112   2.0000      -0.236792        -6.4434
 113   2.0000      -0.232183        -6.3180
 114   2.0000      -0.222451        -6.0532
 115   0.0000      -0.014213        -0.3868
 116   0.0000      -0.009312        -0.2534
 117   0.0000      -0.001028        -0.0280
 118   0.0000       0.002807         0.0764
 119   0.0000       0.005429         0.1477

MULLIKEN ATOMIC CHARGES
-----------------------
   0 C :   -0.199267
   1 O :   -0.468802
   2 C :    0.578356
   3 O :   -0.472397
   4 C :   -0.039803
   5 N :   -0.519420
   6 C :   -0.240959
   7 C :    0.169466
   8 C :   -0.151013
   9 C :   -0.137497
  10 C :   -0.126348
  11 C :   -0.127050
  12 C :   -0.174698
  13 C :    0.049089
  14 C :   -0.370133
  15 C :    0.156773
  16 C :   -0.181406
  17 C :   -0.128401
  18 C :   -0.126831
  19 C :   -0.130668
  20 C :   -0.172884
  21 N :   -0.625168
  22 C :    0.780340
  23 O :   -0.506581
  24 O :   -0.491461
  25 C :   -0.089300
  26 C :    0.125525
  27 C :   -0.161116
  28 C :   -0.128675
  29 C :   -0.121360
  30 C :   -0.132737
  31 C :   -0.161971
  32 H :    0.164553
  33 H :    0.161951
  34 H :    0.165909
  35 H :    0.182020
  36 H :    0.303365
  37 H :    0.151558
  38 H :    0.135142
  39 H :    0.119924
  40 H :    0.131159
  41 H :    0.124661
  42 H :    0.125943
  43 H :    0.119740
  44 H :    0.171601
  45 H :    0.178010
  46 H :    0.144670
  47 H :    0.130102
  48 H :    0.125197
  49 H :    0.123197
  50 H :    0.124713
  51 H :    0.137051
  52 H :    0.337031
  53 H :    0.156974
  54 H :    0.148738
  55 H :    0.130800
  56 H :    0.130233
  57 H :    0.129679
  58 H :    0.129153
  59 H :    0.143324
Sum of atomic charges:   -0.0000000

LOEWDIN ATOMIC CHARGES
----------------------
   0 C :   -0.200714
   1 O :   -0.183339
   2 C :    0.167973
   3 O :   -0.274019
   4 C :   -0.092337
   5 N :   -0.271768
   6 C :   -0.161828
   7 C :   -0.019791
   8 C :   -0.121545
   9 C :   -0.132741
  10 C :   -0.133444
  11 C :   -0.129006
  12 C :   -0.136762
  13 C :   -0.043826
  14 C :   -0.227685
  15 C :   -0.018250
  16 C :   -0.139084
  17 C :   -0.130434
  18 C :   -0.135807
  19 C :   -0.130663
  20 C :   -0.132076
  21 N :   -0.230126
  22 C :    0.206765
  23 O :   -0.317511
  24 O :   -0.186905
  25 C :   -0.074034
  26 C :   -0.033907
  27 C :   -0.122585
  28 C :   -0.128561
  29 C :   -0.125362
  30 C :   -0.129914
  31 C :   -0.121957
  32 H :    0.128773
  33 H :    0.127213
  34 H :    0.133522
  35 H :    0.150808
  36 H :    0.235600
  37 H :    0.129448
  38 H :    0.109224
  39 H :    0.129315
  40 H :    0.131444
  41 H :    0.129699
  42 H :    0.130116
  43 H :    0.127339
  44 H :    0.142608
  45 H :    0.143937
  46 H :    0.129662
  47 H :    0.131431
  48 H :    0.129705
  49 H :    0.129004
  50 H :    0.129592
  51 H :    0.135097
  52 H :    0.257223
  53 H :    0.129496
  54 H :    0.124394
  55 H :    0.132921
  56 H :    0.132195
  57 H :    0.132053
  58 H :    0.131366
  59 H :    0.138062

  Mayer bond orders larger than 0.100000
B(  0-C ,  1-O ) :   0.8828 B(  0-C , 32-H ) :   0.9357 B(  0-C , 33-H ) :   0.9361
B(  0-C , 34-H ) :   0.9434 B(  1-O ,  2-C ) :   1.0173 B(  2-C ,  3-O ) :   1.7880
B(  2-C ,  4-C ) :   0.9172 B(  4-C ,  5-N ) :   0.9967 B(  4-C , 13-C ) :   0.9488
B(  4-C , 35-H ) :   0.9000 B(  5-N ,  6-C ) :   0.9578 B(  5-N , 36-H ) :   0.8414
B(  6-C ,  7-C ) :   0.9636 B(  6-C , 37-H ) :   0.9270 B(  6-C , 38-H ) :   0.9206
B(  7-C ,  8-C ) :   1.4301 B(  7-C , 12-C ) :   1.4388 B(  8-C ,  9-C ) :   1.4451
B(  8-C , 39-H ) :   0.9183 B(  9-C , 10-C ) :   1.4448 B(  9-C , 40-H ) :   0.9261
B( 10-C , 11-C ) :   1.4592 B( 10-C , 41-H ) :   0.9309 B( 11-C , 12-C ) :   1.4363
B( 11-C , 42-H ) :   0.9299 B( 12-C , 43-H ) :   0.9261 B( 13-C , 14-C ) :   0.9749
B( 13-C , 21-N ) :   0.9165 B( 13-C , 44-H ) :   0.9084 B( 14-C , 15-C ) :   0.9861
B( 14-C , 45-H ) :   0.9140 B( 14-C , 46-H ) :   0.9229 B( 15-C , 16-C ) :   1.4312
B( 15-C , 20-C ) :   1.4385 B( 16-C , 17-C ) :   1.4393 B( 16-C , 47-H ) :   0.9242
B( 17-C , 18-C ) :   1.4543 B( 17-C , 48-H ) :   0.9302 B( 18-C , 19-C ) :   1.4532
B( 18-C , 49-H ) :   0.9313 B( 19-C , 20-C ) :   1.4359 B( 19-C , 50-H ) :   0.9303
B( 20-C , 51-H ) :   0.9200 B( 21-N , 22-C ) :   1.0752 B( 21-N , 52-H ) :   0.8237
B( 22-C , 23-O ) :   1.7439 B( 22-C , 24-O ) :   1.0050 B( 24-O , 25-C ) :   0.8497
B( 25-C , 26-C ) :   0.9819 B( 25-C , 53-H ) :   0.9196 B( 25-C , 54-H ) :   0.9220
B( 26-C , 27-C ) :   1.4397 B( 26-C , 31-C ) :   1.4294 B( 27-C , 28-C ) :   1.4390
B( 27-C , 55-H ) :   0.9246 B( 28-C , 29-C ) :   1.4561 B( 28-C , 56-H ) :   0.9295
B( 29-C , 30-C ) :   1.4496 B( 29-C , 57-H ) :   0.9303 B( 30-C , 31-C ) :   1.4421
B( 30-C , 58-H ) :   0.9300 B( 31-C , 59-H ) :   0.9168

FINAL SINGLE POINT ENERGY     -1417.136638822158

DIPOLE MOMENT
-------------

Method             : SCF
Type of density    : Electron Density
Multiplicity       :   1
Irrep              :   0
Energy             : -1417.1366388221581474 Eh
Relativity type    :
Basis              : AO
                                X                 Y                 Z
Electronic contribution:      3.314026844       1.225725405       0.800132230
Nuclear contribution   :     -3.389222152      -1.811645125      -0.806883742
                        -----------------------------------------
Total Dipole Moment    :     -0.075195308      -0.585919719      -0.006751512
                        -----------------------------------------
Magnitude (a.u.)       :      0.590763772
Magnitude (Debye)      :      1.501602175

Rotational constants in cm-1:             0.004605             0.003267             0.002165
Rotational constants in MHz :           138.041448            97.935051            64.913005

                             ****ORCA TERMINATED NORMALLY****
TOTAL RUN TIME: 0 days 0 hours 6 minutes 17 seconds 209 msec
