                         Program Version 6.0.0  -   RELEASE  -
|  1> ! B3LYP 6-31G* SP
|  2>
|  3> * xyz 0 1
|  4> C -4.5272 -3.4922 1.1483
|  5> C -3.6651 -2.3924 0.6034
|  6> C -3.9167 -1.0589 0.9528
|  7> C -3.1373 -0.0284 0.4195
|  8> C -2.0919 -0.3128 -0.4831
|  9> C -1.2054 0.7717 -1.0887
| 10> N 0.1487 0.8489 -0.5167
| 11> C 0.7697 -0.1527 0.3113
| 12> O 0.1068 -0.7119 1.2268
| 13> C 2.2027 -0.4929 0.1422
| 14> C 2.8618 -0.2504 -1.0779
| 15> C 4.2112 -0.5798 -1.2369
| 16> C 4.9211 -1.1627 -0.1799
| 17> C 6.2739 -1.5029 -0.3110
| 18> C 6.9496 -2.0856 0.7633
| 19> C 6.2661 -2.3233 1.9584
| 20> N 4.9528 -1.9892 2.0729
| 21> C 4.2672 -1.4200 1.0443
| 22> C 2.9166 -1.0893 1.1984
| 23> C -1.8766 2.1382 -1.1606
| 24> N -2.6145 2.3774 -2.2827
| 25> C -3.2733 3.5414 -2.5023
| 26> C -3.2084 4.5615 -1.5637
| 27> C -2.4796 4.3662 -0.3943
| 28> C -1.8223 3.1445 -0.1428
| 29> C -1.0401 3.0093 1.1545
| 30> F 0.2976 3.2636 0.9178
| 31> F -1.1806 1.7509 1.7013
| 32> F -1.4880 3.9130 2.1035
| 33> C -1.8677 -1.6531 -0.8504
| 34> C -2.6475 -2.6815 -0.3153
| 35> H -4.8915 -3.2365 2.1661
| 36> H -5.3994 -3.6437 0.4787
| 37> H -3.9543 -4.4415 1.2176
| 38> H -4.7192 -0.8152 1.6381
| 39> H -3.3697 0.9864 0.7084
| 40> H -1.0536 0.4668 -2.1492
| 41> H 0.7757 1.5715 -0.9374
| 42> H 2.3323 0.1750 -1.9203
| 43> H 4.6965 -0.3848 -2.1858
| 44> H 6.8044 -1.3194 -1.2377
| 45> H 7.9948 -2.3513 0.6708
| 46> H 6.7806 -2.7745 2.7962
| 47> H 2.4289 -1.2891 2.1453
| 48> H -3.8402 3.6758 -3.4138
| 49> H -3.7191 5.4993 -1.7403
| 50> H -2.4355 5.1811 0.3169
| 51> H -1.0787 -1.9028 -1.5494
| 52> H -2.4554 -3.7039 -0.6166
| 53> *
| 54>
| 55>                          ****END OF INPUT****

CARTESIAN COORDINATES (ANGSTROEM)
---------------------------------
  C     -4.527200   -3.492200    1.148300
  C     -3.665100   -2.392400    0.603400
  C     -3.916700   -1.058900    0.952800
  C     -3.137300   -0.028400    0.419500
  C     -2.091900   -0.312800   -0.483100
  C     -1.205400    0.771700   -1.088700
  N      0.148700    0.848900   -0.516700
  C      0.769700   -0.152700    0.311300
  O      0.106800   -0.711900    1.226800
  C      2.202700   -0.492900    0.142200
  C      2.861800   -0.250400   -1.077900
  C      4.211200   -0.579800   -1.236900
  C      4.921100   -1.162700   -0.179900
  C      6.273900   -1.502900   -0.311000
  C      6.949600   -2.085600    0.763300
  C      6.266100   -2.323300    1.958400
  N      4.952800   -1.989200    2.072900
  C      4.267200   -1.420000    1.044300
  C      2.916600   -1.089300    1.198400
  C     -1.876600    2.138200   -1.160600
  N     -2.614500    2.377400   -2.282700
  C     -3.273300    3.541400   -2.502300
  C     -3.208400    4.561500   -1.563700
  C     -2.479600    4.366200   -0.394300
  C     -1.822300    3.144500   -0.142800
  C     -1.040100    3.009300    1.154500
  F      0.297600    3.263600    0.917800
  F     -1.180600    1.750900    1.701300
  F     -1.488000    3.913000    2.103500
  C     -1.867700   -1.653100   -0.850400
  C     -2.647500   -2.681500   -0.315300
  H     -4.891500   -3.236500    2.166100
  H     -5.399400   -3.643700    0.478700
  H     -3.954300   -4.441500    1.217600
  H     -4.719200   -0.815200    1.638100
  H     -3.369700    0.986400    0.708400
  H     -1.053600    0.466800   -2.149200
  H      0.775700    1.571500   -0.937400
  H      2.332300    0.175000   -1.920300
  H      4.696500   -0.384800   -2.185800
  H      6.804400   -1.319400   -1.237700
  H      7.994800   -2.351300    0.670800
  H      6.780600   -2.774500    2.796200
  H      2.428900   -1.289100    2.145300
  H     -3.840200    3.675800   -3.413800
  H     -3.719100    5.499300   -1.740300
  H     -2.435500    5.181100    0.316900
  H     -1.078700   -1.902800   -1.549400
  H     -2.455400   -3.703900   -0.616600

 Total Charge           Charge          ....    0
 Multiplicity           Mult            ....    1
 Number of Electrons    NEL             ....  218
 Basis Dimension        Dim             ....  470

ORBITAL ENERGIES
----------------

  NO   OCC          E(Eh)            E(eV)
   0   2.0000     -24.718143      -672.6149
   1   2.0000     -24.715544      -672.5442
   2   2.0000     -24.709720      -672.3857
   3   2.0000     -19.102304      -519.8001
   4   2.0000     -14.345666      -390.3654
   5   2.0000     -14.340697      -390.2302
   6   2.0000     -14.323908      -389.7734
   7   2.0000     -10.435007      -283.9510
   8   2.0000     -10.282655      -279.8053
   9   2.0000     -10.251028      -278.9446
  10   2.0000     -10.236379      -278.5460
  11   2.0000     -10.234552      -278.4963
  12   2.0000     -10.226537      -278.2782
  13   2.0000     -10.222113      -278.1578
  14   2.0000     -10.219023      -278.0738
  15   2.0000     -10.218937      -278.0714
  16   2.0000     -10.204547      -277.6798
  17   2.0000     -10.203169      -277.6423
  18   2.0000     -10.201745      -277.6036
  19   2.0000     -10.197874      -277.4983
  20   2.0000     -10.195763      -277.4408
  21   2.0000     -10.194764      -277.4136
  22   2.0000     -10.193418      -277.3770
  23   2.0000     -10.188422      -277.2411
  24   2.0000     -10.183623      -277.1105
  25   2.0000     -10.176501      -276.9167
  26   2.0000     -10.170476      -276.7527
  27   2.0000     -10.168872      -276.7091
  28   2.0000     -10.166314      -276.6395
  29   2.0000     -10.165651      -276.6214
  30   2.0000     -10.165075      -276.6058
  31   2.0000      -1.277561       -34.7642
  32   2.0000      -1.203044       -32.7365
  33   2.0000      -1.198203       -32.6048
  34   2.0000      -1.001478       -27.2516
  35   2.0000      -0.947548       -25.7841
  36   2.0000      -0.934193       -25.4207
  37   2.0000      -0.900835       -24.5130
  38   2.0000      -0.852410       -23.1953
  39   2.0000      -0.839052       -22.8318
  40   2.0000      -0.823106       -22.3978
  41   2.0000      -0.808116       -21.9900
  42   2.0000      -0.797527       -21.7018
  43   2.0000      -0.768963       -20.9245
  44   2.0000      -0.760538       -20.6953
  45   2.0000      -0.740034       -20.1373
  46   2.0000      -0.729050       -19.8385
  47   2.0000      -0.718582       -19.5536
  48   2.0000      -0.695896       -18.9363
  49   2.0000      -0.666152       -18.1269
  50   2.0000      -0.654009       -17.7965
  51   2.0000      -0.636847       -17.3295
  52   2.0000      -0.635175       -17.2840
  53   2.0000      -0.618233       -16.8230
  54   2.0000      -0.606050       -16.4915
  55   2.0000      -0.593447       -16.1485
  56   2.0000      -0.578992       -15.7552
  57   2.0000      -0.569179       -15.4882
  58   2.0000      -0.564840       -15.3701
  59   2.0000      -0.562652       -15.3106
  60   2.0000      -0.551963       -15.0197
  61   2.0000      -0.536563       -14.6006
  62   2.0000      -0.522449       -14.2166
  63   2.0000      -0.516097       -14.0437
  64   2.0000      -0.508451       -13.8357
  65   2.0000      -0.501175       -13.6377
  66   2.0000      -0.484118       -13.1735
  67   2.0000      -0.475295       -12.9334
  68   2.0000      -0.466547       -12.6954
  69   2.0000      -0.453970       -12.3532
  70   2.0000      -0.447816       -12.1857
  71   2.0000      -0.445552       -12.1241
  72   2.0000      -0.444448       -12.0941
  73   2.0000      -0.441910       -12.0250
  74   2.0000      -0.435230       -11.8432
  75   2.0000      -0.431472       -11.7410
  76   2.0000      -0.426022       -11.5926
  77   2.0000      -0.421493       -11.4694
  78   2.0000      -0.415304       -11.3010
  79   2.0000      -0.412088       -11.2135
  80   2.0000      -0.410184       -11.1617
  81   2.0000      -0.408406       -11.1133
  82   2.0000      -0.406968       -11.0742
  83   2.0000      -0.404994       -11.0204
  84   2.0000      -0.403998       -10.9933
  85   2.0000      -0.401653       -10.9295
  86   2.0000      -0.397049       -10.8043
  87   2.0000      -0.390248       -10.6192
  88   2.0000      -0.384097       -10.4518
  89   2.0000      -0.370343       -10.0776
  90   2.0000      -0.368739       -10.0339
  91   2.0000      -0.363043        -9.8789
  92   2.0000      -0.359724        -9.7886
  93   2.0000      -0.357703        -9.7336
  94   2.0000      -0.336326        -9.1519
  95   2.0000      -0.329981        -8.9792
  96   2.0000      -0.326514        -8.8849
  97   2.0000      -0.325019        -8.8442
  98   2.0000      -0.302728        -8.2377
  99   2.0000      -0.295746        -8.0477
 100   2.0000      -0.276705        -7.5295
 101   2.0000      -0.259510        -7.0616
 102   2.0000      -0.258198        -7.0259
 103   2.0000      -0.245222        -6.6728
 104   2.0000      -0.243932        -6.6377
 105   2.0000      -0.235497        -6.4082
 106   2.0000      -0.232226        -6.3192
 107   2.0000      -0.225263        -6.1297
 108   2.0000      -0.212971        -5.7952
 109   0.0000      -0.067851        -1.8463
 110   0.0000      -0.043951        -1.1960
 111   0.0000      -0.037156        -1.0111
 112   0.0000      -0.032026        -0.8715
 113   0.0000       0.008500         0.2313

MULLIKEN ATOMIC CHARGES
-----------------------
   0 C :   -0.524548
   1 C :    0.178816
   2 C :   -0.177432
   3 C :   -0.145820
   4 C :    0.172006
   5 C :   -0.060186
   6 N :   -0.646247
   7 C :    0.498280
   8 O :   -0.453155
   9 C :    0.080508
  10 C :   -0.179306
  11 C :   -0.207440
  12 C :    0.172513
  13 C :   -0.153313
  14 C :   -0.145132
  15 C :    0.015457
  16 N :   -0.427737
  17 C :    0.210499
  18 C :   -0.172661
  19 C :    0.196314
  20 N :   -0.400469
  21 C :    0.025771
  22 C :   -0.133725
  23 C :   -0.131569
  24 C :   -0.080735
  25 C :    0.940828
  26 F :   -0.305501
  27 F :   -0.277247
  28 F :   -0.308185
  29 C :   -0.151077
  30 C :   -0.167423
  31 H :    0.153288
  32 H :    0.159982
  33 H :    0.153167
  34 H :    0.118766
  35 H :    0.117547
  36 H :    0.165303
  37 H :    0.315058
  38 H :    0.127913
  39 H :    0.133476
  40 H :    0.141619
  41 H :    0.135602
  42 H :    0.152219
  43 H :    0.176667
  44 H :    0.158464
  45 H :    0.144100
  46 H :    0.166626
  47 H :    0.119046
  48 H :    0.119074
Sum of atomic charges:    0.0000000

LOEWDIN ATOMIC CHARGES
----------------------
   0 C :   -0.351710
   1 C :   -0.015274
   2 C :   -0.134691
   3 C :   -0.117080
   4 C :   -0.012856
   5 C :   -0.046439
   6 N :   -0.254120
   7 C :    0.138320
   8 O :   -0.253357
   9 C :   -0.050251
  10 C :   -0.128362
  11 C :   -0.122677
  12 C :   -0.022531
  13 C :   -0.094365
  14 C :   -0.145987
  15 C :   -0.062382
  16 N :   -0.124098
  17 C :    0.012435
  18 C :   -0.073002
  19 C :    0.044753
  20 N :   -0.127513
  21 C :   -0.055841
  22 C :   -0.145021
  23 C :   -0.090134
  24 C :   -0.084109
  25 C :    0.309056
  26 F :   -0.114526
  27 F :   -0.084950
  28 F :   -0.113790
  29 C :   -0.114767
  30 C :   -0.132725
  31 H :    0.131223
  32 H :    0.135508
  33 H :    0.131120
  34 H :    0.128341
  35 H :    0.129345
  36 H :    0.140752
  37 H :    0.245140
  38 H :    0.132260
  39 H :    0.133618
  40 H :    0.137865
  41 H :    0.136449
  42 H :    0.136879
  43 H :    0.163614
  44 H :    0.139603
  45 H :    0.140713
  46 H :    0.149582
  47 H :    0.127283
  48 H :    0.128694

  Mayer bond orders larger than 0.100000
B(  0-C ,  1-C ) :   0.9867 B(  0-C , 31-H ) :   0.9463 B(  0-C , 32-H ) :   0.9345
B(  0-C , 33-H ) :   0.9464 B(  1-C ,  2-C ) :   1.4387 B(  1-C , 30-C ) :   1.4356
B(  2-C ,  3-C ) :   1.4306 B(  2-C , 34-H ) :   0.9260 B(  3-C ,  4-C ) :   1.4378
B(  3-C , 35-H ) :   0.9154 B(  4-C ,  5-C ) :   0.9778 B(  4-C , 29-C ) :   1.4018
B(  5-C ,  6-N ) :   0.8985 B(  5-C , 19-C ) :   0.9499 B(  5-C , 36-H ) :   0.9050
B(  6-N ,  7-C ) :   1.0066 B(  6-N , 37-H ) :   0.8228 B(  7-C ,  8-O ) :   1.8149
B(  7-C ,  9-C ) :   0.9845 B(  9-C , 10-C ) :   1.2984 B(  9-C , 18-C ) :   1.4437
B( 10-C , 11-C ) :   1.4994 B( 10-C , 38-H ) :   0.9199 B( 11-C , 12-C ) :   1.2864
B( 11-C , 18-C ) :   0.1023 B( 11-C , 39-H ) :   0.9241 B( 12-C , 13-C ) :   1.3027
B( 12-C , 17-C ) :   1.2494 B( 13-C , 14-C ) :   1.5143 B( 13-C , 40-H ) :   0.9243
B( 14-C , 15-C ) :   1.3201 B( 14-C , 41-H ) :   0.9248 B( 15-C , 16-N ) :   1.5182
B( 15-C , 42-H ) :   0.9298 B( 16-N , 17-C ) :   1.2419 B( 17-C , 18-C ) :   1.2680
B( 18-C , 43-H ) :   0.9035 B( 19-C , 20-N ) :   1.3925 B( 19-C , 24-C ) :   1.3469
B( 20-N , 21-C ) :   1.4215 B( 21-C , 22-C ) :   1.4212 B( 21-C , 44-H ) :   0.9277
B( 22-C , 23-C ) :   1.4377 B( 22-C , 45-H ) :   0.9237 B( 23-C , 24-C ) :   1.4011
B( 23-C , 46-H ) :   0.9166 B( 24-C , 25-C ) :   0.9641 B( 25-C , 26-F ) :   0.9487
B( 25-C , 27-F ) :   0.9523 B( 25-C , 28-F ) :   0.9369 B( 29-C , 30-C ) :   1.4389
B( 29-C , 47-H ) :   0.9254 B( 30-C , 48-H ) :   0.9258

FINAL SINGLE POINT ENERGY     -1463.548756707189

DIPOLE MOMENT
-------------

Method             : SCF
Type of density    : Electron Density
Multiplicity       :   1
Irrep              :   0
Energy             : -1463.5487567071891135 Eh
Relativity type    :
Basis              : AO
                                X                 Y                 Z
Electronic contribution:      4.576567376      22.237128404       8.608657394
Nuclear contribution   :     -4.084864394     -21.215356887     -10.306660325
                        -----------------------------------------
Total Dipole Moment    :      0.491702982       1.021771517      -1.698002931
                        -----------------------------------------
Magnitude (a.u.)       :      2.041813608
Magnitude (Debye)      :      5.189877745

Rotational constants in cm-1:             0.007082             0.002874             0.002399
Rotational constants in MHz :           212.316004            86.153674            71.913334

                             ****ORCA TERMINATED NORMALLY****
TOTAL RUN TIME: 0 days 0 hours 7 minutes 2 seconds 907 msec
