                         Program Version 6.0.0  -   RELEASE  -
|  1> ! B3LYP 6-31G* SP
|  2>
|  3> * xyz 0 1
|  4> O 6.9461 0.0534 -0.3192
|  5> C 6.1844 -0.8859 0.0383
|  6> O 6.6882 -2.1822 0.1088
|  7> C 4.7700 -0.6161 0.3798
|  8> C 3.9198 -1.6680 0.7644
|  9> C 2.5826 -1.4166 1.0853
| 10> C 2.0755 -0.1122 1.0242
| 11> S 0.3824 0.2125 1.3797
| 12> O 0.3070 1.3973 2.3027
| 13> O -0.2515 -0.9698 2.0574
| 14> N -0.4675 0.5607 -0.0950
| 15> C -0.2433 -0.2773 -1.2766
| 16> C -0.8140 -1.6470 -1.0583
| 17> C -2.2002 -1.8576 -1.1025
| 18> C -2.7065 -3.1332 -0.8445
| 19> C -1.8326 -4.1810 -0.5451
| 20> C -0.4580 -3.9339 -0.5051
| 21> N 0.0161 -2.6843 -0.7566
| 22> C -1.5891 1.4523 -0.0505
| 23> N -2.6061 1.2035 0.8190
| 24> C -3.7008 2.0048 0.8995
| 25> C -3.8201 3.1263 0.0646
| 26> C -5.0066 4.0489 0.1808
| 27> F -5.2618 4.6710 -1.0283
| 28> F -4.7440 5.0123 1.1363
| 29> F -6.1383 3.3432 0.5515
| 30> C -2.7611 3.4257 -0.8066
| 31> C -1.6435 2.5892 -0.8739
| 32> Cl -0.3081 3.0233 -1.9342
| 33> C 2.9145 0.9380 0.6360
| 34> C 4.2531 0.6911 0.3193
| 35> H 7.6539 -2.3799 -0.1258
| 36> H 4.2862 -2.6862 0.8168
| 37> H 1.9449 -2.2423 1.3738
| 38> H -0.7164 0.1743 -2.1757
| 39> H 0.8460 -0.3452 -1.4847
| 40> H -2.8783 -1.0426 -1.3268
| 41> H -3.7750 -3.3086 -0.8736
| 42> H -2.2166 -5.1727 -0.3408
| 43> H 0.2309 -4.7334 -0.2677
| 44> H -4.4756 1.7653 1.6166
| 45> H -2.7977 4.3127 -1.4272
| 46> H 2.5300 1.9482 0.5729
| 47> H 4.8810 1.5221 0.0225
| 48> *
| 49>
| 50>                          ****END OF INPUT****

CARTESIAN COORDINATES (ANGSTROEM)
---------------------------------
  O      6.946100    0.053400   -0.319200
  C      6.184400   -0.885900    0.038300
  O      6.688200   -2.182200    0.108800
  C      4.770000   -0.616100    0.379800
  C      3.919800   -1.668000    0.764400
  C      2.582600   -1.416600    1.085300
  C      2.075500   -0.112200    1.024200
  S      0.382400    0.212500    1.379700
  O      0.307000    1.397300    2.302700
  O     -0.251500   -0.969800    2.057400
  N     -0.467500    0.560700   -0.095000
  C     -0.243300   -0.277300   -1.276600
  C     -0.814000   -1.647000   -1.058300
  C     -2.200200   -1.857600   -1.102500
  C     -2.706500   -3.133200   -0.844500
  C     -1.832600   -4.181000   -0.545100
  C     -0.458000   -3.933900   -0.505100
  N      0.016100   -2.684300   -0.756600
  C     -1.589100    1.452300   -0.050500
  N     -2.606100    1.203500    0.819000
  C     -3.700800    2.004800    0.899500
  C     -3.820100    3.126300    0.064600
  C     -5.006600    4.048900    0.180800
  F     -5.261800    4.671000   -1.028300
  F     -4.744000    5.012300    1.136300
  F     -6.138300    3.343200    0.551500
  C     -2.761100    3.425700   -0.806600
  C     -1.643500    2.589200   -0.873900
  Cl    -0.308100    3.023300   -1.934200
  C      2.914500    0.938000    0.636000
  C      4.253100    0.691100    0.319300
  H      7.653900   -2.379900   -0.125800
  H      4.286200   -2.686200    0.816800
  H      1.944900   -2.242300    1.373800
  H     -0.716400    0.174300   -2.175700
  H      0.846000   -0.345200   -1.484700
  H     -2.878300   -1.042600   -1.326800
  H     -3.775000   -3.308600   -0.873600
  H     -2.216600   -5.172700   -0.340800
  H      0.230900   -4.733400   -0.267700
  H     -4.475600    1.765300    1.616600
  H     -2.797700    4.312700   -1.427200
  H      2.530000    1.948200    0.572900
  H      4.881000    1.522100    0.022500

 Total Charge           Charge          ....    0
 Multiplicity           Mult            ....    1
 Number of Electrons    NEL             ....  240
 Basis Dimension        Dim             ....  468

ORBITAL ENERGIES
----------------

  NO   OCC          E(Eh)            E(eV)
   0   2.0000    -101.555767     -2763.4729
   1   2.0000     -89.099455     -2424.5194
   2   2.0000     -24.734686      -673.0650
   3   2.0000     -24.734329      -673.0553
   4   2.0000     -24.729417      -672.9216
   5   2.0000     -19.196597      -522.3660
   6   2.0000     -19.138704      -520.7906
   7   2.0000     -19.124285      -520.3983
   8   2.0000     -19.118489      -520.2405
   9   2.0000     -14.385016      -391.4362
  10   2.0000     -14.360949      -390.7813
  11   2.0000     -14.331845      -389.9893
  12   2.0000     -10.452252      -284.4202
  13   2.0000     -10.335953      -281.2556
  14   2.0000     -10.300153      -280.2814
  15   2.0000     -10.282052      -279.7888
  16   2.0000     -10.254776      -279.0466
  17   2.0000     -10.243929      -278.7515
  18   2.0000     -10.243030      -278.7270
  19   2.0000     -10.241678      -278.6902
  20   2.0000     -10.239969      -278.6437
  21   2.0000     -10.232812      -278.4490
  22   2.0000     -10.231368      -278.4097
  23   2.0000     -10.223305      -278.1903
  24   2.0000     -10.221523      -278.1418
  25   2.0000     -10.218121      -278.0492
  26   2.0000     -10.217141      -278.0225
  27   2.0000     -10.215752      -277.9847
  28   2.0000     -10.204035      -277.6659
  29   2.0000     -10.196784      -277.4686
  30   2.0000     -10.195119      -277.4233
  31   2.0000      -9.487021      -258.1550
  32   2.0000      -8.135242      -221.3712
  33   2.0000      -7.250284      -197.2903
  34   2.0000      -7.240656      -197.0283
  35   2.0000      -7.240159      -197.0147
  36   2.0000      -6.100753      -166.0099
  37   2.0000      -6.098016      -165.9354
  38   2.0000      -6.097618      -165.9246
  39   2.0000      -1.294014       -35.2119
  40   2.0000      -1.219775       -33.1918
  41   2.0000      -1.217261       -33.1233
  42   2.0000      -1.082583       -29.4586
  43   2.0000      -1.081193       -29.4208
  44   2.0000      -0.995488       -27.0886
  45   2.0000      -0.987668       -26.8758
  46   2.0000      -0.958776       -26.0896
  47   2.0000      -0.941101       -25.6087
  48   2.0000      -0.924343       -25.1526
  49   2.0000      -0.894952       -24.3529
  50   2.0000      -0.890062       -24.2198
  51   2.0000      -0.838946       -22.8289
  52   2.0000      -0.807809       -21.9816
  53   2.0000      -0.799520       -21.7560
  54   2.0000      -0.792004       -21.5515
  55   2.0000      -0.775746       -21.1091
  56   2.0000      -0.775483       -21.1020
  57   2.0000      -0.729795       -19.8587
  58   2.0000      -0.722438       -19.6585
  59   2.0000      -0.694791       -18.9062
  60   2.0000      -0.671833       -18.2815
  61   2.0000      -0.652472       -17.7547
  62   2.0000      -0.640001       -17.4153
  63   2.0000      -0.634155       -17.2562
  64   2.0000      -0.629015       -17.1164
  65   2.0000      -0.612848       -16.6764
  66   2.0000      -0.598275       -16.2799
  67   2.0000      -0.585864       -15.9422
  68   2.0000      -0.584275       -15.8989
  69   2.0000      -0.572805       -15.5868
  70   2.0000      -0.562056       -15.2943
  71   2.0000      -0.542866       -14.7721
  72   2.0000      -0.537704       -14.6317
  73   2.0000      -0.523330       -14.2405
  74   2.0000      -0.514409       -13.9978
  75   2.0000      -0.496878       -13.5207
  76   2.0000      -0.488228       -13.2854
  77   2.0000      -0.479863       -13.0577
  78   2.0000      -0.476735       -12.9726
  79   2.0000      -0.476647       -12.9702
  80   2.0000      -0.469358       -12.7719
  81   2.0000      -0.466839       -12.7033
  82   2.0000      -0.461284       -12.5522
  83   2.0000      -0.460491       -12.5306
  84   2.0000      -0.458290       -12.4707
  85   2.0000      -0.446875       -12.1601
  86   2.0000      -0.443474       -12.0675
  87   2.0000      -0.442299       -12.0356
  88   2.0000      -0.439816       -11.9680
  89   2.0000      -0.433389       -11.7931
  90   2.0000      -0.428488       -11.6598
  91   2.0000      -0.427351       -11.6288
  92   2.0000      -0.423438       -11.5223
  93   2.0000      -0.416577       -11.3356
  94   2.0000      -0.412879       -11.2350
  95   2.0000      -0.411210       -11.1896
  96   2.0000      -0.397375       -10.8131
  97   2.0000      -0.396424       -10.7872
  98   2.0000      -0.392745       -10.6871
  99   2.0000      -0.388207       -10.5636
 100   2.0000      -0.385268       -10.4837
 101   2.0000      -0.376728       -10.2513
 102   2.0000      -0.368865       -10.0373
 103   2.0000      -0.367126        -9.9900
 104   2.0000      -0.341224        -9.2852
 105   2.0000      -0.330883        -9.0038
 106   2.0000      -0.321167        -8.7394
 107   2.0000      -0.316269        -8.6061
 108   2.0000      -0.308769        -8.4020
 109   2.0000      -0.299705        -8.1554
 110   2.0000      -0.286594        -7.7986
 111   2.0000      -0.284651        -7.7457
 112   2.0000      -0.280400        -7.6301
 113   2.0000      -0.278158        -7.5691
 114   2.0000      -0.275952        -7.5090
 115   2.0000      -0.275221        -7.4891
 116   2.0000      -0.273135        -7.4324
 117   2.0000      -0.260240        -7.0815
 118   2.0000      -0.254486        -6.9249
 119   2.0000      -0.243886        -6.6365
 120   0.0000      -0.087293        -2.3754
 121   0.0000      -0.063980        -1.7410
 122   0.0000      -0.053618        -1.4590
 123   0.0000      -0.031227        -0.8497
 124   0.0000      -0.025423        -0.6918

MULLIKEN ATOMIC CHARGES
-----------------------
   0 O :   -0.443588
   1 C :    0.528936
   2 O :   -0.622882
   3 C :    0.084399
   4 C :   -0.149124
   5 C :   -0.110903
   6 C :   -0.153127
   7 S :    1.229267
   8 O :   -0.538471
   9 O :   -0.530862
  10 N :   -0.604157
  11 C :   -0.253012
  12 C :    0.291368
  13 C :   -0.142361
  14 C :   -0.095407
  15 C :   -0.133313
  16 C :    0.024909
  17 N :   -0.414979
  18 C :    0.412249
  19 N :   -0.350148
  20 C :   -0.000902
  21 C :   -0.030056
  22 C :    0.903891
  23 F :   -0.301909
  24 F :   -0.288798
  25 F :   -0.301086
  26 C :   -0.130335
  27 C :   -0.099153
  28 Cl:    0.023017
  29 C :   -0.140676
  30 C :   -0.142111
  31 H :    0.434459
  32 H :    0.173417
  33 H :    0.196822
  34 H :    0.185708
  35 H :    0.186615
  36 H :    0.132453
  37 H :    0.144579
  38 H :    0.137411
  39 H :    0.147339
  40 H :    0.186540
  41 H :    0.188543
  42 H :    0.184848
  43 H :    0.180590
Sum of atomic charges:   -0.0000000

LOEWDIN ATOMIC CHARGES
----------------------
   0 O :   -0.259725
   1 C :    0.180511
   2 O :   -0.333873
   3 C :   -0.035285
   4 C :   -0.099134
   5 C :   -0.085279
   6 C :   -0.177732
   7 S :    1.270782
   8 O :   -0.569472
   9 O :   -0.564457
  10 N :   -0.277196
  11 C :   -0.155061
  12 C :    0.013372
  13 C :   -0.129775
  14 C :   -0.096763
  15 C :   -0.138847
  16 C :   -0.064746
  17 N :   -0.142090
  18 C :    0.064845
  19 N :   -0.095795
  20 C :   -0.043435
  21 C :   -0.079308
  22 C :    0.312134
  23 F :   -0.110247
  24 F :   -0.106855
  25 F :   -0.108753
  26 C :   -0.090765
  27 C :   -0.098388
  28 Cl:    0.058370
  29 C :   -0.099409
  30 C :   -0.089356
  31 H :    0.350079
  32 H :    0.155429
  33 H :    0.167461
  34 H :    0.150430
  35 H :    0.146399
  36 H :    0.134782
  37 H :    0.138939
  38 H :    0.137043
  39 H :    0.134064
  40 H :    0.154341
  41 H :    0.162795
  42 H :    0.159590
  43 H :    0.160378

  Mayer bond orders larger than 0.100000
B(  0-O ,  1-C ) :   1.8635 B(  1-C ,  2-O ) :   1.0262 B(  1-C ,  3-C ) :   1.0066
B(  2-O , 31-H ) :   0.7416 B(  3-C ,  4-C ) :   1.3858 B(  3-C , 30-C ) :   1.3986
B(  4-C ,  5-C ) :   1.4088 B(  4-C , 32-H ) :   0.9151 B(  5-C ,  6-C ) :   1.4012
B(  5-C , 33-H ) :   0.9010 B(  6-C ,  7-S ) :   0.8168 B(  6-C , 29-C ) :   1.3710
B(  7-S ,  8-O ) :   1.6465 B(  7-S ,  9-O ) :   1.6531 B(  7-S , 10-N ) :   0.7715
B( 10-N , 11-C ) :   0.9314 B( 10-N , 18-C ) :   0.9550 B( 11-C , 12-C ) :   0.9414
B( 11-C , 34-H ) :   0.9206 B( 11-C , 35-H ) :   0.9170 B( 12-C , 13-C ) :   1.4034
B( 12-C , 17-N ) :   1.3937 B( 13-C , 14-C ) :   1.4608 B( 13-C , 16-C ) :   0.1005
B( 13-C , 36-H ) :   0.9193 B( 14-C , 15-C ) :   1.4482 B( 14-C , 37-H ) :   0.9277
B( 15-C , 16-C ) :   1.4296 B( 15-C , 38-H ) :   0.9253 B( 16-C , 17-N ) :   1.4178
B( 16-C , 39-H ) :   0.9297 B( 18-C , 19-N ) :   1.3833 B( 18-C , 27-C ) :   1.3325
B( 19-N , 20-C ) :   1.4102 B( 20-C , 21-C ) :   1.3551 B( 20-C , 40-H ) :   0.9169
B( 21-C , 22-C ) :   0.9731 B( 21-C , 26-C ) :   1.4082 B( 22-C , 23-F ) :   0.9501
B( 22-C , 24-F ) :   0.9936 B( 22-C , 25-F ) :   0.9499 B( 26-C , 27-C ) :   1.3990
B( 26-C , 41-H ) :   0.9076 B( 27-C , 28-Cl) :   1.0420 B( 29-C , 30-C ) :   1.4295
B( 29-C , 42-H ) :   0.9106 B( 30-C , 43-H ) :   0.9097

FINAL SINGLE POINT ENERGY     -2353.864167961628

DIPOLE MOMENT
-------------

Method             : SCF
Type of density    : Electron Density
Multiplicity       :   1
Irrep              :   0
Energy             : -2353.8641679616284819 Eh
Relativity type    :
Basis              : AO
                                X                 Y                 Z
Electronic contribution:    -22.850689788      31.421034711       0.144016899
Nuclear contribution   :     22.861929121     -32.618162612      -1.912959119
                        -----------------------------------------
Total Dipole Moment    :      0.011239333      -1.197127902      -1.768942220
                        -----------------------------------------
Magnitude (a.u.)       :      2.135977087
Magnitude (Debye)      :      5.429222287

Rotational constants in cm-1:             0.007170             0.002271             0.001946
Rotational constants in MHz :           214.964404            68.090552            58.346828

                             ****ORCA TERMINATED NORMALLY****
TOTAL RUN TIME: 0 days 0 hours 8 minutes 14 seconds 403 msec
