                         Program Version 6.0.0  -   RELEASE  -
|  1> ! B3LYP 6-31G* SP
|  2>
|  3> * xyz 0 1
|  4> C -3.8265 -0.9474 2.8548
|  5> C -4.8372 -0.5651 1.8237
|  6> O -5.6991 0.4216 1.9842
|  7> C -6.4123 0.5046 0.8857
|  8> C -6.0266 -0.4338 -0.0208
|  9> C -5.0035 -1.1563 0.5695
| 10> C -4.1830 -2.2609 -0.0339
| 11> C -3.0519 -1.6863 -0.8317
| 12> O -3.2610 -1.3287 -2.0220
| 13> N -1.7555 -1.5301 -0.2316
| 14> C -0.6508 -0.8360 -0.8298
| 15> N 0.5735 -0.8027 -0.2627
| 16> C 1.4637 -0.0669 -0.9871
| 17> C 2.8756 0.0898 -0.5481
| 18> C 3.3897 -0.7438 0.4623
| 19> C 4.7154 -0.6156 0.8897
| 20> Cl 5.3177 -1.6724 2.1580
| 21> C 5.5491 0.3508 0.3109
| 22> O 6.8727 0.4793 0.7328
| 23> C 7.9225 -0.2544 0.1097
| 24> C 9.2740 0.1411 0.7216
| 25> C 9.5842 1.6207 0.4586
| 26> C 10.3937 -0.7449 0.1634
| 27> C 5.0442 1.1982 -0.6848
| 28> Cl 6.0629 2.4382 -1.4015
| 29> C 3.7180 1.0682 -1.1112
| 30> C 0.9322 0.4958 -2.1528
| 31> S -0.6871 0.0551 -2.2568
| 32> C -6.6570 -0.5061 -1.2571
| 33> O -6.3133 -1.3807 -2.0987
| 34> N -7.6649 0.3895 -1.5338
| 35> C -8.3769 0.3113 -2.8205
| 36> C -8.0612 1.3103 -0.5786
| 37> O -9.0317 2.0841 -0.8159
| 38> N -7.4118 1.3908 0.6331
| 39> C -7.8313 2.3549 1.6577
| 40> H -4.0197 -0.3923 3.7968
| 41> H -3.8888 -2.0356 3.0632
| 42> H -2.8094 -0.6942 2.4916
| 43> H -4.8189 -2.8972 -0.6841
| 44> H -3.7875 -2.9211 0.7661
| 45> H -1.5956 -1.9537 0.7099
| 46> H 2.7656 -1.5023 0.9185
| 47> H 7.9256 -0.0517 -0.9846
| 48> H 7.7448 -1.3416 0.2645
| 49> H 9.2234 -0.0175 1.8218
| 50> H 9.6310 1.8238 -0.6331
| 51> H 8.8008 2.2663 0.9097
| 52> H 10.5586 1.8951 0.9164
| 53> H 10.1873 -1.8126 0.3913
| 54> H 10.4785 -0.6225 -0.9381
| 55> H 11.3649 -0.4751 0.6306
| 56> H 3.3532 1.7469 -1.8691
| 57> H 1.4544 1.0952 -2.8846
| 58> H -8.7609 1.3066 -3.1305
| 59> H -7.7008 -0.0296 -3.6339
| 60> H -9.2277 -0.3970 -2.7326
| 61> H -7.0304 2.5220 2.4097
| 62> H -8.0575 3.3395 1.1951
| 63> H -8.7377 1.9763 2.1754
| 64> *
| 65>
| 66>                          ****END OF INPUT****

CARTESIAN COORDINATES (ANGSTROEM)
---------------------------------
  C     -3.826500   -0.947400    2.854800
  C     -4.837200   -0.565100    1.823700
  O     -5.699100    0.421600    1.984200
  C     -6.412300    0.504600    0.885700
  C     -6.026600   -0.433800   -0.020800
  C     -5.003500   -1.156300    0.569500
  C     -4.183000   -2.260900   -0.033900
  C     -3.051900   -1.686300   -0.831700
  O     -3.261000   -1.328700   -2.022000
  N     -1.755500   -1.530100   -0.231600
  C     -0.650800   -0.836000   -0.829800
  N      0.573500   -0.802700   -0.262700
  C      1.463700   -0.066900   -0.987100
  C      2.875600    0.089800   -0.548100
  C      3.389700   -0.743800    0.462300
  C      4.715400   -0.615600    0.889700
  Cl     5.317700   -1.672400    2.158000
  C      5.549100    0.350800    0.310900
  O      6.872700    0.479300    0.732800
  C      7.922500   -0.254400    0.109700
  C      9.274000    0.141100    0.721600
  C      9.584200    1.620700    0.458600
  C     10.393700   -0.744900    0.163400
  C      5.044200    1.198200   -0.684800
  Cl     6.062900    2.438200   -1.401500
  C      3.718000    1.068200   -1.111200
  C      0.932200    0.495800   -2.152800
  S     -0.687100    0.055100   -2.256800
  C     -6.657000   -0.506100   -1.257100
  O     -6.313300   -1.380700   -2.098700
  N     -7.664900    0.389500   -1.533800
  C     -8.376900    0.311300   -2.820500
  C     -8.061200    1.310300   -0.578600
  O     -9.031700    2.084100   -0.815900
  N     -7.411800    1.390800    0.633100
  C     -7.831300    2.354900    1.657700
  H     -4.019700   -0.392300    3.796800
  H     -3.888800   -2.035600    3.063200
  H     -2.809400   -0.694200    2.491600
  H     -4.818900   -2.897200   -0.684100
  H     -3.787500   -2.921100    0.766100
  H     -1.595600   -1.953700    0.709900
  H      2.765600   -1.502300    0.918500
  H      7.925600   -0.051700   -0.984600
  H      7.744800   -1.341600    0.264500
  H      9.223400   -0.017500    1.821800
  H      9.631000    1.823800   -0.633100
  H      8.800800    2.266300    0.909700
  H     10.558600    1.895100    0.916400
  H     10.187300   -1.812600    0.391300
  H     10.478500   -0.622500   -0.938100
  H     11.364900   -0.475100    0.630600
  H      3.353200    1.746900   -1.869100
  H      1.454400    1.095200   -2.884600
  H     -8.760900    1.306600   -3.130500
  H     -7.700800   -0.029600   -3.633900
  H     -9.227700   -0.397000   -2.732600
  H     -7.030400    2.522000    2.409700
  H     -8.057500    3.339500    1.195100
  H     -8.737700    1.976300    2.175400

 Total Charge           Charge          ....    0
 Multiplicity           Mult            ....    1
 Number of Electrons    NEL             ....  286
 Basis Dimension        Dim             ....  564

ORBITAL ENERGIES
----------------

  NO   OCC          E(Eh)            E(eV)
   0   2.0000    -101.533484     -2762.8666
   1   2.0000    -101.531934     -2762.8244
   2   2.0000     -88.906482     -2419.2684
   3   2.0000     -19.255501      -523.9688
   4   2.0000     -19.158500      -521.3293
   5   2.0000     -19.130725      -520.5735
   6   2.0000     -19.114126      -520.1218
   7   2.0000     -19.102540      -519.8065
   8   2.0000     -14.414039      -392.2259
   9   2.0000     -14.399982      -391.8434
  10   2.0000     -14.393128      -391.6569
  11   2.0000     -14.335620      -390.0920
  12   2.0000     -10.330427      -281.1052
  13   2.0000     -10.312046      -280.6050
  14   2.0000     -10.300514      -280.2912
  15   2.0000     -10.293957      -280.1128
  16   2.0000     -10.284663      -279.8599
  17   2.0000     -10.262088      -279.2456
  18   2.0000     -10.257327      -279.1161
  19   2.0000     -10.254312      -279.0340
  20   2.0000     -10.252631      -278.9883
  21   2.0000     -10.241465      -278.6844
  22   2.0000     -10.231564      -278.4150
  23   2.0000     -10.228083      -278.3203
  24   2.0000     -10.215734      -277.9843
  25   2.0000     -10.214433      -277.9489
  26   2.0000     -10.213264      -277.9170
  27   2.0000     -10.212817      -277.9049
  28   2.0000     -10.209582      -277.8168
  29   2.0000     -10.205974      -277.7187
  30   2.0000     -10.204607      -277.6815
  31   2.0000     -10.199253      -277.5358
  32   2.0000     -10.188751      -277.2500
  33   2.0000     -10.182105      -277.0692
  34   2.0000     -10.169597      -276.7288
  35   2.0000     -10.159399      -276.4513
  36   2.0000      -9.464640      -257.5459
  37   2.0000      -9.463112      -257.5044
  38   2.0000      -7.982393      -217.2120
  39   2.0000      -7.227950      -196.6825
  40   2.0000      -7.226396      -196.6402
  41   2.0000      -7.218248      -196.4185
  42   2.0000      -7.217801      -196.4063
  43   2.0000      -7.216733      -196.3773
  44   2.0000      -7.216286      -196.3651
  45   2.0000      -5.945530      -161.7861
  46   2.0000      -5.941239      -161.6693
  47   2.0000      -5.939428      -161.6201
  48   2.0000      -1.185384       -32.2559
  49   2.0000      -1.067159       -29.0389
  50   2.0000      -1.047444       -28.5024
  51   2.0000      -1.032486       -28.0954
  52   2.0000      -1.014330       -27.6013
  53   2.0000      -0.980912       -26.6920
  54   2.0000      -0.976520       -26.5725
  55   2.0000      -0.935267       -25.4499
  56   2.0000      -0.920430       -25.0462
  57   2.0000      -0.897435       -24.4204
  58   2.0000      -0.871064       -23.7029
  59   2.0000      -0.856466       -23.3056
  60   2.0000      -0.831123       -22.6160
  61   2.0000      -0.813103       -22.1257
  62   2.0000      -0.811301       -22.0766
  63   2.0000      -0.800977       -21.7957
  64   2.0000      -0.777819       -21.1655
  65   2.0000      -0.765364       -20.8266
  66   2.0000      -0.746606       -20.3162
  67   2.0000      -0.734814       -19.9953
  68   2.0000      -0.726966       -19.7817
  69   2.0000      -0.724041       -19.7022
  70   2.0000      -0.711562       -19.3626
  71   2.0000      -0.674762       -18.3612
  72   2.0000      -0.671926       -18.2840
  73   2.0000      -0.663807       -18.0631
  74   2.0000      -0.636193       -17.3117
  75   2.0000      -0.629140       -17.1198
  76   2.0000      -0.622397       -16.9363
  77   2.0000      -0.612268       -16.6606
  78   2.0000      -0.610415       -16.6102
  79   2.0000      -0.583781       -15.8855
  80   2.0000      -0.577322       -15.7097
  81   2.0000      -0.559370       -15.2212
  82   2.0000      -0.557776       -15.1779
  83   2.0000      -0.538235       -14.6461
  84   2.0000      -0.531847       -14.4723
  85   2.0000      -0.530579       -14.4378
  86   2.0000      -0.522860       -14.2277
  87   2.0000      -0.507966       -13.8224
  88   2.0000      -0.499159       -13.5828
  89   2.0000      -0.494609       -13.4590
  90   2.0000      -0.485605       -13.2140
  91   2.0000      -0.479830       -13.0568
  92   2.0000      -0.472918       -12.8687
  93   2.0000      -0.464425       -12.6377
  94   2.0000      -0.462115       -12.5748
  95   2.0000      -0.458747       -12.4831
  96   2.0000      -0.455111       -12.3842
  97   2.0000      -0.449441       -12.2299
  98   2.0000      -0.447351       -12.1730
  99   2.0000      -0.439774       -11.9668
 100   2.0000      -0.437660       -11.9093
 101   2.0000      -0.436665       -11.8823
 102   2.0000      -0.435142       -11.8408
 103   2.0000      -0.432426       -11.7669
 104   2.0000      -0.430056       -11.7024
 105   2.0000      -0.420557       -11.4439
 106   2.0000      -0.417889       -11.3713
 107   2.0000      -0.412220       -11.2171
 108   2.0000      -0.409321       -11.1382
 109   2.0000      -0.407338       -11.0842
 110   2.0000      -0.406496       -11.0613
 111   2.0000      -0.398438       -10.8421
 112   2.0000      -0.396648       -10.7933
 113   2.0000      -0.388320       -10.5667
 114   2.0000      -0.385573       -10.4920
 115   2.0000      -0.379656       -10.3310
 116   2.0000      -0.378692       -10.3047
 117   2.0000      -0.376693       -10.2503
 118   2.0000      -0.371740       -10.1156
 119   2.0000      -0.365434        -9.9440
 120   2.0000      -0.363524        -9.8920
 121   2.0000      -0.359397        -9.7797
 122   2.0000      -0.359187        -9.7740
 123   2.0000      -0.330564        -8.9951
 124   2.0000      -0.329537        -8.9672
 125   2.0000      -0.327303        -8.9064
 126   2.0000      -0.325641        -8.8611
 127   2.0000      -0.322453        -8.7744
 128   2.0000      -0.310789        -8.4570
 129   2.0000      -0.310246        -8.4422
 130   2.0000      -0.308905        -8.4057
 131   2.0000      -0.291756        -7.9391
 132   2.0000      -0.285723        -7.7749
 133   2.0000      -0.280959        -7.6453
 134   2.0000      -0.275001        -7.4832
 135   2.0000      -0.271773        -7.3953
 136   2.0000      -0.265155        -7.2152
 137   2.0000      -0.256395        -6.9769
 138   2.0000      -0.251826        -6.8525
 139   2.0000      -0.246617        -6.7108
 140   2.0000      -0.241016        -6.5584
 141   2.0000      -0.215005        -5.8506
 142   2.0000      -0.208866        -5.6835
 143   0.0000      -0.042529        -1.1573
 144   0.0000      -0.031881        -0.8675
 145   0.0000      -0.020263        -0.5514
 146   0.0000      -0.016474        -0.4483
 147   0.0000      -0.006128        -0.1668

MULLIKEN ATOMIC CHARGES
-----------------------
   0 C :   -0.544307
   1 C :    0.261412
   2 O :   -0.405721
   3 C :    0.481877
   4 C :    0.041696
   5 C :    0.026133
   6 C :   -0.434088
   7 C :    0.571028
   8 O :   -0.428766
   9 N :   -0.650651
  10 C :    0.259926
  11 N :   -0.438810
  12 C :    0.211064
  13 C :    0.146046
  14 C :   -0.188710
  15 C :   -0.107327
  16 Cl:    0.003800
  17 C :    0.353301
  18 O :   -0.510729
  19 C :   -0.005275
  20 C :   -0.090142
  21 C :   -0.436152
  22 C :   -0.442231
  23 C :   -0.112931
  24 Cl:    0.004999
  25 C :   -0.197009
  26 C :   -0.404820
  27 S :    0.327934
  28 C :    0.509144
  29 O :   -0.489237
  30 N :   -0.483115
  31 C :   -0.315266
  32 C :    0.675823
  33 O :   -0.505894
  34 N :   -0.503439
  35 C :   -0.328490
  36 H :    0.175452
  37 H :    0.176928
  38 H :    0.173767
  39 H :    0.224635
  40 H :    0.139641
  41 H :    0.350810
  42 H :    0.173207
  43 H :    0.128779
  44 H :    0.132574
  45 H :    0.138408
  46 H :    0.135404
  47 H :    0.164365
  48 H :    0.133965
  49 H :    0.140574
  50 H :    0.139863
  51 H :    0.146936
  52 H :    0.151374
  53 H :    0.184595
  54 H :    0.192581
  55 H :    0.200303
  56 H :    0.175105
  57 H :    0.180168
  58 H :    0.204457
  59 H :    0.185037
Sum of atomic charges:    0.0000000

LOEWDIN ATOMIC CHARGES
----------------------
   0 C :   -0.364233
   1 C :    0.015608
   2 O :   -0.001863
   3 C :    0.091602
   4 C :   -0.105838
   5 C :   -0.040710
   6 C :   -0.237135
   7 C :    0.156345
   8 O :   -0.241842
   9 N :   -0.204566
  10 C :   -0.079472
  11 N :   -0.189991
  12 C :   -0.007828
  13 C :   -0.013075
  14 C :   -0.119983
  15 C :   -0.098038
  16 Cl:    0.050183
  17 C :    0.061694
  18 O :   -0.191981
  19 C :   -0.079766
  20 C :   -0.134352
  21 C :   -0.354954
  22 C :   -0.352127
  23 C :   -0.098313
  24 Cl:    0.050652
  25 C :   -0.129413
  26 C :   -0.349094
  27 S :    0.435556
  28 C :    0.110756
  29 O :   -0.288214
  30 N :   -0.028760
  31 C :   -0.259673
  32 C :    0.143628
  33 O :   -0.314693
  34 N :   -0.025184
  35 C :   -0.259860
  36 H :    0.148330
  37 H :    0.145082
  38 H :    0.140897
  39 H :    0.178829
  40 H :    0.127981
  41 H :    0.271054
  42 H :    0.157594
  43 H :    0.109900
  44 H :    0.111165
  45 H :    0.124623
  46 H :    0.120104
  47 H :    0.133239
  48 H :    0.119863
  49 H :    0.121883
  50 H :    0.121576
  51 H :    0.127455
  52 H :    0.145113
  53 H :    0.162167
  54 H :    0.151223
  55 H :    0.155274
  56 H :    0.138920
  57 H :    0.143637
  58 H :    0.157131
  59 H :    0.141893

  Mayer bond orders larger than 0.100000
B(  0-C ,  1-C ) :   1.0258 B(  0-C , 36-H ) :   0.9363 B(  0-C , 37-H ) :   0.9315
B(  0-C , 38-H ) :   0.9245 B(  1-C ,  2-O ) :   0.9905 B(  1-C ,  5-C ) :   1.5409
B(  2-O ,  3-C ) :   1.0655 B(  3-C ,  4-C ) :   1.3757 B(  3-C , 34-N ) :   0.9764
B(  4-C ,  5-C ) :   1.2983 B(  4-C , 28-C ) :   1.0778 B(  5-C ,  6-C ) :   0.9973
B(  6-C ,  7-C ) :   0.9523 B(  6-C , 39-H ) :   0.8912 B(  6-C , 40-H ) :   0.9181
B(  7-C ,  8-O ) :   1.8445 B(  7-C ,  9-N ) :   1.0078 B(  9-N , 10-C ) :   0.9458
B(  9-N , 41-H ) :   0.8074 B( 10-C , 11-N ) :   1.4771 B( 10-C , 26-C ) :   0.1070
B( 10-C , 27-S ) :   1.1877 B( 11-N , 12-C ) :   1.2911 B( 12-C , 13-C ) :   1.0584
B( 12-C , 26-C ) :   1.5160 B( 13-C , 14-C ) :   1.3913 B( 13-C , 25-C ) :   1.3940
B( 14-C , 15-C ) :   1.3726 B( 14-C , 42-H ) :   0.9044 B( 15-C , 16-Cl) :   1.0373
B( 15-C , 17-C ) :   1.3371 B( 17-C , 18-O ) :   0.9697 B( 17-C , 23-C ) :   1.3341
B( 18-O , 19-C ) :   0.8690 B( 19-C , 20-C ) :   1.0042 B( 19-C , 43-H ) :   0.9178
B( 19-C , 44-H ) :   0.9226 B( 20-C , 21-C ) :   1.0110 B( 20-C , 22-C ) :   0.9989
B( 20-C , 45-H ) :   0.9285 B( 21-C , 46-H ) :   0.9474 B( 21-C , 47-H ) :   0.9419
B( 21-C , 48-H ) :   0.9493 B( 22-C , 49-H ) :   0.9478 B( 22-C , 50-H ) :   0.9467
B( 22-C , 51-H ) :   0.9485 B( 23-C , 24-Cl) :   1.0381 B( 23-C , 25-C ) :   1.3945
B( 25-C , 52-H ) :   0.9117 B( 26-C , 27-S ) :   1.1081 B( 26-C , 53-H ) :   0.9009
B( 28-C , 29-O ) :   1.7864 B( 28-C , 30-N ) :   0.9607 B( 30-N , 31-C ) :   0.9184
B( 30-N , 32-C ) :   1.0473 B( 31-C , 54-H ) :   0.9270 B( 31-C , 55-H ) :   0.9229
B( 31-C , 56-H ) :   0.9412 B( 32-C , 33-O ) :   1.7928 B( 32-C , 34-N ) :   1.0418
B( 34-N , 35-C ) :   0.9274 B( 35-C , 57-H ) :   0.9312 B( 35-C , 58-H ) :   0.9267
B( 35-C , 59-H ) :   0.9350

FINAL SINGLE POINT ENERGY     -2841.606660205292

DIPOLE MOMENT
-------------

Method             : SCF
Type of density    : Electron Density
Multiplicity       :   1
Irrep              :   0
Energy             : -2841.6066602052924281 Eh
Relativity type    :
Basis              : AO
                                X                 Y                 Z
Electronic contribution:    -10.165256473       0.453028915      -5.893411099
Nuclear contribution   :      9.728508914      -0.610741902       7.532192725
                        -----------------------------------------
Total Dipole Moment    :     -0.436747558      -0.157712987       1.638781626
                        -----------------------------------------
Magnitude (a.u.)       :      1.703298868
Magnitude (Debye)      :      4.329441656

Rotational constants in cm-1:             0.008244             0.000843             0.000825
Rotational constants in MHz :           247.159144            25.286508            24.730613

                             ****ORCA TERMINATED NORMALLY****
TOTAL RUN TIME: 0 days 0 hours 6 minutes 40 seconds 343 msec
