                         Program Version 6.0.0  -   RELEASE  -
|  1> ! B3LYP 6-31G* SP
|  2>
|  3> * xyz 0 1
|  4> C 8.4947 -0.2899 2.4505
|  5> C 7.1674 -0.0326 1.8005
|  6> C 6.2583 -1.0817 1.6090
|  7> C 5.0378 -0.8504 0.9682
|  8> C 4.7056 0.4338 0.4973
|  9> C 3.4021 0.6572 -0.1823
| 10> C 2.8584 1.9179 -0.4542
| 11> S 1.3722 1.6972 -1.2088
| 12> C 1.4796 0.0182 -1.1716
| 13> N 0.4809 -0.9041 -1.6293
| 14> C -0.7037 -0.5289 -2.3493
| 15> O -0.7831 0.5965 -2.9126
| 16> C -1.8317 -1.5101 -2.5012
| 17> C -3.1752 -0.8528 -2.2323
| 18> C -3.9601 -0.5639 -3.3597
| 19> C -5.1893 0.0605 -3.2342
| 20> C -5.6670 0.4208 -1.9835
| 21> C -4.9184 0.1668 -0.8092
| 22> C -3.6519 -0.4764 -0.9284
| 23> C -2.9269 -0.7046 0.2667
| 24> O -1.8210 -1.3082 0.2393
| 25> N -3.4156 -0.2800 1.4712
| 26> C -2.6382 -0.5265 2.7021
| 27> C -4.6517 0.2983 1.5572
| 28> O -5.1056 0.6193 2.6930
| 29> N -5.4017 0.5288 0.4315
| 30> C -6.7285 1.1713 0.5629
| 31> N 2.6217 -0.3879 -0.5789
| 32> C 5.6356 1.4779 0.6717
| 33> C 6.8559 1.2438 1.3128
| 34> H 8.4190 -1.1226 3.1823
| 35> H 9.2407 -0.5573 1.6726
| 36> H 8.8456 0.6136 2.9937
| 37> H 6.4930 -2.0804 1.9569
| 38> H 4.3525 -1.6799 0.8455
| 39> H 3.2853 2.8796 -0.2083
| 40> H 0.6147 -1.9122 -1.3906
| 41> H -1.7843 -1.9137 -3.5360
| 42> H -1.6971 -2.3997 -1.8527
| 43> H -3.6169 -0.8204 -4.3547
| 44> H -5.7783 0.2714 -4.1179
| 45> H -6.6314 0.9066 -1.9580
| 46> H -2.8396 0.2470 3.4736
| 47> H -1.5453 -0.4817 2.5070
| 48> H -2.8955 -1.5261 3.1113
| 49> H -7.0118 1.3903 1.6125
| 50> H -7.5157 0.5018 0.1556
| 51> H -6.7346 2.1407 0.0203
| 52> H 5.4386 2.4732 0.3004
| 53> H 7.5601 2.0593 1.4260
| 54> *
| 55>
| 56>                          ****END OF INPUT****

CARTESIAN COORDINATES (ANGSTROEM)
---------------------------------
  C      8.494700   -0.289900    2.450500
  C      7.167400   -0.032600    1.800500
  C      6.258300   -1.081700    1.609000
  C      5.037800   -0.850400    0.968200
  C      4.705600    0.433800    0.497300
  C      3.402100    0.657200   -0.182300
  C      2.858400    1.917900   -0.454200
  S      1.372200    1.697200   -1.208800
  C      1.479600    0.018200   -1.171600
  N      0.480900   -0.904100   -1.629300
  C     -0.703700   -0.528900   -2.349300
  O     -0.783100    0.596500   -2.912600
  C     -1.831700   -1.510100   -2.501200
  C     -3.175200   -0.852800   -2.232300
  C     -3.960100   -0.563900   -3.359700
  C     -5.189300    0.060500   -3.234200
  C     -5.667000    0.420800   -1.983500
  C     -4.918400    0.166800   -0.809200
  C     -3.651900   -0.476400   -0.928400
  C     -2.926900   -0.704600    0.266700
  O     -1.821000   -1.308200    0.239300
  N     -3.415600   -0.280000    1.471200
  C     -2.638200   -0.526500    2.702100
  C     -4.651700    0.298300    1.557200
  O     -5.105600    0.619300    2.693000
  N     -5.401700    0.528800    0.431500
  C     -6.728500    1.171300    0.562900
  N      2.621700   -0.387900   -0.578900
  C      5.635600    1.477900    0.671700
  C      6.855900    1.243800    1.312800
  H      8.419000   -1.122600    3.182300
  H      9.240700   -0.557300    1.672600
  H      8.845600    0.613600    2.993700
  H      6.493000   -2.080400    1.956900
  H      4.352500   -1.679900    0.845500
  H      3.285300    2.879600   -0.208300
  H      0.614700   -1.912200   -1.390600
  H     -1.784300   -1.913700   -3.536000
  H     -1.697100   -2.399700   -1.852700
  H     -3.616900   -0.820400   -4.354700
  H     -5.778300    0.271400   -4.117900
  H     -6.631400    0.906600   -1.958000
  H     -2.839600    0.247000    3.473600
  H     -1.545300   -0.481700    2.507000
  H     -2.895500   -1.526100    3.111300
  H     -7.011800    1.390300    1.612500
  H     -7.515700    0.501800    0.155600
  H     -6.734600    2.140700    0.020300
  H      5.438600    2.473200    0.300400
  H      7.560100    2.059300    1.426000

 Total Charge           Charge          ....    0
 Multiplicity           Mult            ....    1
 Number of Electrons    NEL             ....  220
 Basis Dimension        Dim             ....  464

ORBITAL ENERGIES
----------------

  NO   OCC          E(Eh)            E(eV)
   0   2.0000     -88.888160     -2418.7698
   1   2.0000     -19.122147      -520.3401
   2   2.0000     -19.115588      -520.1616
   3   2.0000     -19.109928      -520.0076
   4   2.0000     -14.403269      -391.9329
   5   2.0000     -14.396947      -391.7609
   6   2.0000     -14.378989      -391.2722
   7   2.0000     -14.315422      -389.5424
   8   2.0000     -10.325877      -280.9814
   9   2.0000     -10.302625      -280.3487
  10   2.0000     -10.296307      -280.1768
  11   2.0000     -10.275169      -279.6016
  12   2.0000     -10.259781      -279.1828
  13   2.0000     -10.233979      -278.4807
  14   2.0000     -10.226033      -278.2645
  15   2.0000     -10.218308      -278.0543
  16   2.0000     -10.214430      -277.9488
  17   2.0000     -10.210020      -277.8288
  18   2.0000     -10.205304      -277.7004
  19   2.0000     -10.204866      -277.6885
  20   2.0000     -10.201413      -277.5945
  21   2.0000     -10.193550      -277.3806
  22   2.0000     -10.189901      -277.2813
  23   2.0000     -10.182461      -277.0789
  24   2.0000     -10.178747      -276.9778
  25   2.0000     -10.173601      -276.8378
  26   2.0000     -10.169781      -276.7338
  27   2.0000     -10.169753      -276.7330
  28   2.0000     -10.167814      -276.6803
  29   2.0000     -10.167381      -276.6685
  30   2.0000      -7.964457      -216.7239
  31   2.0000      -5.927582      -161.2977
  32   2.0000      -5.923372      -161.1831
  33   2.0000      -5.921415      -161.1299
  34   2.0000      -1.069335       -29.0981
  35   2.0000      -1.025650       -27.9093
  36   2.0000      -1.021721       -27.8024
  37   2.0000      -0.970996       -26.4221
  38   2.0000      -0.962438       -26.1893
  39   2.0000      -0.941075       -25.6079
  40   2.0000      -0.900947       -24.5160
  41   2.0000      -0.870143       -23.6778
  42   2.0000      -0.842618       -22.9288
  43   2.0000      -0.798730       -21.7345
  44   2.0000      -0.794369       -21.6159
  45   2.0000      -0.788062       -21.4443
  46   2.0000      -0.772023       -21.0078
  47   2.0000      -0.746367       -20.3097
  48   2.0000      -0.733037       -19.9469
  49   2.0000      -0.730808       -19.8863
  50   2.0000      -0.718829       -19.5603
  51   2.0000      -0.707017       -19.2389
  52   2.0000      -0.666451       -18.1350
  53   2.0000      -0.656361       -17.8605
  54   2.0000      -0.653394       -17.7797
  55   2.0000      -0.622601       -16.9418
  56   2.0000      -0.606795       -16.5117
  57   2.0000      -0.592542       -16.1239
  58   2.0000      -0.587849       -15.9962
  59   2.0000      -0.572544       -15.5797
  60   2.0000      -0.557095       -15.1593
  61   2.0000      -0.549089       -14.9415
  62   2.0000      -0.541855       -14.7446
  63   2.0000      -0.516059       -14.0427
  64   2.0000      -0.504517       -13.7286
  65   2.0000      -0.501422       -13.6444
  66   2.0000      -0.495935       -13.4951
  67   2.0000      -0.487059       -13.2536
  68   2.0000      -0.476907       -12.9773
  69   2.0000      -0.473473       -12.8839
  70   2.0000      -0.462259       -12.5787
  71   2.0000      -0.460643       -12.5347
  72   2.0000      -0.447133       -12.1671
  73   2.0000      -0.444809       -12.1039
  74   2.0000      -0.443598       -12.0709
  75   2.0000      -0.439613       -11.9625
  76   2.0000      -0.430639       -11.7183
  77   2.0000      -0.426205       -11.5976
  78   2.0000      -0.415472       -11.3056
  79   2.0000      -0.412460       -11.2236
  80   2.0000      -0.411186       -11.1889
  81   2.0000      -0.407268       -11.0823
  82   2.0000      -0.404784       -11.0147
  83   2.0000      -0.401090       -10.9142
  84   2.0000      -0.398841       -10.8530
  85   2.0000      -0.394269       -10.7286
  86   2.0000      -0.388023       -10.5586
  87   2.0000      -0.385412       -10.4876
  88   2.0000      -0.376566       -10.2469
  89   2.0000      -0.372234       -10.1290
  90   2.0000      -0.371856       -10.1187
  91   2.0000      -0.362918        -9.8755
  92   2.0000      -0.359923        -9.7940
  93   2.0000      -0.352902        -9.6029
  94   2.0000      -0.340777        -9.2730
  95   2.0000      -0.328282        -8.9330
  96   2.0000      -0.324381        -8.8268
  97   2.0000      -0.315088        -8.5740
  98   2.0000      -0.298596        -8.1252
  99   2.0000      -0.275783        -7.5044
 100   2.0000      -0.274191        -7.4611
 101   2.0000      -0.268101        -7.2954
 102   2.0000      -0.264823        -7.2062
 103   2.0000      -0.261286        -7.1100
 104   2.0000      -0.254390        -6.9223
 105   2.0000      -0.251440        -6.8420
 106   2.0000      -0.237613        -6.4658
 107   2.0000      -0.231971        -6.3123
 108   2.0000      -0.231180        -6.2907
 109   2.0000      -0.192536        -5.2392
 110   0.0000      -0.059496        -1.6190
 111   0.0000      -0.027668        -0.7529
 112   0.0000      -0.017463        -0.4752
 113   0.0000      -0.007018        -0.1910
 114   0.0000       0.010884         0.2962

MULLIKEN ATOMIC CHARGES
-----------------------
   0 C :   -0.523073
   1 C :    0.174409
   2 C :   -0.173830
   3 C :   -0.169579
   4 C :    0.118660
   5 C :    0.212867
   6 C :   -0.408019
   7 S :    0.301198
   8 C :    0.264187
   9 N :   -0.626891
  10 C :    0.585187
  11 O :   -0.463055
  12 C :   -0.436991
  13 C :    0.134186
  14 C :   -0.178498
  15 C :   -0.105224
  16 C :   -0.196264
  17 C :    0.319317
  18 C :    0.009656
  19 C :    0.509825
  20 O :   -0.508977
  21 N :   -0.463750
  22 C :   -0.314965
  23 C :    0.672333
  24 O :   -0.510353
  25 N :   -0.511419
  26 C :   -0.336265
  27 N :   -0.438012
  28 C :   -0.179990
  29 C :   -0.178425
  30 H :    0.151165
  31 H :    0.162850
  32 H :    0.150471
  33 H :    0.119046
  34 H :    0.145021
  35 H :    0.175490
  36 H :    0.356343
  37 H :    0.175714
  38 H :    0.180345
  39 H :    0.140292
  40 H :    0.144894
  41 H :    0.141445
  42 H :    0.196929
  43 H :    0.197234
  44 H :    0.176368
  45 H :    0.224122
  46 H :    0.170982
  47 H :    0.174119
  48 H :    0.120179
  49 H :    0.118747
Sum of atomic charges:   -0.0000000

LOEWDIN ATOMIC CHARGES
----------------------
   0 C :   -0.351819
   1 C :   -0.022431
   2 C :   -0.136579
   3 C :   -0.114369
   4 C :   -0.024294
   5 C :   -0.005491
   6 C :   -0.357053
   7 S :    0.415275
   8 C :   -0.076549
   9 N :   -0.188815
  10 C :    0.159095
  11 O :   -0.266211
  12 C :   -0.241706
  13 C :    0.046194
  14 C :   -0.135161
  15 C :   -0.097479
  16 C :   -0.163645
  17 C :    0.054136
  18 C :   -0.072309
  19 C :    0.115841
  20 O :   -0.295847
  21 N :   -0.019073
  22 C :   -0.258369
  23 C :    0.137110
  24 O :   -0.319228
  25 N :   -0.026548
  26 C :   -0.265225
  27 N :   -0.188678
  28 C :   -0.124409
  29 C :   -0.137107
  30 H :    0.130091
  31 H :    0.136844
  32 H :    0.129714
  33 H :    0.128177
  34 H :    0.141975
  35 H :    0.157938
  36 H :    0.276992
  37 H :    0.147677
  38 H :    0.148732
  39 H :    0.138878
  40 H :    0.140891
  41 H :    0.140490
  42 H :    0.153527
  43 H :    0.153288
  44 H :    0.140125
  45 H :    0.167973
  46 H :    0.134886
  47 H :    0.136165
  48 H :    0.128269
  49 H :    0.128110

  Mayer bond orders larger than 0.100000
B(  0-C ,  1-C ) :   0.9876 B(  0-C , 30-H ) :   0.9468 B(  0-C , 31-H ) :   0.9338
B(  0-C , 32-H ) :   0.9465 B(  1-C ,  2-C ) :   1.4335 B(  1-C , 29-C ) :   1.4301
B(  2-C ,  3-C ) :   1.4151 B(  2-C , 33-H ) :   0.9274 B(  3-C ,  4-C ) :   1.3989
B(  3-C , 34-H ) :   0.9139 B(  4-C ,  5-C ) :   1.0552 B(  4-C , 28-C ) :   1.4015
B(  5-C ,  6-C ) :   1.5176 B(  5-C , 27-N ) :   1.2878 B(  6-C ,  7-S ) :   1.1024
B(  6-C ,  8-C ) :   0.1089 B(  6-C , 35-H ) :   0.9025 B(  7-S ,  8-C ) :   1.1785
B(  8-C ,  9-N ) :   0.9529 B(  8-C , 27-N ) :   1.4796 B(  9-N , 10-C ) :   1.0275
B(  9-N , 36-H ) :   0.8091 B( 10-C , 11-O ) :   1.8297 B( 10-C , 12-C ) :   0.9394
B( 12-C , 13-C ) :   0.9977 B( 12-C , 37-H ) :   0.9110 B( 12-C , 38-H ) :   0.9025
B( 13-C , 14-C ) :   1.4425 B( 13-C , 18-C ) :   1.3567 B( 14-C , 15-C ) :   1.4039
B( 14-C , 39-H ) :   0.9213 B( 15-C , 16-C ) :   1.4704 B( 15-C , 40-H ) :   0.9256
B( 16-C , 17-C ) :   1.3441 B( 16-C , 41-H ) :   0.9144 B( 17-C , 18-C ) :   1.2865
B( 17-C , 25-N ) :   0.9693 B( 18-C , 19-C ) :   1.0640 B( 19-C , 20-O ) :   1.7326
B( 19-C , 21-N ) :   1.0039 B( 21-N , 22-C ) :   0.9165 B( 21-N , 23-C ) :   1.0391
B( 22-C , 42-H ) :   0.9251 B( 22-C , 43-H ) :   0.9239 B( 22-C , 44-H ) :   0.9410
B( 23-C , 24-O ) :   1.7849 B( 23-C , 25-N ) :   1.0463 B( 25-N , 26-C ) :   0.9345
B( 26-C , 45-H ) :   0.9139 B( 26-C , 46-H ) :   0.9320 B( 26-C , 47-H ) :   0.9317
B( 28-C , 29-C ) :   1.4345 B( 28-C , 48-H ) :   0.9210 B( 29-C , 49-H ) :   0.9266

FINAL SINGLE POINT ENERGY     -1692.453753584947

DIPOLE MOMENT
-------------

Method             : SCF
Type of density    : Electron Density
Multiplicity       :   1
Irrep              :   0
Energy             : -1692.4537535849467531 Eh
Relativity type    :
Basis              : AO
                                X                 Y                 Z
Electronic contribution:    -10.727561835       2.529763225     -10.252062942
Nuclear contribution   :      9.335140328      -2.913157512       9.740477665
                        -----------------------------------------
Total Dipole Moment    :     -1.392421508      -0.383394288      -0.511585277
                        -----------------------------------------
Magnitude (a.u.)       :      1.532171117
Magnitude (Debye)      :      3.894469480

Rotational constants in cm-1:             0.010688             0.001954             0.001788
Rotational constants in MHz :           320.417190            58.566712            53.609778

                             ****ORCA TERMINATED NORMALLY****
TOTAL RUN TIME: 0 days 0 hours 4 minutes 35 seconds 398 msec
