                         Program Version 6.0.0  -   RELEASE  -
|  1> ! B3LYP 6-31G* SP
|  2>
|  3> * xyz 0 1
|  4> C -1.9266 6.6246 0.7671
|  5> N -1.4991 5.2867 1.1629
|  6> C -1.7273 4.7256 2.3735
|  7> C -1.1886 3.4494 2.4341
|  8> C -0.6117 3.2390 1.1992
|  9> C 0.1009 2.1488 0.6977
| 10> N 0.3024 0.9560 1.4683
| 11> C -0.8419 0.1197 1.8502
| 12> C -1.0935 -0.9350 0.8049
| 13> C -0.8808 -2.2928 1.0905
| 14> C -1.0367 -3.2565 0.0898
| 15> C -1.4136 -2.8846 -1.2055
| 16> O -1.5312 -3.8914 -2.1771
| 17> C -1.8639 -3.6763 -3.5499
| 18> F -3.1216 -3.1035 -3.6535
| 19> F -1.8715 -4.8930 -4.2060
| 20> F -0.9204 -2.8547 -4.1480
| 21> C -1.6578 -1.5257 -1.4847
| 22> C -1.5061 -0.5627 -0.4838
| 23> S 1.9195 0.3521 1.6862
| 24> O 2.9164 1.4044 1.2910
| 25> O 2.1302 0.0253 3.1378
| 26> C 2.1768 -1.0789 0.6889
| 27> C 2.1285 -0.9741 -0.7076
| 28> C 2.2674 -2.1133 -1.5074
| 29> C 2.4592 -3.3765 -0.9192
| 30> C 2.5889 -4.5885 -1.7583
| 31> O 2.5146 -4.5067 -3.0148
| 32> O 2.7901 -5.8341 -1.1674
| 33> C 2.5262 -3.4729 0.4834
| 34> C 2.3870 -2.3321 1.2814
| 35> N 0.6152 2.2451 -0.5618
| 36> C 0.4413 3.3568 -1.3368
| 37> C -0.2831 4.4630 -0.8563
| 38> Cl -0.4639 5.8733 -1.8913
| 39> C -0.8049 4.3720 0.4457
| 40> H -2.5108 7.1040 1.5804
| 41> H -1.0375 7.2568 0.5582
| 42> H -2.5737 6.5633 -0.1314
| 43> H -2.2559 5.2150 3.1804
| 44> H -1.2041 2.7747 3.2787
| 45> H -0.6484 -0.3417 2.8431
| 46> H -1.7598 0.7370 1.9607
| 47> H -0.5650 -2.6045 2.0787
| 48> H -0.8472 -4.2980 0.3177
| 49> H -1.9582 -1.1998 -2.4709
| 50> H -1.6958 0.4773 -0.7191
| 51> H 1.9738 -0.0123 -1.1797
| 52> H 2.2165 -2.0062 -2.5848
| 53> H 2.8780 -6.6705 -1.7319
| 54> H 2.6733 -4.4311 0.9669
| 55> H 2.4263 -2.4330 2.3590
| 56> H 0.8684 3.3805 -2.3300
| 57> *
| 58>
| 59>                          ****END OF INPUT****

CARTESIAN COORDINATES (ANGSTROEM)
---------------------------------
  C     -1.926600    6.624600    0.767100
  N     -1.499100    5.286700    1.162900
  C     -1.727300    4.725600    2.373500
  C     -1.188600    3.449400    2.434100
  C     -0.611700    3.239000    1.199200
  C      0.100900    2.148800    0.697700
  N      0.302400    0.956000    1.468300
  C     -0.841900    0.119700    1.850200
  C     -1.093500   -0.935000    0.804900
  C     -0.880800   -2.292800    1.090500
  C     -1.036700   -3.256500    0.089800
  C     -1.413600   -2.884600   -1.205500
  O     -1.531200   -3.891400   -2.177100
  C     -1.863900   -3.676300   -3.549900
  F     -3.121600   -3.103500   -3.653500
  F     -1.871500   -4.893000   -4.206000
  F     -0.920400   -2.854700   -4.148000
  C     -1.657800   -1.525700   -1.484700
  C     -1.506100   -0.562700   -0.483800
  S      1.919500    0.352100    1.686200
  O      2.916400    1.404400    1.291000
  O      2.130200    0.025300    3.137800
  C      2.176800   -1.078900    0.688900
  C      2.128500   -0.974100   -0.707600
  C      2.267400   -2.113300   -1.507400
  C      2.459200   -3.376500   -0.919200
  C      2.588900   -4.588500   -1.758300
  O      2.514600   -4.506700   -3.014800
  O      2.790100   -5.834100   -1.167400
  C      2.526200   -3.472900    0.483400
  C      2.387000   -2.332100    1.281400
  N      0.615200    2.245100   -0.561800
  C      0.441300    3.356800   -1.336800
  C     -0.283100    4.463000   -0.856300
  Cl    -0.463900    5.873300   -1.891300
  C     -0.804900    4.372000    0.445700
  H     -2.510800    7.104000    1.580400
  H     -1.037500    7.256800    0.558200
  H     -2.573700    6.563300   -0.131400
  H     -2.255900    5.215000    3.180400
  H     -1.204100    2.774700    3.278700
  H     -0.648400   -0.341700    2.843100
  H     -1.759800    0.737000    1.960700
  H     -0.565000   -2.604500    2.078700
  H     -0.847200   -4.298000    0.317700
  H     -1.958200   -1.199800   -2.470900
  H     -1.695800    0.477300   -0.719100
  H      1.973800   -0.012300   -1.179700
  H      2.216500   -2.006200   -2.584800
  H      2.878000   -6.670500   -1.731900
  H      2.673300   -4.431100    0.966900
  H      2.426300   -2.433000    2.359000
  H      0.868400    3.380500   -2.330000

 Total Charge           Charge          ....    0
 Multiplicity           Mult            ....    1
 Number of Electrons    NEL             ....  276
 Basis Dimension        Dim             ....  546

ORBITAL ENERGIES
----------------

  NO   OCC          E(Eh)            E(eV)
   0   2.0000    -101.542620     -2763.1152
   1   2.0000     -89.095384     -2424.4086
   2   2.0000     -24.739174      -673.1871
   3   2.0000     -24.738063      -673.1569
   4   2.0000     -24.735412      -673.0848
   5   2.0000     -19.212654      -522.8029
   6   2.0000     -19.190774      -522.2075
   7   2.0000     -19.131897      -520.6054
   8   2.0000     -19.124849      -520.4136
   9   2.0000     -19.119224      -520.2605
  10   2.0000     -14.405909      -392.0047
  11   2.0000     -14.379112      -391.2755
  12   2.0000     -14.334538      -390.0626
  13   2.0000     -10.502639      -285.7913
  14   2.0000     -10.329207      -281.0720
  15   2.0000     -10.269570      -279.4492
  16   2.0000     -10.269372      -279.4438
  17   2.0000     -10.256163      -279.0844
  18   2.0000     -10.243844      -278.7492
  19   2.0000     -10.240320      -278.6533
  20   2.0000     -10.239961      -278.6435
  21   2.0000     -10.234741      -278.5015
  22   2.0000     -10.229012      -278.3456
  23   2.0000     -10.227026      -278.2915
  24   2.0000     -10.224374      -278.2194
  25   2.0000     -10.212399      -277.8935
  26   2.0000     -10.209715      -277.8205
  27   2.0000     -10.209171      -277.8057
  28   2.0000     -10.208658      -277.7917
  29   2.0000     -10.199726      -277.5486
  30   2.0000     -10.199316      -277.5375
  31   2.0000     -10.198430      -277.5134
  32   2.0000     -10.197324      -277.4833
  33   2.0000     -10.196399      -277.4581
  34   2.0000     -10.194770      -277.4138
  35   2.0000     -10.180168      -277.0165
  36   2.0000      -9.474066      -257.8024
  37   2.0000      -8.130995      -221.2556
  38   2.0000      -7.237214      -196.9346
  39   2.0000      -7.227654      -196.6745
  40   2.0000      -7.227354      -196.6663
  41   2.0000      -6.096302      -165.8888
  42   2.0000      -6.093836      -165.8217
  43   2.0000      -6.093579      -165.8147
  44   2.0000      -1.300612       -35.3915
  45   2.0000      -1.222560       -33.2675
  46   2.0000      -1.220663       -33.2159
  47   2.0000      -1.081682       -29.4341
  48   2.0000      -1.080631       -29.4055
  49   2.0000      -1.074885       -29.2491
  50   2.0000      -1.028127       -27.9768
  51   2.0000      -0.988918       -26.9098
  52   2.0000      -0.965170       -26.2636
  53   2.0000      -0.957606       -26.0578
  54   2.0000      -0.917755       -24.9734
  55   2.0000      -0.881700       -23.9923
  56   2.0000      -0.876573       -23.8528
  57   2.0000      -0.864866       -23.5342
  58   2.0000      -0.838077       -22.8052
  59   2.0000      -0.799633       -21.7591
  60   2.0000      -0.788832       -21.4652
  61   2.0000      -0.773115       -21.0375
  62   2.0000      -0.767702       -20.8902
  63   2.0000      -0.760562       -20.6959
  64   2.0000      -0.750940       -20.4341
  65   2.0000      -0.728996       -19.8370
  66   2.0000      -0.715534       -19.4707
  67   2.0000      -0.702497       -19.1159
  68   2.0000      -0.678677       -18.4677
  69   2.0000      -0.656972       -17.8771
  70   2.0000      -0.636931       -17.3318
  71   2.0000      -0.634245       -17.2587
  72   2.0000      -0.629093       -17.1185
  73   2.0000      -0.619535       -16.8584
  74   2.0000      -0.617869       -16.8131
  75   2.0000      -0.603002       -16.4085
  76   2.0000      -0.593245       -16.1430
  77   2.0000      -0.589831       -16.0501
  78   2.0000      -0.579620       -15.7723
  79   2.0000      -0.574946       -15.6451
  80   2.0000      -0.555579       -15.1181
  81   2.0000      -0.542438       -14.7605
  82   2.0000      -0.532900       -14.5010
  83   2.0000      -0.514976       -14.0132
  84   2.0000      -0.505412       -13.7530
  85   2.0000      -0.495467       -13.4824
  86   2.0000      -0.492120       -13.3913
  87   2.0000      -0.485718       -13.2171
  88   2.0000      -0.481066       -13.0905
  89   2.0000      -0.476221       -12.9586
  90   2.0000      -0.473069       -12.8729
  91   2.0000      -0.467456       -12.7201
  92   2.0000      -0.467347       -12.7172
  93   2.0000      -0.466713       -12.6999
  94   2.0000      -0.459758       -12.5107
  95   2.0000      -0.459242       -12.4966
  96   2.0000      -0.453434       -12.3386
  97   2.0000      -0.449814       -12.2401
  98   2.0000      -0.448801       -12.2125
  99   2.0000      -0.443695       -12.0735
 100   2.0000      -0.439336       -11.9549
 101   2.0000      -0.436382       -11.8746
 102   2.0000      -0.435546       -11.8518
 103   2.0000      -0.430534       -11.7154
 104   2.0000      -0.424615       -11.5544
 105   2.0000      -0.423163       -11.5149
 106   2.0000      -0.420289       -11.4367
 107   2.0000      -0.414461       -11.2781
 108   2.0000      -0.413925       -11.2635
 109   2.0000      -0.409194       -11.1347
 110   2.0000      -0.408703       -11.1214
 111   2.0000      -0.407909       -11.0998
 112   2.0000      -0.397313       -10.8114
 113   2.0000      -0.385829       -10.4990
 114   2.0000      -0.384334       -10.4583
 115   2.0000      -0.379737       -10.3332
 116   2.0000      -0.378906       -10.3106
 117   2.0000      -0.377535       -10.2732
 118   2.0000      -0.360725        -9.8158
 119   2.0000      -0.357914        -9.7393
 120   2.0000      -0.348130        -9.4731
 121   2.0000      -0.344125        -9.3641
 122   2.0000      -0.328236        -8.9317
 123   2.0000      -0.322896        -8.7864
 124   2.0000      -0.314930        -8.5697
 125   2.0000      -0.302377        -8.2281
 126   2.0000      -0.299470        -8.1490
 127   2.0000      -0.291899        -7.9430
 128   2.0000      -0.277247        -7.5443
 129   2.0000      -0.275358        -7.4929
 130   2.0000      -0.271661        -7.3923
 131   2.0000      -0.268175        -7.2974
 132   2.0000      -0.262514        -7.1434
 133   2.0000      -0.259331        -7.0568
 134   2.0000      -0.256591        -6.9822
 135   2.0000      -0.252154        -6.8615
 136   2.0000      -0.239610        -6.5201
 137   2.0000      -0.212208        -5.7745
 138   0.0000      -0.076734        -2.0880
 139   0.0000      -0.042403        -1.1538
 140   0.0000      -0.029045        -0.7904
 141   0.0000      -0.011664        -0.3174
 142   0.0000      -0.009791        -0.2664

MULLIKEN ATOMIC CHARGES
-----------------------
   0 C :   -0.333160
   1 N :   -0.424910
   2 C :    0.014785
   3 C :   -0.243787
   4 C :    0.122985
   5 C :    0.351099
   6 N :   -0.609181
   7 C :   -0.274119
   8 C :    0.152486
   9 C :   -0.169389
  10 C :   -0.168431
  11 C :    0.357277
  12 O :   -0.546762
  13 C :    1.090067
  14 F :   -0.292836
  15 F :   -0.278165
  16 F :   -0.289824
  17 C :   -0.193165
  18 C :   -0.156481
  19 S :    1.208947
  20 O :   -0.530133
  21 O :   -0.538963
  22 C :   -0.132161
  23 C :   -0.133302
  24 C :   -0.140616
  25 C :    0.086039
  26 C :    0.527836
  27 O :   -0.445072
  28 O :   -0.625925
  29 C :   -0.148755
  30 C :   -0.150120
  31 N :   -0.411003
  32 C :   -0.002771
  33 C :   -0.144567
  34 Cl:   -0.006399
  35 C :    0.322154
  36 H :    0.173129
  37 H :    0.194465
  38 H :    0.191516
  39 H :    0.158533
  40 H :    0.152935
  41 H :    0.185211
  42 H :    0.181940
  43 H :    0.140905
  44 H :    0.147907
  45 H :    0.155055
  46 H :    0.147403
  47 H :    0.201926
  48 H :    0.179740
  49 H :    0.432882
  50 H :    0.167369
  51 H :    0.181474
  52 H :    0.163935
Sum of atomic charges:   -0.0000000

LOEWDIN ATOMIC CHARGES
----------------------
   0 C :   -0.265628
   1 N :    0.021592
   2 C :   -0.086694
   3 C :   -0.189991
   4 C :   -0.049631
   5 C :    0.060393
   6 N :   -0.271216
   7 C :   -0.151947
   8 C :   -0.050064
   9 C :   -0.121876
  10 C :   -0.140160
  11 C :    0.088081
  12 O :   -0.160041
  13 C :    0.364853
  14 F :   -0.107105
  15 F :   -0.086655
  16 F :   -0.104676
  17 C :   -0.156878
  18 C :   -0.115119
  19 S :    1.271107
  20 O :   -0.558329
  21 O :   -0.572177
  22 C :   -0.172319
  23 C :   -0.094368
  24 C :   -0.084533
  25 C :   -0.038746
  26 C :    0.180119
  27 O :   -0.261091
  28 O :   -0.336944
  29 C :   -0.104124
  30 C :   -0.106505
  31 N :   -0.146433
  32 C :   -0.091331
  33 C :   -0.124440
  34 Cl:    0.040821
  35 C :    0.013367
  36 H :    0.141283
  37 H :    0.146407
  38 H :    0.145273
  39 H :    0.140695
  40 H :    0.146140
  41 H :    0.143597
  42 H :    0.147521
  43 H :    0.137758
  44 H :    0.144684
  45 H :    0.143275
  46 H :    0.141781
  47 H :    0.166616
  48 H :    0.159940
  49 H :    0.348852
  50 H :    0.151845
  51 H :    0.157839
  52 H :    0.145183

  Mayer bond orders larger than 0.100000
B(  0-C ,  1-N ) :   0.9337 B(  0-C , 36-H ) :   0.9386 B(  0-C , 37-H ) :   0.9293
B(  0-C , 38-H ) :   0.9303 B(  1-N ,  2-C ) :   1.1492 B(  1-N , 35-C ) :   1.0735
B(  2-C ,  3-C ) :   1.5425 B(  2-C , 39-H ) :   0.9256 B(  3-C ,  4-C ) :   1.3075
B(  3-C , 40-H ) :   0.9213 B(  4-C ,  5-C ) :   1.2646 B(  4-C , 35-C ) :   1.2906
B(  5-C ,  6-N ) :   0.9021 B(  5-C , 31-N ) :   1.3666 B(  6-N ,  7-C ) :   0.9248
B(  6-N , 19-S ) :   0.7829 B(  7-C ,  8-C ) :   0.9437 B(  7-C , 41-H ) :   0.9192
B(  7-C , 42-H ) :   0.9145 B(  8-C ,  9-C ) :   1.4383 B(  8-C , 18-C ) :   1.4182
B(  9-C , 10-C ) :   1.4294 B(  9-C , 43-H ) :   0.9196 B( 10-C , 11-C ) :   1.4244
B( 10-C , 44-H ) :   0.9174 B( 11-C , 12-O ) :   0.8261 B( 11-C , 17-C ) :   1.3821
B( 12-O , 13-C ) :   0.9853 B( 13-C , 14-F ) :   0.9645 B( 13-C , 15-F ) :   1.0085
B( 13-C , 16-F ) :   0.9700 B( 17-C , 18-C ) :   1.4439 B( 17-C , 45-H ) :   0.9089
B( 18-C , 46-H ) :   0.9163 B( 19-S , 20-O ) :   1.6597 B( 19-S , 21-O ) :   1.6423
B( 19-S , 22-C ) :   0.8145 B( 22-C , 23-C ) :   1.3834 B( 22-C , 30-C ) :   1.3967
B( 23-C , 24-C ) :   1.4240 B( 23-C , 47-H ) :   0.8877 B( 24-C , 25-C ) :   1.3952
B( 24-C , 48-H ) :   0.9099 B( 25-C , 26-C ) :   1.0090 B( 25-C , 29-C ) :   1.3841
B( 26-C , 27-O ) :   1.8620 B( 26-C , 28-O ) :   1.0213 B( 28-O , 49-H ) :   0.7426
B( 29-C , 30-C ) :   1.4094 B( 29-C , 50-H ) :   0.9161 B( 30-C , 51-H ) :   0.9098
B( 31-N , 32-C ) :   1.3725 B( 32-C , 33-C ) :   1.4085 B( 32-C , 52-H ) :   0.9247
B( 33-C , 34-Cl) :   1.0135 B( 33-C , 35-C ) :   1.2792

FINAL SINGLE POINT ENERGY     -2583.780367533633

DIPOLE MOMENT
-------------

Method             : SCF
Type of density    : Electron Density
Multiplicity       :   1
Irrep              :   0
Energy             : -2583.7803675336331253 Eh
Relativity type    :
Basis              : AO
                                X                 Y                 Z
Electronic contribution:     -3.226870154     -11.878895351     -25.548191021
Nuclear contribution   :      0.980613642      12.479475211      26.149826953
                        -----------------------------------------
Total Dipole Moment    :     -2.246256512       0.600579860       0.601635932
                        -----------------------------------------
Magnitude (a.u.)       :      2.401734848
Magnitude (Debye)      :      6.104724832

Rotational constants in cm-1:             0.005106             0.002022             0.001728
Rotational constants in MHz :           153.078361            60.616574            51.804649

                             ****ORCA TERMINATED NORMALLY****
TOTAL RUN TIME: 0 days 0 hours 12 minutes 12 seconds 198 msec
