                         Program Version 6.0.0  -   RELEASE  -
|  1> ! B3LYP 6-31G* SP
|  2>
|  3> * xyz 0 1
|  4> C -4.4696 0.9664 -0.8918
|  5> O -4.5859 -0.3524 -0.3696
|  6> C -3.4824 -1.1602 -0.0756
|  7> N -2.2394 -0.6573 -0.2787
|  8> C -1.1011 -1.3511 -0.0456
|  9> N 0.1587 -0.6781 -0.2153
| 10> C 0.8170 -0.1946 1.0091
| 11> C 2.2845 0.1140 0.8242
| 12> C 2.8115 1.3201 1.3158
| 13> C 4.1739 1.6051 1.1831
| 14> C 5.0361 0.6914 0.5663
| 15> O 6.3933 1.0347 0.4517
| 16> C 7.3831 0.2740 -0.2374
| 17> F 8.5920 0.9425 -0.1675
| 18> F 7.5279 -0.9699 0.3504
| 19> F 7.0290 0.1293 -1.5670
| 20> C 4.5151 -0.5295 0.0935
| 21> C 3.1555 -0.8206 0.2410
| 22> S 0.4479 0.1160 -1.7433
| 23> O 1.7064 -0.4262 -2.3632
| 24> O -0.6901 -0.1511 -2.6901
| 25> C 0.5808 1.8575 -1.5106
| 26> C 1.8223 2.5003 -1.6104
| 27> C 1.9234 3.8773 -1.3937
| 28> C 0.7800 4.6346 -1.0867
| 29> C 0.8884 6.0925 -0.8659
| 30> O -0.1365 6.7746 -0.6012
| 31> O 2.1252 6.7253 -0.9522
| 32> C -0.4646 3.9848 -0.9956
| 33> C -0.5608 2.6057 -1.2032
| 34> C -1.1759 -2.6806 0.4168
| 35> C 0.0895 -3.4914 0.5912
| 36> C -2.4536 -3.2266 0.7167
| 37> C -2.5740 -4.5088 1.2947
| 38> C -3.8200 -5.0530 1.5747
| 39> C -4.9761 -4.3433 1.2844
| 40> C -4.9140 -3.0591 0.7202
| 41> C -6.2271 -2.3733 0.4267
| 42> C -3.6373 -2.4720 0.4456
| 43> H -3.9168 1.6119 -0.1773
| 44> H -3.9387 0.9440 -1.8665
| 45> H -5.4837 1.3880 -1.0453
| 46> H 0.2749 0.7091 1.3587
| 47> H 0.7317 -0.9551 1.8141
| 48> H 2.1677 2.0452 1.7973
| 49> H 4.5626 2.5441 1.5597
| 50> H 5.1490 -1.2631 -0.3847
| 51> H 2.7845 -1.7685 -0.1202
| 52> H 2.7161 1.9347 -1.8386
| 53> H 2.8966 4.3465 -1.4664
| 54> H 2.2099 7.7243 -0.8155
| 55> H -1.3640 4.5406 -0.7627
| 56> H -1.5255 2.1207 -1.1225
| 57> H 0.3516 -3.5507 1.6684
| 58> H -0.0405 -4.5130 0.1762
| 59> H 0.9370 -3.0547 0.0314
| 60> H -1.7102 -5.1041 1.5523
| 61> H -3.8899 -6.0382 2.0180
| 62> H -5.9303 -4.8047 1.5083
| 63> H -7.1016 -3.0183 0.6714
| 64> H -6.3184 -1.4502 1.0394
| 65> H -6.2952 -2.1352 -0.6571
| 66> *
| 67>
| 68>                          ****END OF INPUT****

CARTESIAN COORDINATES (ANGSTROEM)
---------------------------------
  C     -4.469600    0.966400   -0.891800
  O     -4.585900   -0.352400   -0.369600
  C     -3.482400   -1.160200   -0.075600
  N     -2.239400   -0.657300   -0.278700
  C     -1.101100   -1.351100   -0.045600
  N      0.158700   -0.678100   -0.215300
  C      0.817000   -0.194600    1.009100
  C      2.284500    0.114000    0.824200
  C      2.811500    1.320100    1.315800
  C      4.173900    1.605100    1.183100
  C      5.036100    0.691400    0.566300
  O      6.393300    1.034700    0.451700
  C      7.383100    0.274000   -0.237400
  F      8.592000    0.942500   -0.167500
  F      7.527900   -0.969900    0.350400
  F      7.029000    0.129300   -1.567000
  C      4.515100   -0.529500    0.093500
  C      3.155500   -0.820600    0.241000
  S      0.447900    0.116000   -1.743300
  O      1.706400   -0.426200   -2.363200
  O     -0.690100   -0.151100   -2.690100
  C      0.580800    1.857500   -1.510600
  C      1.822300    2.500300   -1.610400
  C      1.923400    3.877300   -1.393700
  C      0.780000    4.634600   -1.086700
  C      0.888400    6.092500   -0.865900
  O     -0.136500    6.774600   -0.601200
  O      2.125200    6.725300   -0.952200
  C     -0.464600    3.984800   -0.995600
  C     -0.560800    2.605700   -1.203200
  C     -1.175900   -2.680600    0.416800
  C      0.089500   -3.491400    0.591200
  C     -2.453600   -3.226600    0.716700
  C     -2.574000   -4.508800    1.294700
  C     -3.820000   -5.053000    1.574700
  C     -4.976100   -4.343300    1.284400
  C     -4.914000   -3.059100    0.720200
  C     -6.227100   -2.373300    0.426700
  C     -3.637300   -2.472000    0.445600
  H     -3.916800    1.611900   -0.177300
  H     -3.938700    0.944000   -1.866500
  H     -5.483700    1.388000   -1.045300
  H      0.274900    0.709100    1.358700
  H      0.731700   -0.955100    1.814100
  H      2.167700    2.045200    1.797300
  H      4.562600    2.544100    1.559700
  H      5.149000   -1.263100   -0.384700
  H      2.784500   -1.768500   -0.120200
  H      2.716100    1.934700   -1.838600
  H      2.896600    4.346500   -1.466400
  H      2.209900    7.724300   -0.815500
  H     -1.364000    4.540600   -0.762700
  H     -1.525500    2.120700   -1.122500
  H      0.351600   -3.550700    1.668400
  H     -0.040500   -4.513000    0.176200
  H      0.937000   -3.054700    0.031400
  H     -1.710200   -5.104100    1.552300
  H     -3.889900   -6.038200    2.018000
  H     -5.930300   -4.804700    1.508300
  H     -7.101600   -3.018300    0.671400
  H     -6.318400   -1.450200    1.039400
  H     -6.295200   -2.135200   -0.657100

 Total Charge           Charge          ....    0
 Multiplicity           Mult            ....    1
 Number of Electrons    NEL             ....  290
 Basis Dimension        Dim             ....  596

ORBITAL ENERGIES
----------------

  NO   OCC          E(Eh)            E(eV)
   0   2.0000     -89.093620     -2424.3606
   1   2.0000     -24.741282      -673.2445
   2   2.0000     -24.739654      -673.2002
   3   2.0000     -24.737966      -673.1543
   4   2.0000     -19.214348      -522.8490
   5   2.0000     -19.196171      -522.3544
   6   2.0000     -19.178212      -521.8657
   7   2.0000     -19.138113      -520.7745
   8   2.0000     -19.120356      -520.2913
   9   2.0000     -19.118260      -520.2343
  10   2.0000     -14.375019      -391.1642
  11   2.0000     -14.325560      -389.8183
  12   2.0000     -10.504439      -285.8403
  13   2.0000     -10.335158      -281.2339
  14   2.0000     -10.288612      -279.9674
  15   2.0000     -10.271540      -279.5028
  16   2.0000     -10.259832      -279.1842
  17   2.0000     -10.241200      -278.6772
  18   2.0000     -10.238836      -278.6129
  19   2.0000     -10.235698      -278.5275
  20   2.0000     -10.230665      -278.3905
  21   2.0000     -10.217634      -278.0360
  22   2.0000     -10.216358      -278.0012
  23   2.0000     -10.215761      -277.9850
  24   2.0000     -10.214381      -277.9474
  25   2.0000     -10.205277      -277.6997
  26   2.0000     -10.204654      -277.6828
  27   2.0000     -10.204335      -277.6741
  28   2.0000     -10.203581      -277.6536
  29   2.0000     -10.201560      -277.5986
  30   2.0000     -10.199536      -277.5435
  31   2.0000     -10.198995      -277.5288
  32   2.0000     -10.197175      -277.4792
  33   2.0000     -10.196732      -277.4672
  34   2.0000     -10.188955      -277.2556
  35   2.0000     -10.185500      -277.1616
  36   2.0000     -10.183051      -277.0949
  37   2.0000     -10.181885      -277.0632
  38   2.0000     -10.174201      -276.8541
  39   2.0000      -8.129496      -221.2148
  40   2.0000      -6.094654      -165.8440
  41   2.0000      -6.092332      -165.7808
  42   2.0000      -6.092153      -165.7759
  43   2.0000      -1.303728       -35.4762
  44   2.0000      -1.224842       -33.3297
  45   2.0000      -1.223743       -33.2997
  46   2.0000      -1.084071       -29.4991
  47   2.0000      -1.081567       -29.4309
  48   2.0000      -1.078172       -29.3385
  49   2.0000      -1.059677       -28.8353
  50   2.0000      -0.995943       -27.1010
  51   2.0000      -0.961969       -26.1765
  52   2.0000      -0.954637       -25.9770
  53   2.0000      -0.910323       -24.7711
  54   2.0000      -0.887821       -24.1588
  55   2.0000      -0.867620       -23.6092
  56   2.0000      -0.860130       -23.4053
  57   2.0000      -0.808103       -21.9896
  58   2.0000      -0.803022       -21.8513
  59   2.0000      -0.789213       -21.4756
  60   2.0000      -0.774940       -21.0872
  61   2.0000      -0.773956       -21.0604
  62   2.0000      -0.760674       -20.6990
  63   2.0000      -0.755088       -20.5470
  64   2.0000      -0.729022       -19.8377
  65   2.0000      -0.718223       -19.5438
  66   2.0000      -0.710530       -19.3345
  67   2.0000      -0.685219       -18.6458
  68   2.0000      -0.684082       -18.6148
  69   2.0000      -0.673028       -18.3140
  70   2.0000      -0.649341       -17.6695
  71   2.0000      -0.636241       -17.3130
  72   2.0000      -0.634278       -17.2596
  73   2.0000      -0.625638       -17.0245
  74   2.0000      -0.623996       -16.9798
  75   2.0000      -0.615089       -16.7374
  76   2.0000      -0.595942       -16.2164
  77   2.0000      -0.594631       -16.1807
  78   2.0000      -0.588922       -16.0254
  79   2.0000      -0.575542       -15.6613
  80   2.0000      -0.570504       -15.5242
  81   2.0000      -0.554647       -15.0927
  82   2.0000      -0.538268       -14.6470
  83   2.0000      -0.536688       -14.6040
  84   2.0000      -0.522137       -14.2081
  85   2.0000      -0.510468       -13.8905
  86   2.0000      -0.503329       -13.6963
  87   2.0000      -0.488541       -13.2939
  88   2.0000      -0.486486       -13.2380
  89   2.0000      -0.484164       -13.1748
  90   2.0000      -0.474435       -12.9100
  91   2.0000      -0.472063       -12.8455
  92   2.0000      -0.469764       -12.7829
  93   2.0000      -0.469245       -12.7688
  94   2.0000      -0.466841       -12.7034
  95   2.0000      -0.462507       -12.5854
  96   2.0000      -0.460429       -12.5289
  97   2.0000      -0.456914       -12.4333
  98   2.0000      -0.450862       -12.2686
  99   2.0000      -0.446247       -12.1430
 100   2.0000      -0.444978       -12.1085
 101   2.0000      -0.443199       -12.0600
 102   2.0000      -0.442445       -12.0396
 103   2.0000      -0.441006       -12.0004
 104   2.0000      -0.435588       -11.8530
 105   2.0000      -0.431799       -11.7498
 106   2.0000      -0.430616       -11.7177
 107   2.0000      -0.424480       -11.5507
 108   2.0000      -0.418388       -11.3849
 109   2.0000      -0.417603       -11.3636
 110   2.0000      -0.416208       -11.3256
 111   2.0000      -0.414074       -11.2675
 112   2.0000      -0.412721       -11.2307
 113   2.0000      -0.407554       -11.0901
 114   2.0000      -0.406197       -11.0532
 115   2.0000      -0.392702       -10.6860
 116   2.0000      -0.389597       -10.6015
 117   2.0000      -0.386706       -10.5228
 118   2.0000      -0.384715       -10.4686
 119   2.0000      -0.382075       -10.3968
 120   2.0000      -0.378021       -10.2865
 121   2.0000      -0.373618       -10.1667
 122   2.0000      -0.366409        -9.9705
 123   2.0000      -0.359380        -9.7792
 124   2.0000      -0.351467        -9.5639
 125   2.0000      -0.350696        -9.5429
 126   2.0000      -0.349424        -9.5083
 127   2.0000      -0.341358        -9.2888
 128   2.0000      -0.327056        -8.8996
 129   2.0000      -0.323002        -8.7893
 130   2.0000      -0.319631        -8.6976
 131   2.0000      -0.316144        -8.6027
 132   2.0000      -0.303764        -8.2658
 133   2.0000      -0.296497        -8.0681
 134   2.0000      -0.281554        -7.6615
 135   2.0000      -0.278310        -7.5732
 136   2.0000      -0.275983        -7.5099
 137   2.0000      -0.273849        -7.4518
 138   2.0000      -0.269471        -7.3327
 139   2.0000      -0.264017        -7.1843
 140   2.0000      -0.259455        -7.0601
 141   2.0000      -0.256042        -6.9673
 142   2.0000      -0.243702        -6.6315
 143   2.0000      -0.239857        -6.5268
 144   2.0000      -0.204280        -5.5587
 145   0.0000      -0.082609        -2.2479
 146   0.0000      -0.048021        -1.3067
 147   0.0000      -0.029586        -0.8051
 148   0.0000      -0.025659        -0.6982
 149   0.0000      -0.016082        -0.4376

MULLIKEN ATOMIC CHARGES
-----------------------
   0 C :   -0.199635
   1 O :   -0.493168
   2 C :    0.418235
   3 N :   -0.450788
   4 C :    0.334826
   5 N :   -0.632892
   6 C :   -0.201761
   7 C :    0.082140
   8 C :   -0.169932
   9 C :   -0.175948
  10 C :    0.350783
  11 O :   -0.546248
  12 C :    1.086372
  13 F :   -0.280035
  14 F :   -0.290361
  15 F :   -0.289016
  16 C :   -0.189950
  17 C :   -0.116571
  18 S :    1.237198
  19 O :   -0.542006
  20 O :   -0.538581
  21 C :   -0.144037
  22 C :   -0.136724
  23 C :   -0.150501
  24 C :    0.081431
  25 C :    0.526658
  26 O :   -0.444659
  27 O :   -0.623434
  28 C :   -0.144491
  29 C :   -0.152113
  30 C :    0.076694
  31 C :   -0.556329
  32 C :    0.129181
  33 C :   -0.210388
  34 C :   -0.109371
  35 C :   -0.182902
  36 C :    0.101041
  37 C :   -0.497472
  38 C :    0.047458
  39 H :    0.148777
  40 H :    0.179263
  41 H :    0.162298
  42 H :    0.157293
  43 H :    0.185998
  44 H :    0.139287
  45 H :    0.147781
  46 H :    0.158687
  47 H :    0.164750
  48 H :    0.193659
  49 H :    0.172836
  50 H :    0.433935
  51 H :    0.175247
  52 H :    0.195586
  53 H :    0.153133
  54 H :    0.165100
  55 H :    0.192046
  56 H :    0.133621
  57 H :    0.132584
  58 H :    0.128112
  59 H :    0.141381
  60 H :    0.165827
  61 H :    0.170095
Sum of atomic charges:    0.0000000

LOEWDIN ATOMIC CHARGES
----------------------
   0 C :   -0.200620
   1 O :   -0.170903
   2 C :    0.133054
   3 N :   -0.166668
   4 C :    0.041782
   5 N :   -0.284536
   6 C :   -0.143561
   7 C :   -0.055616
   8 C :   -0.120881
   9 C :   -0.148714
  10 C :    0.087539
  11 O :   -0.160609
  12 C :    0.360504
  13 F :   -0.089012
  14 F :   -0.104254
  15 F :   -0.103152
  16 C :   -0.155119
  17 C :   -0.094823
  18 S :    1.269601
  19 O :   -0.567489
  20 O :   -0.562629
  21 C :   -0.178478
  22 C :   -0.094033
  23 C :   -0.102467
  24 C :   -0.040352
  25 C :    0.178452
  26 O :   -0.260701
  27 O :   -0.334346
  28 C :   -0.091147
  29 C :   -0.105302
  30 C :   -0.040582
  31 C :   -0.361804
  32 C :    0.003485
  33 C :   -0.138690
  34 C :   -0.114519
  35 C :   -0.141394
  36 C :    0.010368
  37 C :   -0.350101
  38 C :   -0.043594
  39 H :    0.118450
  40 H :    0.134056
  41 H :    0.131692
  42 H :    0.123337
  43 H :    0.149293
  44 H :    0.137700
  45 H :    0.144671
  46 H :    0.145493
  47 H :    0.147365
  48 H :    0.164636
  49 H :    0.154764
  50 H :    0.349529
  51 H :    0.157978
  52 H :    0.162089
  53 H :    0.131046
  54 H :    0.137679
  55 H :    0.142825
  56 H :    0.137341
  57 H :    0.134280
  58 H :    0.132529
  59 H :    0.122657
  60 H :    0.139959
  61 H :    0.141944

  Mayer bond orders larger than 0.100000
B(  0-C ,  1-O ) :   0.8937 B(  0-C , 39-H ) :   0.9332 B(  0-C , 40-H ) :   0.9281
B(  0-C , 41-H ) :   0.9423 B(  1-O ,  2-C ) :   0.9489 B(  2-C ,  3-N ) :   1.4129
B(  2-C , 38-C ) :   1.2086 B(  3-N ,  4-C ) :   1.2618 B(  4-C ,  5-N ) :   0.8860
B(  4-C , 30-C ) :   1.4585 B(  5-N ,  6-C ) :   0.9068 B(  5-N , 18-S ) :   0.7782
B(  6-C ,  7-C ) :   0.9770 B(  6-C , 42-H ) :   0.9235 B(  6-C , 43-H ) :   0.9091
B(  7-C ,  8-C ) :   1.4300 B(  7-C , 17-C ) :   1.4197 B(  8-C ,  9-C ) :   1.4310
B(  8-C , 44-H ) :   0.9211 B(  9-C , 10-C ) :   1.4217 B(  9-C , 45-H ) :   0.9185
B( 10-C , 11-O ) :   0.8255 B( 10-C , 16-C ) :   1.3823 B( 11-O , 12-C ) :   0.9880
B( 12-C , 13-F ) :   1.0063 B( 12-C , 14-F ) :   0.9672 B( 12-C , 15-F ) :   0.9745
B( 16-C , 17-C ) :   1.4398 B( 16-C , 46-H ) :   0.9088 B( 17-C , 47-H ) :   0.9072
B( 18-S , 19-O ) :   1.6303 B( 18-S , 20-O ) :   1.6319 B( 18-S , 21-C ) :   0.8133
B( 21-C , 22-C ) :   1.3976 B( 21-C , 29-C ) :   1.3865 B( 22-C , 23-C ) :   1.4075
B( 22-C , 48-H ) :   0.9044 B( 23-C , 24-C ) :   1.3845 B( 23-C , 49-H ) :   0.9153
B( 24-C , 25-C ) :   1.0086 B( 24-C , 28-C ) :   1.3982 B( 25-C , 26-O ) :   1.8639
B( 25-C , 27-O ) :   1.0256 B( 27-O , 50-H ) :   0.7419 B( 28-C , 29-C ) :   1.4225
B( 28-C , 51-H ) :   0.9115 B( 29-C , 52-H ) :   0.8950 B( 30-C , 31-C ) :   0.9950
B( 30-C , 32-C ) :   1.2546 B( 31-C , 53-H ) :   0.9275 B( 31-C , 54-H ) :   0.9296
B( 31-C , 55-H ) :   0.9220 B( 32-C , 33-C ) :   1.2966 B( 32-C , 38-C ) :   1.2768
B( 33-C , 34-C ) :   1.5032 B( 33-C , 56-H ) :   0.9173 B( 34-C , 35-C ) :   1.3527
B( 34-C , 57-H ) :   0.9282 B( 35-C , 36-C ) :   1.4944 B( 35-C , 58-H ) :   0.9233
B( 36-C , 37-C ) :   1.0159 B( 36-C , 38-C ) :   1.2671 B( 37-C , 59-H ) :   0.9402
B( 37-C , 60-H ) :   0.9277 B( 37-C , 61-H ) :   0.9283

FINAL SINGLE POINT ENERGY     -2300.063627900089

DIPOLE MOMENT
-------------

Method             : SCF
Type of density    : Electron Density
Multiplicity       :   1
Irrep              :   0
Energy             : -2300.0636279000891591 Eh
Relativity type    :
Basis              : AO
                                X                 Y                 Z
Electronic contribution:     56.877267552      12.205248491      -9.197737775
Nuclear contribution   :    -57.402448306     -11.880027253      11.085560502
                        -----------------------------------------
Total Dipole Moment    :     -0.525180754       0.325221238       1.887822727
                        -----------------------------------------
Magnitude (a.u.)       :      1.986317781
Magnitude (Debye)      :      5.048818564

Rotational constants in cm-1:             0.003887             0.001727             0.001287
Rotational constants in MHz :           116.536039            51.789036            38.579732

                             ****ORCA TERMINATED NORMALLY****
TOTAL RUN TIME: 0 days 0 hours 13 minutes 57 seconds 265 msec
