                         Program Version 6.0.0  -   RELEASE  -
|  1> ! B3LYP 6-31G* SP
|  2>
|  3> * xyz 0 1
|  4> C -4.0238 -2.7968 -3.6810
|  5> C -2.9528 -2.7715 -2.5959
|  6> C -3.3548 -1.8606 -1.4722
|  7> S -4.1973 -2.3909 -0.1121
|  8> C -4.3024 -0.8765 0.6112
|  9> C -3.7002 0.0725 -0.1936
| 10> C -3.1697 -0.4683 -1.3949
| 11> C -2.4432 0.3289 -2.4535
| 12> C -1.0357 0.6257 -2.0250
| 13> O -0.2863 -0.3241 -1.6684
| 14> N -0.5393 1.9730 -2.0621
| 15> C 0.7323 2.3670 -1.5322
| 16> N 1.5835 1.5309 -0.9006
| 17> C 2.7132 2.1660 -0.4787
| 18> C 3.7894 1.4303 0.2416
| 19> C 3.6860 0.0391 0.4193
| 20> C 4.6812 -0.6797 1.0898
| 21> F 4.4994 -2.0123 1.2475
| 22> C 5.8186 -0.0118 1.5968
| 23> O 6.8712 -0.6518 2.2777
| 24> C 7.1459 -2.0530 2.3320
| 25> C 7.7635 -2.5492 1.0241
| 26> F 8.9145 -1.8327 0.7505
| 27> F 6.8789 -2.3986 -0.0268
| 28> F 8.0864 -3.8880 1.1480
| 29> C 5.9126 1.3757 1.4351
| 30> F 6.9884 2.0403 1.9269
| 31> C 4.9156 2.0900 0.7658
| 32> C 2.7499 3.5325 -0.7853
| 33> S 1.3305 3.9316 -1.5957
| 34> C -3.6910 1.4017 0.2501
| 35> O -3.1579 2.3038 -0.4518
| 36> N -4.2737 1.7164 1.4555
| 37> C -4.2985 3.1186 1.9090
| 38> C -4.9027 0.7438 2.2046
| 39> O -5.5018 1.0644 3.2707
| 40> N -4.8898 -0.5697 1.8015
| 41> C -5.5603 -1.6165 2.5887
| 42> H -4.1677 -1.7833 -4.1116
| 43> H -4.9882 -3.1541 -3.2609
| 44> H -3.7134 -3.4871 -4.4937
| 45> H -2.8154 -3.8011 -2.2011
| 46> H -1.9808 -2.4529 -3.0267
| 47> H -2.4082 -0.2191 -3.4162
| 48> H -3.0016 1.2631 -2.6690
| 49> H -1.1427 2.7183 -2.4767
| 50> H 2.8280 -0.5016 0.0393
| 51> H 6.2487 -2.6375 2.6147
| 52> H 7.8878 -2.2193 3.1414
| 53> H 5.0366 3.1588 0.6700
| 54> H 3.5396 4.2332 -0.5599
| 55> H -4.3030 3.1850 3.0179
| 56> H -3.3946 3.6687 1.5702
| 57> H -5.2033 3.6227 1.5097
| 58> H -5.6721 -1.3230 3.6540
| 59> H -4.9643 -2.5538 2.5823
| 60> H -6.5654 -1.8176 2.1616
| 61> *
| 62>
| 63>                          ****END OF INPUT****

CARTESIAN COORDINATES (ANGSTROEM)
---------------------------------
  C     -4.023800   -2.796800   -3.681000
  C     -2.952800   -2.771500   -2.595900
  C     -3.354800   -1.860600   -1.472200
  S     -4.197300   -2.390900   -0.112100
  C     -4.302400   -0.876500    0.611200
  C     -3.700200    0.072500   -0.193600
  C     -3.169700   -0.468300   -1.394900
  C     -2.443200    0.328900   -2.453500
  C     -1.035700    0.625700   -2.025000
  O     -0.286300   -0.324100   -1.668400
  N     -0.539300    1.973000   -2.062100
  C      0.732300    2.367000   -1.532200
  N      1.583500    1.530900   -0.900600
  C      2.713200    2.166000   -0.478700
  C      3.789400    1.430300    0.241600
  C      3.686000    0.039100    0.419300
  C      4.681200   -0.679700    1.089800
  F      4.499400   -2.012300    1.247500
  C      5.818600   -0.011800    1.596800
  O      6.871200   -0.651800    2.277700
  C      7.145900   -2.053000    2.332000
  C      7.763500   -2.549200    1.024100
  F      8.914500   -1.832700    0.750500
  F      6.878900   -2.398600   -0.026800
  F      8.086400   -3.888000    1.148000
  C      5.912600    1.375700    1.435100
  F      6.988400    2.040300    1.926900
  C      4.915600    2.090000    0.765800
  C      2.749900    3.532500   -0.785300
  S      1.330500    3.931600   -1.595700
  C     -3.691000    1.401700    0.250100
  O     -3.157900    2.303800   -0.451800
  N     -4.273700    1.716400    1.455500
  C     -4.298500    3.118600    1.909000
  C     -4.902700    0.743800    2.204600
  O     -5.501800    1.064400    3.270700
  N     -4.889800   -0.569700    1.801500
  C     -5.560300   -1.616500    2.588700
  H     -4.167700   -1.783300   -4.111600
  H     -4.988200   -3.154100   -3.260900
  H     -3.713400   -3.487100   -4.493700
  H     -2.815400   -3.801100   -2.201100
  H     -1.980800   -2.452900   -3.026700
  H     -2.408200   -0.219100   -3.416200
  H     -3.001600    1.263100   -2.669000
  H     -1.142700    2.718300   -2.476700
  H      2.828000   -0.501600    0.039300
  H      6.248700   -2.637500    2.614700
  H      7.887800   -2.219300    3.141400
  H      5.036600    3.158800    0.670000
  H      3.539600    4.233200   -0.559900
  H     -4.303000    3.185000    3.017900
  H     -3.394600    3.668700    1.570200
  H     -5.203300    3.622700    1.509700
  H     -5.672100   -1.323000    3.654000
  H     -4.964300   -2.553800    2.582300
  H     -6.565400   -1.817600    2.161600

 Total Charge           Charge          ....    0
 Multiplicity           Mult            ....    1
 Number of Electrons    NEL             ....  294
 Basis Dimension        Dim             ....  578

ORBITAL ENERGIES
----------------

  NO   OCC          E(Eh)            E(eV)
   0   2.0000     -88.911223     -2419.3974
   1   2.0000     -88.903630     -2419.1908
   2   2.0000     -24.720500      -672.6790
   3   2.0000     -24.717794      -672.6054
   4   2.0000     -24.714938      -672.5276
   5   2.0000     -24.708700      -672.3579
   6   2.0000     -24.699406      -672.1050
   7   2.0000     -19.183485      -522.0092
   8   2.0000     -19.114185      -520.1234
   9   2.0000     -19.113691      -520.1100
  10   2.0000     -19.112213      -520.0697
  11   2.0000     -14.413695      -392.2166
  12   2.0000     -14.398002      -391.7896
  13   2.0000     -14.386389      -391.4735
  14   2.0000     -14.321138      -389.6980
  15   2.0000     -10.432287      -283.8770
  16   2.0000     -10.330615      -281.1103
  17   2.0000     -10.298850      -280.2460
  18   2.0000     -10.293772      -280.1078
  19   2.0000     -10.285502      -279.8827
  20   2.0000     -10.275056      -279.5985
  21   2.0000     -10.275015      -279.5974
  22   2.0000     -10.269749      -279.4541
  23   2.0000     -10.265305      -279.3332
  24   2.0000     -10.263488      -279.2837
  25   2.0000     -10.241085      -278.6741
  26   2.0000     -10.224888      -278.2334
  27   2.0000     -10.220876      -278.1242
  28   2.0000     -10.220449      -278.1126
  29   2.0000     -10.211370      -277.8655
  30   2.0000     -10.206292      -277.7273
  31   2.0000     -10.205542      -277.7069
  32   2.0000     -10.205306      -277.7005
  33   2.0000     -10.201596      -277.5995
  34   2.0000     -10.199020      -277.5295
  35   2.0000     -10.192521      -277.3526
  36   2.0000     -10.184367      -277.1307
  37   2.0000     -10.183922      -277.1186
  38   2.0000      -7.988430      -217.3762
  39   2.0000      -7.981344      -217.1834
  40   2.0000      -5.951693      -161.9538
  41   2.0000      -5.947468      -161.8388
  42   2.0000      -5.945105      -161.7745
  43   2.0000      -5.944417      -161.7558
  44   2.0000      -5.940315      -161.6442
  45   2.0000      -5.938160      -161.5855
  46   2.0000      -1.278619       -34.7930
  47   2.0000      -1.222497       -33.2658
  48   2.0000      -1.211916       -32.9779
  49   2.0000      -1.204966       -32.7888
  50   2.0000      -1.201722       -32.7005
  51   2.0000      -1.071279       -29.1510
  52   2.0000      -1.058733       -28.8096
  53   2.0000      -1.022961       -27.8362
  54   2.0000      -1.016509       -27.6606
  55   2.0000      -0.983294       -26.7568
  56   2.0000      -0.970624       -26.4120
  57   2.0000      -0.940878       -25.6026
  58   2.0000      -0.908771       -24.7289
  59   2.0000      -0.906022       -24.6541
  60   2.0000      -0.864965       -23.5369
  61   2.0000      -0.810131       -22.0448
  62   2.0000      -0.806240       -21.9389
  63   2.0000      -0.799990       -21.7688
  64   2.0000      -0.792680       -21.5699
  65   2.0000      -0.771740       -21.0001
  66   2.0000      -0.758569       -20.6417
  67   2.0000      -0.749138       -20.3851
  68   2.0000      -0.735639       -20.0177
  69   2.0000      -0.724585       -19.7170
  70   2.0000      -0.716978       -19.5100
  71   2.0000      -0.700723       -19.0676
  72   2.0000      -0.664421       -18.0798
  73   2.0000      -0.655604       -17.8399
  74   2.0000      -0.640850       -17.4384
  75   2.0000      -0.631432       -17.1821
  76   2.0000      -0.631221       -17.1764
  77   2.0000      -0.621114       -16.9014
  78   2.0000      -0.601897       -16.3785
  79   2.0000      -0.594668       -16.1817
  80   2.0000      -0.573368       -15.6021
  81   2.0000      -0.572980       -15.5916
  82   2.0000      -0.572249       -15.5717
  83   2.0000      -0.563632       -15.3372
  84   2.0000      -0.556954       -15.1555
  85   2.0000      -0.554083       -15.0774
  86   2.0000      -0.534187       -14.5360
  87   2.0000      -0.522733       -14.2243
  88   2.0000      -0.518712       -14.1149
  89   2.0000      -0.513815       -13.9816
  90   2.0000      -0.509715       -13.8701
  91   2.0000      -0.505631       -13.7589
  92   2.0000      -0.498057       -13.5528
  93   2.0000      -0.490092       -13.3361
  94   2.0000      -0.485151       -13.2016
  95   2.0000      -0.472634       -12.8610
  96   2.0000      -0.471342       -12.8259
  97   2.0000      -0.465512       -12.6672
  98   2.0000      -0.463403       -12.6098
  99   2.0000      -0.457707       -12.4548
 100   2.0000      -0.456063       -12.4101
 101   2.0000      -0.450956       -12.2711
 102   2.0000      -0.446825       -12.1587
 103   2.0000      -0.444711       -12.1012
 104   2.0000      -0.443514       -12.0686
 105   2.0000      -0.440969       -11.9994
 106   2.0000      -0.434441       -11.8217
 107   2.0000      -0.432681       -11.7738
 108   2.0000      -0.429327       -11.6826
 109   2.0000      -0.425767       -11.5857
 110   2.0000      -0.421535       -11.4706
 111   2.0000      -0.419575       -11.4172
 112   2.0000      -0.414080       -11.2677
 113   2.0000      -0.409322       -11.1382
 114   2.0000      -0.407228       -11.0812
 115   2.0000      -0.404108       -10.9963
 116   2.0000      -0.400850       -10.9077
 117   2.0000      -0.399586       -10.8733
 118   2.0000      -0.396959       -10.8018
 119   2.0000      -0.393446       -10.7062
 120   2.0000      -0.391843       -10.6626
 121   2.0000      -0.386760       -10.5243
 122   2.0000      -0.384493       -10.4626
 123   2.0000      -0.384039       -10.4502
 124   2.0000      -0.374134       -10.1807
 125   2.0000      -0.372689       -10.1414
 126   2.0000      -0.370760       -10.0889
 127   2.0000      -0.362572        -9.8661
 128   2.0000      -0.361856        -9.8466
 129   2.0000      -0.356384        -9.6977
 130   2.0000      -0.355022        -9.6606
 131   2.0000      -0.345511        -9.4018
 132   2.0000      -0.335195        -9.1211
 133   2.0000      -0.323607        -8.8058
 134   2.0000      -0.310129        -8.4390
 135   2.0000      -0.298309        -8.1174
 136   2.0000      -0.282847        -7.6966
 137   2.0000      -0.277891        -7.5618
 138   2.0000      -0.275890        -7.5074
 139   2.0000      -0.268187        -7.2977
 140   2.0000      -0.263421        -7.1680
 141   2.0000      -0.252278        -6.8648
 142   2.0000      -0.243131        -6.6159
 143   2.0000      -0.236080        -6.4241
 144   2.0000      -0.233064        -6.3420
 145   2.0000      -0.213173        -5.8007
 146   2.0000      -0.203194        -5.5292
 147   0.0000      -0.035920        -0.9774
 148   0.0000      -0.032808        -0.8928
 149   0.0000      -0.022140        -0.6025
 150   0.0000      -0.010603        -0.2885
 151   0.0000       0.001881         0.0512

MULLIKEN ATOMIC CHARGES
-----------------------
   0 C :   -0.429573
   1 C :   -0.320904
   2 C :   -0.162751
   3 S :    0.260829
   4 C :    0.031738
   5 C :    0.044671
   6 C :    0.142311
   7 C :   -0.439761
   8 C :    0.587904
   9 O :   -0.440047
  10 N :   -0.646588
  11 C :    0.260788
  12 N :   -0.382338
  13 C :    0.223544
  14 C :    0.150362
  15 C :   -0.285373
  16 C :    0.390649
  17 F :   -0.315333
  18 C :    0.212186
  19 O :   -0.515497
  20 C :   -0.138611
  21 C :    0.909952
  22 F :   -0.296191
  23 F :   -0.292317
  24 F :   -0.301453
  25 C :    0.380375
  26 F :   -0.308145
  27 C :   -0.283911
  28 C :   -0.399917
  29 S :    0.253690
  30 C :    0.521870
  31 O :   -0.522974
  32 N :   -0.476924
  33 C :   -0.313987
  34 C :    0.679024
  35 O :   -0.507079
  36 N :   -0.456706
  37 C :   -0.339911
  38 H :    0.149476
  39 H :    0.150055
  40 H :    0.148788
  41 H :    0.153699
  42 H :    0.185118
  43 H :    0.174445
  44 H :    0.173257
  45 H :    0.352674
  46 H :    0.195802
  47 H :    0.184657
  48 H :    0.185636
  49 H :    0.141446
  50 H :    0.181692
  51 H :    0.195624
  52 H :    0.193727
  53 H :    0.175630
  54 H :    0.218047
  55 H :    0.183060
  56 H :    0.183566
Sum of atomic charges:   -0.0000000

LOEWDIN ATOMIC CHARGES
----------------------
   0 C :   -0.353589
   1 C :   -0.230201
   2 C :   -0.187586
   3 S :    0.400962
   4 C :   -0.119577
   5 C :   -0.105319
   6 C :   -0.012784
   7 C :   -0.242400
   8 C :    0.160651
   9 O :   -0.252918
  10 N :   -0.196103
  11 C :   -0.077071
  12 N :   -0.155642
  13 C :   -0.001138
  14 C :   -0.015628
  15 C :   -0.143040
  16 C :    0.090333
  17 F :   -0.093430
  18 C :    0.031816
  19 O :   -0.174264
  20 C :   -0.124061
  21 C :    0.292769
  22 F :   -0.111341
  23 F :   -0.107944
  24 F :   -0.114018
  25 C :    0.108775
  26 F :   -0.093754
  27 C :   -0.157497
  28 C :   -0.350067
  29 S :    0.391412
  30 C :    0.116111
  31 O :   -0.313547
  32 N :   -0.025824
  33 C :   -0.259119
  34 C :    0.141739
  35 O :   -0.317096
  36 N :   -0.023188
  37 C :   -0.263273
  38 H :    0.123826
  39 H :    0.126580
  40 H :    0.126326
  41 H :    0.135371
  42 H :    0.148045
  43 H :    0.149360
  44 H :    0.145256
  45 H :    0.271469
  46 H :    0.169521
  47 H :    0.142815
  48 H :    0.151409
  49 H :    0.144054
  50 H :    0.159288
  51 H :    0.152814
  52 H :    0.151865
  53 H :    0.139200
  54 H :    0.165842
  55 H :    0.143278
  56 H :    0.140530

  Mayer bond orders larger than 0.100000
B(  0-C ,  1-C ) :   0.9982 B(  0-C , 38-H ) :   0.9483 B(  0-C , 39-H ) :   0.9494
B(  0-C , 40-H ) :   0.9455 B(  1-C ,  2-C ) :   0.9900 B(  1-C , 41-H ) :   0.9324
B(  1-C , 42-H ) :   0.9186 B(  2-C ,  3-S ) :   1.0559 B(  2-C ,  6-C ) :   1.5688
B(  3-S ,  4-C ) :   1.1415 B(  4-C ,  5-C ) :   1.3584 B(  4-C , 36-N ) :   0.9807
B(  5-C ,  6-C ) :   1.2810 B(  5-C , 30-C ) :   1.0940 B(  6-C ,  7-C ) :   1.0076
B(  7-C ,  8-C ) :   0.9368 B(  7-C , 43-H ) :   0.9074 B(  7-C , 44-H ) :   0.9047
B(  8-C ,  9-O ) :   1.8884 B(  8-C , 10-N ) :   0.9914 B( 10-N , 11-C ) :   0.9602
B( 10-N , 45-H ) :   0.8149 B( 11-C , 12-N ) :   1.5049 B( 11-C , 28-C ) :   0.1057
B( 11-C , 29-S ) :   1.1398 B( 12-N , 13-C ) :   1.2701 B( 13-C , 14-C ) :   1.0647
B( 13-C , 28-C ) :   1.5115 B( 14-C , 15-C ) :   1.3726 B( 14-C , 27-C ) :   1.3629
B( 15-C , 16-C ) :   1.3681 B( 15-C , 46-H ) :   0.8937 B( 16-C , 17-F ) :   0.8763
B( 16-C , 18-C ) :   1.2896 B( 18-C , 19-O ) :   0.8886 B( 18-C , 25-C ) :   1.3015
B( 19-O , 20-C ) :   0.9127 B( 20-C , 21-C ) :   0.9396 B( 20-C , 47-H ) :   0.9003
B( 20-C , 48-H ) :   0.9158 B( 21-C , 22-F ) :   0.9800 B( 21-C , 23-F ) :   0.9799
B( 21-C , 24-F ) :   0.9621 B( 25-C , 26-F ) :   0.9312 B( 25-C , 27-C ) :   1.4001
B( 27-C , 49-H ) :   0.9102 B( 28-C , 29-S ) :   1.1142 B( 28-C , 50-H ) :   0.9008
B( 30-C , 31-O ) :   1.7366 B( 30-C , 32-N ) :   0.9843 B( 32-N , 33-C ) :   0.9188
B( 32-N , 34-C ) :   1.0404 B( 33-C , 51-H ) :   0.9261 B( 33-C , 52-H ) :   0.9247
B( 33-C , 53-H ) :   0.9411 B( 34-C , 35-O ) :   1.7873 B( 34-C , 36-N ) :   1.0447
B( 36-N , 37-C ) :   0.9296 B( 37-C , 54-H ) :   0.9181 B( 37-C , 55-H ) :   0.9236
B( 37-C , 56-H ) :   0.9324

FINAL SINGLE POINT ENERGY     -2702.219945540214

DIPOLE MOMENT
-------------

Method             : SCF
Type of density    : Electron Density
Multiplicity       :   1
Irrep              :   0
Energy             : -2702.2199455402137573 Eh
Relativity type    :
Basis              : AO
                                X                 Y                 Z
Electronic contribution:     68.815989356      -2.987261353      11.097311881
Nuclear contribution   :    -70.845584870       2.785325687     -11.643977475
                        -----------------------------------------
Total Dipole Moment    :     -2.029595515      -0.201935666      -0.546665593
                        -----------------------------------------
Magnitude (a.u.)       :      2.111605843
Magnitude (Debye)      :      5.367275509

Rotational constants in cm-1:             0.004144             0.001159             0.001079
Rotational constants in MHz :           124.239401            34.732733            32.351738

                             ****ORCA TERMINATED NORMALLY****
TOTAL RUN TIME: 0 days 0 hours 6 minutes 51 seconds 38 msec
