                         Program Version 6.0.0  -   RELEASE  -
|  1> ! B3LYP 6-31G* SP
|  2>
|  3> * xyz 0 1
|  4> C -7.2344 2.0917 0.3694
|  5> N -6.2844 1.0239 0.0109
|  6> C -4.9360 1.2165 0.2101
|  7> O -4.5067 2.3082 0.6749
|  8> C -4.0441 0.1847 -0.0993
|  9> C -2.6256 0.1519 0.0300
| 10> C -1.8070 1.3104 0.5427
| 11> C -0.3387 0.9999 0.5788
| 12> O 0.3945 1.3717 -0.3771
| 13> N 0.2066 0.2472 1.6736
| 14> C 1.5878 -0.1202 1.7801
| 15> N 2.5322 0.2061 0.8724
| 16> C 3.7627 -0.2685 1.2163
| 17> C 4.9532 -0.0188 0.3608
| 18> C 4.8850 0.9422 -0.6641
| 19> C 5.9948 1.2022 -1.4702
| 20> F 5.9193 2.1468 -2.4401
| 21> C 7.1842 0.4987 -1.2759
| 22> C 7.2692 -0.4913 -0.2837
| 23> C 8.5653 -1.2256 -0.0440
| 24> F 9.2932 -0.5591 0.9239
| 25> F 8.3193 -2.5179 0.3866
| 26> F 9.3161 -1.2935 -1.2051
| 27> C 6.1570 -0.7290 0.5444
| 28> C 3.7882 -0.9786 2.4226
| 29> S 2.2283 -1.0052 3.0526
| 30> N -2.0420 -1.0247 -0.3447
| 31> S -3.2796 -2.0249 -0.8346
| 32> C -4.5632 -0.9918 -0.5878
| 33> N -5.8922 -1.2019 -0.7828
| 34> C -6.3821 -2.5052 -1.2541
| 35> C -6.7596 -0.1900 -0.4469
| 36> O -8.0053 -0.3760 -0.5524
| 37> H -8.1362 2.0626 -0.2788
| 38> H -7.5428 1.9750 1.4296
| 39> H -6.7846 3.0978 0.2291
| 40> H -1.9771 2.1933 -0.1105
| 41> H -2.1422 1.5693 1.5695
| 42> H -0.4392 -0.0605 2.4350
| 43> H 3.9766 1.5069 -0.8336
| 44> H 8.0375 0.7281 -1.9018
| 45> H 6.2360 -1.4779 1.3195
| 46> H 4.6497 -1.4229 2.8998
| 47> H -7.3498 -2.4027 -1.7896
| 48> H -6.5151 -3.1879 -0.3886
| 49> H -5.6690 -2.9609 -1.9733
| 50> *
| 51>
| 52>                          ****END OF INPUT****

CARTESIAN COORDINATES (ANGSTROEM)
---------------------------------
  C     -7.234400    2.091700    0.369400
  N     -6.284400    1.023900    0.010900
  C     -4.936000    1.216500    0.210100
  O     -4.506700    2.308200    0.674900
  C     -4.044100    0.184700   -0.099300
  C     -2.625600    0.151900    0.030000
  C     -1.807000    1.310400    0.542700
  C     -0.338700    0.999900    0.578800
  O      0.394500    1.371700   -0.377100
  N      0.206600    0.247200    1.673600
  C      1.587800   -0.120200    1.780100
  N      2.532200    0.206100    0.872400
  C      3.762700   -0.268500    1.216300
  C      4.953200   -0.018800    0.360800
  C      4.885000    0.942200   -0.664100
  C      5.994800    1.202200   -1.470200
  F      5.919300    2.146800   -2.440100
  C      7.184200    0.498700   -1.275900
  C      7.269200   -0.491300   -0.283700
  C      8.565300   -1.225600   -0.044000
  F      9.293200   -0.559100    0.923900
  F      8.319300   -2.517900    0.386600
  F      9.316100   -1.293500   -1.205100
  C      6.157000   -0.729000    0.544400
  C      3.788200   -0.978600    2.422600
  S      2.228300   -1.005200    3.052600
  N     -2.042000   -1.024700   -0.344700
  S     -3.279600   -2.024900   -0.834600
  C     -4.563200   -0.991800   -0.587800
  N     -5.892200   -1.201900   -0.782800
  C     -6.382100   -2.505200   -1.254100
  C     -6.759600   -0.190000   -0.446900
  O     -8.005300   -0.376000   -0.552400
  H     -8.136200    2.062600   -0.278800
  H     -7.542800    1.975000    1.429600
  H     -6.784600    3.097800    0.229100
  H     -1.977100    2.193300   -0.110500
  H     -2.142200    1.569300    1.569500
  H     -0.439200   -0.060500    2.435000
  H      3.976600    1.506900   -0.833600
  H      8.037500    0.728100   -1.901800
  H      6.236000   -1.477900    1.319500
  H      4.649700   -1.422900    2.899800
  H     -7.349800   -2.402700   -1.789600
  H     -6.515100   -3.187900   -0.388600
  H     -5.669000   -2.960900   -1.973300

 Total Charge           Charge          ....    0
 Multiplicity           Mult            ....    1
 Number of Electrons    NEL             ....  254
 Basis Dimension        Dim             ....  496

ORBITAL ENERGIES
----------------

  NO   OCC          E(Eh)            E(eV)
   0   2.0000     -88.940644     -2420.1980
   1   2.0000     -88.909010     -2419.3372
   2   2.0000     -24.717262      -672.5909
   3   2.0000     -24.716789      -672.5780
   4   2.0000     -24.713110      -672.4779
   5   2.0000     -24.698420      -672.0782
   6   2.0000     -19.133229      -520.6416
   7   2.0000     -19.127433      -520.4839
   8   2.0000     -19.117661      -520.2180
   9   2.0000     -14.433619      -392.7587
  10   2.0000     -14.412994      -392.1975
  11   2.0000     -14.396313      -391.7436
  12   2.0000     -14.375757      -391.1842
  13   2.0000     -14.329422      -389.9234
  14   2.0000     -10.433017      -283.8968
  15   2.0000     -10.348599      -281.5997
  16   2.0000     -10.309691      -280.5409
  17   2.0000     -10.304085      -280.3884
  18   2.0000     -10.292470      -280.0723
  19   2.0000     -10.291283      -280.0401
  20   2.0000     -10.272483      -279.5285
  21   2.0000     -10.269361      -279.4435
  22   2.0000     -10.256322      -279.0887
  23   2.0000     -10.232272      -278.4343
  24   2.0000     -10.231370      -278.4097
  25   2.0000     -10.218771      -278.0669
  26   2.0000     -10.214874      -277.9608
  27   2.0000     -10.214524      -277.9513
  28   2.0000     -10.214145      -277.9410
  29   2.0000     -10.213211      -277.9156
  30   2.0000     -10.200352      -277.5657
  31   2.0000     -10.197869      -277.4981
  32   2.0000     -10.191623      -277.3282
  33   2.0000      -8.014723      -218.0917
  34   2.0000      -7.986935      -217.3355
  35   2.0000      -5.979056      -162.6984
  36   2.0000      -5.973712      -162.5530
  37   2.0000      -5.970751      -162.4724
  38   2.0000      -5.950001      -161.9078
  39   2.0000      -5.945888      -161.7958
  40   2.0000      -5.943719      -161.7368
  41   2.0000      -1.276734       -34.7417
  42   2.0000      -1.211504       -32.9667
  43   2.0000      -1.202291       -32.7160
  44   2.0000      -1.200848       -32.6767
  45   2.0000      -1.089316       -29.6418
  46   2.0000      -1.037963       -28.2444
  47   2.0000      -1.022073       -27.8120
  48   2.0000      -1.009534       -27.4708
  49   2.0000      -0.977879       -26.6095
  50   2.0000      -0.976122       -26.5616
  51   2.0000      -0.955931       -26.0122
  52   2.0000      -0.917633       -24.9701
  53   2.0000      -0.871466       -23.7138
  54   2.0000      -0.832878       -22.6638
  55   2.0000      -0.820934       -22.3388
  56   2.0000      -0.816349       -22.2140
  57   2.0000      -0.791111       -21.5272
  58   2.0000      -0.772131       -21.0108
  59   2.0000      -0.767940       -20.8967
  60   2.0000      -0.750575       -20.4242
  61   2.0000      -0.729301       -19.8453
  62   2.0000      -0.717700       -19.5296
  63   2.0000      -0.695175       -18.9167
  64   2.0000      -0.675277       -18.3752
  65   2.0000      -0.658125       -17.9085
  66   2.0000      -0.642997       -17.4968
  67   2.0000      -0.628341       -17.0980
  68   2.0000      -0.616745       -16.7825
  69   2.0000      -0.607886       -16.5414
  70   2.0000      -0.598310       -16.2808
  71   2.0000      -0.585052       -15.9201
  72   2.0000      -0.569726       -15.5030
  73   2.0000      -0.567142       -15.4327
  74   2.0000      -0.565270       -15.3818
  75   2.0000      -0.539016       -14.6674
  76   2.0000      -0.536319       -14.5940
  77   2.0000      -0.527157       -14.3447
  78   2.0000      -0.523365       -14.2415
  79   2.0000      -0.513697       -13.9784
  80   2.0000      -0.502586       -13.6761
  81   2.0000      -0.498991       -13.5782
  82   2.0000      -0.487691       -13.2707
  83   2.0000      -0.480774       -13.0825
  84   2.0000      -0.479497       -13.0478
  85   2.0000      -0.476408       -12.9637
  86   2.0000      -0.470208       -12.7950
  87   2.0000      -0.460760       -12.5379
  88   2.0000      -0.455115       -12.3843
  89   2.0000      -0.450411       -12.2563
  90   2.0000      -0.447478       -12.1765
  91   2.0000      -0.445937       -12.1346
  92   2.0000      -0.444093       -12.0844
  93   2.0000      -0.437032       -11.8922
  94   2.0000      -0.431535       -11.7427
  95   2.0000      -0.428554       -11.6615
  96   2.0000      -0.424501       -11.5512
  97   2.0000      -0.419244       -11.4082
  98   2.0000      -0.417319       -11.3558
  99   2.0000      -0.411929       -11.2091
 100   2.0000      -0.408810       -11.1243
 101   2.0000      -0.400644       -10.9021
 102   2.0000      -0.398474       -10.8430
 103   2.0000      -0.396606       -10.7922
 104   2.0000      -0.395928       -10.7737
 105   2.0000      -0.394419       -10.7327
 106   2.0000      -0.390995       -10.6395
 107   2.0000      -0.385519       -10.4905
 108   2.0000      -0.384884       -10.4732
 109   2.0000      -0.372696       -10.1416
 110   2.0000      -0.366176        -9.9641
 111   2.0000      -0.358790        -9.7632
 112   2.0000      -0.346584        -9.4310
 113   2.0000      -0.346025        -9.4158
 114   2.0000      -0.328731        -8.9452
 115   2.0000      -0.309925        -8.4335
 116   2.0000      -0.296504        -8.0683
 117   2.0000      -0.292296        -7.9538
 118   2.0000      -0.284998        -7.7552
 119   2.0000      -0.282361        -7.6834
 120   2.0000      -0.279901        -7.6165
 121   2.0000      -0.266303        -7.2465
 122   2.0000      -0.260179        -7.0798
 123   2.0000      -0.256071        -6.9681
 124   2.0000      -0.251646        -6.8476
 125   2.0000      -0.236219        -6.4279
 126   2.0000      -0.215582        -5.8663
 127   0.0000      -0.052717        -1.4345
 128   0.0000      -0.042911        -1.1677
 129   0.0000      -0.041435        -1.1275
 130   0.0000      -0.029689        -0.8079
 131   0.0000      -0.015316        -0.4168

MULLIKEN ATOMIC CHARGES
-----------------------
   0 C :   -0.317821
   1 N :   -0.480226
   2 C :    0.515168
   3 O :   -0.495471
   4 C :    0.049928
   5 C :    0.176621
   6 C :   -0.399186
   7 C :    0.572116
   8 O :   -0.420830
   9 N :   -0.653537
  10 C :    0.262238
  11 N :   -0.375587
  12 C :    0.222966
  13 C :    0.129797
  14 C :   -0.253926
  15 C :    0.424464
  16 F :   -0.313634
  17 C :   -0.244657
  18 C :   -0.008577
  19 C :    0.899534
  20 F :   -0.295953
  21 F :   -0.305282
  22 F :   -0.304545
  23 C :   -0.221077
  24 C :   -0.395117
  25 S :    0.254293
  26 N :   -0.486735
  27 S :    0.403933
  28 C :    0.044406
  29 N :   -0.448417
  30 C :   -0.341758
  31 C :    0.686177
  32 O :   -0.494360
  33 H :    0.197645
  34 H :    0.180787
  35 H :    0.201017
  36 H :    0.227569
  37 H :    0.180435
  38 H :    0.342724
  39 H :    0.194761
  40 H :    0.161520
  41 H :    0.143900
  42 H :    0.186320
  43 H :    0.220831
  44 H :    0.191855
  45 H :    0.185690
Sum of atomic charges:    0.0000000

LOEWDIN ATOMIC CHARGES
----------------------
   0 C :   -0.259848
   1 N :   -0.027483
   2 C :    0.115631
   3 O :   -0.292373
   4 C :   -0.131820
   5 C :    0.043628
   6 C :   -0.240468
   7 C :    0.157629
   8 O :   -0.236373
   9 N :   -0.204159
  10 C :   -0.076892
  11 N :   -0.150775
  12 C :   -0.002361
  13 C :   -0.006739
  14 C :   -0.128401
  15 C :    0.119935
  16 F :   -0.098386
  17 C :   -0.145399
  18 C :   -0.063653
  19 C :    0.312203
  20 F :   -0.113373
  21 F :   -0.113454
  22 F :   -0.112068
  23 C :   -0.121094
  24 C :   -0.344244
  25 S :    0.391501
  26 N :   -0.324426
  27 S :    0.477736
  28 C :   -0.118762
  29 N :   -0.021419
  30 C :   -0.262717
  31 C :    0.146241
  32 O :   -0.303093
  33 H :    0.153951
  34 H :    0.142015
  35 H :    0.155824
  36 H :    0.182451
  37 H :    0.154439
  38 H :    0.265887
  39 H :    0.168558
  40 H :    0.152248
  41 H :    0.139553
  42 H :    0.161979
  43 H :    0.167176
  44 H :    0.145171
  45 H :    0.146020

  Mayer bond orders larger than 0.100000
B(  0-C ,  1-N ) :   0.9138 B(  0-C , 33-H ) :   0.9257 B(  0-C , 34-H ) :   0.9398
B(  0-C , 35-H ) :   0.9224 B(  1-N ,  2-C ) :   0.9834 B(  1-N , 31-C ) :   1.0439
B(  2-C ,  3-O ) :   1.7660 B(  2-C ,  4-C ) :   1.0897 B(  4-C ,  5-C ) :   1.2427
B(  4-C , 28-C ) :   1.3510 B(  5-C ,  6-C ) :   1.0011 B(  5-C , 26-N ) :   1.5244
B(  6-C ,  7-C ) :   0.9339 B(  6-C , 36-H ) :   0.8996 B(  6-C , 37-H ) :   0.9029
B(  7-C ,  8-O ) :   1.9087 B(  7-C ,  9-N ) :   0.9726 B(  9-N , 10-C ) :   0.9544
B(  9-N , 38-H ) :   0.8221 B( 10-C , 11-N ) :   1.5104 B( 10-C , 24-C ) :   0.1069
B( 10-C , 25-S ) :   1.1391 B( 11-N , 12-C ) :   1.2655 B( 12-C , 13-C ) :   1.0515
B( 12-C , 24-C ) :   1.5137 B( 13-C , 14-C ) :   1.3722 B( 13-C , 23-C ) :   1.3831
B( 14-C , 15-C ) :   1.3610 B( 14-C , 39-H ) :   0.8974 B( 15-C , 16-F ) :   0.9099
B( 15-C , 17-C ) :   1.3746 B( 17-C , 18-C ) :   1.3797 B( 17-C , 40-H ) :   0.9116
B( 18-C , 19-C ) :   0.9791 B( 18-C , 23-C ) :   1.4021 B( 19-C , 20-F ) :   0.9879
B( 19-C , 21-F ) :   0.9470 B( 19-C , 22-F ) :   0.9468 B( 23-C , 41-H ) :   0.9099
B( 24-C , 25-S ) :   1.1178 B( 24-C , 42-H ) :   0.9007 B( 26-N , 27-S ) :   1.0903
B( 26-N , 28-C ) :   0.1314 B( 27-S , 28-C ) :   1.1600 B( 28-C , 29-N ) :   0.9969
B( 29-N , 30-C ) :   0.9219 B( 29-N , 31-C ) :   1.0265 B( 30-C , 43-H ) :   0.9186
B( 30-C , 44-H ) :   0.9316 B( 30-C , 45-H ) :   0.9235 B( 31-C , 32-O ) :   1.8005

FINAL SINGLE POINT ENERGY     -2426.038067222953

DIPOLE MOMENT
-------------

Method             : SCF
Type of density    : Electron Density
Multiplicity       :   1
Irrep              :   0
Energy             : -2426.0380672229530319 Eh
Relativity type    :
Basis              : AO
                                X                 Y                 Z
Electronic contribution:     57.086367733      -6.395580106      -2.280668081
Nuclear contribution   :    -59.608173062       5.116395694       3.381882079
                        -----------------------------------------
Total Dipole Moment    :     -2.521805330      -1.279184412       1.101213998
                        -----------------------------------------
Magnitude (a.u.)       :      3.034548920
Magnitude (Debye)      :      7.713210377

Rotational constants in cm-1:             0.010150             0.001072             0.001061
Rotational constants in MHz :           304.286235            32.133184            31.814684

                             ****ORCA TERMINATED NORMALLY****
TOTAL RUN TIME: 0 days 0 hours 6 minutes 47 seconds 694 msec
