                         Program Version 6.0.0  -   RELEASE  -
|  1> ! B3LYP 6-31G* SP
|  2>
|  3> * xyz 0 1
|  4> C 6.9266 -2.8643 -0.9849
|  5> O 6.6113 -2.0428 0.1177
|  6> C 5.2504 -1.6559 0.0736
|  7> C 5.1199 -0.2592 -0.5453
|  8> C 3.6685 0.2204 -0.5652
|  9> O 3.1902 0.3843 0.7682
| 10> C 1.8953 0.8080 1.1012
| 11> C 1.5588 0.9083 2.4555
| 12> C 0.2804 1.3176 2.8398
| 13> C -0.6747 1.6341 1.8722
| 14> C -0.3558 1.5503 0.5056
| 15> C -1.3952 1.8686 -0.5442
| 16> N -1.9512 3.2119 -0.3061
| 17> C -3.3092 3.4292 0.1158
| 18> S -3.8252 4.9378 0.4841
| 19> N -4.2141 2.3235 0.1885
| 20> C -3.7311 1.0340 -0.1805
| 21> C -2.4692 0.8097 -0.5377
| 22> C -2.3291 -0.6154 -0.8469
| 23> O -1.2792 -1.2058 -1.2139
| 24> C -3.6376 -1.2169 -0.6409
| 25> C -4.0693 -2.5338 -0.7866
| 26> C -5.4174 -2.8199 -0.5075
| 27> C -6.2951 -1.7948 -0.0926
| 28> C -5.8335 -0.4736 0.0474
| 29> C -4.4929 -0.2140 -0.2356
| 30> C 0.9311 1.1304 0.1257
| 31> H 6.3947 -3.8388 -0.9152
| 32> H 8.0159 -3.0734 -0.9708
| 33> H 6.6919 -2.3626 -1.9497
| 34> H 4.8790 -1.6188 1.1198
| 35> H 4.5963 -2.3829 -0.4660
| 36> H 5.7375 0.4625 0.0326
| 37> H 5.5008 -0.2804 -1.5887
| 38> H 3.6223 1.1957 -1.0965
| 39> H 3.0376 -0.5171 -1.1081
| 40> H 2.2917 0.6631 3.2138
| 41> H 0.0283 1.3863 3.8901
| 42> H -1.6644 1.9409 2.1871
| 43> H -0.9333 1.8672 -1.5554
| 44> H -1.3106 4.0330 -0.3958
| 45> H -5.2077 2.4575 0.4809
| 46> H -3.3888 -3.3130 -1.1044
| 47> H -5.7842 -3.8327 -0.6110
| 48> H -7.3305 -2.0271 0.1198
| 49> H -6.5017 0.3154 0.3659
| 50> H 1.1727 1.0535 -0.9257
| 51> *
| 52>
| 53>                          ****END OF INPUT****

CARTESIAN COORDINATES (ANGSTROEM)
---------------------------------
  C      6.926600   -2.864300   -0.984900
  O      6.611300   -2.042800    0.117700
  C      5.250400   -1.655900    0.073600
  C      5.119900   -0.259200   -0.545300
  C      3.668500    0.220400   -0.565200
  O      3.190200    0.384300    0.768200
  C      1.895300    0.808000    1.101200
  C      1.558800    0.908300    2.455500
  C      0.280400    1.317600    2.839800
  C     -0.674700    1.634100    1.872200
  C     -0.355800    1.550300    0.505600
  C     -1.395200    1.868600   -0.544200
  N     -1.951200    3.211900   -0.306100
  C     -3.309200    3.429200    0.115800
  S     -3.825200    4.937800    0.484100
  N     -4.214100    2.323500    0.188500
  C     -3.731100    1.034000   -0.180500
  C     -2.469200    0.809700   -0.537700
  C     -2.329100   -0.615400   -0.846900
  O     -1.279200   -1.205800   -1.213900
  C     -3.637600   -1.216900   -0.640900
  C     -4.069300   -2.533800   -0.786600
  C     -5.417400   -2.819900   -0.507500
  C     -6.295100   -1.794800   -0.092600
  C     -5.833500   -0.473600    0.047400
  C     -4.492900   -0.214000   -0.235600
  C      0.931100    1.130400    0.125700
  H      6.394700   -3.838800   -0.915200
  H      8.015900   -3.073400   -0.970800
  H      6.691900   -2.362600   -1.949700
  H      4.879000   -1.618800    1.119800
  H      4.596300   -2.382900   -0.466000
  H      5.737500    0.462500    0.032600
  H      5.500800   -0.280400   -1.588700
  H      3.622300    1.195700   -1.096500
  H      3.037600   -0.517100   -1.108100
  H      2.291700    0.663100    3.213800
  H      0.028300    1.386300    3.890100
  H     -1.664400    1.940900    2.187100
  H     -0.933300    1.867200   -1.555400
  H     -1.310600    4.033000   -0.395800
  H     -5.207700    2.457500    0.480900
  H     -3.388800   -3.313000   -1.104400
  H     -5.784200   -3.832700   -0.611000
  H     -7.330500   -2.027100    0.119800
  H     -6.501700    0.315400    0.365900
  H      1.172700    1.053500   -0.925700

 Total Charge           Charge          ....    0
 Multiplicity           Mult            ....    1
 Number of Electrons    NEL             ....  200
 Basis Dimension        Dim             ....  422

ORBITAL ENERGIES
----------------

  NO   OCC          E(Eh)            E(eV)
   0   2.0000     -88.812411     -2416.7086
   1   2.0000     -19.162803      -521.4464
   2   2.0000     -19.136379      -520.7273
   3   2.0000     -19.135842      -520.7127
   4   2.0000     -14.405443      -391.9920
   5   2.0000     -14.379002      -391.2725
   6   2.0000     -10.318259      -280.7741
   7   2.0000     -10.271565      -279.5035
   8   2.0000     -10.257820      -279.1295
   9   2.0000     -10.246635      -278.8251
  10   2.0000     -10.245254      -278.7875
  11   2.0000     -10.237051      -278.5643
  12   2.0000     -10.218243      -278.0525
  13   2.0000     -10.217424      -278.0303
  14   2.0000     -10.214769      -277.9580
  15   2.0000     -10.211025      -277.8561
  16   2.0000     -10.209429      -277.8127
  17   2.0000     -10.206957      -277.7454
  18   2.0000     -10.204682      -277.6835
  19   2.0000     -10.197493      -277.4879
  20   2.0000     -10.193500      -277.3792
  21   2.0000     -10.193314      -277.3742
  22   2.0000     -10.183521      -277.1077
  23   2.0000     -10.181128      -277.0426
  24   2.0000     -10.179987      -277.0115
  25   2.0000     -10.178306      -276.9658
  26   2.0000     -10.176938      -276.9286
  27   2.0000      -7.890562      -214.7131
  28   2.0000      -5.854622      -159.3124
  29   2.0000      -5.849996      -159.1865
  30   2.0000      -5.845848      -159.0736
  31   2.0000      -1.042194       -28.3595
  32   2.0000      -1.025837       -27.9145
  33   2.0000      -1.017010       -27.6742
  34   2.0000      -0.991690       -26.9853
  35   2.0000      -0.923057       -25.1177
  36   2.0000      -0.898766       -24.4567
  37   2.0000      -0.852593       -23.2002
  38   2.0000      -0.840004       -22.8577
  39   2.0000      -0.793057       -21.5802
  40   2.0000      -0.781211       -21.2578
  41   2.0000      -0.770407       -20.9638
  42   2.0000      -0.747277       -20.3344
  43   2.0000      -0.737323       -20.0636
  44   2.0000      -0.734486       -19.9864
  45   2.0000      -0.698528       -19.0079
  46   2.0000      -0.687847       -18.7173
  47   2.0000      -0.667067       -18.1518
  48   2.0000      -0.646250       -17.5854
  49   2.0000      -0.641516       -17.4565
  50   2.0000      -0.611273       -16.6336
  51   2.0000      -0.606080       -16.4923
  52   2.0000      -0.595559       -16.2060
  53   2.0000      -0.588528       -16.0147
  54   2.0000      -0.574903       -15.6439
  55   2.0000      -0.549453       -14.9514
  56   2.0000      -0.536598       -14.6016
  57   2.0000      -0.529188       -14.3999
  58   2.0000      -0.520786       -14.1713
  59   2.0000      -0.502472       -13.6729
  60   2.0000      -0.489411       -13.3176
  61   2.0000      -0.485297       -13.2056
  62   2.0000      -0.478021       -13.0076
  63   2.0000      -0.476243       -12.9592
  64   2.0000      -0.470366       -12.7993
  65   2.0000      -0.464435       -12.6379
  66   2.0000      -0.462301       -12.5799
  67   2.0000      -0.453785       -12.3481
  68   2.0000      -0.449693       -12.2368
  69   2.0000      -0.444715       -12.1013
  70   2.0000      -0.436629       -11.8813
  71   2.0000      -0.434036       -11.8107
  72   2.0000      -0.420177       -11.4336
  73   2.0000      -0.415776       -11.3138
  74   2.0000      -0.405582       -11.0365
  75   2.0000      -0.399538       -10.8720
  76   2.0000      -0.395059       -10.7501
  77   2.0000      -0.389958       -10.6113
  78   2.0000      -0.381681       -10.3861
  79   2.0000      -0.378498       -10.2995
  80   2.0000      -0.374702       -10.1962
  81   2.0000      -0.364705        -9.9241
  82   2.0000      -0.363291        -9.8857
  83   2.0000      -0.361295        -9.8313
  84   2.0000      -0.357048        -9.7158
  85   2.0000      -0.351013        -9.5515
  86   2.0000      -0.341118        -9.2823
  87   2.0000      -0.336029        -9.1438
  88   2.0000      -0.318568        -8.6687
  89   2.0000      -0.309206        -8.4139
  90   2.0000      -0.306358        -8.3364
  91   2.0000      -0.276268        -7.5176
  92   2.0000      -0.269683        -7.3385
  93   2.0000      -0.256489        -6.9794
  94   2.0000      -0.245436        -6.6787
  95   2.0000      -0.243716        -6.6318
  96   2.0000      -0.231498        -6.2994
  97   2.0000      -0.224734        -6.1153
  98   2.0000      -0.219427        -5.9709
  99   2.0000      -0.211317        -5.7502
 100   0.0000      -0.096220        -2.6183
 101   0.0000      -0.032848        -0.8938
 102   0.0000      -0.020699        -0.5632
 103   0.0000       0.001085         0.0295
 104   0.0000       0.009753         0.2654

MULLIKEN ATOMIC CHARGES
-----------------------
   0 C :   -0.190606
   1 O :   -0.454426
   2 C :   -0.021749
   3 C :   -0.284175
   4 C :   -0.024335
   5 O :   -0.524307
   6 C :    0.374811
   7 C :   -0.173746
   8 C :   -0.121506
   9 C :   -0.186185
  10 C :    0.188306
  11 C :   -0.087966
  12 N :   -0.585612
  13 C :    0.372229
  14 S :   -0.267912
  15 N :   -0.681907
  16 C :    0.244894
  17 C :    0.014963
  18 C :    0.284802
  19 O :   -0.439774
  20 C :    0.063214
  21 C :   -0.166654
  22 C :   -0.133825
  23 C :   -0.128975
  24 C :   -0.190052
  25 C :    0.113945
  26 C :   -0.251360
  27 H :    0.132539
  28 H :    0.151805
  29 H :    0.123596
  30 H :    0.157050
  31 H :    0.117164
  32 H :    0.160357
  33 H :    0.137849
  34 H :    0.131821
  35 H :    0.139465
  36 H :    0.137726
  37 H :    0.134491
  38 H :    0.131357
  39 H :    0.160347
  40 H :    0.363260
  41 H :    0.364394
  42 H :    0.161432
  43 H :    0.142664
  44 H :    0.143345
  45 H :    0.130363
  46 H :    0.136882
Sum of atomic charges:   -0.0000000

LOEWDIN ATOMIC CHARGES
----------------------
   0 C :   -0.206610
   1 O :   -0.242382
   2 C :   -0.100664
   3 C :   -0.247437
   4 C :   -0.088795
   5 O :   -0.190411
   6 C :    0.092243
   7 C :   -0.147846
   8 C :   -0.119499
   9 C :   -0.144335
  10 C :   -0.021267
  11 C :   -0.041974
  12 N :   -0.208293
  13 C :   -0.013876
  14 S :   -0.188359
  15 N :   -0.178798
  16 C :    0.059099
  17 C :   -0.092862
  18 C :    0.128586
  19 O :   -0.224643
  20 C :   -0.038476
  21 C :   -0.091948
  22 C :   -0.122819
  23 C :   -0.110187
  24 C :   -0.131119
  25 C :   -0.012078
  26 C :   -0.169517
  27 H :    0.105607
  28 H :    0.123284
  29 H :    0.101266
  30 H :    0.126305
  31 H :    0.105067
  32 H :    0.135125
  33 H :    0.126617
  34 H :    0.112111
  35 H :    0.113858
  36 H :    0.140641
  37 H :    0.135578
  38 H :    0.132840
  39 H :    0.135790
  40 H :    0.280208
  41 H :    0.283749
  42 H :    0.150044
  43 H :    0.138584
  44 H :    0.138938
  45 H :    0.131880
  46 H :    0.136774

  Mayer bond orders larger than 0.100000
B(  0-C ,  1-O ) :   0.9581 B(  0-C , 27-H ) :   0.9326 B(  0-C , 28-H ) :   0.9515
B(  0-C , 29-H ) :   0.9286 B(  1-O ,  2-C ) :   0.9286 B(  2-C ,  3-C ) :   0.9949
B(  2-C , 30-H ) :   0.9323 B(  2-C , 31-H ) :   0.9223 B(  3-C ,  4-C ) :   0.9928
B(  3-C , 32-H ) :   0.9322 B(  3-C , 33-H ) :   0.9307 B(  4-C ,  5-O ) :   0.8913
B(  4-C , 34-H ) :   0.9228 B(  4-C , 35-H ) :   0.9165 B(  5-O ,  6-C ) :   0.9143
B(  6-C ,  7-C ) :   1.4039 B(  6-C , 26-C ) :   1.3471 B(  7-C ,  8-C ) :   1.4479
B(  7-C , 36-H ) :   0.9196 B(  8-C ,  9-C ) :   1.4395 B(  8-C , 37-H ) :   0.9292
B(  9-C , 10-C ) :   1.4139 B(  9-C , 38-H ) :   0.9214 B( 10-C , 11-C ) :   0.9452
B( 10-C , 26-C ) :   1.4058 B( 11-C , 12-N ) :   0.8824 B( 11-C , 17-C ) :   0.9757
B( 11-C , 39-H ) :   0.9103 B( 12-N , 13-C ) :   1.1493 B( 12-N , 40-H ) :   0.8089
B( 13-C , 14-S ) :   1.5902 B( 13-C , 15-N ) :   1.0447 B( 15-N , 16-C ) :   0.9158
B( 15-N , 41-H ) :   0.8081 B( 16-C , 17-C ) :   1.5938 B( 16-C , 25-C ) :   1.0404
B( 17-C , 18-C ) :   1.0113 B( 18-C , 19-O ) :   1.8687 B( 18-C , 20-C ) :   0.9641
B( 20-C , 21-C ) :   1.4365 B( 20-C , 25-C ) :   1.3703 B( 21-C , 22-C ) :   1.3759
B( 21-C , 42-H ) :   0.9152 B( 22-C , 23-C ) :   1.4584 B( 22-C , 43-H ) :   0.9295
B( 23-C , 24-C ) :   1.3845 B( 23-C , 44-H ) :   0.9289 B( 24-C , 25-C ) :   1.4192
B( 24-C , 45-H ) :   0.9239 B( 26-C , 46-H ) :   0.9090

FINAL SINGLE POINT ENERGY     -1544.834487240546

DIPOLE MOMENT
-------------

Method             : SCF
Type of density    : Electron Density
Multiplicity       :   1
Irrep              :   0
Energy             : -1544.8344872405459682 Eh
Relativity type    :
Basis              : AO
                                X                 Y                 Z
Electronic contribution:    -33.238971095      15.521355024       2.539833356
Nuclear contribution   :     32.325257744     -16.688164204      -3.163405189
                        -----------------------------------------
Total Dipole Moment    :     -0.913713351      -1.166809180      -0.623571833
                        -----------------------------------------
Magnitude (a.u.)       :      1.607842524
Magnitude (Debye)      :      4.086810912

Rotational constants in cm-1:             0.008612             0.002722             0.002225
Rotational constants in MHz :           258.174796            81.593294            66.714501

                             ****ORCA TERMINATED NORMALLY****
TOTAL RUN TIME: 0 days 0 hours 7 minutes 4 seconds 667 msec
