                         Program Version 6.0.0  -   RELEASE  -
|  1> ! B3LYP 6-31G* SP
|  2>
|  3> * xyz 0 1
|  4> N -2.3745 -0.5949 -4.6540
|  5> C -2.6179 -0.1738 -3.6041
|  6> C -2.9204 0.3491 -2.2951
|  7> C -4.0956 1.0819 -2.0964
|  8> C -4.4255 1.5588 -0.8180
|  9> C -5.6694 2.3834 -0.6009
| 10> F -6.1349 2.2355 0.6945
| 11> F -5.3776 3.7160 -0.8256
| 12> F -6.6733 1.9883 -1.4686
| 13> C -3.5293 1.3211 0.2358
| 14> N -2.3919 0.6097 0.0216
| 15> C -2.0651 0.1204 -1.2038
| 16> N -0.8556 -0.6310 -1.3599
| 17> C -0.7855 -2.0132 -0.8793
| 18> C 0.1408 -2.1220 0.3025
| 19> C 1.4386 -2.6369 0.1445
| 20> C 2.3201 -2.6698 1.2292
| 21> C 1.9122 -2.1927 2.4780
| 22> C 0.6215 -1.6851 2.6448
| 23> C -0.2626 -1.6499 1.5625
| 24> S 0.5291 0.1191 -2.0994
| 25> O 1.0991 -0.8174 -3.1281
| 26> O 0.1237 1.3948 -2.7828
| 27> C 1.7298 0.4906 -0.8666
| 28> C 1.3399 1.1529 0.3028
| 29> C 2.2652 1.3868 1.3236
| 30> C 3.5994 0.9687 1.1841
| 31> C 4.5722 1.2020 2.2738
| 32> O 5.7753 0.8485 2.1421
| 33> O 4.1677 1.8161 3.4566
| 34> C 3.9916 0.3240 -0.0037
| 35> C 3.0629 0.0884 -1.0216
| 36> H -4.7543 1.2747 -2.9355
| 37> H -3.7320 1.6985 1.2290
| 38> H -1.7960 -2.3723 -0.5840
| 39> H -0.4468 -2.6714 -1.7081
| 40> H 1.7758 -2.9890 -0.8223
| 41> H 3.3227 -3.0520 1.0983
| 42> H 2.5987 -2.2101 3.3141
| 43> H 0.3097 -1.3099 3.6107
| 44> H -1.2551 -1.2419 1.7032
| 45> H 0.3146 1.4706 0.4336
| 46> H 1.9325 1.8869 2.2243
| 47> H 4.8253 1.9810 4.2094
| 48> H 5.0125 -0.0093 -0.1417
| 49> H 3.3822 -0.4250 -1.9195
| 50> *
| 51>
| 52>                          ****END OF INPUT****

CARTESIAN COORDINATES (ANGSTROEM)
---------------------------------
  N     -2.374500   -0.594900   -4.654000
  C     -2.617900   -0.173800   -3.604100
  C     -2.920400    0.349100   -2.295100
  C     -4.095600    1.081900   -2.096400
  C     -4.425500    1.558800   -0.818000
  C     -5.669400    2.383400   -0.600900
  F     -6.134900    2.235500    0.694500
  F     -5.377600    3.716000   -0.825600
  F     -6.673300    1.988300   -1.468600
  C     -3.529300    1.321100    0.235800
  N     -2.391900    0.609700    0.021600
  C     -2.065100    0.120400   -1.203800
  N     -0.855600   -0.631000   -1.359900
  C     -0.785500   -2.013200   -0.879300
  C      0.140800   -2.122000    0.302500
  C      1.438600   -2.636900    0.144500
  C      2.320100   -2.669800    1.229200
  C      1.912200   -2.192700    2.478000
  C      0.621500   -1.685100    2.644800
  C     -0.262600   -1.649900    1.562500
  S      0.529100    0.119100   -2.099400
  O      1.099100   -0.817400   -3.128100
  O      0.123700    1.394800   -2.782800
  C      1.729800    0.490600   -0.866600
  C      1.339900    1.152900    0.302800
  C      2.265200    1.386800    1.323600
  C      3.599400    0.968700    1.184100
  C      4.572200    1.202000    2.273800
  O      5.775300    0.848500    2.142100
  O      4.167700    1.816100    3.456600
  C      3.991600    0.324000   -0.003700
  C      3.062900    0.088400   -1.021600
  H     -4.754300    1.274700   -2.935500
  H     -3.732000    1.698500    1.229000
  H     -1.796000   -2.372300   -0.584000
  H     -0.446800   -2.671400   -1.708100
  H      1.775800   -2.989000   -0.822300
  H      3.322700   -3.052000    1.098300
  H      2.598700   -2.210100    3.314100
  H      0.309700   -1.309900    3.610700
  H     -1.255100   -1.241900    1.703200
  H      0.314600    1.470600    0.433600
  H      1.932500    1.886900    2.224300
  H      4.825300    1.981000    4.209400
  H      5.012500   -0.009300   -0.141700
  H      3.382200   -0.425000   -1.919500

 Total Charge           Charge          ....    0
 Multiplicity           Mult            ....    1
 Number of Electrons    NEL             ....  236
 Basis Dimension        Dim             ....  480

ORBITAL ENERGIES
----------------

  NO   OCC          E(Eh)            E(eV)
   0   2.0000     -89.110197     -2424.8117
   1   2.0000     -24.745055      -673.3472
   2   2.0000     -24.743623      -673.3082
   3   2.0000     -24.739665      -673.2005
   4   2.0000     -19.197688      -522.3956
   5   2.0000     -19.139344      -520.8080
   6   2.0000     -19.138181      -520.7764
   7   2.0000     -19.136973      -520.7435
   8   2.0000     -14.390096      -391.5744
   9   2.0000     -14.378533      -391.2598
  10   2.0000     -14.347187      -390.4068
  11   2.0000     -10.463419      -284.7241
  12   2.0000     -10.337119      -281.2873
  13   2.0000     -10.313401      -280.6419
  14   2.0000     -10.274089      -279.5722
  15   2.0000     -10.268936      -279.4319
  16   2.0000     -10.255955      -279.0787
  17   2.0000     -10.254897      -279.0499
  18   2.0000     -10.245500      -278.7942
  19   2.0000     -10.244721      -278.7730
  20   2.0000     -10.235752      -278.5290
  21   2.0000     -10.231915      -278.4246
  22   2.0000     -10.220931      -278.1257
  23   2.0000     -10.219935      -278.0986
  24   2.0000     -10.217568      -278.0342
  25   2.0000     -10.216650      -278.0092
  26   2.0000     -10.200075      -277.5581
  27   2.0000     -10.191561      -277.3265
  28   2.0000     -10.191438      -277.3231
  29   2.0000     -10.190939      -277.3095
  30   2.0000     -10.190484      -277.2972
  31   2.0000     -10.189954      -277.2828
  32   2.0000      -8.145720      -221.6563
  33   2.0000      -6.111236      -166.2952
  34   2.0000      -6.108577      -166.2228
  35   2.0000      -6.108079      -166.2093
  36   2.0000      -1.303669       -35.4746
  37   2.0000      -1.229373       -33.4529
  38   2.0000      -1.227150       -33.3925
  39   2.0000      -1.095361       -29.8063
  40   2.0000      -1.082533       -29.4572
  41   2.0000      -1.000288       -27.2192
  42   2.0000      -0.996687       -27.1212
  43   2.0000      -0.973537       -26.4913
  44   2.0000      -0.942803       -25.6550
  45   2.0000      -0.916457       -24.9381
  46   2.0000      -0.891199       -24.2508
  47   2.0000      -0.862450       -23.4685
  48   2.0000      -0.860695       -23.4207
  49   2.0000      -0.830365       -22.5954
  50   2.0000      -0.809131       -22.0176
  51   2.0000      -0.779377       -21.2079
  52   2.0000      -0.776538       -21.1307
  53   2.0000      -0.751389       -20.4463
  54   2.0000      -0.737248       -20.0615
  55   2.0000      -0.720164       -19.5967
  56   2.0000      -0.701318       -19.0838
  57   2.0000      -0.694049       -18.8860
  58   2.0000      -0.672156       -18.2903
  59   2.0000      -0.643310       -17.5053
  60   2.0000      -0.632300       -17.2058
  61   2.0000      -0.615347       -16.7444
  62   2.0000      -0.610731       -16.6188
  63   2.0000      -0.607854       -16.5405
  64   2.0000      -0.595752       -16.2112
  65   2.0000      -0.594041       -16.1647
  66   2.0000      -0.592895       -16.1335
  67   2.0000      -0.571703       -15.5568
  68   2.0000      -0.547089       -14.8870
  69   2.0000      -0.546230       -14.8637
  70   2.0000      -0.537460       -14.6250
  71   2.0000      -0.532428       -14.4881
  72   2.0000      -0.515262       -14.0210
  73   2.0000      -0.497843       -13.5470
  74   2.0000      -0.488240       -13.2857
  75   2.0000      -0.480184       -13.0665
  76   2.0000      -0.475187       -12.9305
  77   2.0000      -0.472344       -12.8531
  78   2.0000      -0.470703       -12.8085
  79   2.0000      -0.469584       -12.7780
  80   2.0000      -0.463033       -12.5998
  81   2.0000      -0.462425       -12.5832
  82   2.0000      -0.451909       -12.2971
  83   2.0000      -0.450516       -12.2592
  84   2.0000      -0.448220       -12.1967
  85   2.0000      -0.444057       -12.0834
  86   2.0000      -0.438675       -11.9370
  87   2.0000      -0.436530       -11.8786
  88   2.0000      -0.434684       -11.8283
  89   2.0000      -0.428819       -11.6687
  90   2.0000      -0.427423       -11.6308
  91   2.0000      -0.420977       -11.4554
  92   2.0000      -0.418247       -11.3811
  93   2.0000      -0.409848       -11.1525
  94   2.0000      -0.405626       -11.0377
  95   2.0000      -0.397818       -10.8252
  96   2.0000      -0.386459       -10.5161
  97   2.0000      -0.376352       -10.2411
  98   2.0000      -0.369968       -10.0673
  99   2.0000      -0.368089       -10.0162
 100   2.0000      -0.364106        -9.9078
 101   2.0000      -0.359830        -9.7915
 102   2.0000      -0.350127        -9.5274
 103   2.0000      -0.347395        -9.4531
 104   2.0000      -0.338361        -9.2073
 105   2.0000      -0.325596        -8.8599
 106   2.0000      -0.324101        -8.8192
 107   2.0000      -0.313432        -8.5289
 108   2.0000      -0.309272        -8.4157
 109   2.0000      -0.300724        -8.1831
 110   2.0000      -0.297213        -8.0876
 111   2.0000      -0.290385        -7.9018
 112   2.0000      -0.285789        -7.7767
 113   2.0000      -0.280486        -7.6324
 114   2.0000      -0.276019        -7.5109
 115   2.0000      -0.267263        -7.2726
 116   2.0000      -0.252561        -6.8725
 117   2.0000      -0.249592        -6.7917
 118   0.0000      -0.091562        -2.4915
 119   0.0000      -0.083991        -2.2855
 120   0.0000      -0.077576        -2.1109
 121   0.0000      -0.034234        -0.9315
 122   0.0000      -0.016707        -0.4546

MULLIKEN ATOMIC CHARGES
-----------------------
   0 N :   -0.280734
   1 C :    0.109523
   2 C :    0.153224
   3 C :   -0.137931
   4 C :   -0.042341
   5 C :    0.910168
   6 F :   -0.300098
   7 F :   -0.287455
   8 F :   -0.298394
   9 C :    0.004951
  10 N :   -0.386295
  11 C :    0.385313
  12 N :   -0.624806
  13 C :   -0.247530
  14 C :    0.137888
  15 C :   -0.177882
  16 C :   -0.122982
  17 C :   -0.125179
  18 C :   -0.129359
  19 C :   -0.159714
  20 S :    1.211481
  21 O :   -0.531062
  22 O :   -0.533001
  23 C :   -0.111047
  24 C :   -0.133621
  25 C :   -0.141569
  26 C :    0.087093
  27 C :    0.525596
  28 O :   -0.445191
  29 O :   -0.624818
  30 C :   -0.138924
  31 C :   -0.142359
  32 H :    0.198344
  33 H :    0.187163
  34 H :    0.179025
  35 H :    0.198004
  36 H :    0.147983
  37 H :    0.136136
  38 H :    0.132801
  39 H :    0.129993
  40 H :    0.138608
  41 H :    0.177673
  42 H :    0.169338
  43 H :    0.433398
  44 H :    0.179033
  45 H :    0.189557
Sum of atomic charges:    0.0000000

LOEWDIN ATOMIC CHARGES
----------------------
   0 N :   -0.052815
   1 C :   -0.005285
   2 C :   -0.041950
   3 C :   -0.055281
   4 C :   -0.075120
   5 C :    0.314003
   6 F :   -0.107836
   7 F :   -0.105548
   8 F :   -0.107389
   9 C :   -0.038898
  10 N :   -0.121017
  11 C :    0.085611
  12 N :   -0.285588
  13 C :   -0.144121
  14 C :   -0.044994
  15 C :   -0.131766
  16 C :   -0.124431
  17 C :   -0.126027
  18 C :   -0.128423
  19 C :   -0.126522
  20 S :    1.270028
  21 O :   -0.561420
  22 O :   -0.560423
  23 C :   -0.166139
  24 C :   -0.097353
  25 C :   -0.094363
  26 C :   -0.037504
  27 C :    0.179618
  28 O :   -0.261475
  29 O :   -0.335824
  30 C :   -0.086104
  31 C :   -0.098252
  32 H :    0.167438
  33 H :    0.153776
  34 H :    0.147467
  35 H :    0.148608
  36 H :    0.138848
  37 H :    0.134976
  38 H :    0.133237
  39 H :    0.131875
  40 H :    0.136055
  41 H :    0.155015
  42 H :    0.153394
  43 H :    0.349235
  44 H :    0.159784
  45 H :    0.162899

  Mayer bond orders larger than 0.100000
B(  0-N ,  1-C ) :   2.9902 B(  1-C ,  2-C ) :   0.9635 B(  2-C ,  3-C ) :   1.3828
B(  2-C , 11-C ) :   1.3533 B(  3-C ,  4-C ) :   1.3930 B(  3-C , 32-H ) :   0.9058
B(  4-C ,  5-C ) :   0.9701 B(  4-C ,  9-C ) :   1.3625 B(  5-C ,  6-F ) :   0.9499
B(  5-C ,  7-F ) :   0.9938 B(  5-C ,  8-F ) :   0.9529 B(  9-C , 10-N ) :   1.3997
B(  9-C , 33-H ) :   0.9163 B( 10-N , 11-C ) :   1.3707 B( 11-C , 12-N ) :   0.9420
B( 12-N , 13-C ) :   0.8977 B( 12-N , 20-S ) :   0.7713 B( 13-C , 14-C ) :   0.9545
B( 13-C , 34-H ) :   0.9217 B( 13-C , 35-H ) :   0.9161 B( 14-C , 15-C ) :   1.4398
B( 14-C , 19-C ) :   1.4261 B( 15-C , 16-C ) :   1.4299 B( 15-C , 36-H ) :   0.9181
B( 16-C , 17-C ) :   1.4603 B( 16-C , 37-H ) :   0.9280 B( 17-C , 18-C ) :   1.4418
B( 17-C , 38-H ) :   0.9297 B( 18-C , 19-C ) :   1.4489 B( 18-C , 39-H ) :   0.9299
B( 19-C , 40-H ) :   0.9137 B( 20-S , 21-O ) :   1.6412 B( 20-S , 22-O ) :   1.6631
B( 20-S , 23-C ) :   0.8162 B( 23-C , 24-C ) :   1.3852 B( 23-C , 31-C ) :   1.3924
B( 24-C , 25-C ) :   1.4289 B( 24-C , 41-H ) :   0.9036 B( 25-C , 26-C ) :   1.3830
B( 25-C , 42-H ) :   0.9153 B( 26-C , 27-C ) :   1.0090 B( 26-C , 30-C ) :   1.4001
B( 27-C , 28-O ) :   1.8623 B( 27-C , 29-O ) :   1.0230 B( 29-O , 43-H ) :   0.7422
B( 30-C , 31-C ) :   1.4188 B( 30-C , 44-H ) :   0.9097 B( 31-C , 45-H ) :   0.9083

FINAL SINGLE POINT ENERGY     -1970.493500996885

DIPOLE MOMENT
-------------

Method             : SCF
Type of density    : Electron Density
Multiplicity       :   1
Irrep              :   0
Energy             : -1970.4935009968851318 Eh
Relativity type    :
Basis              : AO
                                X                 Y                 Z
Electronic contribution:    -33.111356432      18.278196176     -11.586551642
Nuclear contribution   :     32.472458621     -18.336766538      14.523777638
                        -----------------------------------------
Total Dipole Moment    :     -0.638897811      -0.058570363       2.937225996
                        -----------------------------------------
Magnitude (a.u.)       :      3.006479246
Magnitude (Debye)      :      7.641862934

Rotational constants in cm-1:             0.007459             0.002483             0.002282
Rotational constants in MHz :           223.602149            74.449834            68.399188

                             ****ORCA TERMINATED NORMALLY****
TOTAL RUN TIME: 0 days 0 hours 8 minutes 52 seconds 799 msec
