                         Program Version 6.0.0  -   RELEASE  -
|  1> ! B3LYP 6-31G* SP
|  2>
|  3> * xyz 0 1
|  4> C 6.4478 -0.8946 -0.8540
|  5> C 5.0969 -1.4026 -0.4326
|  6> C 4.9314 -2.7317 -0.0251
|  7> C 3.6731 -3.2017 0.3571
|  8> C 2.5609 -2.3500 0.3226
|  9> C 1.3069 -2.8178 0.7247
| 10> N 0.2414 -1.9820 0.7272
| 11> C 0.3248 -0.6881 0.3234
| 12> N -0.8449 0.1339 0.4245
| 13> C -1.7774 0.2551 -0.7002
| 14> C -2.5055 -1.0425 -0.9860
| 15> C -2.8495 -1.9345 0.0461
| 16> C -3.5603 -3.1053 -0.2360
| 17> C -3.9895 -3.3788 -1.5504
| 18> O -4.7148 -4.5332 -1.8896
| 19> C -4.9046 -5.6656 -1.0423
| 20> F -5.6438 -5.3164 0.0756
| 21> F -3.6782 -6.1775 -0.6573
| 22> F -5.5953 -6.6402 -1.7398
| 23> C -3.6869 -2.4679 -2.5674
| 24> C -2.9491 -1.3125 -2.2918
| 25> S -1.1720 0.9526 1.9201
| 26> O -2.5875 0.6788 2.3474
| 27> O -0.2500 0.4404 2.9933
| 28> C -0.9327 2.6847 1.7156
| 29> C 0.3163 3.2615 1.9814
| 30> C 0.5092 4.6360 1.8101
| 31> C -0.5482 5.4550 1.3754
| 32> C -0.3442 6.9121 1.2080
| 33> O -1.3062 7.6596 0.8851
| 34> O 0.9139 7.4739 1.4144
| 35> C -1.8004 4.8690 1.1091
| 36> C -1.9880 3.4930 1.2738
| 37> C 1.5578 -0.1643 -0.1337
| 38> C 1.6662 1.2766 -0.5811
| 39> C 2.6992 -1.0105 -0.1138
| 40> C 3.9835 -0.5522 -0.4911
| 41> H 7.2530 -1.6049 -0.5710
| 42> H 6.4646 -0.7558 -1.9567
| 43> H 6.6558 0.0802 -0.3604
| 44> H 5.7779 -3.4057 0.0115
| 45> H 3.5721 -4.2299 0.6836
| 46> H 1.1736 -3.8442 1.0507
| 47> H -1.2130 0.5874 -1.6031
| 48> H -2.5383 1.0379 -0.4807
| 49> H -2.5604 -1.7364 1.0705
| 50> H -3.7818 -3.7802 0.5782
| 51> H -4.0186 -2.6622 -3.5816
| 52> H -2.7314 -0.6232 -3.0982
| 53> H 1.1425 2.6471 2.3182
| 54> H 1.4850 5.0562 2.0223
| 55> H 1.0624 8.4722 1.3099
| 56> H -2.6345 5.4721 0.7716
| 57> H -2.9576 3.0598 1.0595
| 58> H 2.1192 1.3284 -1.5938
| 59> H 0.6855 1.7879 -0.6417
| 60> H 2.3045 1.8367 0.1349
| 61> H 4.1390 0.4643 -0.8229
| 62> *
| 63>
| 64>                          ****END OF INPUT****

CARTESIAN COORDINATES (ANGSTROEM)
---------------------------------
  C      6.447800   -0.894600   -0.854000
  C      5.096900   -1.402600   -0.432600
  C      4.931400   -2.731700   -0.025100
  C      3.673100   -3.201700    0.357100
  C      2.560900   -2.350000    0.322600
  C      1.306900   -2.817800    0.724700
  N      0.241400   -1.982000    0.727200
  C      0.324800   -0.688100    0.323400
  N     -0.844900    0.133900    0.424500
  C     -1.777400    0.255100   -0.700200
  C     -2.505500   -1.042500   -0.986000
  C     -2.849500   -1.934500    0.046100
  C     -3.560300   -3.105300   -0.236000
  C     -3.989500   -3.378800   -1.550400
  O     -4.714800   -4.533200   -1.889600
  C     -4.904600   -5.665600   -1.042300
  F     -5.643800   -5.316400    0.075600
  F     -3.678200   -6.177500   -0.657300
  F     -5.595300   -6.640200   -1.739800
  C     -3.686900   -2.467900   -2.567400
  C     -2.949100   -1.312500   -2.291800
  S     -1.172000    0.952600    1.920100
  O     -2.587500    0.678800    2.347400
  O     -0.250000    0.440400    2.993300
  C     -0.932700    2.684700    1.715600
  C      0.316300    3.261500    1.981400
  C      0.509200    4.636000    1.810100
  C     -0.548200    5.455000    1.375400
  C     -0.344200    6.912100    1.208000
  O     -1.306200    7.659600    0.885100
  O      0.913900    7.473900    1.414400
  C     -1.800400    4.869000    1.109100
  C     -1.988000    3.493000    1.273800
  C      1.557800   -0.164300   -0.133700
  C      1.666200    1.276600   -0.581100
  C      2.699200   -1.010500   -0.113800
  C      3.983500   -0.552200   -0.491100
  H      7.253000   -1.604900   -0.571000
  H      6.464600   -0.755800   -1.956700
  H      6.655800    0.080200   -0.360400
  H      5.777900   -3.405700    0.011500
  H      3.572100   -4.229900    0.683600
  H      1.173600   -3.844200    1.050700
  H     -1.213000    0.587400   -1.603100
  H     -2.538300    1.037900   -0.480700
  H     -2.560400   -1.736400    1.070500
  H     -3.781800   -3.780200    0.578200
  H     -4.018600   -2.662200   -3.581600
  H     -2.731400   -0.623200   -3.098200
  H      1.142500    2.647100    2.318200
  H      1.485000    5.056200    2.022300
  H      1.062400    8.472200    1.309900
  H     -2.634500    5.472100    0.771600
  H     -2.957600    3.059800    1.059500
  H      2.119200    1.328400   -1.593800
  H      0.685500    1.787900   -0.641700
  H      2.304500    1.836700    0.134900
  H      4.139000    0.464300   -0.822900

 Total Charge           Charge          ....    0
 Multiplicity           Mult            ....    1
 Number of Electrons    NEL             ....  274
 Basis Dimension        Dim             ....  564

ORBITAL ENERGIES
----------------

  NO   OCC          E(Eh)            E(eV)
   0   2.0000     -89.098821     -2424.5022
   1   2.0000     -24.732646      -673.0095
   2   2.0000     -24.730035      -672.9385
   3   2.0000     -24.729160      -672.9147
   4   2.0000     -19.202344      -522.5223
   5   2.0000     -19.199824      -522.4538
   6   2.0000     -19.141624      -520.8701
   7   2.0000     -19.127270      -520.4795
   8   2.0000     -19.126597      -520.4612
   9   2.0000     -14.371804      -391.0767
  10   2.0000     -14.327210      -389.8632
  11   2.0000     -10.494772      -285.5773
  12   2.0000     -10.339143      -281.3424
  13   2.0000     -10.259451      -279.1739
  14   2.0000     -10.256089      -279.0824
  15   2.0000     -10.246201      -278.8133
  16   2.0000     -10.238994      -278.6172
  17   2.0000     -10.236372      -278.5458
  18   2.0000     -10.225012      -278.2367
  19   2.0000     -10.224199      -278.2146
  20   2.0000     -10.223126      -278.1854
  21   2.0000     -10.221912      -278.1524
  22   2.0000     -10.221902      -278.1521
  23   2.0000     -10.212020      -277.8832
  24   2.0000     -10.208216      -277.7797
  25   2.0000     -10.207502      -277.7602
  26   2.0000     -10.198975      -277.5282
  27   2.0000     -10.198152      -277.5058
  28   2.0000     -10.195316      -277.4287
  29   2.0000     -10.194012      -277.3932
  30   2.0000     -10.193643      -277.3831
  31   2.0000     -10.191011      -277.3115
  32   2.0000     -10.189637      -277.2741
  33   2.0000     -10.187972      -277.2288
  34   2.0000     -10.186338      -277.1844
  35   2.0000     -10.181699      -277.0581
  36   2.0000     -10.178123      -276.9608
  37   2.0000      -8.134428      -221.3490
  38   2.0000      -6.099418      -165.9736
  39   2.0000      -6.097480      -165.9209
  40   2.0000      -6.097120      -165.9111
  41   2.0000      -1.294373       -35.2217
  42   2.0000      -1.215249       -33.0686
  43   2.0000      -1.215074       -33.0638
  44   2.0000      -1.084251       -29.5040
  45   2.0000      -1.084128       -29.5006
  46   2.0000      -1.071808       -29.1654
  47   2.0000      -0.998592       -27.1731
  48   2.0000      -0.963600       -26.2209
  49   2.0000      -0.960508       -26.1368
  50   2.0000      -0.913586       -24.8600
  51   2.0000      -0.894026       -24.3277
  52   2.0000      -0.867944       -23.6180
  53   2.0000      -0.852106       -23.1870
  54   2.0000      -0.812109       -22.0986
  55   2.0000      -0.810203       -22.0467
  56   2.0000      -0.794470       -21.6186
  57   2.0000      -0.780759       -21.2455
  58   2.0000      -0.775214       -21.0946
  59   2.0000      -0.746064       -20.3014
  60   2.0000      -0.745274       -20.2799
  61   2.0000      -0.724876       -19.7249
  62   2.0000      -0.721069       -19.6213
  63   2.0000      -0.706053       -19.2127
  64   2.0000      -0.690481       -18.7890
  65   2.0000      -0.673522       -18.3275
  66   2.0000      -0.655991       -17.8504
  67   2.0000      -0.642792       -17.4913
  68   2.0000      -0.630036       -17.1441
  69   2.0000      -0.621216       -16.9042
  70   2.0000      -0.618099       -16.8193
  71   2.0000      -0.610945       -16.6247
  72   2.0000      -0.598075       -16.2745
  73   2.0000      -0.592919       -16.1342
  74   2.0000      -0.586644       -15.9634
  75   2.0000      -0.580890       -15.8068
  76   2.0000      -0.562271       -15.3002
  77   2.0000      -0.561279       -15.2732
  78   2.0000      -0.543946       -14.8015
  79   2.0000      -0.529402       -14.4058
  80   2.0000      -0.515513       -14.0278
  81   2.0000      -0.505792       -13.7633
  82   2.0000      -0.494709       -13.4617
  83   2.0000      -0.492946       -13.4137
  84   2.0000      -0.482626       -13.1329
  85   2.0000      -0.476927       -12.9778
  86   2.0000      -0.471879       -12.8405
  87   2.0000      -0.465082       -12.6555
  88   2.0000      -0.463742       -12.6191
  89   2.0000      -0.460175       -12.5220
  90   2.0000      -0.455310       -12.3896
  91   2.0000      -0.453422       -12.3382
  92   2.0000      -0.452893       -12.3239
  93   2.0000      -0.449374       -12.2281
  94   2.0000      -0.446884       -12.1603
  95   2.0000      -0.445690       -12.1278
  96   2.0000      -0.440225       -11.9791
  97   2.0000      -0.438099       -11.9213
  98   2.0000      -0.435875       -11.8608
  99   2.0000      -0.431629       -11.7452
 100   2.0000      -0.430041       -11.7020
 101   2.0000      -0.426085       -11.5944
 102   2.0000      -0.424229       -11.5439
 103   2.0000      -0.421415       -11.4673
 104   2.0000      -0.418188       -11.3795
 105   2.0000      -0.416551       -11.3349
 106   2.0000      -0.411984       -11.2107
 107   2.0000      -0.407234       -11.0814
 108   2.0000      -0.398817       -10.8524
 109   2.0000      -0.395908       -10.7732
 110   2.0000      -0.394132       -10.7249
 111   2.0000      -0.389269       -10.5926
 112   2.0000      -0.389090       -10.5877
 113   2.0000      -0.385468       -10.4891
 114   2.0000      -0.380075       -10.3424
 115   2.0000      -0.372255       -10.1296
 116   2.0000      -0.365320        -9.9408
 117   2.0000      -0.363359        -9.8875
 118   2.0000      -0.352401        -9.5893
 119   2.0000      -0.344441        -9.3727
 120   2.0000      -0.336520        -9.1572
 121   2.0000      -0.332300        -9.0423
 122   2.0000      -0.325784        -8.8650
 123   2.0000      -0.324231        -8.8228
 124   2.0000      -0.309135        -8.4120
 125   2.0000      -0.295850        -8.0505
 126   2.0000      -0.291490        -7.9318
 127   2.0000      -0.289955        -7.8901
 128   2.0000      -0.282394        -7.6843
 129   2.0000      -0.278072        -7.5667
 130   2.0000      -0.272850        -7.4246
 131   2.0000      -0.262078        -7.1315
 132   2.0000      -0.256602        -6.9825
 133   2.0000      -0.254149        -6.9157
 134   2.0000      -0.242973        -6.6116
 135   2.0000      -0.226137        -6.1535
 136   2.0000      -0.222135        -6.0446
 137   0.0000      -0.087120        -2.3707
 138   0.0000      -0.062236        -1.6935
 139   0.0000      -0.036645        -0.9972
 140   0.0000      -0.031033        -0.8444
 141   0.0000      -0.003310        -0.0901

MULLIKEN ATOMIC CHARGES
-----------------------
   0 C :   -0.527668
   1 C :    0.183300
   2 C :   -0.177159
   3 C :   -0.200520
   4 C :    0.134594
   5 C :   -0.044348
   6 N :   -0.373270
   7 C :    0.322903
   8 N :   -0.623425
   9 C :   -0.215895
  10 C :    0.136344
  11 C :   -0.129863
  12 C :   -0.197001
  13 C :    0.350186
  14 O :   -0.548198
  15 C :    1.083690
  16 F :   -0.290041
  17 F :   -0.291563
  18 F :   -0.282167
  19 C :   -0.171116
  20 C :   -0.174958
  21 S :    1.203444
  22 O :   -0.545019
  23 O :   -0.535376
  24 C :   -0.119934
  25 C :   -0.145363
  26 C :   -0.148018
  27 C :    0.082218
  28 C :    0.528322
  29 O :   -0.442474
  30 O :   -0.624369
  31 C :   -0.139651
  32 C :   -0.151967
  33 C :    0.100342
  34 C :   -0.544023
  35 C :    0.132511
  36 C :   -0.251889
  37 H :    0.157566
  38 H :    0.169349
  39 H :    0.162835
  40 H :    0.131329
  41 H :    0.141299
  42 H :    0.155800
  43 H :    0.153132
  44 H :    0.178993
  45 H :    0.187333
  46 H :    0.154050
  47 H :    0.141645
  48 H :    0.124305
  49 H :    0.185190
  50 H :    0.172848
  51 H :    0.434782
  52 H :    0.182123
  53 H :    0.184459
  54 H :    0.161889
  55 H :    0.167758
  56 H :    0.163359
  57 H :    0.127376
Sum of atomic charges:   -0.0000000

LOEWDIN ATOMIC CHARGES
----------------------
   0 C :   -0.352493
   1 C :   -0.008816
   2 C :   -0.129676
   3 C :   -0.106986
   4 C :   -0.029839
   5 C :   -0.053002
   6 N :   -0.113468
   7 C :    0.031427
   8 N :   -0.284598
   9 C :   -0.143500
  10 C :   -0.042724
  11 C :   -0.096198
  12 C :   -0.157421
  13 C :    0.083757
  14 O :   -0.162860
  15 C :    0.360840
  16 F :   -0.105446
  17 F :   -0.105694
  18 F :   -0.091196
  19 C :   -0.146348
  20 C :   -0.128789
  21 S :    1.261175
  22 O :   -0.568620
  23 O :   -0.566262
  24 C :   -0.174964
  25 C :   -0.103068
  26 C :   -0.100191
  27 C :   -0.039170
  28 C :    0.179766
  29 O :   -0.258835
  30 O :   -0.335592
  31 C :   -0.085614
  32 C :   -0.108727
  33 C :   -0.015227
  34 C :   -0.360458
  35 C :   -0.004312
  36 C :   -0.134195
  37 H :    0.132770
  38 H :    0.141314
  39 H :    0.137656
  40 H :    0.134151
  41 H :    0.138376
  42 H :    0.138909
  43 H :    0.125767
  44 H :    0.144737
  45 H :    0.159361
  46 H :    0.143211
  47 H :    0.141777
  48 H :    0.131160
  49 H :    0.159096
  50 H :    0.154717
  51 H :    0.350432
  52 H :    0.161069
  53 H :    0.158255
  54 H :    0.135738
  55 H :    0.137317
  56 H :    0.137203
  57 H :    0.134308

  Mayer bond orders larger than 0.100000
B(  0-C ,  1-C ) :   0.9832 B(  0-C , 37-H ) :   0.9467 B(  0-C , 38-H ) :   0.9342
B(  0-C , 39-H ) :   0.9407 B(  1-C ,  2-C ) :   1.3529 B(  1-C , 36-C ) :   1.4750
B(  2-C ,  3-C ) :   1.4954 B(  2-C , 40-H ) :   0.9237 B(  3-C ,  4-C ) :   1.2861
B(  3-C , 36-C ) :   0.1035 B(  3-C , 41-H ) :   0.9219 B(  4-C ,  5-C ) :   1.2308
B(  4-C , 35-C ) :   1.2909 B(  5-C ,  6-N ) :   1.4951 B(  5-C , 33-C ) :   0.1001
B(  5-C , 42-H ) :   0.9258 B(  6-N ,  7-C ) :   1.2915 B(  7-C ,  8-N ) :   0.8827
B(  7-C , 33-C ) :   1.4423 B(  8-N ,  9-C ) :   0.9241 B(  8-N , 21-S ) :   0.8124
B(  9-C , 10-C ) :   0.9625 B(  9-C , 43-H ) :   0.9237 B(  9-C , 44-H ) :   0.9073
B( 10-C , 11-C ) :   1.4374 B( 10-C , 20-C ) :   1.4248 B( 11-C , 12-C ) :   1.4331
B( 11-C , 45-H ) :   0.8964 B( 12-C , 13-C ) :   1.3855 B( 12-C , 46-H ) :   0.9102
B( 13-C , 14-O ) :   0.8171 B( 13-C , 19-C ) :   1.4255 B( 14-O , 15-C ) :   0.9946
B( 15-C , 16-F ) :   0.9654 B( 15-C , 17-F ) :   0.9747 B( 15-C , 18-F ) :   1.0040
B( 19-C , 20-C ) :   1.4352 B( 19-C , 47-H ) :   0.9193 B( 20-C , 48-H ) :   0.9250
B( 21-S , 22-O ) :   1.6256 B( 21-S , 23-O ) :   1.6457 B( 21-S , 24-C ) :   0.8103
B( 24-C , 25-C ) :   1.3957 B( 24-C , 32-C ) :   1.3812 B( 25-C , 26-C ) :   1.4157
B( 25-C , 49-H ) :   0.9080 B( 26-C , 27-C ) :   1.3830 B( 26-C , 50-H ) :   0.9148
B( 27-C , 28-C ) :   1.0070 B( 27-C , 31-C ) :   1.4030 B( 28-C , 29-O ) :   1.8648
B( 28-C , 30-O ) :   1.0243 B( 30-O , 51-H ) :   0.7414 B( 31-C , 32-C ) :   1.4206
B( 31-C , 52-H ) :   0.9093 B( 32-C , 53-H ) :   0.9087 B( 33-C , 34-C ) :   0.9965
B( 33-C , 35-C ) :   1.2585 B( 34-C , 54-H ) :   0.9278 B( 34-C , 55-H ) :   0.9319
B( 34-C , 56-H ) :   0.9249 B( 35-C , 36-C ) :   1.2847 B( 36-C , 57-H ) :   0.9143

FINAL SINGLE POINT ENERGY     -2185.601876559933

DIPOLE MOMENT
-------------

Method             : SCF
Type of density    : Electron Density
Multiplicity       :   1
Irrep              :   0
Energy             : -2185.6018765599333165 Eh
Relativity type    :
Basis              : AO
                                X                 Y                 Z
Electronic contribution:    -43.539662414     -29.468723413       3.681564682
Nuclear contribution   :     46.486518193      30.858334583      -5.276622631
                        -----------------------------------------
Total Dipole Moment    :      2.946855778       1.389611170      -1.595057948
                        -----------------------------------------
Magnitude (a.u.)       :      3.627559516
Magnitude (Debye)      :      9.220523522

Rotational constants in cm-1:             0.003629             0.001781             0.001305
Rotational constants in MHz :           108.806411            53.402228            39.113836

                             ****ORCA TERMINATED NORMALLY****
TOTAL RUN TIME: 0 days 0 hours 7 minutes 9 seconds 910 msec
