                         Program Version 6.0.0  -   RELEASE  -
|  1> ! B3LYP 6-31G* SP
|  2>
|  3> * xyz 0 1
|  4> C -0.2514 -1.3865 -1.9116
|  5> C 0.7543 -1.7138 -0.8297
|  6> C 1.3984 -0.6823 -0.1056
|  7> N 1.1237 0.6978 -0.3731
|  8> C 0.3520 1.4835 0.5899
|  9> C -1.0799 1.0256 0.5924
| 10> C -1.9903 1.5527 -0.3342
| 11> C -3.3046 1.0799 -0.3803
| 12> C -3.7279 0.0626 0.4941
| 13> C -5.1239 -0.4399 0.4453
| 14> C -6.2000 0.4549 0.2896
| 15> C -7.5145 -0.0196 0.2456
| 16> C -7.7695 -1.3891 0.3541
| 17> C -6.7102 -2.2871 0.5076
| 18> C -5.3935 -1.8177 0.5545
| 19> C -2.8068 -0.4735 1.4112
| 20> C -1.4936 0.0018 1.4565
| 21> S 1.9497 1.4946 -1.6744
| 22> O 0.9501 2.2302 -2.5230
| 23> O 2.6541 0.4836 -2.5359
| 24> C 3.1345 2.6088 -1.0038
| 25> C 2.9083 3.9909 -1.0287
| 26> C 3.8416 4.8669 -0.4668
| 27> C 5.0135 4.3710 0.1333
| 28> C 6.0038 5.2939 0.7304
| 29> O 5.8078 6.5397 0.7131
| 30> O 7.1654 4.7951 1.3146
| 31> C 5.2299 2.9818 0.1606
| 32> C 4.2945 2.1082 -0.4015
| 33> N 2.2725 -0.9883 0.8882
| 34> C 2.5747 -2.2654 1.2236
| 35> C 1.9754 -3.3298 0.5458
| 36> C 2.2812 -4.6537 0.8964
| 37> C 1.6748 -5.7153 0.2245
| 38> C 0.7623 -5.4649 -0.8003
| 39> C 0.4494 -4.1518 -1.1608
| 40> C 1.0506 -3.0607 -0.4946
| 41> H 0.0839 -1.8188 -2.8782
| 42> H -1.2428 -1.8072 -1.6386
| 43> H -0.3865 -0.2978 -2.0653
| 44> H 0.7976 1.3756 1.6032
| 45> H 0.3973 2.5650 0.3340
| 46> H -1.6787 2.3222 -1.0296
| 47> H -3.9839 1.4936 -1.1158
| 48> H -6.0257 1.5216 0.2200
| 49> H -8.3364 0.6757 0.1306
| 50> H -8.7878 -1.7542 0.3189
| 51> H -6.9091 -3.3484 0.5871
| 52> H -4.5862 -2.5323 0.6580
| 53> H -3.1052 -1.2521 2.1021
| 54> H -0.7968 -0.4340 2.1608
| 55> H 2.0086 4.3931 -1.4769
| 56> H 3.6432 5.9311 -0.4995
| 57> H 7.8501 5.4195 1.7242
| 58> H 6.1195 2.5686 0.6192
| 59> H 4.4723 1.0403 -0.3632
| 60> H 3.2808 -2.4463 2.0250
| 61> H 2.9869 -4.8666 1.6907
| 62> H 1.9119 -6.7348 0.4997
| 63> H 0.2944 -6.2923 -1.3178
| 64> H -0.2639 -4.0055 -1.9606
| 65> *
| 66>
| 67>                          ****END OF INPUT****

CARTESIAN COORDINATES (ANGSTROEM)
---------------------------------
  C     -0.251400   -1.386500   -1.911600
  C      0.754300   -1.713800   -0.829700
  C      1.398400   -0.682300   -0.105600
  N      1.123700    0.697800   -0.373100
  C      0.352000    1.483500    0.589900
  C     -1.079900    1.025600    0.592400
  C     -1.990300    1.552700   -0.334200
  C     -3.304600    1.079900   -0.380300
  C     -3.727900    0.062600    0.494100
  C     -5.123900   -0.439900    0.445300
  C     -6.200000    0.454900    0.289600
  C     -7.514500   -0.019600    0.245600
  C     -7.769500   -1.389100    0.354100
  C     -6.710200   -2.287100    0.507600
  C     -5.393500   -1.817700    0.554500
  C     -2.806800   -0.473500    1.411200
  C     -1.493600    0.001800    1.456500
  S      1.949700    1.494600   -1.674400
  O      0.950100    2.230200   -2.523000
  O      2.654100    0.483600   -2.535900
  C      3.134500    2.608800   -1.003800
  C      2.908300    3.990900   -1.028700
  C      3.841600    4.866900   -0.466800
  C      5.013500    4.371000    0.133300
  C      6.003800    5.293900    0.730400
  O      5.807800    6.539700    0.713100
  O      7.165400    4.795100    1.314600
  C      5.229900    2.981800    0.160600
  C      4.294500    2.108200   -0.401500
  N      2.272500   -0.988300    0.888200
  C      2.574700   -2.265400    1.223600
  C      1.975400   -3.329800    0.545800
  C      2.281200   -4.653700    0.896400
  C      1.674800   -5.715300    0.224500
  C      0.762300   -5.464900   -0.800300
  C      0.449400   -4.151800   -1.160800
  C      1.050600   -3.060700   -0.494600
  H      0.083900   -1.818800   -2.878200
  H     -1.242800   -1.807200   -1.638600
  H     -0.386500   -0.297800   -2.065300
  H      0.797600    1.375600    1.603200
  H      0.397300    2.565000    0.334000
  H     -1.678700    2.322200   -1.029600
  H     -3.983900    1.493600   -1.115800
  H     -6.025700    1.521600    0.220000
  H     -8.336400    0.675700    0.130600
  H     -8.787800   -1.754200    0.318900
  H     -6.909100   -3.348400    0.587100
  H     -4.586200   -2.532300    0.658000
  H     -3.105200   -1.252100    2.102100
  H     -0.796800   -0.434000    2.160800
  H      2.008600    4.393100   -1.476900
  H      3.643200    5.931100   -0.499500
  H      7.850100    5.419500    1.724200
  H      6.119500    2.568600    0.619200
  H      4.472300    1.040300   -0.363200
  H      3.280800   -2.446300    2.025000
  H      2.986900   -4.866600    1.690700
  H      1.911900   -6.734800    0.499700
  H      0.294400   -6.292300   -1.317800
  H     -0.263900   -4.005500   -1.960600

 Total Charge           Charge          ....    0
 Multiplicity           Mult            ....    1
 Number of Electrons    NEL             ....  266
 Basis Dimension        Dim             ....  570

ORBITAL ENERGIES
----------------

  NO   OCC          E(Eh)            E(eV)
   0   2.0000     -89.094242     -2424.3776
   1   2.0000     -19.193932      -522.2934
   2   2.0000     -19.135169      -520.6944
   3   2.0000     -19.124842      -520.4134
   4   2.0000     -19.123483      -520.3764
   5   2.0000     -14.366558      -390.9339
   6   2.0000     -14.331215      -389.9722
   7   2.0000     -10.332705      -281.1672
   8   2.0000     -10.254789      -279.0470
   9   2.0000     -10.238009      -278.5904
  10   2.0000     -10.228766      -278.3389
  11   2.0000     -10.228393      -278.3287
  12   2.0000     -10.223728      -278.2018
  13   2.0000     -10.216384      -278.0019
  14   2.0000     -10.215635      -277.9816
  15   2.0000     -10.213744      -277.9301
  16   2.0000     -10.213500      -277.9235
  17   2.0000     -10.206585      -277.7353
  18   2.0000     -10.203754      -277.6583
  19   2.0000     -10.199279      -277.5365
  20   2.0000     -10.196818      -277.4695
  21   2.0000     -10.196341      -277.4566
  22   2.0000     -10.195168      -277.4246
  23   2.0000     -10.194171      -277.3975
  24   2.0000     -10.192406      -277.3495
  25   2.0000     -10.191544      -277.3260
  26   2.0000     -10.189274      -277.2642
  27   2.0000     -10.183118      -277.0967
  28   2.0000     -10.182219      -277.0723
  29   2.0000     -10.181576      -277.0548
  30   2.0000     -10.181377      -277.0493
  31   2.0000     -10.181260      -277.0462
  32   2.0000     -10.181104      -277.0419
  33   2.0000     -10.180705      -277.0311
  34   2.0000     -10.180458      -277.0243
  35   2.0000     -10.179950      -277.0105
  36   2.0000     -10.169213      -276.7184
  37   2.0000      -8.130052      -221.2300
  38   2.0000      -6.095010      -165.8537
  39   2.0000      -6.093125      -165.8024
  40   2.0000      -6.092707      -165.7910
  41   2.0000      -1.081299       -29.4237
  42   2.0000      -1.078328       -29.3428
  43   2.0000      -0.992332       -27.0027
  44   2.0000      -0.961740       -26.1703
  45   2.0000      -0.958978       -26.0951
  46   2.0000      -0.912150       -24.8209
  47   2.0000      -0.886363       -24.1192
  48   2.0000      -0.864302       -23.5189
  49   2.0000      -0.861406       -23.4400
  50   2.0000      -0.841475       -22.8977
  51   2.0000      -0.806300       -21.9405
  52   2.0000      -0.801591       -21.8124
  53   2.0000      -0.783314       -21.3151
  54   2.0000      -0.773182       -21.0393
  55   2.0000      -0.772266       -21.0144
  56   2.0000      -0.746017       -20.3001
  57   2.0000      -0.743447       -20.2302
  58   2.0000      -0.738377       -20.0923
  59   2.0000      -0.733981       -19.9726
  60   2.0000      -0.708332       -19.2747
  61   2.0000      -0.692946       -18.8560
  62   2.0000      -0.677922       -18.4472
  63   2.0000      -0.651487       -17.7279
  64   2.0000      -0.642248       -17.4765
  65   2.0000      -0.633344       -17.2342
  66   2.0000      -0.618578       -16.8324
  67   2.0000      -0.615664       -16.7531
  68   2.0000      -0.608095       -16.5471
  69   2.0000      -0.592972       -16.1356
  70   2.0000      -0.590823       -16.0771
  71   2.0000      -0.589204       -16.0331
  72   2.0000      -0.570406       -15.5215
  73   2.0000      -0.557155       -15.1609
  74   2.0000      -0.537396       -14.6233
  75   2.0000      -0.532432       -14.4882
  76   2.0000      -0.524462       -14.2713
  77   2.0000      -0.511360       -13.9148
  78   2.0000      -0.499802       -13.6003
  79   2.0000      -0.490131       -13.3371
  80   2.0000      -0.487712       -13.2713
  81   2.0000      -0.478817       -13.0293
  82   2.0000      -0.472563       -12.8591
  83   2.0000      -0.469935       -12.7876
  84   2.0000      -0.467242       -12.7143
  85   2.0000      -0.461002       -12.5445
  86   2.0000      -0.458111       -12.4658
  87   2.0000      -0.447251       -12.1703
  88   2.0000      -0.446267       -12.1436
  89   2.0000      -0.443958       -12.0807
  90   2.0000      -0.440620       -11.9899
  91   2.0000      -0.439472       -11.9586
  92   2.0000      -0.435672       -11.8552
  93   2.0000      -0.428749       -11.6669
  94   2.0000      -0.424624       -11.5546
  95   2.0000      -0.422248       -11.4899
  96   2.0000      -0.419657       -11.4195
  97   2.0000      -0.416559       -11.3351
  98   2.0000      -0.414768       -11.2864
  99   2.0000      -0.410254       -11.1636
 100   2.0000      -0.399313       -10.8658
 101   2.0000      -0.396221       -10.7817
 102   2.0000      -0.391400       -10.6505
 103   2.0000      -0.387532       -10.5453
 104   2.0000      -0.381997       -10.3947
 105   2.0000      -0.375872       -10.2280
 106   2.0000      -0.368313       -10.0223
 107   2.0000      -0.365679        -9.9506
 108   2.0000      -0.365243        -9.9388
 109   2.0000      -0.363528        -9.8921
 110   2.0000      -0.353018        -9.6061
 111   2.0000      -0.351156        -9.5554
 112   2.0000      -0.348873        -9.4933
 113   2.0000      -0.346274        -9.4226
 114   2.0000      -0.334167        -9.0931
 115   2.0000      -0.333545        -9.0762
 116   2.0000      -0.322962        -8.7883
 117   2.0000      -0.318412        -8.6644
 118   2.0000      -0.304711        -8.2916
 119   2.0000      -0.297882        -8.1058
 120   2.0000      -0.286637        -7.7998
 121   2.0000      -0.280383        -7.6296
 122   2.0000      -0.275059        -7.4847
 123   2.0000      -0.274654        -7.4737
 124   2.0000      -0.271707        -7.3935
 125   2.0000      -0.268249        -7.2994
 126   2.0000      -0.264846        -7.2068
 127   2.0000      -0.253407        -6.8955
 128   2.0000      -0.250146        -6.8068
 129   2.0000      -0.247355        -6.7309
 130   2.0000      -0.246544        -6.7088
 131   2.0000      -0.220913        -6.0114
 132   2.0000      -0.220318        -5.9952
 133   0.0000      -0.080121        -2.1802
 134   0.0000      -0.059145        -1.6094
 135   0.0000      -0.031497        -0.8571
 136   0.0000      -0.026819        -0.7298
 137   0.0000      -0.026115        -0.7106

MULLIKEN ATOMIC CHARGES
-----------------------
   0 C :   -0.544471
   1 C :    0.133401
   2 C :    0.310581
   3 N :   -0.607701
   4 C :   -0.242958
   5 C :    0.170060
   6 C :   -0.176676
   7 C :   -0.170814
   8 C :    0.079835
   9 C :    0.077299
  10 C :   -0.166642
  11 C :   -0.130974
  12 C :   -0.122899
  13 C :   -0.131130
  14 C :   -0.167710
  15 C :   -0.171162
  16 C :   -0.177968
  17 S :    1.221840
  18 O :   -0.555737
  19 O :   -0.546189
  20 C :   -0.126628
  21 C :   -0.153246
  22 C :   -0.139342
  23 C :    0.082581
  24 C :    0.527891
  25 O :   -0.445662
  26 O :   -0.623548
  27 C :   -0.148698
  28 C :   -0.135221
  29 N :   -0.403158
  30 C :   -0.060196
  31 C :    0.139737
  32 C :   -0.204424
  33 C :   -0.125854
  34 C :   -0.121422
  35 C :   -0.194403
  36 C :    0.116190
  37 H :    0.169299
  38 H :    0.159512
  39 H :    0.202296
  40 H :    0.171248
  41 H :    0.167980
  42 H :    0.153140
  43 H :    0.136598
  44 H :    0.132404
  45 H :    0.129337
  46 H :    0.126963
  47 H :    0.128013
  48 H :    0.129480
  49 H :    0.132836
  50 H :    0.135085
  51 H :    0.185089
  52 H :    0.179360
  53 H :    0.433407
  54 H :    0.172296
  55 H :    0.187660
  56 H :    0.148527
  57 H :    0.137019
  58 H :    0.135488
  59 H :    0.137868
  60 H :    0.144512
Sum of atomic charges:    0.0000000

LOEWDIN ATOMIC CHARGES
----------------------
   0 C :   -0.361116
   1 C :    0.010551
   2 C :    0.025571
   3 N :   -0.278924
   4 C :   -0.145843
   5 C :   -0.034199
   6 C :   -0.121625
   7 C :   -0.126355
   8 C :   -0.012330
   9 C :   -0.013321
  10 C :   -0.128010
  11 C :   -0.127258
  12 C :   -0.131211
  13 C :   -0.127955
  14 C :   -0.129324
  15 C :   -0.129167
  16 C :   -0.130234
  17 S :    1.262846
  18 O :   -0.579407
  19 O :   -0.569644
  20 C :   -0.175274
  21 C :   -0.109265
  22 C :   -0.087080
  23 C :   -0.040037
  24 C :    0.180080
  25 O :   -0.261961
  26 O :   -0.334786
  27 C :   -0.098744
  28 C :   -0.095934
  29 N :   -0.139486
  30 C :   -0.066257
  31 C :   -0.027553
  32 C :   -0.113825
  33 C :   -0.125351
  34 C :   -0.118240
  35 C :   -0.118119
  36 C :   -0.006373
  37 H :    0.142388
  38 H :    0.136717
  39 H :    0.154104
  40 H :    0.133552
  41 H :    0.141069
  42 H :    0.142536
  43 H :    0.136014
  44 H :    0.133875
  45 H :    0.131880
  46 H :    0.130922
  47 H :    0.131248
  48 H :    0.132394
  49 H :    0.134354
  50 H :    0.134449
  51 H :    0.160327
  52 H :    0.159770
  53 H :    0.349298
  54 H :    0.154590
  55 H :    0.161048
  56 H :    0.134988
  57 H :    0.136090
  58 H :    0.135178
  59 H :    0.136617
  60 H :    0.141749

  Mayer bond orders larger than 0.100000
B(  0-C ,  1-C ) :   1.0092 B(  0-C , 37-H ) :   0.9234 B(  0-C , 38-H ) :   0.9245
B(  0-C , 39-H ) :   0.9153 B(  1-C ,  2-C ) :   1.4332 B(  1-C , 30-C ) :   0.1002
B(  1-C , 36-C ) :   1.2617 B(  2-C ,  3-N ) :   0.8924 B(  2-C , 29-N ) :   1.2773
B(  3-N ,  4-C ) :   0.9183 B(  3-N , 17-S ) :   0.8093 B(  4-C ,  5-C ) :   0.9570
B(  4-C , 40-H ) :   0.9195 B(  4-C , 41-H ) :   0.9204 B(  5-C ,  6-C ) :   1.4256
B(  5-C , 16-C ) :   1.4335 B(  6-C ,  7-C ) :   1.4268 B(  6-C , 42-H ) :   0.9157
B(  7-C ,  8-C ) :   1.4017 B(  7-C , 43-H ) :   0.9212 B(  8-C ,  9-C ) :   1.0056
B(  8-C , 15-C ) :   1.4109 B(  9-C , 10-C ) :   1.4097 B(  9-C , 14-C ) :   1.4100
B( 10-C , 11-C ) :   1.4392 B( 10-C , 44-H ) :   0.9219 B( 11-C , 12-C ) :   1.4508
B( 11-C , 45-H ) :   0.9296 B( 12-C , 13-C ) :   1.4512 B( 12-C , 46-H ) :   0.9305
B( 13-C , 14-C ) :   1.4388 B( 13-C , 47-H ) :   0.9298 B( 14-C , 48-H ) :   0.9223
B( 15-C , 16-C ) :   1.4189 B( 15-C , 49-H ) :   0.9211 B( 16-C , 50-H ) :   0.9213
B( 17-S , 18-O ) :   1.6121 B( 17-S , 19-O ) :   1.6431 B( 17-S , 20-C ) :   0.8106
B( 20-C , 21-C ) :   1.3874 B( 20-C , 28-C ) :   1.3915 B( 21-C , 22-C ) :   1.4141
B( 21-C , 51-H ) :   0.9089 B( 22-C , 23-C ) :   1.4051 B( 22-C , 52-H ) :   0.9099
B( 23-C , 24-C ) :   1.0087 B( 23-C , 27-C ) :   1.3789 B( 24-C , 25-O ) :   1.8621
B( 24-C , 26-O ) :   1.0245 B( 26-O , 53-H ) :   0.7423 B( 27-C , 28-C ) :   1.4266
B( 27-C , 54-H ) :   0.9152 B( 28-C , 55-H ) :   0.9067 B( 29-N , 30-C ) :   1.4934
B( 30-C , 31-C ) :   1.2422 B( 30-C , 56-H ) :   0.9269 B( 31-C , 32-C ) :   1.2834
B( 31-C , 36-C ) :   1.2912 B( 32-C , 33-C ) :   1.5127 B( 32-C , 35-C ) :   0.1060
B( 32-C , 57-H ) :   0.9236 B( 33-C , 34-C ) :   1.3525 B( 33-C , 58-H ) :   0.9294
B( 34-C , 35-C ) :   1.5076 B( 34-C , 59-H ) :   0.9291 B( 35-C , 36-C ) :   1.2964
B( 35-C , 60-H ) :   0.9149

FINAL SINGLE POINT ENERGY     -1965.142875538930

DIPOLE MOMENT
-------------

Method             : SCF
Type of density    : Electron Density
Multiplicity       :   1
Irrep              :   0
Energy             : -1965.1428755389295020 Eh
Relativity type    :
Basis              : AO
                                X                 Y                 Z
Electronic contribution:     22.245977081      14.064357372      -1.850342459
Nuclear contribution   :    -22.239191898     -15.439929989       3.479235865
                        -----------------------------------------
Total Dipole Moment    :      0.006785183      -1.375572617       1.628893406
                        -----------------------------------------
Magnitude (a.u.)       :      2.132027155
Magnitude (Debye)      :      5.419182360

Rotational constants in cm-1:             0.004560             0.001761             0.001396
Rotational constants in MHz :           136.694344            52.787787            41.862617

                             ****ORCA TERMINATED NORMALLY****
TOTAL RUN TIME: 0 days 0 hours 12 minutes 40 seconds 582 msec
