                         Program Version 6.0.0  -   RELEASE  -
|  1> ! B3LYP 6-31G* SP
|  2>
|  3> * xyz -1 1
|  4> C -1.4382 1.1754 -1.4115
|  5> C -0.5097 1.5863 -0.2897
|  6> C 0.4389 0.6755 0.2330
|  7> N 0.5604 -0.6533 -0.2875
|  8> C 0.0952 -1.7894 0.5075
|  9> C -1.3992 -1.8128 0.5301
| 10> C -2.2010 -1.0690 1.3962
| 11> C -3.5594 -1.1783 1.0852
| 12> C -4.6113 -0.5473 1.7542
| 13> C -5.9238 -0.7528 1.2962
| 14> C -6.1698 -1.5776 0.1808
| 15> C -5.1056 -2.2030 -0.4874
| 16> C -3.8141 -1.9867 -0.0133
| 17> S -2.3676 -2.5765 -0.6285
| 18> S 1.5280 -0.9240 -1.7013
| 19> O 1.7121 0.3638 -2.4552
| 20> O 0.8317 -1.9054 -2.6025
| 21> C 3.1005 -1.5397 -1.2095
| 22> C 4.0218 -0.6801 -0.5999
| 23> C 5.2657 -1.1619 -0.1822
| 24> C 5.6036 -2.5151 -0.3657
| 25> C 6.9180 -3.0311 0.0755
| 26> O 7.7538 -2.2669 0.6276
| 27> O 7.2489 -4.3683 -0.1127
| 28> C 4.6709 -3.3742 -0.9731
| 29> C 3.4271 -2.8897 -1.3891
| 30> N 1.2449 1.0444 1.2625
| 31> C 1.1910 2.2761 1.8233
| 32> C 0.2788 3.2230 1.3517
| 33> C 0.2183 4.4985 1.9339
| 34> C -0.6978 5.4407 1.4657
| 35> C -1.5583 5.1185 0.4166
| 36> C -1.5089 3.8523 -0.1728
| 37> C -0.5884 2.8825 0.2832
| 38> H -1.2932 1.8473 -2.2833
| 39> H -1.2657 0.1391 -1.7612
| 40> H -2.4914 1.2361 -1.0647
| 41> H 0.4899 -1.7129 1.5438
| 42> H 0.4676 -2.7443 0.0778
| 43> H -1.8120 -0.4537 2.1979
| 44> H -4.4231 0.0905 2.6088
| 45> H -6.7508 -0.2723 1.8025
| 46> H -7.1843 -1.7268 -0.1652
| 47> H -5.2847 -2.8324 -1.3493
| 48> H 3.7753 0.3631 -0.4446
| 49> H 5.9609 -0.4759 0.2857
| 50> H 4.8996 -4.4217 -1.1246
| 51> H 2.7204 -3.5702 -1.8461
| 52> H 1.8615 2.5120 2.6403
| 53> H 0.8781 4.7652 2.7511
| 54> H -0.7415 6.4231 1.9180
| 55> H -2.2677 5.8530 0.0577
| 56> H -2.1952 3.6469 -0.9828
| 57> *
| 58>
| 59>                          ****END OF INPUT****

CARTESIAN COORDINATES (ANGSTROEM)
---------------------------------
  C     -1.438200    1.175400   -1.411500
  C     -0.509700    1.586300   -0.289700
  C      0.438900    0.675500    0.233000
  N      0.560400   -0.653300   -0.287500
  C      0.095200   -1.789400    0.507500
  C     -1.399200   -1.812800    0.530100
  C     -2.201000   -1.069000    1.396200
  C     -3.559400   -1.178300    1.085200
  C     -4.611300   -0.547300    1.754200
  C     -5.923800   -0.752800    1.296200
  C     -6.169800   -1.577600    0.180800
  C     -5.105600   -2.203000   -0.487400
  C     -3.814100   -1.986700   -0.013300
  S     -2.367600   -2.576500   -0.628500
  S      1.528000   -0.924000   -1.701300
  O      1.712100    0.363800   -2.455200
  O      0.831700   -1.905400   -2.602500
  C      3.100500   -1.539700   -1.209500
  C      4.021800   -0.680100   -0.599900
  C      5.265700   -1.161900   -0.182200
  C      5.603600   -2.515100   -0.365700
  C      6.918000   -3.031100    0.075500
  O      7.753800   -2.266900    0.627600
  O      7.248900   -4.368300   -0.112700
  C      4.670900   -3.374200   -0.973100
  C      3.427100   -2.889700   -1.389100
  N      1.244900    1.044400    1.262500
  C      1.191000    2.276100    1.823300
  C      0.278800    3.223000    1.351700
  C      0.218300    4.498500    1.933900
  C     -0.697800    5.440700    1.465700
  C     -1.558300    5.118500    0.416600
  C     -1.508900    3.852300   -0.172800
  C     -0.588400    2.882500    0.283200
  H     -1.293200    1.847300   -2.283300
  H     -1.265700    0.139100   -1.761200
  H     -2.491400    1.236100   -1.064700
  H      0.489900   -1.712900    1.543800
  H      0.467600   -2.744300    0.077800
  H     -1.812000   -0.453700    2.197900
  H     -4.423100    0.090500    2.608800
  H     -6.750800   -0.272300    1.802500
  H     -7.184300   -1.726800   -0.165200
  H     -5.284700   -2.832400   -1.349300
  H      3.775300    0.363100   -0.444600
  H      5.960900   -0.475900    0.285700
  H      4.899600   -4.421700   -1.124600
  H      2.720400   -3.570200   -1.846100
  H      1.861500    2.512000    2.640300
  H      0.878100    4.765200    2.751100
  H     -0.741500    6.423100    1.918000
  H     -2.267700    5.853000    0.057700
  H     -2.195200    3.646900   -0.982800

 Total Charge           Charge          ....   -1
 Multiplicity           Mult            ....    1
 Number of Electrons    NEL             ....  254
 Basis Dimension        Dim             ....  522

ORBITAL ENERGIES
----------------

  NO   OCC          E(Eh)            E(eV)
   0   2.0000     -89.001809     -2421.8624
   1   2.0000     -88.820501     -2416.9287
   2   2.0000     -19.034815      -517.9636
   3   2.0000     -19.033270      -517.9216
   4   2.0000     -18.902630      -514.3667
   5   2.0000     -18.881932      -513.8035
   6   2.0000     -14.286494      -388.7553
   7   2.0000     -14.264330      -388.1522
   8   2.0000     -10.187830      -277.2250
   9   2.0000     -10.167118      -276.6613
  10   2.0000     -10.158784      -276.4346
  11   2.0000     -10.151198      -276.2281
  12   2.0000     -10.146981      -276.1134
  13   2.0000     -10.142180      -275.9828
  14   2.0000     -10.140950      -275.9493
  15   2.0000     -10.138942      -275.8946
  16   2.0000     -10.138452      -275.8813
  17   2.0000     -10.137589      -275.8578
  18   2.0000     -10.137371      -275.8519
  19   2.0000     -10.135672      -275.8057
  20   2.0000     -10.135180      -275.7923
  21   2.0000     -10.131108      -275.6815
  22   2.0000     -10.129088      -275.6265
  23   2.0000     -10.128683      -275.6155
  24   2.0000     -10.126735      -275.5625
  25   2.0000     -10.119862      -275.3754
  26   2.0000     -10.112098      -275.1642
  27   2.0000     -10.106412      -275.0094
  28   2.0000     -10.089160      -274.5400
  29   2.0000     -10.088659      -274.5264
  30   2.0000     -10.088062      -274.5101
  31   2.0000     -10.070272      -274.0260
  32   2.0000     -10.069350      -274.0009
  33   2.0000     -10.067948      -273.9628
  34   2.0000      -8.037668      -218.7161
  35   2.0000      -7.898048      -214.9168
  36   2.0000      -6.003076      -163.3520
  37   2.0000      -6.000974      -163.2948
  38   2.0000      -5.999551      -163.2561
  39   2.0000      -5.861269      -159.4932
  40   2.0000      -5.857249      -159.3838
  41   2.0000      -5.854505      -159.3092
  42   2.0000      -0.991467       -26.9792
  43   2.0000      -0.890055       -24.2196
  44   2.0000      -0.870790       -23.6954
  45   2.0000      -0.850636       -23.1470
  46   2.0000      -0.836947       -22.7745
  47   2.0000      -0.812035       -22.0966
  48   2.0000      -0.801886       -21.8204
  49   2.0000      -0.771395       -20.9907
  50   2.0000      -0.752569       -20.4784
  51   2.0000      -0.740700       -20.1555
  52   2.0000      -0.715256       -19.4631
  53   2.0000      -0.713626       -19.4188
  54   2.0000      -0.694569       -18.9002
  55   2.0000      -0.692634       -18.8475
  56   2.0000      -0.678008       -18.4495
  57   2.0000      -0.660872       -17.9833
  58   2.0000      -0.650657       -17.7053
  59   2.0000      -0.638646       -17.3785
  60   2.0000      -0.632247       -17.2043
  61   2.0000      -0.621264       -16.9055
  62   2.0000      -0.585985       -15.9455
  63   2.0000      -0.581169       -15.8144
  64   2.0000      -0.554537       -15.0897
  65   2.0000      -0.541219       -14.7273
  66   2.0000      -0.530569       -14.4375
  67   2.0000      -0.524758       -14.2794
  68   2.0000      -0.504100       -13.7173
  69   2.0000      -0.498285       -13.5590
  70   2.0000      -0.496861       -13.5203
  71   2.0000      -0.468752       -12.7554
  72   2.0000      -0.456152       -12.4125
  73   2.0000      -0.443677       -12.0731
  74   2.0000      -0.440836       -11.9958
  75   2.0000      -0.434564       -11.8251
  76   2.0000      -0.421619       -11.4728
  77   2.0000      -0.414823       -11.2879
  78   2.0000      -0.411767       -11.2048
  79   2.0000      -0.404636       -11.0107
  80   2.0000      -0.387170       -10.5354
  81   2.0000      -0.386391       -10.5142
  82   2.0000      -0.382823       -10.4171
  83   2.0000      -0.374484       -10.1902
  84   2.0000      -0.366283        -9.9671
  85   2.0000      -0.363006        -9.8779
  86   2.0000      -0.360398        -9.8069
  87   2.0000      -0.354049        -9.6341
  88   2.0000      -0.346679        -9.4336
  89   2.0000      -0.342069        -9.3082
  90   2.0000      -0.338200        -9.2029
  91   2.0000      -0.332346        -9.0436
  92   2.0000      -0.330103        -8.9826
  93   2.0000      -0.328148        -8.9294
  94   2.0000      -0.325964        -8.8699
  95   2.0000      -0.315310        -8.5800
  96   2.0000      -0.312670        -8.5082
  97   2.0000      -0.303575        -8.2607
  98   2.0000      -0.300063        -8.1651
  99   2.0000      -0.293380        -7.9833
 100   2.0000      -0.289801        -7.8859
 101   2.0000      -0.288973        -7.8634
 102   2.0000      -0.286629        -7.7996
 103   2.0000      -0.270445        -7.3592
 104   2.0000      -0.269184        -7.3249
 105   2.0000      -0.266626        -7.2553
 106   2.0000      -0.240211        -6.5365
 107   2.0000      -0.239475        -6.5165
 108   2.0000      -0.228101        -6.2069
 109   2.0000      -0.225426        -6.1342
 110   2.0000      -0.225164        -6.1270
 111   2.0000      -0.212306        -5.7772
 112   2.0000      -0.211325        -5.7505
 113   2.0000      -0.201560        -5.4847
 114   2.0000      -0.194535        -5.2936
 115   2.0000      -0.186849        -5.0844
 116   2.0000      -0.184507        -5.0207
 117   2.0000      -0.181713        -4.9447
 118   2.0000      -0.178306        -4.8519
 119   2.0000      -0.171570        -4.6686
 120   2.0000      -0.158803        -4.3213
 121   2.0000      -0.149510        -4.0684
 122   2.0000      -0.144668        -3.9366
 123   2.0000      -0.125497        -3.4150
 124   2.0000      -0.056909        -1.5486
 125   2.0000      -0.035289        -0.9603
 126   2.0000      -0.018634        -0.5070
 127   0.0000       0.002280         0.0620
 128   0.0000       0.029437         0.8010
 129   0.0000       0.032858         0.8941
 130   0.0000       0.058211         1.5840
 131   0.0000       0.071156         1.9363

MULLIKEN ATOMIC CHARGES
-----------------------
   0 C :   -0.546822
   1 C :    0.135014
   2 C :    0.308054
   3 N :   -0.608376
   4 C :   -0.206190
   5 C :   -0.116618
   6 C :   -0.170605
   7 C :    0.160745
   8 C :   -0.176477
   9 C :   -0.149614
  10 C :   -0.121706
  11 C :   -0.173226
  12 C :   -0.126722
  13 S :    0.248820
  14 S :    1.207758
  15 O :   -0.566700
  16 O :   -0.570787
  17 C :   -0.141924
  18 C :   -0.141574
  19 C :   -0.158877
  20 C :    0.104936
  21 C :    0.410433
  22 O :   -0.552992
  23 O :   -0.659442
  24 C :   -0.150730
  25 C :   -0.163205
  26 N :   -0.383919
  27 C :   -0.062500
  28 C :    0.139127
  29 C :   -0.204221
  30 C :   -0.128630
  31 C :   -0.123665
  32 C :   -0.193478
  33 C :    0.114011
  34 H :    0.164485
  35 H :    0.213156
  36 H :    0.149669
  37 H :    0.185902
  38 H :    0.188065
  39 H :    0.139052
  40 H :    0.122276
  41 H :    0.114436
  42 H :    0.116804
  43 H :    0.133732
  44 H :    0.143157
  45 H :    0.145070
  46 H :    0.150589
  47 H :    0.143471
  48 H :    0.147054
  49 H :    0.130627
  50 H :    0.121381
  51 H :    0.123692
  52 H :    0.137482
Sum of atomic charges:   -1.0000000

LOEWDIN ATOMIC CHARGES
----------------------
   0 C :   -0.360933
   1 C :    0.006059
   2 C :    0.034016
   3 N :   -0.288979
   4 C :   -0.145877
   5 C :   -0.178678
   6 C :   -0.170088
   7 C :   -0.042863
   8 C :   -0.127950
   9 C :   -0.143731
  10 C :   -0.141736
  11 C :   -0.135136
  12 C :   -0.173597
  13 S :    0.395058
  14 S :    1.262561
  15 O :   -0.586205
  16 O :   -0.591966
  17 C :   -0.216237
  18 C :   -0.117130
  19 C :   -0.112635
  20 C :   -0.003415
  21 C :    0.071432
  22 O :   -0.378439
  23 O :   -0.507668
  24 C :   -0.110108
  25 C :   -0.130763
  26 N :   -0.126016
  27 C :   -0.068084
  28 C :   -0.029807
  29 C :   -0.115352
  30 C :   -0.134704
  31 C :   -0.126626
  32 C :   -0.120138
  33 C :   -0.007519
  34 H :    0.139970
  35 H :    0.156992
  36 H :    0.130729
  37 H :    0.145337
  38 H :    0.154521
  39 H :    0.138733
  40 H :    0.130461
  41 H :    0.125198
  42 H :    0.127225
  43 H :    0.135485
  44 H :    0.139065
  45 H :    0.145956
  46 H :    0.149567
  47 H :    0.139084
  48 H :    0.134407
  49 H :    0.133178
  50 H :    0.128584
  51 H :    0.130015
  52 H :    0.138746

  Mayer bond orders larger than 0.100000
B(  0-C ,  1-C ) :   1.0077 B(  0-C , 34-H ) :   0.9247 B(  0-C , 35-H ) :   0.9117
B(  0-C , 36-H ) :   0.9252 B(  1-C ,  2-C ) :   1.4279 B(  1-C , 27-C ) :   0.1036
B(  1-C , 33-C ) :   1.2635 B(  2-C ,  3-N ) :   0.9082 B(  2-C , 26-N ) :   1.2833
B(  3-N ,  4-C ) :   0.9360 B(  3-N , 14-S ) :   0.7712 B(  4-C ,  5-C ) :   0.9702
B(  4-C , 37-H ) :   0.9171 B(  4-C , 38-H ) :   0.9132 B(  5-C ,  6-C ) :   1.5710
B(  5-C , 13-S ) :   1.1139 B(  6-C ,  7-C ) :   1.2428 B(  6-C , 39-H ) :   0.9214
B(  7-C ,  8-C ) :   1.3382 B(  7-C , 12-C ) :   1.3345 B(  8-C ,  9-C ) :   1.4790
B(  8-C , 40-H ) :   0.9263 B(  9-C , 10-C ) :   1.3865 B(  9-C , 41-H ) :   0.9325
B( 10-C , 11-C ) :   1.4879 B( 10-C , 42-H ) :   0.9332 B( 11-C , 12-C ) :   1.3409
B( 11-C , 43-H ) :   0.9261 B( 12-C , 13-S ) :   1.0566 B( 14-S , 15-O ) :   1.6328
B( 14-S , 16-O ) :   1.6048 B( 14-S , 17-C ) :   0.8467 B( 17-C , 18-C ) :   1.3627
B( 17-C , 25-C ) :   1.3675 B( 18-C , 19-C ) :   1.4222 B( 18-C , 44-H ) :   0.9185
B( 19-C , 20-C ) :   1.3838 B( 19-C , 45-H ) :   0.9079 B( 20-C , 21-C ) :   0.9275
B( 20-C , 24-C ) :   1.4061 B( 21-C , 22-O ) :   1.7067 B( 21-C , 23-O ) :   1.5502
B( 22-O , 23-O ) :   0.1480 B( 24-C , 25-C ) :   1.3987 B( 24-C , 46-H ) :   0.9017
B( 25-C , 47-H ) :   0.9204 B( 26-N , 27-C ) :   1.4959 B( 27-C , 28-C ) :   1.2364
B( 27-C , 48-H ) :   0.9279 B( 28-C , 29-C ) :   1.2841 B( 28-C , 33-C ) :   1.2901
B( 29-C , 30-C ) :   1.5135 B( 29-C , 32-C ) :   0.1068 B( 29-C , 49-H ) :   0.9242
B( 30-C , 31-C ) :   1.3516 B( 30-C , 50-H ) :   0.9316 B( 31-C , 32-C ) :   1.5094
B( 31-C , 51-H ) :   0.9314 B( 32-C , 33-C ) :   1.2952 B( 32-C , 52-H ) :   0.9154

FINAL SINGLE POINT ENERGY     -2207.963734614378

DIPOLE MOMENT
-------------

Method             : SCF
Type of density    : Electron Density
Multiplicity       :   1
Irrep              :   0
Energy             : -2207.9637346143776995 Eh
Relativity type    :
Basis              : AO
                                X                 Y                 Z
Electronic contribution:     10.566681420     -10.135477857      -4.644955360
Nuclear contribution   :    -21.432369944      15.333399010       6.098654745
                        -----------------------------------------
Total Dipole Moment    :    -10.865688524       5.197921153       1.453699385
                        -----------------------------------------
Magnitude (a.u.)       :     12.132386959
Magnitude (Debye)      :     30.838076908

Rotational constants in cm-1:             0.005174             0.002320             0.001799
Rotational constants in MHz :           155.104959            69.536976            53.919220

                             ****ORCA TERMINATED NORMALLY****
TOTAL RUN TIME: 0 days 0 hours 9 minutes 43 seconds 637 msec
