                         Program Version 6.0.0  -   RELEASE  -
|  1> ! B3LYP 6-31G* SP
|  2>
|  3> * xyz 0 1
|  4> C 0.2727 1.4207 -1.7769
|  5> C -0.6474 1.8026 -0.6380
|  6> C -1.3371 0.8098 0.0978
|  7> N -1.1969 -0.5808 -0.2155
|  8> C -0.4516 -1.4575 0.6879
|  9> C 1.0129 -1.1226 0.6324
| 10> C 1.5549 -0.1730 1.5101
| 11> C 2.8994 0.1939 1.4108
| 12> C 3.7241 -0.3757 0.4245
| 13> C 5.1523 0.0172 0.3157
| 14> C 5.9331 0.2045 1.4722
| 15> C 7.2784 0.5712 1.3672
| 16> C 7.8588 0.7554 0.1104
| 17> F 9.1634 1.1114 0.0112
| 18> C 7.0941 0.5739 -1.0446
| 19> C 5.7487 0.2073 -0.9453
| 20> C 3.1724 -1.3194 -0.4602
| 21> C 1.8276 -1.6856 -0.3593
| 22> S -2.1528 -1.2657 -1.4912
| 23> O -1.2701 -2.0906 -2.3864
| 24> O -2.7776 -0.1728 -2.3134
| 25> C -3.4237 -2.2568 -0.7860
| 26> C -4.4658 -1.6463 -0.0789
| 27> C -5.4686 -2.4229 0.5085
| 28> C -5.4393 -3.8251 0.4004
| 29> C -6.4956 -4.6530 1.0226
| 30> O -7.4347 -4.1116 1.6670
| 31> O -6.4621 -6.0400 0.9031
| 32> C -4.3869 -4.4320 -0.3077
| 33> C -3.3853 -3.6528 -0.8945
| 34> N -2.1334 1.1620 1.1404
| 35> C -2.3139 2.4512 1.5147
| 36> C -1.6659 3.4795 0.8266
| 37> C -1.8486 4.8158 1.2152
| 38> C -1.1954 5.8407 0.5307
| 39> C -0.3576 5.5414 -0.5433
| 40> C -0.1672 4.2156 -0.9416
| 41> C -0.8184 3.1610 -0.2642
| 42> H 0.3204 0.3285 -1.9509
| 43> H -0.0810 1.8909 -2.7178
| 44> H 1.3048 1.7636 -1.5540
| 45> H -0.6009 -2.5228 0.4060
| 46> H -0.8389 -1.3434 1.7239
| 47> H 0.9322 0.2948 2.2625
| 48> H 3.2877 0.9415 2.0909
| 49> H 5.5085 0.0495 2.4562
| 50> H 7.8715 0.7082 2.2622
| 51> H 7.5422 0.7204 -2.0188
| 52> H 5.1708 0.0894 -1.8532
| 53> H 3.7835 -1.7836 -1.2233
| 54> H 1.4192 -2.4033 -1.0593
| 55> H -4.4993 -0.5684 0.0206
| 56> H -6.2645 -1.9259 1.0488
| 57> H -7.1801 -6.6164 1.3246
| 58> H -4.3342 -5.5092 -0.4060
| 59> H -2.5798 -4.1417 -1.4278
| 60> H -2.9636 2.6695 2.3529
| 61> H -2.4950 5.0663 2.0482
| 62> H -1.3382 6.8698 0.8343
| 63> H 0.1470 6.3405 -1.0707
| 64> H 0.4909 4.0310 -1.7797
| 65> *
| 66>
| 67>                          ****END OF INPUT****

CARTESIAN COORDINATES (ANGSTROEM)
---------------------------------
  C      0.272700    1.420700   -1.776900
  C     -0.647400    1.802600   -0.638000
  C     -1.337100    0.809800    0.097800
  N     -1.196900   -0.580800   -0.215500
  C     -0.451600   -1.457500    0.687900
  C      1.012900   -1.122600    0.632400
  C      1.554900   -0.173000    1.510100
  C      2.899400    0.193900    1.410800
  C      3.724100   -0.375700    0.424500
  C      5.152300    0.017200    0.315700
  C      5.933100    0.204500    1.472200
  C      7.278400    0.571200    1.367200
  C      7.858800    0.755400    0.110400
  F      9.163400    1.111400    0.011200
  C      7.094100    0.573900   -1.044600
  C      5.748700    0.207300   -0.945300
  C      3.172400   -1.319400   -0.460200
  C      1.827600   -1.685600   -0.359300
  S     -2.152800   -1.265700   -1.491200
  O     -1.270100   -2.090600   -2.386400
  O     -2.777600   -0.172800   -2.313400
  C     -3.423700   -2.256800   -0.786000
  C     -4.465800   -1.646300   -0.078900
  C     -5.468600   -2.422900    0.508500
  C     -5.439300   -3.825100    0.400400
  C     -6.495600   -4.653000    1.022600
  O     -7.434700   -4.111600    1.667000
  O     -6.462100   -6.040000    0.903100
  C     -4.386900   -4.432000   -0.307700
  C     -3.385300   -3.652800   -0.894500
  N     -2.133400    1.162000    1.140400
  C     -2.313900    2.451200    1.514700
  C     -1.665900    3.479500    0.826600
  C     -1.848600    4.815800    1.215200
  C     -1.195400    5.840700    0.530700
  C     -0.357600    5.541400   -0.543300
  C     -0.167200    4.215600   -0.941600
  C     -0.818400    3.161000   -0.264200
  H      0.320400    0.328500   -1.950900
  H     -0.081000    1.890900   -2.717800
  H      1.304800    1.763600   -1.554000
  H     -0.600900   -2.522800    0.406000
  H     -0.838900   -1.343400    1.723900
  H      0.932200    0.294800    2.262500
  H      3.287700    0.941500    2.090900
  H      5.508500    0.049500    2.456200
  H      7.871500    0.708200    2.262200
  H      7.542200    0.720400   -2.018800
  H      5.170800    0.089400   -1.853200
  H      3.783500   -1.783600   -1.223300
  H      1.419200   -2.403300   -1.059300
  H     -4.499300   -0.568400    0.020600
  H     -6.264500   -1.925900    1.048800
  H     -7.180100   -6.616400    1.324600
  H     -4.334200   -5.509200   -0.406000
  H     -2.579800   -4.141700   -1.427800
  H     -2.963600    2.669500    2.352900
  H     -2.495000    5.066300    2.048200
  H     -1.338200    6.869800    0.834300
  H      0.147000    6.340500   -1.070700
  H      0.490900    4.031000   -1.779700

 Total Charge           Charge          ....    0
 Multiplicity           Mult            ....    1
 Number of Electrons    NEL             ....  274
 Basis Dimension        Dim             ....  582

ORBITAL ENERGIES
----------------

  NO   OCC          E(Eh)            E(eV)
   0   2.0000     -89.095512     -2424.4121
   1   2.0000     -24.697444      -672.0516
   2   2.0000     -19.194468      -522.3080
   3   2.0000     -19.135851      -520.7130
   4   2.0000     -19.126206      -520.4505
   5   2.0000     -19.124847      -520.4135
   6   2.0000     -14.368197      -390.9785
   7   2.0000     -14.332120      -389.9968
   8   2.0000     -10.333230      -281.1815
   9   2.0000     -10.268770      -279.4274
  10   2.0000     -10.255706      -279.0719
  11   2.0000     -10.238689      -278.6089
  12   2.0000     -10.230422      -278.3839
  13   2.0000     -10.228958      -278.3441
  14   2.0000     -10.224329      -278.2181
  15   2.0000     -10.216885      -278.0156
  16   2.0000     -10.216242      -277.9981
  17   2.0000     -10.214425      -277.9486
  18   2.0000     -10.213960      -277.9360
  19   2.0000     -10.207589      -277.7626
  20   2.0000     -10.204380      -277.6753
  21   2.0000     -10.199780      -277.5501
  22   2.0000     -10.197157      -277.4787
  23   2.0000     -10.196807      -277.4692
  24   2.0000     -10.196713      -277.4667
  25   2.0000     -10.196272      -277.4547
  26   2.0000     -10.195489      -277.4334
  27   2.0000     -10.194594      -277.4090
  28   2.0000     -10.192772      -277.3594
  29   2.0000     -10.192567      -277.3539
  30   2.0000     -10.192058      -277.3400
  31   2.0000     -10.190785      -277.3054
  32   2.0000     -10.190688      -277.3027
  33   2.0000     -10.186133      -277.1788
  34   2.0000     -10.185397      -277.1587
  35   2.0000     -10.184504      -277.1344
  36   2.0000     -10.183302      -277.1017
  37   2.0000     -10.170576      -276.7555
  38   2.0000      -8.131317      -221.2644
  39   2.0000      -6.096285      -165.8883
  40   2.0000      -6.094391      -165.8368
  41   2.0000      -6.093963      -165.8252
  42   2.0000      -1.210862       -32.9492
  43   2.0000      -1.082561       -29.4580
  44   2.0000      -1.078974       -29.3604
  45   2.0000      -0.993030       -27.0217
  46   2.0000      -0.963014       -26.2049
  47   2.0000      -0.960235       -26.1293
  48   2.0000      -0.913312       -24.8525
  49   2.0000      -0.887037       -24.1375
  50   2.0000      -0.869728       -23.6665
  51   2.0000      -0.863448       -23.4956
  52   2.0000      -0.848607       -23.0918
  53   2.0000      -0.807141       -21.9634
  54   2.0000      -0.802733       -21.8435
  55   2.0000      -0.786870       -21.4118
  56   2.0000      -0.773957       -21.0604
  57   2.0000      -0.773008       -21.0346
  58   2.0000      -0.755829       -20.5672
  59   2.0000      -0.745947       -20.2983
  60   2.0000      -0.744894       -20.2696
  61   2.0000      -0.736483       -20.0407
  62   2.0000      -0.709809       -19.3149
  63   2.0000      -0.694823       -18.9071
  64   2.0000      -0.679468       -18.4893
  65   2.0000      -0.651572       -17.7302
  66   2.0000      -0.642829       -17.4923
  67   2.0000      -0.635755       -17.2998
  68   2.0000      -0.628455       -17.1011
  69   2.0000      -0.621625       -16.9153
  70   2.0000      -0.611156       -16.6304
  71   2.0000      -0.602378       -16.3915
  72   2.0000      -0.593612       -16.1530
  73   2.0000      -0.591202       -16.0874
  74   2.0000      -0.577001       -15.7010
  75   2.0000      -0.558009       -15.1842
  76   2.0000      -0.541425       -14.7329
  77   2.0000      -0.538739       -14.6598
  78   2.0000      -0.532710       -14.4958
  79   2.0000      -0.519617       -14.1395
  80   2.0000      -0.507776       -13.8173
  81   2.0000      -0.500429       -13.6174
  82   2.0000      -0.489786       -13.3278
  83   2.0000      -0.485953       -13.2235
  84   2.0000      -0.483884       -13.1672
  85   2.0000      -0.477217       -12.9857
  86   2.0000      -0.471535       -12.8311
  87   2.0000      -0.467547       -12.7226
  88   2.0000      -0.459220       -12.4960
  89   2.0000      -0.457579       -12.4514
  90   2.0000      -0.453312       -12.3352
  91   2.0000      -0.448142       -12.1946
  92   2.0000      -0.446906       -12.1609
  93   2.0000      -0.445795       -12.1307
  94   2.0000      -0.444393       -12.0926
  95   2.0000      -0.440056       -11.9745
  96   2.0000      -0.439442       -11.9578
  97   2.0000      -0.430768       -11.7218
  98   2.0000      -0.429054       -11.6752
  99   2.0000      -0.425640       -11.5823
 100   2.0000      -0.422056       -11.4847
 101   2.0000      -0.419863       -11.4251
 102   2.0000      -0.413502       -11.2520
 103   2.0000      -0.402434       -10.9508
 104   2.0000      -0.399908       -10.8820
 105   2.0000      -0.394897       -10.7457
 106   2.0000      -0.391408       -10.6508
 107   2.0000      -0.389267       -10.5925
 108   2.0000      -0.387786       -10.5522
 109   2.0000      -0.382902       -10.4193
 110   2.0000      -0.376569       -10.2470
 111   2.0000      -0.368705       -10.0330
 112   2.0000      -0.365470        -9.9449
 113   2.0000      -0.364177        -9.9098
 114   2.0000      -0.353649        -9.6233
 115   2.0000      -0.351500        -9.5648
 116   2.0000      -0.349177        -9.5016
 117   2.0000      -0.348153        -9.4737
 118   2.0000      -0.345293        -9.3959
 119   2.0000      -0.337500        -9.1838
 120   2.0000      -0.324496        -8.8300
 121   2.0000      -0.319067        -8.6822
 122   2.0000      -0.305700        -8.3185
 123   2.0000      -0.299496        -8.1497
 124   2.0000      -0.287571        -7.8252
 125   2.0000      -0.280038        -7.6202
 126   2.0000      -0.276232        -7.5166
 127   2.0000      -0.275948        -7.5089
 128   2.0000      -0.272228        -7.4077
 129   2.0000      -0.268513        -7.3066
 130   2.0000      -0.265662        -7.2290
 131   2.0000      -0.258359        -7.0303
 132   2.0000      -0.254291        -6.9196
 133   2.0000      -0.252799        -6.8790
 134   2.0000      -0.248564        -6.7638
 135   2.0000      -0.221708        -6.0330
 136   2.0000      -0.220916        -6.0114
 137   0.0000      -0.080612        -2.1936
 138   0.0000      -0.059771        -1.6265
 139   0.0000      -0.032481        -0.8838
 140   0.0000      -0.028989        -0.7888
 141   0.0000      -0.027000        -0.7347

MULLIKEN ATOMIC CHARGES
-----------------------
   0 C :   -0.544793
   1 C :    0.134557
   2 C :    0.308764
   3 N :   -0.608618
   4 C :   -0.241708
   5 C :    0.168721
   6 C :   -0.177246
   7 C :   -0.173583
   8 C :    0.082443
   9 C :    0.068154
  10 C :   -0.154113
  11 C :   -0.212758
  12 C :    0.411689
  13 F :   -0.318671
  14 C :   -0.212975
  15 C :   -0.155365
  16 C :   -0.171782
  17 C :   -0.175963
  18 S :    1.222078
  19 O :   -0.557412
  20 O :   -0.544896
  21 C :   -0.126937
  22 C :   -0.136031
  23 C :   -0.142037
  24 C :    0.082938
  25 C :    0.527783
  26 O :   -0.445157
  27 O :   -0.624067
  28 C :   -0.146499
  29 C :   -0.152519
  30 N :   -0.403739
  31 C :   -0.060244
  32 C :    0.139525
  33 C :   -0.204133
  34 C :   -0.125568
  35 C :   -0.120864
  36 C :   -0.193708
  37 C :    0.116807
  38 H :    0.200469
  39 H :    0.170505
  40 H :    0.158565
  41 H :    0.169088
  42 H :    0.171414
  43 H :    0.136600
  44 H :    0.132620
  45 H :    0.140789
  46 H :    0.144470
  47 H :    0.145187
  48 H :    0.142938
  49 H :    0.135642
  50 H :    0.154743
  51 H :    0.189731
  52 H :    0.180160
  53 H :    0.433618
  54 H :    0.171555
  55 H :    0.183503
  56 H :    0.149897
  57 H :    0.137791
  58 H :    0.136148
  59 H :    0.138476
  60 H :    0.144018
Sum of atomic charges:    0.0000000

LOEWDIN ATOMIC CHARGES
----------------------
   0 C :   -0.361443
   1 C :    0.010628
   2 C :    0.024472
   3 N :   -0.279014
   4 C :   -0.145904
   5 C :   -0.033483
   6 C :   -0.129214
   7 C :   -0.130035
   8 C :   -0.013452
   9 C :   -0.021904
  10 C :   -0.119436
  11 C :   -0.156362
  12 C :    0.114899
  13 F :   -0.104994
  14 C :   -0.156057
  15 C :   -0.119384
  16 C :   -0.127338
  17 C :   -0.120798
  18 S :    1.262928
  19 O :   -0.580794
  20 O :   -0.568490
  21 C :   -0.175610
  22 C :   -0.095923
  23 C :   -0.085560
  24 C :   -0.039951
  25 C :    0.179928
  26 O :   -0.261386
  27 O :   -0.335095
  28 C :   -0.100496
  29 C :   -0.109217
  30 N :   -0.140204
  31 C :   -0.065643
  32 C :   -0.027425
  33 C :   -0.113448
  34 C :   -0.124811
  35 C :   -0.117430
  36 C :   -0.117820
  37 C :   -0.006083
  38 H :    0.153131
  39 H :    0.142967
  40 H :    0.136022
  41 H :    0.141777
  42 H :    0.133540
  43 H :    0.135188
  44 H :    0.134061
  45 H :    0.138365
  46 H :    0.143169
  47 H :    0.143498
  48 H :    0.139187
  49 H :    0.135495
  50 H :    0.143372
  51 H :    0.162317
  52 H :    0.160329
  53 H :    0.349385
  54 H :    0.154072
  55 H :    0.159328
  56 H :    0.135647
  57 H :    0.136446
  58 H :    0.135506
  59 H :    0.136939
  60 H :    0.141604

  Mayer bond orders larger than 0.100000
B(  0-C ,  1-C ) :   1.0100 B(  0-C , 38-H ) :   0.9161 B(  0-C , 39-H ) :   0.9232
B(  0-C , 40-H ) :   0.9249 B(  1-C ,  2-C ) :   1.4339 B(  1-C , 37-C ) :   1.2618
B(  2-C ,  3-N ) :   0.8917 B(  2-C , 30-N ) :   1.2761 B(  3-N ,  4-C ) :   0.9187
B(  3-N , 18-S ) :   0.8083 B(  4-C ,  5-C ) :   0.9581 B(  4-C , 41-H ) :   0.9200
B(  4-C , 42-H ) :   0.9192 B(  5-C ,  6-C ) :   1.4335 B(  5-C , 17-C ) :   1.4263
B(  6-C ,  7-C ) :   1.4201 B(  6-C , 43-H ) :   0.9210 B(  7-C ,  8-C ) :   1.4091
B(  7-C , 44-H ) :   0.9212 B(  8-C ,  9-C ) :   1.0085 B(  8-C , 16-C ) :   1.4023
B(  9-C , 10-C ) :   1.4091 B(  9-C , 15-C ) :   1.4081 B( 10-C , 11-C ) :   1.4185
B( 10-C , 45-H ) :   0.9209 B( 11-C , 12-C ) :   1.3916 B( 11-C , 46-H ) :   0.9208
B( 12-C , 13-F ) :   0.9175 B( 12-C , 14-C ) :   1.3906 B( 14-C , 15-C ) :   1.4195
B( 14-C , 47-H ) :   0.9207 B( 15-C , 48-H ) :   0.9205 B( 16-C , 17-C ) :   1.4262
B( 16-C , 49-H ) :   0.9212 B( 17-C , 50-H ) :   0.9151 B( 18-S , 19-O ) :   1.6097
B( 18-S , 20-O ) :   1.6463 B( 18-S , 21-C ) :   0.8111 B( 21-C , 22-C ) :   1.3791
B( 21-C , 29-C ) :   1.4001 B( 22-C , 23-C ) :   1.4315 B( 22-C , 51-H ) :   0.9051
B( 23-C , 24-C ) :   1.3960 B( 23-C , 52-H ) :   0.9099 B( 24-C , 25-C ) :   1.0087
B( 24-C , 28-C ) :   1.3882 B( 25-C , 26-O ) :   1.8623 B( 25-C , 27-O ) :   1.0242
B( 27-O , 53-H ) :   0.7421 B( 28-C , 29-C ) :   1.4092 B( 28-C , 54-H ) :   0.9152
B( 29-C , 55-H ) :   0.9093 B( 30-N , 31-C ) :   1.4928 B( 31-C , 32-C ) :   1.2422
B( 31-C , 56-H ) :   0.9267 B( 32-C , 33-C ) :   1.2832 B( 32-C , 37-C ) :   1.2913
B( 33-C , 34-C ) :   1.5127 B( 33-C , 36-C ) :   0.1061 B( 33-C , 57-H ) :   0.9235
B( 34-C , 35-C ) :   1.3526 B( 34-C , 58-H ) :   0.9293 B( 35-C , 36-C ) :   1.5074
B( 35-C , 59-H ) :   0.9290 B( 36-C , 37-C ) :   1.2966 B( 36-C , 60-H ) :   0.9150

FINAL SINGLE POINT ENERGY     -2064.344634073744

DIPOLE MOMENT
-------------

Method             : SCF
Type of density    : Electron Density
Multiplicity       :   1
Irrep              :   0
Energy             : -2064.3446340737436913 Eh
Relativity type    :
Basis              : AO
                                X                 Y                 Z
Electronic contribution:      0.324901616      -8.009630699      -0.649256167
Nuclear contribution   :     -0.149198250       8.201631540       1.933323117
                        -----------------------------------------
Total Dipole Moment    :      0.175703366       0.192000841       1.284066950
                        -----------------------------------------
Magnitude (a.u.)       :      1.310177060
Magnitude (Debye)      :      3.330205430

Rotational constants in cm-1:             0.004460             0.001497             0.001233
Rotational constants in MHz :           133.703109            44.878660            36.962854

                             ****ORCA TERMINATED NORMALLY****
TOTAL RUN TIME: 0 days 0 hours 7 minutes 42 seconds 653 msec
