                         Program Version 6.0.0  -   RELEASE  -
|  1> ! B3LYP 6-31G* SP
|  2>
|  3> * xyz -1 1
|  4> C 2.0701 -0.6689 1.7602
|  5> C 1.9940 -1.4882 0.4909
|  6> C 1.0675 -1.1590 -0.5283
|  7> N 0.1345 -0.0826 -0.3726
|  8> C -0.9905 -0.1938 0.5583
|  9> C -2.2914 -0.2877 -0.1915
| 10> C -2.5095 -1.1350 -1.2763
| 11> C -3.7893 -0.8560 -1.6993
| 12> C -4.5088 -1.3654 -2.7774
| 13> C -5.8000 -0.8526 -3.0079
| 14> Cl -6.7501 -1.4552 -4.3522
| 15> C -6.3293 0.1523 -2.1683
| 16> C -5.5760 0.6490 -1.0898
| 17> C -4.3025 0.1113 -0.8725
| 18> N -3.4060 0.4442 0.0811
| 19> C -3.5527 1.4921 1.0983
| 20> C -3.3425 1.0040 2.5255
| 21> C -4.7432 1.3002 2.0286
| 22> S 0.3987 1.3859 -1.2591
| 23> O 0.8314 1.0653 -2.6625
| 24> O -0.8739 2.1836 -1.3294
| 25> C 1.6496 2.3154 -0.4456
| 26> C 1.3104 3.3884 0.3866
| 27> C 2.3070 4.0941 1.0666
| 28> C 3.6577 3.7295 0.9303
| 29> C 4.7088 4.4748 1.6566
| 30> O 5.9183 4.1375 1.5574
| 31> O 4.3753 5.5590 2.4607
| 32> C 3.9904 2.6447 0.0994
| 33> C 2.9919 1.9434 -0.5817
| 34> N 1.0687 -1.8488 -1.6975
| 35> C 1.9144 -2.8796 -1.9340
| 36> C 2.8248 -3.2806 -0.9536
| 37> C 3.6947 -4.3562 -1.1918
| 38> C 4.5985 -4.7596 -0.2085
| 39> C 4.6376 -4.0980 1.0185
| 40> C 3.7811 -3.0225 1.2671
| 41> C 2.8652 -2.5890 0.2823
| 42> H 3.1184 -0.3531 1.9442
| 43> H 1.7058 -1.2735 2.6172
| 44> H 1.4731 0.2627 1.7094
| 45> H -0.9803 0.6903 1.2278
| 46> H -0.8842 -1.0996 1.1938
| 47> H -1.8102 -1.8318 -1.7208
| 48> H -4.0828 -2.1250 -3.4214
| 49> H -7.3193 0.5499 -2.3564
| 50> H -5.9769 1.4289 -0.4589
| 51> H -3.2395 2.5298 0.8552
| 52> H -2.9351 1.7724 3.2170
| 53> H -3.1333 -0.0809 2.6434
| 54> H -5.1712 2.2434 2.4283
| 55> H -5.3548 0.3869 1.8621
| 56> H 0.2753 3.6754 0.5176
| 57> H 2.0179 4.9200 1.7038
| 58> H 5.0209 2.3354 -0.0215
| 59> H 3.2646 1.1021 -1.2053
| 60> H 1.8682 -3.3899 -2.8882
| 61> H 3.6749 -4.8843 -2.1371
| 62> H 5.2670 -5.5897 -0.3958
| 63> H 5.3356 -4.4191 1.7811
| 64> H 3.8410 -2.5466 2.2359
| 65> *
| 66>
| 67>                          ****END OF INPUT****

CARTESIAN COORDINATES (ANGSTROEM)
---------------------------------
  C      2.070100   -0.668900    1.760200
  C      1.994000   -1.488200    0.490900
  C      1.067500   -1.159000   -0.528300
  N      0.134500   -0.082600   -0.372600
  C     -0.990500   -0.193800    0.558300
  C     -2.291400   -0.287700   -0.191500
  C     -2.509500   -1.135000   -1.276300
  C     -3.789300   -0.856000   -1.699300
  C     -4.508800   -1.365400   -2.777400
  C     -5.800000   -0.852600   -3.007900
  Cl    -6.750100   -1.455200   -4.352200
  C     -6.329300    0.152300   -2.168300
  C     -5.576000    0.649000   -1.089800
  C     -4.302500    0.111300   -0.872500
  N     -3.406000    0.444200    0.081100
  C     -3.552700    1.492100    1.098300
  C     -3.342500    1.004000    2.525500
  C     -4.743200    1.300200    2.028600
  S      0.398700    1.385900   -1.259100
  O      0.831400    1.065300   -2.662500
  O     -0.873900    2.183600   -1.329400
  C      1.649600    2.315400   -0.445600
  C      1.310400    3.388400    0.386600
  C      2.307000    4.094100    1.066600
  C      3.657700    3.729500    0.930300
  C      4.708800    4.474800    1.656600
  O      5.918300    4.137500    1.557400
  O      4.375300    5.559000    2.460700
  C      3.990400    2.644700    0.099400
  C      2.991900    1.943400   -0.581700
  N      1.068700   -1.848800   -1.697500
  C      1.914400   -2.879600   -1.934000
  C      2.824800   -3.280600   -0.953600
  C      3.694700   -4.356200   -1.191800
  C      4.598500   -4.759600   -0.208500
  C      4.637600   -4.098000    1.018500
  C      3.781100   -3.022500    1.267100
  C      2.865200   -2.589000    0.282300
  H      3.118400   -0.353100    1.944200
  H      1.705800   -1.273500    2.617200
  H      1.473100    0.262700    1.709400
  H     -0.980300    0.690300    1.227800
  H     -0.884200   -1.099600    1.193800
  H     -1.810200   -1.831800   -1.720800
  H     -4.082800   -2.125000   -3.421400
  H     -7.319300    0.549900   -2.356400
  H     -5.976900    1.428900   -0.458900
  H     -3.239500    2.529800    0.855200
  H     -2.935100    1.772400    3.217000
  H     -3.133300   -0.080900    2.643400
  H     -5.171200    2.243400    2.428300
  H     -5.354800    0.386900    1.862100
  H      0.275300    3.675400    0.517600
  H      2.017900    4.920000    1.703800
  H      5.020900    2.335400   -0.021500
  H      3.264600    1.102100   -1.205300
  H      1.868200   -3.389900   -2.888200
  H      3.674900   -4.884300   -2.137100
  H      5.267000   -5.589700   -0.395800
  H      5.335600   -4.419100    1.781100
  H      3.841000   -2.546600    2.235900

 Total Charge           Charge          ....   -1
 Multiplicity           Mult            ....    1
 Number of Electrons    NEL             ....  284
 Basis Dimension        Dim             ....  586

ORBITAL ENERGIES
----------------

  NO   OCC          E(Eh)            E(eV)
   0   2.0000    -101.454054     -2760.7051
   1   2.0000     -89.003834     -2421.9174
   2   2.0000     -19.037262      -518.0302
   3   2.0000     -19.029581      -517.8212
   4   2.0000     -18.909883      -514.5641
   5   2.0000     -18.889025      -513.9965
   6   2.0000     -14.312244      -389.4560
   7   2.0000     -14.287205      -388.7746
   8   2.0000     -14.261890      -388.0858
   9   2.0000     -10.190449      -277.2962
  10   2.0000     -10.181715      -277.0585
  11   2.0000     -10.167956      -276.6842
  12   2.0000     -10.163939      -276.5748
  13   2.0000     -10.158263      -276.4204
  14   2.0000     -10.143830      -276.0277
  15   2.0000     -10.143479      -276.0181
  16   2.0000     -10.143324      -276.0139
  17   2.0000     -10.142940      -276.0034
  18   2.0000     -10.142458      -275.9903
  19   2.0000     -10.137740      -275.8619
  20   2.0000     -10.137643      -275.8593
  21   2.0000     -10.136799      -275.8363
  22   2.0000     -10.136373      -275.8247
  23   2.0000     -10.135185      -275.7924
  24   2.0000     -10.134687      -275.7789
  25   2.0000     -10.119080      -275.3542
  26   2.0000     -10.117156      -275.3018
  27   2.0000     -10.116159      -275.2747
  28   2.0000     -10.115681      -275.2617
  29   2.0000     -10.112947      -275.1873
  30   2.0000     -10.099629      -274.8249
  31   2.0000     -10.097373      -274.7635
  32   2.0000     -10.096532      -274.7406
  33   2.0000     -10.095266      -274.7062
  34   2.0000     -10.084322      -274.4084
  35   2.0000     -10.078778      -274.2575
  36   2.0000     -10.077354      -274.2187
  37   2.0000     -10.076366      -274.1918
  38   2.0000      -9.386027      -255.4068
  39   2.0000      -8.039361      -218.7621
  40   2.0000      -7.148821      -194.5293
  41   2.0000      -7.139703      -194.2812
  42   2.0000      -7.139530      -194.2765
  43   2.0000      -6.004867      -163.4007
  44   2.0000      -6.002603      -163.3391
  45   2.0000      -6.001326      -163.3044
  46   2.0000      -0.991163       -26.9709
  47   2.0000      -0.936862       -25.4933
  48   2.0000      -0.888960       -24.1898
  49   2.0000      -0.869520       -23.6608
  50   2.0000      -0.840996       -22.8847
  51   2.0000      -0.819444       -22.2982
  52   2.0000      -0.817456       -22.2441
  53   2.0000      -0.803274       -21.8582
  54   2.0000      -0.801328       -21.8052
  55   2.0000      -0.760733       -20.7006
  56   2.0000      -0.751901       -20.4603
  57   2.0000      -0.742563       -20.2062
  58   2.0000      -0.719452       -19.5773
  59   2.0000      -0.712645       -19.3921
  60   2.0000      -0.700334       -19.0570
  61   2.0000      -0.687612       -18.7109
  62   2.0000      -0.678342       -18.4586
  63   2.0000      -0.662886       -18.0380
  64   2.0000      -0.654114       -17.7994
  65   2.0000      -0.647370       -17.6158
  66   2.0000      -0.633366       -17.2348
  67   2.0000      -0.616008       -16.7624
  68   2.0000      -0.587103       -15.9759
  69   2.0000      -0.581499       -15.8234
  70   2.0000      -0.571453       -15.5500
  71   2.0000      -0.553586       -15.0638
  72   2.0000      -0.547690       -14.9034
  73   2.0000      -0.533311       -14.5121
  74   2.0000      -0.531004       -14.4494
  75   2.0000      -0.509818       -13.8728
  76   2.0000      -0.505572       -13.7573
  77   2.0000      -0.503363       -13.6972
  78   2.0000      -0.495249       -13.4764
  79   2.0000      -0.473835       -12.8937
  80   2.0000      -0.469944       -12.7878
  81   2.0000      -0.459982       -12.5168
  82   2.0000      -0.438795       -11.9402
  83   2.0000      -0.435944       -11.8627
  84   2.0000      -0.431872       -11.7518
  85   2.0000      -0.422793       -11.5048
  86   2.0000      -0.419145       -11.4055
  87   2.0000      -0.412043       -11.2123
  88   2.0000      -0.397865       -10.8265
  89   2.0000      -0.391237       -10.6461
  90   2.0000      -0.388119       -10.5613
  91   2.0000      -0.386805       -10.5255
  92   2.0000      -0.382852       -10.4179
  93   2.0000      -0.368960       -10.0399
  94   2.0000      -0.367472        -9.9994
  95   2.0000      -0.366248        -9.9661
  96   2.0000      -0.362242        -9.8571
  97   2.0000      -0.359979        -9.7955
  98   2.0000      -0.353286        -9.6134
  99   2.0000      -0.344066        -9.3625
 100   2.0000      -0.340332        -9.2609
 101   2.0000      -0.339689        -9.2434
 102   2.0000      -0.336476        -9.1560
 103   2.0000      -0.332498        -9.0477
 104   2.0000      -0.328356        -8.9350
 105   2.0000      -0.327587        -8.9141
 106   2.0000      -0.323309        -8.7977
 107   2.0000      -0.321208        -8.7405
 108   2.0000      -0.315914        -8.5965
 109   2.0000      -0.305548        -8.3144
 110   2.0000      -0.299978        -8.1628
 111   2.0000      -0.299609        -8.1528
 112   2.0000      -0.294825        -8.0226
 113   2.0000      -0.289275        -7.8716
 114   2.0000      -0.287859        -7.8330
 115   2.0000      -0.280463        -7.6318
 116   2.0000      -0.276012        -7.5107
 117   2.0000      -0.255654        -6.9567
 118   2.0000      -0.249406        -6.7867
 119   2.0000      -0.248502        -6.7621
 120   2.0000      -0.243231        -6.6187
 121   2.0000      -0.237280        -6.4567
 122   2.0000      -0.233005        -6.3404
 123   2.0000      -0.230162        -6.2630
 124   2.0000      -0.226685        -6.1684
 125   2.0000      -0.215900        -5.8749
 126   2.0000      -0.210073        -5.7164
 127   2.0000      -0.206936        -5.6310
 128   2.0000      -0.201730        -5.4894
 129   2.0000      -0.199301        -5.4233
 130   2.0000      -0.189102        -5.1457
 131   2.0000      -0.184040        -5.0080
 132   2.0000      -0.180118        -4.9013
 133   2.0000      -0.174540        -4.7495
 134   2.0000      -0.158444        -4.3115
 135   2.0000      -0.153556        -4.1785
 136   2.0000      -0.146120        -3.9761
 137   2.0000      -0.133355        -3.6288
 138   2.0000      -0.123882        -3.3710
 139   2.0000      -0.064072        -1.7435
 140   2.0000      -0.042351        -1.1524
 141   2.0000      -0.025720        -0.6999
 142   0.0000       0.002015         0.0548
 143   0.0000       0.034176         0.9300
 144   0.0000       0.054166         1.4739
 145   0.0000       0.063070         1.7162
 146   0.0000       0.082993         2.2583

MULLIKEN ATOMIC CHARGES
-----------------------
   0 C :   -0.542595
   1 C :    0.102320
   2 C :    0.289060
   3 N :   -0.602070
   4 C :   -0.232253
   5 C :    0.302556
   6 C :   -0.252490
   7 C :    0.143408
   8 C :   -0.205090
   9 C :   -0.085420
  10 Cl:   -0.065210
  11 C :   -0.155018
  12 C :   -0.174080
  13 C :    0.288012
  14 N :   -0.487751
  15 C :    0.007354
  16 C :   -0.319407
  17 C :   -0.321851
  18 S :    1.199683
  19 O :   -0.538519
  20 O :   -0.567589
  21 C :   -0.138866
  22 C :   -0.162460
  23 C :   -0.150187
  24 C :    0.104699
  25 C :    0.410427
  26 O :   -0.551458
  27 O :   -0.657930
  28 C :   -0.162321
  29 C :   -0.155362
  30 N :   -0.349832
  31 C :   -0.059989
  32 C :    0.138522
  33 C :   -0.203304
  34 C :   -0.128093
  35 C :   -0.122186
  36 C :   -0.196687
  37 C :    0.119576
  38 H :    0.184560
  39 H :    0.143801
  40 H :    0.187774
  41 H :    0.171673
  42 H :    0.166619
  43 H :    0.149879
  44 H :    0.135354
  45 H :    0.124142
  46 H :    0.129451
  47 H :    0.192149
  48 H :    0.161299
  49 H :    0.163469
  50 H :    0.153847
  51 H :    0.172805
  52 H :    0.138317
  53 H :    0.150969
  54 H :    0.146982
  55 H :    0.144673
  56 H :    0.144255
  57 H :    0.129361
  58 H :    0.122454
  59 H :    0.128175
  60 H :    0.140394
Sum of atomic charges:   -1.0000000

LOEWDIN ATOMIC CHARGES
----------------------
   0 C :   -0.361504
   1 C :   -0.018204
   2 C :    0.028316
   3 N :   -0.286412
   4 C :   -0.150357
   5 C :    0.010690
   6 C :   -0.184745
   7 C :   -0.032955
   8 C :   -0.138606
   9 C :   -0.107020
  10 Cl:    0.002587
  11 C :   -0.161023
  12 C :   -0.148827
  13 C :    0.009663
  14 N :    0.025748
  15 C :   -0.066450
  16 C :   -0.256458
  17 C :   -0.255955
  18 S :    1.268563
  19 O :   -0.567991
  20 O :   -0.589456
  21 C :   -0.215220
  22 C :   -0.131954
  23 C :   -0.109042
  24 C :   -0.004492
  25 C :    0.070886
  26 O :   -0.377028
  27 O :   -0.506351
  28 C :   -0.115548
  29 C :   -0.127065
  30 N :   -0.107383
  31 C :   -0.064635
  32 C :   -0.031038
  33 C :   -0.115331
  34 C :   -0.133970
  35 C :   -0.123584
  36 C :   -0.122205
  37 C :   -0.008048
  38 H :    0.148700
  39 H :    0.128214
  40 H :    0.148091
  41 H :    0.136224
  42 H :    0.142233
  43 H :    0.145545
  44 H :    0.139002
  45 H :    0.132552
  46 H :    0.134203
  47 H :    0.148924
  48 H :    0.138679
  49 H :    0.139878
  50 H :    0.135554
  51 H :    0.145355
  52 H :    0.136912
  53 H :    0.149753
  54 H :    0.146524
  55 H :    0.138824
  56 H :    0.133583
  57 H :    0.132711
  58 H :    0.129146
  59 H :    0.132141
  60 H :    0.139651

  Mayer bond orders larger than 0.100000
B(  0-C ,  1-C ) :   0.9986 B(  0-C , 38-H ) :   0.9231 B(  0-C , 39-H ) :   0.9280
B(  0-C , 40-H ) :   0.9249 B(  1-C ,  2-C ) :   1.4215 B(  1-C , 31-C ) :   0.1033
B(  1-C , 37-C ) :   1.2635 B(  2-C ,  3-N ) :   0.9120 B(  2-C , 30-N ) :   1.2914
B(  3-N ,  4-C ) :   0.9450 B(  3-N , 18-S ) :   0.7659 B(  4-C ,  5-C ) :   0.9597
B(  4-C , 41-H ) :   0.9144 B(  4-C , 42-H ) :   0.9180 B(  5-C ,  6-C ) :   1.5214
B(  5-C , 14-N ) :   1.1151 B(  6-C ,  7-C ) :   1.2837 B(  6-C , 43-H ) :   0.9145
B(  7-C ,  8-C ) :   1.3277 B(  7-C , 13-C ) :   1.3075 B(  8-C ,  9-C ) :   1.4330
B(  8-C , 44-H ) :   0.9232 B(  9-C , 10-Cl) :   0.9732 B(  9-C , 11-C ) :   1.3541
B( 11-C , 12-C ) :   1.4587 B( 11-C , 45-H ) :   0.9294 B( 12-C , 13-C ) :   1.3610
B( 12-C , 46-H ) :   0.9152 B( 13-C , 14-N ) :   1.0305 B( 14-N , 15-C ) :   0.9753
B( 15-C , 16-C ) :   0.9362 B( 15-C , 17-C ) :   0.9344 B( 15-C , 47-H ) :   0.9088
B( 16-C , 17-C ) :   0.9633 B( 16-C , 48-H ) :   0.9405 B( 16-C , 49-H ) :   0.9414
B( 17-C , 50-H ) :   0.9425 B( 17-C , 51-H ) :   0.9377 B( 18-S , 19-O ) :   1.6708
B( 18-S , 20-O ) :   1.5988 B( 18-S , 21-C ) :   0.8448 B( 21-C , 22-C ) :   1.3660
B( 21-C , 29-C ) :   1.3626 B( 22-C , 23-C ) :   1.3985 B( 22-C , 52-H ) :   0.9211
B( 23-C , 24-C ) :   1.4053 B( 23-C , 53-H ) :   0.9014 B( 24-C , 25-C ) :   0.9271
B( 24-C , 28-C ) :   1.3855 B( 25-C , 26-O ) :   1.7078 B( 25-C , 27-O ) :   1.5498
B( 26-O , 27-O ) :   0.1481 B( 28-C , 29-C ) :   1.4135 B( 28-C , 54-H ) :   0.9075
B( 29-C , 55-H ) :   0.9197 B( 30-N , 31-C ) :   1.5010 B( 31-C , 32-C ) :   1.2275
B( 31-C , 56-H ) :   0.9283 B( 32-C , 33-C ) :   1.2845 B( 32-C , 37-C ) :   1.2922
B( 33-C , 34-C ) :   1.5135 B( 33-C , 36-C ) :   0.1065 B( 33-C , 57-H ) :   0.9245
B( 34-C , 35-C ) :   1.3520 B( 34-C , 58-H ) :   0.9315 B( 35-C , 36-C ) :   1.5111
B( 35-C , 59-H ) :   0.9306 B( 36-C , 37-C ) :   1.2934 B( 36-C , 60-H ) :   0.9157

FINAL SINGLE POINT ENERGY     -2441.288151284165

DIPOLE MOMENT
-------------

Method             : SCF
Type of density    : Electron Density
Multiplicity       :   1
Irrep              :   0
Energy             : -2441.2881512841649965 Eh
Relativity type    :
Basis              : AO
                                X                 Y                 Z
Electronic contribution:    -13.490659570      -0.309744232     -25.935010944
Nuclear contribution   :      7.997188133      -7.155364697      26.017982858
                        -----------------------------------------
Total Dipole Moment    :     -5.493471437      -7.465108929       0.082971914
                        -----------------------------------------
Magnitude (a.u.)       :      9.268924646
Magnitude (Debye)      :     23.559734127

Rotational constants in cm-1:             0.003835             0.001808             0.001418
Rotational constants in MHz :           114.974235            54.201860            42.514751

                             ****ORCA TERMINATED NORMALLY****
TOTAL RUN TIME: 0 days 0 hours 8 minutes 48 seconds 128 msec
