                         Program Version 6.0.0  -   RELEASE  -
|  1> ! B3LYP 6-31G* SP
|  2>
|  3> * xyz 0 1
|  4> C -7.5668 -2.1480 -1.5795
|  5> N -6.7821 -1.0222 -1.0351
|  6> C -5.4161 -1.0968 -1.0118
|  7> O -4.8549 -2.1161 -1.4989
|  8> C -4.6424 -0.0341 -0.4795
|  9> C -3.2047 -0.0583 -0.4052
| 10> C -2.3899 -1.3064 -0.7471
| 11> C -0.9511 -1.2678 -0.3081
| 12> O -0.0466 -1.0910 -1.1685
| 13> N -0.6252 -1.3977 1.0846
| 14> C 0.6980 -1.2402 1.6114
| 15> N 1.7841 -0.9540 0.8625
| 16> C 2.9129 -0.8388 1.6171
| 17> C 4.2275 -0.5270 0.9978
| 18> C 5.3206 -0.0919 1.7692
| 19> C 6.5489 0.2069 1.1696
| 20> F 7.5625 0.6280 1.9656
| 21> C 6.7063 0.0770 -0.2280
| 22> O 7.9063 0.3579 -0.9037
| 23> C 9.1136 0.8162 -0.3006
| 24> C 10.1818 0.9991 -1.3706
| 25> F 10.4227 -0.2064 -2.0056
| 26> F 9.7587 1.9293 -2.3028
| 27> F 11.3529 1.4439 -0.7865
| 28> C 5.6159 -0.3502 -0.9953
| 29> F 5.7441 -0.4772 -2.3404
| 30> C 4.3907 -0.6467 -0.3927
| 31> C 2.7132 -1.0424 2.9874
| 32> S 1.0816 -1.3675 3.2398
| 33> C -2.5294 1.1193 -0.0228
| 34> C -3.2246 2.2506 0.3695
| 35> C -4.6096 2.2486 0.3927
| 36> C -5.3484 1.1167 -0.0235
| 37> N -6.7280 1.1219 0.0037
| 38> C -7.4650 2.2806 0.5562
| 39> C -7.4304 0.0539 -0.4945
| 40> O -8.6944 0.0608 -0.4613
| 41> H -7.7723 -2.8837 -0.7742
| 42> H -7.0303 -2.6565 -2.4092
| 43> H -8.5296 -1.8016 -2.0101
| 44> H -2.8373 -2.1860 -0.2384
| 45> H -2.4269 -1.4714 -1.8459
| 46> H -1.4002 -1.5838 1.7602
| 47> H 5.2296 0.0383 2.8378
| 48> H 9.4717 0.0693 0.4412
| 49> H 8.9357 1.7917 0.2025
| 50> H 3.5705 -0.9784 -1.0181
| 51> H 3.4638 -1.0218 3.7648
| 52> H -1.4499 1.1787 -0.0122
| 53> H -2.6822 3.1370 0.6740
| 54> H -5.0885 3.1597 0.7208
| 55> H -8.5595 2.1128 0.6279
| 56> H -7.3084 3.1703 -0.0908
| 57> H -7.1188 2.4951 1.5901
| 58> *
| 59>
| 60>                          ****END OF INPUT****

CARTESIAN COORDINATES (ANGSTROEM)
---------------------------------
  C     -7.566800   -2.148000   -1.579500
  N     -6.782100   -1.022200   -1.035100
  C     -5.416100   -1.096800   -1.011800
  O     -4.854900   -2.116100   -1.498900
  C     -4.642400   -0.034100   -0.479500
  C     -3.204700   -0.058300   -0.405200
  C     -2.389900   -1.306400   -0.747100
  C     -0.951100   -1.267800   -0.308100
  O     -0.046600   -1.091000   -1.168500
  N     -0.625200   -1.397700    1.084600
  C      0.698000   -1.240200    1.611400
  N      1.784100   -0.954000    0.862500
  C      2.912900   -0.838800    1.617100
  C      4.227500   -0.527000    0.997800
  C      5.320600   -0.091900    1.769200
  C      6.548900    0.206900    1.169600
  F      7.562500    0.628000    1.965600
  C      6.706300    0.077000   -0.228000
  O      7.906300    0.357900   -0.903700
  C      9.113600    0.816200   -0.300600
  C     10.181800    0.999100   -1.370600
  F     10.422700   -0.206400   -2.005600
  F      9.758700    1.929300   -2.302800
  F     11.352900    1.443900   -0.786500
  C      5.615900   -0.350200   -0.995300
  F      5.744100   -0.477200   -2.340400
  C      4.390700   -0.646700   -0.392700
  C      2.713200   -1.042400    2.987400
  S      1.081600   -1.367500    3.239800
  C     -2.529400    1.119300   -0.022800
  C     -3.224600    2.250600    0.369500
  C     -4.609600    2.248600    0.392700
  C     -5.348400    1.116700   -0.023500
  N     -6.728000    1.121900    0.003700
  C     -7.465000    2.280600    0.556200
  C     -7.430400    0.053900   -0.494500
  O     -8.694400    0.060800   -0.461300
  H     -7.772300   -2.883700   -0.774200
  H     -7.030300   -2.656500   -2.409200
  H     -8.529600   -1.801600   -2.010100
  H     -2.837300   -2.186000   -0.238400
  H     -2.426900   -1.471400   -1.845900
  H     -1.400200   -1.583800    1.760200
  H      5.229600    0.038300    2.837800
  H      9.471700    0.069300    0.441200
  H      8.935700    1.791700    0.202500
  H      3.570500   -0.978400   -1.018100
  H      3.463800   -1.021800    3.764800
  H     -1.449900    1.178700   -0.012200
  H     -2.682200    3.137000    0.674000
  H     -5.088500    3.159700    0.720800
  H     -8.559500    2.112800    0.627900
  H     -7.308400    3.170300   -0.090800
  H     -7.118800    2.495100    1.590100

 Total Charge           Charge          ....    0
 Multiplicity           Mult            ....    1
 Number of Electrons    NEL             ....  276
 Basis Dimension        Dim             ....  556

ORBITAL ENERGIES
----------------

  NO   OCC          E(Eh)            E(eV)
   0   2.0000     -88.912272     -2419.4259
   1   2.0000     -24.725492      -672.8149
   2   2.0000     -24.720052      -672.6668
   3   2.0000     -24.715886      -672.5534
   4   2.0000     -24.715740      -672.5495
   5   2.0000     -24.699700      -672.1130
   6   2.0000     -19.185426      -522.0620
   7   2.0000     -19.119347      -520.2639
   8   2.0000     -19.116261      -520.1799
   9   2.0000     -19.113015      -520.0916
  10   2.0000     -14.407271      -392.0418
  11   2.0000     -14.400836      -391.8667
  12   2.0000     -14.400115      -391.8471
  13   2.0000     -14.330927      -389.9644
  14   2.0000     -10.436241      -283.9846
  15   2.0000     -10.329564      -281.0817
  16   2.0000     -10.303653      -280.3767
  17   2.0000     -10.299019      -280.2505
  18   2.0000     -10.296383      -280.1788
  19   2.0000     -10.284520      -279.8560
  20   2.0000     -10.277632      -279.6686
  21   2.0000     -10.269741      -279.4539
  22   2.0000     -10.266889      -279.3763
  23   2.0000     -10.263387      -279.2810
  24   2.0000     -10.238046      -278.5914
  25   2.0000     -10.234409      -278.4924
  26   2.0000     -10.233051      -278.4555
  27   2.0000     -10.221940      -278.1531
  28   2.0000     -10.217879      -278.0426
  29   2.0000     -10.215590      -277.9803
  30   2.0000     -10.213424      -277.9214
  31   2.0000     -10.209868      -277.8246
  32   2.0000     -10.204976      -277.6915
  33   2.0000     -10.203757      -277.6583
  34   2.0000     -10.201110      -277.5863
  35   2.0000     -10.198309      -277.5101
  36   2.0000     -10.192261      -277.3455
  37   2.0000      -7.990123      -217.4223
  38   2.0000      -5.953195      -161.9947
  39   2.0000      -5.949085      -161.8828
  40   2.0000      -5.946912      -161.8237
  41   2.0000      -1.279613       -34.8200
  42   2.0000      -1.233702       -33.5707
  43   2.0000      -1.211696       -32.9719
  44   2.0000      -1.207335       -32.8533
  45   2.0000      -1.201556       -32.6960
  46   2.0000      -1.072670       -29.1888
  47   2.0000      -1.063590       -28.9418
  48   2.0000      -1.026779       -27.9401
  49   2.0000      -1.024085       -27.8668
  50   2.0000      -0.980060       -26.6688
  51   2.0000      -0.974901       -26.5284
  52   2.0000      -0.943945       -25.6861
  53   2.0000      -0.921014       -25.0621
  54   2.0000      -0.874402       -23.7937
  55   2.0000      -0.872245       -23.7350
  56   2.0000      -0.819225       -22.2922
  57   2.0000      -0.803461       -21.8633
  58   2.0000      -0.799549       -21.7568
  59   2.0000      -0.791353       -21.5338
  60   2.0000      -0.766130       -20.8475
  61   2.0000      -0.756776       -20.5929
  62   2.0000      -0.749659       -20.3993
  63   2.0000      -0.735132       -20.0040
  64   2.0000      -0.721682       -19.6380
  65   2.0000      -0.710126       -19.3235
  66   2.0000      -0.665555       -18.1107
  67   2.0000      -0.660358       -17.9692
  68   2.0000      -0.656734       -17.8706
  69   2.0000      -0.641074       -17.4445
  70   2.0000      -0.635746       -17.2995
  71   2.0000      -0.620709       -16.8903
  72   2.0000      -0.609450       -16.5840
  73   2.0000      -0.603492       -16.4219
  74   2.0000      -0.578724       -15.7479
  75   2.0000      -0.578456       -15.7406
  76   2.0000      -0.573460       -15.6046
  77   2.0000      -0.567955       -15.4548
  78   2.0000      -0.555018       -15.1028
  79   2.0000      -0.551638       -15.0108
  80   2.0000      -0.537223       -14.6186
  81   2.0000      -0.529600       -14.4111
  82   2.0000      -0.521916       -14.2021
  83   2.0000      -0.519999       -14.1499
  84   2.0000      -0.510988       -13.9047
  85   2.0000      -0.507337       -13.8053
  86   2.0000      -0.493219       -13.4212
  87   2.0000      -0.492679       -13.4065
  88   2.0000      -0.491027       -13.3615
  89   2.0000      -0.489185       -13.3114
  90   2.0000      -0.475084       -12.9277
  91   2.0000      -0.466613       -12.6972
  92   2.0000      -0.466314       -12.6890
  93   2.0000      -0.464843       -12.6490
  94   2.0000      -0.460401       -12.5281
  95   2.0000      -0.453917       -12.3517
  96   2.0000      -0.453115       -12.3299
  97   2.0000      -0.450456       -12.2575
  98   2.0000      -0.446314       -12.1448
  99   2.0000      -0.446233       -12.1426
 100   2.0000      -0.440100       -11.9757
 101   2.0000      -0.439449       -11.9580
 102   2.0000      -0.435502       -11.8506
 103   2.0000      -0.428581       -11.6623
 104   2.0000      -0.416919       -11.3449
 105   2.0000      -0.414426       -11.2771
 106   2.0000      -0.409387       -11.1400
 107   2.0000      -0.409202       -11.1350
 108   2.0000      -0.407588       -11.0910
 109   2.0000      -0.406777       -11.0690
 110   2.0000      -0.398906       -10.8548
 111   2.0000      -0.397364       -10.8128
 112   2.0000      -0.393030       -10.6949
 113   2.0000      -0.392476       -10.6798
 114   2.0000      -0.390461       -10.6250
 115   2.0000      -0.387479       -10.5438
 116   2.0000      -0.382958       -10.4208
 117   2.0000      -0.377153       -10.2629
 118   2.0000      -0.376424       -10.2430
 119   2.0000      -0.374432       -10.1888
 120   2.0000      -0.371168       -10.1000
 121   2.0000      -0.362794        -9.8721
 122   2.0000      -0.360540        -9.8108
 123   2.0000      -0.338939        -9.2230
 124   2.0000      -0.334381        -9.0990
 125   2.0000      -0.319149        -8.6845
 126   2.0000      -0.307001        -8.3539
 127   2.0000      -0.290826        -7.9138
 128   2.0000      -0.285825        -7.7777
 129   2.0000      -0.276560        -7.5256
 130   2.0000      -0.270254        -7.3540
 131   2.0000      -0.267690        -7.2842
 132   2.0000      -0.253702        -6.9036
 133   2.0000      -0.249454        -6.7880
 134   2.0000      -0.244942        -6.6652
 135   2.0000      -0.236586        -6.4378
 136   2.0000      -0.234665        -6.3856
 137   2.0000      -0.211561        -5.7569
 138   0.0000      -0.063505        -1.7281
 139   0.0000      -0.042260        -1.1499
 140   0.0000      -0.024265        -0.6603
 141   0.0000      -0.023504        -0.6396
 142   0.0000      -0.006335        -0.1724

MULLIKEN ATOMIC CHARGES
-----------------------
   0 C :   -0.315544
   1 N :   -0.463879
   2 C :    0.504539
   3 O :   -0.496546
   4 C :   -0.000852
   5 C :    0.067910
   6 C :   -0.381506
   7 C :    0.539246
   8 O :   -0.426820
   9 N :   -0.654160
  10 C :    0.256286
  11 N :   -0.375704
  12 C :    0.217125
  13 C :    0.145741
  14 C :   -0.280815
  15 C :    0.363219
  16 F :   -0.315268
  17 C :    0.228964
  18 O :   -0.518495
  19 C :   -0.118723
  20 C :    0.917882
  21 F :   -0.295892
  22 F :   -0.295678
  23 F :   -0.300825
  24 C :    0.386871
  25 F :   -0.302230
  26 C :   -0.274988
  27 C :   -0.396345
  28 S :    0.251144
  29 C :   -0.190216
  30 C :   -0.110190
  31 C :   -0.196666
  32 C :    0.313796
  33 N :   -0.508782
  34 C :   -0.335998
  35 C :    0.670487
  36 O :   -0.509603
  37 H :    0.176712
  38 H :    0.196737
  39 H :    0.196569
  40 H :    0.172881
  41 H :    0.222244
  42 H :    0.345032
  43 H :    0.141469
  44 H :    0.172603
  45 H :    0.172418
  46 H :    0.197658
  47 H :    0.183324
  48 H :    0.165217
  49 H :    0.148417
  50 H :    0.141833
  51 H :    0.224284
  52 H :    0.174582
  53 H :    0.170533
Sum of atomic charges:    0.0000000

LOEWDIN ATOMIC CHARGES
----------------------
   0 C :   -0.259019
   1 N :   -0.021109
   2 C :    0.113748
   3 O :   -0.289707
   4 C :   -0.077436
   5 C :    0.031490
   6 C :   -0.237534
   7 C :    0.145000
   8 O :   -0.240036
   9 N :   -0.210234
  10 C :   -0.080867
  11 N :   -0.153056
  12 C :   -0.000751
  13 C :   -0.017569
  14 C :   -0.158237
  15 C :    0.085875
  16 F :   -0.097243
  17 C :    0.038002
  18 O :   -0.177146
  19 C :   -0.119517
  20 C :    0.300992
  21 F :   -0.110519
  22 F :   -0.110129
  23 F :   -0.109684
  24 C :    0.112246
  25 F :   -0.088501
  26 C :   -0.139632
  27 C :   -0.349116
  28 S :    0.388315
  29 C :   -0.151054
  30 C :   -0.098988
  31 C :   -0.166904
  32 C :    0.052079
  33 N :   -0.027378
  34 C :   -0.265121
  35 C :    0.136251
  36 O :   -0.318665
  37 H :    0.140195
  38 H :    0.153110
  39 H :    0.153269
  40 H :    0.152848
  41 H :    0.178749
  42 H :    0.267200
  43 H :    0.143492
  44 H :    0.139420
  45 H :    0.139386
  46 H :    0.171131
  47 H :    0.160788
  48 H :    0.149328
  49 H :    0.142220
  50 H :    0.140677
  51 H :    0.168089
  52 H :    0.136148
  53 H :    0.135101

  Mayer bond orders larger than 0.100000
B(  0-C ,  1-N ) :   0.9167 B(  0-C , 37-H ) :   0.9411 B(  0-C , 38-H ) :   0.9235
B(  0-C , 39-H ) :   0.9256 B(  1-N ,  2-C ) :   1.0035 B(  1-N , 35-C ) :   1.0406
B(  2-C ,  3-O ) :   1.7391 B(  2-C ,  4-C ) :   1.0606 B(  4-C ,  5-C ) :   1.3558
B(  4-C , 32-C ) :   1.2865 B(  5-C ,  6-C ) :   1.0032 B(  5-C , 29-C ) :   1.4438
B(  6-C ,  7-C ) :   0.9415 B(  6-C , 40-H ) :   0.8962 B(  6-C , 41-H ) :   0.8968
B(  7-C ,  8-O ) :   1.8825 B(  7-C ,  9-N ) :   0.9681 B(  9-N , 10-C ) :   0.9533
B(  9-N , 42-H ) :   0.8204 B( 10-C , 11-N ) :   1.5092 B( 10-C , 27-C ) :   0.1080
B( 10-C , 28-S ) :   1.1404 B( 11-N , 12-C ) :   1.2684 B( 12-C , 13-C ) :   1.0566
B( 12-C , 27-C ) :   1.5131 B( 13-C , 14-C ) :   1.3715 B( 13-C , 26-C ) :   1.3675
B( 14-C , 15-C ) :   1.3980 B( 14-C , 43-H ) :   0.9097 B( 15-C , 16-F ) :   0.8811
B( 15-C , 17-C ) :   1.2852 B( 17-C , 18-O ) :   0.9049 B( 17-C , 24-C ) :   1.2992
B( 18-O , 19-C ) :   0.8896 B( 19-C , 20-C ) :   0.9551 B( 19-C , 44-H ) :   0.9072
B( 19-C , 45-H ) :   0.9074 B( 20-C , 21-F ) :   0.9817 B( 20-C , 22-F ) :   0.9820
B( 20-C , 23-F ) :   0.9614 B( 24-C , 25-F ) :   0.9372 B( 24-C , 26-C ) :   1.3748
B( 26-C , 46-H ) :   0.8959 B( 27-C , 28-S ) :   1.1136 B( 27-C , 47-H ) :   0.9018
B( 29-C , 30-C ) :   1.4001 B( 29-C , 48-H ) :   0.9077 B( 30-C , 31-C ) :   1.4684
B( 30-C , 49-H ) :   0.9255 B( 31-C , 32-C ) :   1.3464 B( 31-C , 50-H ) :   0.9144
B( 32-C , 33-N ) :   0.9713 B( 33-N , 34-C ) :   0.9339 B( 33-N , 35-C ) :   1.0458
B( 34-C , 51-H ) :   0.9139 B( 34-C , 52-H ) :   0.9323 B( 34-C , 53-H ) :   0.9315
B( 35-C , 36-O ) :   1.7854

FINAL SINGLE POINT ENERGY     -2302.903155734021

DIPOLE MOMENT
-------------

Method             : SCF
Type of density    : Electron Density
Multiplicity       :   1
Irrep              :   0
Energy             : -2302.9031557340213112 Eh
Relativity type    :
Basis              : AO
                                X                 Y                 Z
Electronic contribution:     82.972801116       0.656058692      -6.337820805
Nuclear contribution   :    -84.661936724       0.335321732       9.091509583
                        -----------------------------------------
Total Dipole Moment    :     -1.689135608       0.991380424       2.753688779
                        -----------------------------------------
Magnitude (a.u.)       :      3.379173884
Magnitude (Debye)      :      8.589177419

Rotational constants in cm-1:             0.008487             0.000804             0.000787
Rotational constants in MHz :           254.440112            24.106109            23.582788

                             ****ORCA TERMINATED NORMALLY****
TOTAL RUN TIME: 0 days 0 hours 7 minutes 44 seconds 636 msec
