                         Program Version 6.0.0  -   RELEASE  -
|  1> ! B3LYP 6-31G* SP
|  2>
|  3> * xyz 0 1
|  4> C -2.2298 -2.1882 2.8662
|  5> C -2.9697 -1.3979 1.8370
|  6> O -3.7714 -0.3924 2.1309
|  7> C -4.2341 0.0861 1.0001
|  8> C -3.7413 -0.6052 -0.0643
|  9> C -2.9140 -1.5890 0.4554
| 10> C -2.0557 -2.5788 -0.2813
| 11> C -0.6480 -2.0735 -0.3776
| 12> O 0.2469 -2.6030 0.3353
| 13> N -0.3321 -0.9871 -1.2615
| 14> C 0.9564 -0.3642 -1.3311
| 15> N 2.0030 -0.6949 -0.5454
| 16> C 3.1042 0.0636 -0.8087
| 17> C 4.3748 -0.1337 -0.0610
| 18> C 4.5472 -1.2855 0.7262
| 19> C 5.7294 -1.4892 1.4384
| 20> C 6.7578 -0.5465 1.3817
| 21> Cl 8.2337 -0.8330 2.2915
| 22> C 6.6112 0.6146 0.6097
| 23> O 7.6713 1.5379 0.5823
| 24> C 7.6903 2.7565 -0.1576
| 25> F 7.5550 2.4961 -1.5092
| 26> F 8.8993 3.3898 0.0542
| 27> F 6.6713 3.5893 0.2679
| 28> C 5.4146 0.8161 -0.1087
| 29> C 2.9215 1.0081 -1.8255
| 30> S 1.3410 0.8796 -2.3877
| 31> C -4.1182 -0.2510 -1.3555
| 32> O -3.6912 -0.9019 -2.3478
| 33> N -4.9749 0.8134 -1.5215
| 34> C -5.4164 1.1947 -2.8738
| 35> C -5.4826 1.4786 -0.4191
| 36> O -6.3184 2.4129 -0.5791
| 37> N -5.0917 1.1307 0.8541
| 38> C -5.6347 1.8226 2.0295
| 39> H -2.4776 -3.2648 2.7645
| 40> H -1.1378 -2.0450 2.7342
| 41> H -2.5163 -1.8479 3.8826
| 42> H -2.4526 -2.7714 -1.2979
| 43> H -2.0727 -3.5501 0.2579
| 44> H -1.0829 -0.6171 -1.8856
| 45> H 3.7704 -2.0372 0.7860
| 46> H 5.8460 -2.3843 2.0356
| 47> H 5.2887 1.7156 -0.6887
| 48> H 3.6560 1.6983 -2.2141
| 49> H -5.5986 2.2886 -2.9413
| 50> H -4.6419 0.9598 -3.6350
| 51> H -6.3516 0.6523 -3.1267
| 52> H -6.6678 1.4682 2.2259
| 53> H -5.6512 2.9201 1.8590
| 54> H -5.0151 1.6391 2.9322
| 55> *
| 56>
| 57>                          ****END OF INPUT****

CARTESIAN COORDINATES (ANGSTROEM)
---------------------------------
  C     -2.229800   -2.188200    2.866200
  C     -2.969700   -1.397900    1.837000
  O     -3.771400   -0.392400    2.130900
  C     -4.234100    0.086100    1.000100
  C     -3.741300   -0.605200   -0.064300
  C     -2.914000   -1.589000    0.455400
  C     -2.055700   -2.578800   -0.281300
  C     -0.648000   -2.073500   -0.377600
  O      0.246900   -2.603000    0.335300
  N     -0.332100   -0.987100   -1.261500
  C      0.956400   -0.364200   -1.331100
  N      2.003000   -0.694900   -0.545400
  C      3.104200    0.063600   -0.808700
  C      4.374800   -0.133700   -0.061000
  C      4.547200   -1.285500    0.726200
  C      5.729400   -1.489200    1.438400
  C      6.757800   -0.546500    1.381700
  Cl     8.233700   -0.833000    2.291500
  C      6.611200    0.614600    0.609700
  O      7.671300    1.537900    0.582300
  C      7.690300    2.756500   -0.157600
  F      7.555000    2.496100   -1.509200
  F      8.899300    3.389800    0.054200
  F      6.671300    3.589300    0.267900
  C      5.414600    0.816100   -0.108700
  C      2.921500    1.008100   -1.825500
  S      1.341000    0.879600   -2.387700
  C     -4.118200   -0.251000   -1.355500
  O     -3.691200   -0.901900   -2.347800
  N     -4.974900    0.813400   -1.521500
  C     -5.416400    1.194700   -2.873800
  C     -5.482600    1.478600   -0.419100
  O     -6.318400    2.412900   -0.579100
  N     -5.091700    1.130700    0.854100
  C     -5.634700    1.822600    2.029500
  H     -2.477600   -3.264800    2.764500
  H     -1.137800   -2.045000    2.734200
  H     -2.516300   -1.847900    3.882600
  H     -2.452600   -2.771400   -1.297900
  H     -2.072700   -3.550100    0.257900
  H     -1.082900   -0.617100   -1.885600
  H      3.770400   -2.037200    0.786000
  H      5.846000   -2.384300    2.035600
  H      5.288700    1.715600   -0.688700
  H      3.656000    1.698300   -2.214100
  H     -5.598600    2.288600   -2.941300
  H     -4.641900    0.959800   -3.635000
  H     -6.351600    0.652300   -3.126700
  H     -6.667800    1.468200    2.225900
  H     -5.651200    2.920100    1.859000
  H     -5.015100    1.639100    2.932200

 Total Charge           Charge          ....    0
 Multiplicity           Mult            ....    1
 Number of Electrons    NEL             ....  270
 Basis Dimension        Dim             ....  530

ORBITAL ENERGIES
----------------

  NO   OCC          E(Eh)            E(eV)
   0   2.0000    -101.527142     -2762.6940
   1   2.0000     -88.908862     -2419.3331
   2   2.0000     -24.741119      -673.2401
   3   2.0000     -24.740567      -673.2251
   4   2.0000     -24.740447      -673.2218
   5   2.0000     -19.258615      -524.0536
   6   2.0000     -19.214967      -522.8658
   7   2.0000     -19.122429      -520.3477
   8   2.0000     -19.121116      -520.3120
   9   2.0000     -19.119103      -520.2572
  10   2.0000     -14.422391      -392.4532
  11   2.0000     -14.406798      -392.0289
  12   2.0000     -14.391357      -391.6087
  13   2.0000     -14.326413      -389.8415
  14   2.0000     -10.505510      -285.8695
  15   2.0000     -10.339374      -281.3487
  16   2.0000     -10.306849      -280.4636
  17   2.0000     -10.303589      -280.3749
  18   2.0000     -10.301605      -280.3209
  19   2.0000     -10.291025      -280.0330
  20   2.0000     -10.276950      -279.6500
  21   2.0000     -10.257174      -279.1119
  22   2.0000     -10.251712      -278.9633
  23   2.0000     -10.246433      -278.8196
  24   2.0000     -10.229000      -278.3453
  25   2.0000     -10.227766      -278.3117
  26   2.0000     -10.211698      -277.8744
  27   2.0000     -10.209533      -277.8155
  28   2.0000     -10.205458      -277.7046
  29   2.0000     -10.205012      -277.6925
  30   2.0000     -10.202262      -277.6177
  31   2.0000     -10.199090      -277.5314
  32   2.0000     -10.198907      -277.5264
  33   2.0000     -10.195914      -277.4449
  34   2.0000     -10.187832      -277.2250
  35   2.0000      -9.458593      -257.3814
  36   2.0000      -7.986566      -217.3255
  37   2.0000      -7.221868      -196.5170
  38   2.0000      -7.212182      -196.2534
  39   2.0000      -7.211726      -196.2411
  40   2.0000      -5.949635      -161.8978
  41   2.0000      -5.945527      -161.7860
  42   2.0000      -5.943391      -161.7279
  43   2.0000      -1.305291       -35.5188
  44   2.0000      -1.226459       -33.3736
  45   2.0000      -1.224778       -33.3279
  46   2.0000      -1.188928       -32.3524
  47   2.0000      -1.085004       -29.5245
  48   2.0000      -1.077534       -29.3212
  49   2.0000      -1.031192       -28.0601
  50   2.0000      -1.022260       -27.8171
  51   2.0000      -0.984368       -26.7860
  52   2.0000      -0.976038       -26.5593
  53   2.0000      -0.949492       -25.8370
  54   2.0000      -0.914807       -24.8932
  55   2.0000      -0.889894       -24.2152
  56   2.0000      -0.859646       -23.3922
  57   2.0000      -0.840954       -22.8835
  58   2.0000      -0.813778       -22.1440
  59   2.0000      -0.812923       -22.1208
  60   2.0000      -0.778269       -21.1778
  61   2.0000      -0.771484       -20.9931
  62   2.0000      -0.764716       -20.8090
  63   2.0000      -0.749219       -20.3873
  64   2.0000      -0.731526       -19.9058
  65   2.0000      -0.720991       -19.6192
  66   2.0000      -0.713721       -19.4213
  67   2.0000      -0.701046       -19.0764
  68   2.0000      -0.671548       -18.2737
  69   2.0000      -0.645540       -17.5660
  70   2.0000      -0.638889       -17.3851
  71   2.0000      -0.630977       -17.1698
  72   2.0000      -0.619299       -16.8520
  73   2.0000      -0.616503       -16.7759
  74   2.0000      -0.601763       -16.3748
  75   2.0000      -0.597646       -16.2628
  76   2.0000      -0.589303       -16.0357
  77   2.0000      -0.585364       -15.9286
  78   2.0000      -0.575878       -15.6704
  79   2.0000      -0.541740       -14.7415
  80   2.0000      -0.537359       -14.6223
  81   2.0000      -0.536768       -14.6062
  82   2.0000      -0.526358       -14.3229
  83   2.0000      -0.514532       -14.0011
  84   2.0000      -0.502801       -13.6819
  85   2.0000      -0.494426       -13.4540
  86   2.0000      -0.485297       -13.2056
  87   2.0000      -0.482051       -13.1173
  88   2.0000      -0.477332       -12.9889
  89   2.0000      -0.471560       -12.8318
  90   2.0000      -0.471194       -12.8219
  91   2.0000      -0.468735       -12.7549
  92   2.0000      -0.460436       -12.5291
  93   2.0000      -0.457378       -12.4459
  94   2.0000      -0.455499       -12.3948
  95   2.0000      -0.450755       -12.2657
  96   2.0000      -0.449525       -12.2322
  97   2.0000      -0.447587       -12.1795
  98   2.0000      -0.439869       -11.9695
  99   2.0000      -0.433345       -11.7919
 100   2.0000      -0.431991       -11.7551
 101   2.0000      -0.429598       -11.6900
 102   2.0000      -0.424789       -11.5591
 103   2.0000      -0.422920       -11.5082
 104   2.0000      -0.419516       -11.4156
 105   2.0000      -0.418030       -11.3752
 106   2.0000      -0.415657       -11.3106
 107   2.0000      -0.412920       -11.2361
 108   2.0000      -0.411061       -11.1855
 109   2.0000      -0.407578       -11.0908
 110   2.0000      -0.400563       -10.8999
 111   2.0000      -0.397517       -10.8170
 112   2.0000      -0.393954       -10.7200
 113   2.0000      -0.392433       -10.6786
 114   2.0000      -0.379763       -10.3339
 115   2.0000      -0.375862       -10.2277
 116   2.0000      -0.371430       -10.1071
 117   2.0000      -0.365476        -9.9451
 118   2.0000      -0.360441        -9.8081
 119   2.0000      -0.352384        -9.5888
 120   2.0000      -0.337914        -9.1951
 121   2.0000      -0.334216        -9.0945
 122   2.0000      -0.308494        -8.3945
 123   2.0000      -0.304916        -8.2972
 124   2.0000      -0.295523        -8.0416
 125   2.0000      -0.289645        -7.8816
 126   2.0000      -0.286004        -7.7826
 127   2.0000      -0.280271        -7.6265
 128   2.0000      -0.276832        -7.5330
 129   2.0000      -0.260188        -7.0801
 130   2.0000      -0.256459        -6.9786
 131   2.0000      -0.242871        -6.6089
 132   2.0000      -0.237539        -6.4638
 133   2.0000      -0.213269        -5.8034
 134   2.0000      -0.210628        -5.7315
 135   0.0000      -0.042580        -1.1587
 136   0.0000      -0.031881        -0.8675
 137   0.0000      -0.022957        -0.6247
 138   0.0000      -0.010783        -0.2934
 139   0.0000      -0.009398        -0.2557

MULLIKEN ATOMIC CHARGES
-----------------------
   0 C :   -0.533676
   1 C :    0.256142
   2 O :   -0.401417
   3 C :    0.487907
   4 C :    0.028376
   5 C :    0.014221
   6 C :   -0.435055
   7 C :    0.567132
   8 O :   -0.436708
   9 N :   -0.666292
  10 C :    0.255123
  11 N :   -0.378823
  12 C :    0.219222
  13 C :    0.119063
  14 C :   -0.166808
  15 C :   -0.131102
  16 C :   -0.127063
  17 Cl:    0.006540
  18 C :    0.362437
  19 O :   -0.537002
  20 C :    1.091428
  21 F :   -0.292210
  22 F :   -0.276463
  23 F :   -0.291190
  24 C :   -0.240422
  25 C :   -0.398183
  26 S :    0.256557
  27 C :    0.503483
  28 O :   -0.520819
  29 N :   -0.482241
  30 C :   -0.315698
  31 C :    0.675691
  32 O :   -0.503026
  33 N :   -0.501347
  34 C :   -0.330094
  35 H :    0.177586
  36 H :    0.208902
  37 H :    0.163098
  38 H :    0.202697
  39 H :    0.180917
  40 H :    0.360486
  41 H :    0.183820
  42 H :    0.162076
  43 H :    0.149479
  44 H :    0.185189
  45 H :    0.195283
  46 H :    0.193837
  47 H :    0.181218
  48 H :    0.188543
  49 H :    0.204131
  50 H :    0.185055
Sum of atomic charges:   -0.0000000

LOEWDIN ATOMIC CHARGES
----------------------
   0 C :   -0.363958
   1 C :    0.028362
   2 O :    0.001549
   3 C :    0.094070
   4 C :   -0.116701
   5 C :   -0.050136
   6 C :   -0.241756
   7 C :    0.157692
   8 O :   -0.254216
   9 N :   -0.208388
  10 C :   -0.079364
  11 N :   -0.155081
  12 C :   -0.003566
  13 C :   -0.009403
  14 C :   -0.113877
  15 C :   -0.123532
  16 C :   -0.104093
  17 Cl:    0.049114
  18 C :    0.081094
  19 O :   -0.151904
  20 C :    0.360411
  21 F :   -0.105013
  22 F :   -0.084741
  23 F :   -0.104394
  24 C :   -0.152815
  25 C :   -0.347639
  26 S :    0.393720
  27 C :    0.108765
  28 O :   -0.318849
  29 N :   -0.027347
  30 C :   -0.259989
  31 C :    0.142396
  32 O :   -0.311839
  33 N :   -0.021333
  34 C :   -0.260035
  35 H :    0.148021
  36 H :    0.162165
  37 H :    0.142330
  38 H :    0.163144
  39 H :    0.155558
  40 H :    0.273002
  41 H :    0.160359
  42 H :    0.151089
  43 H :    0.141609
  44 H :    0.161292
  45 H :    0.152497
  46 H :    0.152230
  47 H :    0.142136
  48 H :    0.144170
  49 H :    0.156853
  50 H :    0.146341

  Mayer bond orders larger than 0.100000
B(  0-C ,  1-C ) :   1.0387 B(  0-C , 35-H ) :   0.9300 B(  0-C , 36-H ) :   0.9126
B(  0-C , 37-H ) :   0.9355 B(  1-C ,  2-O ) :   0.9871 B(  1-C ,  5-C ) :   1.5498
B(  2-O ,  3-C ) :   1.0753 B(  3-C ,  4-C ) :   1.3626 B(  3-C , 33-N ) :   0.9794
B(  4-C ,  5-C ) :   1.2787 B(  4-C , 27-C ) :   1.0902 B(  5-C ,  6-C ) :   0.9947
B(  6-C ,  7-C ) :   0.9618 B(  6-C , 38-H ) :   0.8924 B(  6-C , 39-H ) :   0.9137
B(  7-C ,  8-O ) :   1.8733 B(  7-C ,  9-N ) :   0.9955 B(  9-N , 10-C ) :   0.9581
B(  9-N , 40-H ) :   0.7904 B( 10-C , 11-N ) :   1.5093 B( 10-C , 25-C ) :   0.1062
B( 10-C , 26-S ) :   1.1408 B( 11-N , 12-C ) :   1.2674 B( 12-C , 13-C ) :   1.0531
B( 12-C , 25-C ) :   1.5103 B( 13-C , 14-C ) :   1.3988 B( 13-C , 24-C ) :   1.3889
B( 14-C , 15-C ) :   1.4270 B( 14-C , 41-H ) :   0.9042 B( 15-C , 16-C ) :   1.4101
B( 15-C , 42-H ) :   0.9210 B( 16-C , 17-Cl) :   1.0418 B( 16-C , 18-C ) :   1.3488
B( 18-C , 19-O ) :   0.8451 B( 18-C , 24-C ) :   1.3791 B( 19-O , 20-C ) :   0.9857
B( 20-C , 21-F ) :   0.9658 B( 20-C , 22-F ) :   1.0112 B( 20-C , 23-F ) :   0.9651
B( 24-C , 43-H ) :   0.8953 B( 25-C , 26-S ) :   1.1165 B( 25-C , 44-H ) :   0.9010
B( 27-C , 28-O ) :   1.7261 B( 27-C , 29-N ) :   0.9792 B( 29-N , 30-C ) :   0.9170
B( 29-N , 31-C ) :   1.0387 B( 30-C , 45-H ) :   0.9265 B( 30-C , 46-H ) :   0.9240
B( 30-C , 47-H ) :   0.9398 B( 31-C , 32-O ) :   1.7941 B( 31-C , 33-N ) :   1.0486
B( 33-N , 34-C ) :   0.9248 B( 34-C , 48-H ) :   0.9341 B( 34-C , 49-H ) :   0.9269
B( 34-C , 50-H ) :   0.9298

FINAL SINGLE POINT ENERGY     -2561.853972560277

DIPOLE MOMENT
-------------

Method             : SCF
Type of density    : Electron Density
Multiplicity       :   1
Irrep              :   0
Energy             : -2561.8539725602772705 Eh
Relativity type    :
Basis              : AO
                                X                 Y                 Z
Electronic contribution:     69.098675333      15.407819437      -1.453579456
Nuclear contribution   :    -71.327886957     -15.067217891       1.845883745
                        -----------------------------------------
Total Dipole Moment    :     -2.229211624       0.340601546       0.392304289
                        -----------------------------------------
Magnitude (a.u.)       :      2.288950968
Magnitude (Debye)      :      5.818050993

Rotational constants in cm-1:             0.006565             0.001166             0.001102
Rotational constants in MHz :           196.825104            34.969375            33.032089

                             ****ORCA TERMINATED NORMALLY****
TOTAL RUN TIME: 0 days 0 hours 9 minutes 0 seconds 109 msec
