                         Program Version 6.0.0  -   RELEASE  -
|  1> ! B3LYP 6-31G* SP
|  2>
|  3> * xyz 0 1
|  4> C -6.6193 0.5020 1.4711
|  5> C -5.5084 0.5204 0.4634
|  6> C -5.7239 0.0323 -0.8342
|  7> C -4.7015 0.0864 -1.7847
|  8> C -3.4609 0.6347 -1.4507
|  9> C -3.2320 1.1318 -0.1581
| 10> C -1.9000 1.7405 0.1903
| 11> O -0.8326 0.8670 -0.1765
| 12> C -0.4993 -0.3339 0.4748
| 13> C -1.1944 -0.7905 1.6126
| 14> C -0.8111 -1.9756 2.2456
| 15> C 0.2657 -2.7159 1.7558
| 16> C 0.9628 -2.2743 0.6300
| 17> C 0.5853 -1.0871 -0.0136
| 18> C 1.3371 -0.6249 -1.1939
| 19> O 0.7566 -0.6297 -2.3134
| 20> N 2.6937 -0.1343 -1.0816
| 21> C 3.4629 0.1621 -2.3010
| 22> C 3.9155 -1.1231 -3.0109
| 23> C 4.9712 -1.9046 -2.2168
| 24> N 4.3719 -2.5716 -1.0650
| 25> C 3.2638 0.2040 0.2338
| 26> C 2.5116 1.3375 0.8625
| 27> C 2.1785 2.5385 0.2490
| 28> C 1.4595 3.4013 1.0844
| 29> C 1.2361 2.8889 2.3561
| 30> S 1.9333 1.3608 2.4412
| 31> C -4.2670 1.0888 0.7906
| 32> H -7.2031 1.4429 1.3940
| 33> H -7.2964 -0.3604 1.2927
| 34> H -6.2125 0.4110 2.5009
| 35> H -6.6833 -0.3877 -1.1103
| 36> H -4.8725 -0.2932 -2.7838
| 37> H -2.6789 0.6737 -2.1992
| 38> H -1.8248 1.9974 1.2693
| 39> H -1.7892 2.6872 -0.3786
| 40> H -2.0235 -0.2346 2.0244
| 41> H -1.3480 -2.3187 3.1206
| 42> H 0.5609 -3.6327 2.2495
| 43> H 1.7958 -2.8577 0.2589
| 44> H 2.8362 0.7629 -2.9953
| 45> H 4.3529 0.7886 -2.0743
| 46> H 3.0426 -1.7747 -3.2307
| 47> H 4.3622 -0.8349 -3.9872
| 48> H 5.4373 -2.6649 -2.8827
| 49> H 5.7741 -1.2154 -1.8744
| 50> H 5.1422 -3.0233 -0.5213
| 51> H 3.7616 -3.3454 -1.4158
| 52> H 4.3310 0.4985 0.1463
| 53> H 3.2360 -0.6865 0.8955
| 54> H 2.4361 2.7807 -0.7737
| 55> H 1.1099 4.3752 0.7694
| 56> H 0.7042 3.3894 3.1536
| 57> H -4.1062 1.4911 1.7838
| 58> *
| 59>
| 60>                          ****END OF INPUT****

CARTESIAN COORDINATES (ANGSTROEM)
---------------------------------
  C     -6.619300    0.502000    1.471100
  C     -5.508400    0.520400    0.463400
  C     -5.723900    0.032300   -0.834200
  C     -4.701500    0.086400   -1.784700
  C     -3.460900    0.634700   -1.450700
  C     -3.232000    1.131800   -0.158100
  C     -1.900000    1.740500    0.190300
  O     -0.832600    0.867000   -0.176500
  C     -0.499300   -0.333900    0.474800
  C     -1.194400   -0.790500    1.612600
  C     -0.811100   -1.975600    2.245600
  C      0.265700   -2.715900    1.755800
  C      0.962800   -2.274300    0.630000
  C      0.585300   -1.087100   -0.013600
  C      1.337100   -0.624900   -1.193900
  O      0.756600   -0.629700   -2.313400
  N      2.693700   -0.134300   -1.081600
  C      3.462900    0.162100   -2.301000
  C      3.915500   -1.123100   -3.010900
  C      4.971200   -1.904600   -2.216800
  N      4.371900   -2.571600   -1.065000
  C      3.263800    0.204000    0.233800
  C      2.511600    1.337500    0.862500
  C      2.178500    2.538500    0.249000
  C      1.459500    3.401300    1.084400
  C      1.236100    2.888900    2.356100
  S      1.933300    1.360800    2.441200
  C     -4.267000    1.088800    0.790600
  H     -7.203100    1.442900    1.394000
  H     -7.296400   -0.360400    1.292700
  H     -6.212500    0.411000    2.500900
  H     -6.683300   -0.387700   -1.110300
  H     -4.872500   -0.293200   -2.783800
  H     -2.678900    0.673700   -2.199200
  H     -1.824800    1.997400    1.269300
  H     -1.789200    2.687200   -0.378600
  H     -2.023500   -0.234600    2.024400
  H     -1.348000   -2.318700    3.120600
  H      0.560900   -3.632700    2.249500
  H      1.795800   -2.857700    0.258900
  H      2.836200    0.762900   -2.995300
  H      4.352900    0.788600   -2.074300
  H      3.042600   -1.774700   -3.230700
  H      4.362200   -0.834900   -3.987200
  H      5.437300   -2.664900   -2.882700
  H      5.774100   -1.215400   -1.874400
  H      5.142200   -3.023300   -0.521300
  H      3.761600   -3.345400   -1.415800
  H      4.331000    0.498500    0.146300
  H      3.236000   -0.686500    0.895500
  H      2.436100    2.780700   -0.773700
  H      1.109900    4.375200    0.769400
  H      0.704200    3.389400    3.153600
  H     -4.106200    1.491100    1.783800

 Total Charge           Charge          ....    0
 Multiplicity           Mult            ....    1
 Number of Electrons    NEL             ....  210
 Basis Dimension        Dim             ....  448

ORBITAL ENERGIES
----------------

  NO   OCC          E(Eh)            E(eV)
   0   2.0000     -88.875959     -2418.4378
   1   2.0000     -19.153088      -521.1820
   2   2.0000     -19.091792      -519.5141
   3   2.0000     -14.338668      -390.1750
   4   2.0000     -14.309728      -389.3875
   5   2.0000     -10.269476      -279.4467
   6   2.0000     -10.242163      -278.7034
   7   2.0000     -10.231021      -278.4002
   8   2.0000     -10.216768      -278.0124
   9   2.0000     -10.205035      -277.6931
  10   2.0000     -10.201034      -277.5842
  11   2.0000     -10.193502      -277.3793
  12   2.0000     -10.189973      -277.2833
  13   2.0000     -10.183430      -277.1052
  14   2.0000     -10.182515      -277.0803
  15   2.0000     -10.179796      -277.0063
  16   2.0000     -10.178314      -276.9660
  17   2.0000     -10.176543      -276.9178
  18   2.0000     -10.172699      -276.8132
  19   2.0000     -10.172651      -276.8119
  20   2.0000     -10.172634      -276.8114
  21   2.0000     -10.171639      -276.7844
  22   2.0000     -10.170353      -276.7494
  23   2.0000     -10.169872      -276.7363
  24   2.0000     -10.169835      -276.7353
  25   2.0000     -10.169307      -276.7209
  26   2.0000     -10.167059      -276.6597
  27   2.0000     -10.165247      -276.6104
  28   2.0000      -7.952666      -216.4030
  29   2.0000      -5.915577      -160.9710
  30   2.0000      -5.911596      -160.8627
  31   2.0000      -5.909984      -160.8188
  32   2.0000      -1.032757       -28.1027
  33   2.0000      -0.991364       -26.9764
  34   2.0000      -0.905966       -24.6526
  35   2.0000      -0.878024       -23.8922
  36   2.0000      -0.871608       -23.7177
  37   2.0000      -0.847373       -23.0582
  38   2.0000      -0.840490       -22.8709
  39   2.0000      -0.773209       -21.0401
  40   2.0000      -0.765830       -20.8393
  41   2.0000      -0.752134       -20.4666
  42   2.0000      -0.746130       -20.3032
  43   2.0000      -0.730437       -19.8762
  44   2.0000      -0.728569       -19.8254
  45   2.0000      -0.721132       -19.6230
  46   2.0000      -0.677942       -18.4477
  47   2.0000      -0.669332       -18.2135
  48   2.0000      -0.666523       -18.1370
  49   2.0000      -0.653886       -17.7932
  50   2.0000      -0.612492       -16.6668
  51   2.0000      -0.597896       -16.2696
  52   2.0000      -0.586990       -15.9728
  53   2.0000      -0.581909       -15.8346
  54   2.0000      -0.559415       -15.2225
  55   2.0000      -0.548492       -14.9252
  56   2.0000      -0.538701       -14.6588
  57   2.0000      -0.525748       -14.3063
  58   2.0000      -0.507116       -13.7993
  59   2.0000      -0.497684       -13.5427
  60   2.0000      -0.493439       -13.4272
  61   2.0000      -0.484787       -13.1917
  62   2.0000      -0.477181       -12.9848
  63   2.0000      -0.469026       -12.7628
  64   2.0000      -0.466018       -12.6810
  65   2.0000      -0.459795       -12.5116
  66   2.0000      -0.454910       -12.3787
  67   2.0000      -0.449236       -12.2243
  68   2.0000      -0.441100       -12.0030
  69   2.0000      -0.433553       -11.7976
  70   2.0000      -0.424373       -11.5478
  71   2.0000      -0.423596       -11.5266
  72   2.0000      -0.416276       -11.3275
  73   2.0000      -0.413851       -11.2615
  74   2.0000      -0.412293       -11.2191
  75   2.0000      -0.394893       -10.7456
  76   2.0000      -0.393879       -10.7180
  77   2.0000      -0.389948       -10.6110
  78   2.0000      -0.380302       -10.3485
  79   2.0000      -0.377729       -10.2785
  80   2.0000      -0.374224       -10.1831
  81   2.0000      -0.372710       -10.1420
  82   2.0000      -0.370786       -10.0896
  83   2.0000      -0.362666        -9.8687
  84   2.0000      -0.358245        -9.7483
  85   2.0000      -0.354292        -9.6408
  86   2.0000      -0.349327        -9.5057
  87   2.0000      -0.347231        -9.4486
  88   2.0000      -0.340530        -9.2663
  89   2.0000      -0.334664        -9.1067
  90   2.0000      -0.332298        -9.0423
  91   2.0000      -0.329620        -8.9694
  92   2.0000      -0.322957        -8.7881
  93   2.0000      -0.319209        -8.6861
  94   2.0000      -0.302657        -8.2357
  95   2.0000      -0.296352        -8.0641
  96   2.0000      -0.248871        -6.7721
  97   2.0000      -0.241805        -6.5799
  98   2.0000      -0.238249        -6.4831
  99   2.0000      -0.236458        -6.4344
 100   2.0000      -0.226546        -6.1646
 101   2.0000      -0.224605        -6.1118
 102   2.0000      -0.218567        -5.9475
 103   2.0000      -0.205289        -5.5862
 104   2.0000      -0.199952        -5.4410
 105   0.0000      -0.008832        -0.2403
 106   0.0000       0.002964         0.0807
 107   0.0000       0.006846         0.1863
 108   0.0000       0.008603         0.2341
 109   0.0000       0.017900         0.4871

MULLIKEN ATOMIC CHARGES
-----------------------
   0 C :   -0.522160
   1 C :    0.170812
   2 C :   -0.169741
   3 C :   -0.125704
   4 C :   -0.162655
   5 C :    0.124048
   6 C :   -0.103162
   7 O :   -0.513997
   8 C :    0.373962
   9 C :   -0.189980
  10 C :   -0.117819
  11 C :   -0.136934
  12 C :   -0.156913
  13 C :    0.001397
  14 C :    0.475291
  15 O :   -0.482853
  16 N :   -0.375026
  17 C :   -0.131495
  18 C :   -0.250926
  19 C :   -0.133237
  20 N :   -0.699295
  21 C :   -0.186006
  22 C :   -0.145632
  23 C :   -0.091681
  24 C :   -0.109100
  25 C :   -0.353094
  26 S :    0.259592
  27 C :   -0.225028
  28 H :    0.162567
  29 H :    0.152882
  30 H :    0.149365
  31 H :    0.118430
  32 H :    0.129092
  33 H :    0.155419
  34 H :    0.136856
  35 H :    0.164755
  36 H :    0.135900
  37 H :    0.127210
  38 H :    0.120354
  39 H :    0.143339
  40 H :    0.163342
  41 H :    0.133645
  42 H :    0.161377
  43 H :    0.125230
  44 H :    0.113427
  45 H :    0.127741
  46 H :    0.290353
  47 H :    0.294496
  48 H :    0.162007
  49 H :    0.171636
  50 H :    0.132459
  51 H :    0.127517
  52 H :    0.165656
  53 H :    0.112282
Sum of atomic charges:   -0.0000000

LOEWDIN ATOMIC CHARGES
----------------------
   0 C :   -0.351641
   1 C :   -0.020818
   2 C :   -0.137884
   3 C :   -0.122405
   4 C :   -0.125510
   5 C :   -0.039549
   6 C :   -0.080584
   7 O :   -0.171074
   8 C :    0.113815
   9 C :   -0.165117
  10 C :   -0.119139
  11 C :   -0.150161
  12 C :   -0.119150
  13 C :   -0.059952
  14 C :    0.156285
  15 O :   -0.282764
  16 N :   -0.089992
  17 C :   -0.147572
  18 C :   -0.238530
  19 C :   -0.174443
  20 N :   -0.473468
  21 C :   -0.145811
  22 C :   -0.213806
  23 C :   -0.164929
  24 C :   -0.164253
  25 C :   -0.334456
  26 S :    0.399449
  27 C :   -0.146337
  28 H :    0.136682
  29 H :    0.131048
  30 H :    0.129126
  31 H :    0.127840
  32 H :    0.131893
  33 H :    0.144423
  34 H :    0.115054
  35 H :    0.138780
  36 H :    0.138103
  37 H :    0.131535
  38 H :    0.128449
  39 H :    0.139759
  40 H :    0.131941
  41 H :    0.119952
  42 H :    0.134358
  43 H :    0.120784
  44 H :    0.095635
  45 H :    0.112248
  46 H :    0.220453
  47 H :    0.221738
  48 H :    0.138043
  49 H :    0.139614
  50 H :    0.135476
  51 H :    0.131016
  52 H :    0.151824
  53 H :    0.124021

  Mayer bond orders larger than 0.100000
B(  0-C ,  1-C ) :   0.9855 B(  0-C , 28-H ) :   0.9344 B(  0-C , 29-H ) :   0.9466
B(  0-C , 30-H ) :   0.9465 B(  1-C ,  2-C ) :   1.4453 B(  1-C , 27-C ) :   1.4205
B(  2-C ,  3-C ) :   1.4330 B(  2-C , 31-H ) :   0.9271 B(  3-C ,  4-C ) :   1.4442
B(  3-C , 32-H ) :   0.9294 B(  4-C ,  5-C ) :   1.4258 B(  4-C , 33-H ) :   0.9183
B(  5-C ,  6-C ) :   0.9557 B(  5-C , 27-C ) :   1.4189 B(  6-C ,  7-O ) :   0.9080
B(  6-C , 34-H ) :   0.9181 B(  6-C , 35-H ) :   0.9257 B(  7-O ,  8-C ) :   0.9196
B(  8-C ,  9-C ) :   1.3533 B(  8-C , 13-C ) :   1.3682 B(  9-C , 10-C ) :   1.4438
B(  9-C , 36-H ) :   0.9119 B( 10-C , 11-C ) :   1.4512 B( 10-C , 37-H ) :   0.9306
B( 11-C , 12-C ) :   1.4305 B( 11-C , 38-H ) :   0.9305 B( 12-C , 13-C ) :   1.4374
B( 12-C , 39-H ) :   0.9130 B( 13-C , 14-C ) :   0.9233 B( 14-C , 15-O ) :   1.7901
B( 14-C , 16-N ) :   1.0855 B( 16-N , 17-C ) :   0.9438 B( 16-N , 21-C ) :   0.9555
B( 17-C , 18-C ) :   0.9985 B( 17-C , 40-H ) :   0.9211 B( 17-C , 41-H ) :   0.9337
B( 18-C , 19-C ) :   0.9994 B( 18-C , 42-H ) :   0.9279 B( 18-C , 43-H ) :   0.9351
B( 19-C , 20-N ) :   0.9926 B( 19-C , 44-H ) :   0.9400 B( 19-C , 45-H ) :   0.9403
B( 20-N , 46-H ) :   0.8654 B( 20-N , 47-H ) :   0.8587 B( 21-C , 22-C ) :   0.9678
B( 21-C , 48-H ) :   0.9270 B( 21-C , 49-H ) :   0.9134 B( 22-C , 23-C ) :   1.5629
B( 22-C , 25-C ) :   0.1412 B( 22-C , 26-S ) :   1.1532 B( 23-C , 24-C ) :   1.3666
B( 23-C , 50-H ) :   0.9258 B( 24-C , 25-C ) :   1.5783 B( 24-C , 51-H ) :   0.9293
B( 25-C , 26-S ) :   1.1560 B( 25-C , 52-H ) :   0.9203 B( 27-C , 53-H ) :   0.9193

FINAL SINGLE POINT ENERGY     -1549.391745824643

DIPOLE MOMENT
-------------

Method             : SCF
Type of density    : Electron Density
Multiplicity       :   1
Irrep              :   0
Energy             : -1549.3917458246428396 Eh
Relativity type    :
Basis              : AO
                                X                 Y                 Z
Electronic contribution:     -0.708284796       5.132823792       7.070773898
Nuclear contribution   :      1.335627839      -5.237017699      -6.420121348
                        -----------------------------------------
Total Dipole Moment    :      0.627343043      -0.104193907       0.650652550
                        -----------------------------------------
Magnitude (a.u.)       :      0.909815588
Magnitude (Debye)      :      2.312567443

Rotational constants in cm-1:             0.008920             0.003489             0.003163
Rotational constants in MHz :           267.410350           104.587526            94.836882

                             ****ORCA TERMINATED NORMALLY****
TOTAL RUN TIME: 0 days 0 hours 8 minutes 5 seconds 169 msec
