                         Program Version 6.0.0  -   RELEASE  -
|  1> ! B3LYP 6-31G* SP
|  2>
|  3> * xyz 0 1
|  4> C -5.3716 -2.3950 1.3951
|  5> N -4.8948 -1.1409 0.7874
|  6> C -4.1621 -1.1815 -0.3764
|  7> O -3.9135 -2.2781 -0.9471
|  8> C -3.6925 0.0166 -0.9092
|  9> C -3.9546 1.1893 -0.2694
| 10> C -3.3423 2.2062 -0.9793
| 11> C -2.7233 1.5761 -2.0507
| 12> N -2.9419 0.2394 -2.0121
| 13> C -2.3787 -0.7358 -2.9478
| 14> C -1.1886 -1.4132 -2.3376
| 15> O -1.1981 -2.6647 -2.1931
| 16> N -0.0442 -0.6355 -1.9523
| 17> C 1.0486 -1.1235 -1.1611
| 18> N 2.1479 -0.3815 -0.9118
| 19> C 3.0408 -1.0275 -0.1093
| 20> C 4.3274 -0.3940 0.2818
| 21> C 5.1115 -0.9063 1.3320
| 22> C 6.3168 -0.2934 1.6857
| 23> C 6.7685 0.8463 0.9983
| 24> C 8.0652 1.5250 1.3702
| 25> F 8.7285 0.8472 2.3790
| 26> F 8.8930 1.5803 0.2629
| 27> F 7.8032 2.8125 1.8029
| 28> C 5.9823 1.3666 -0.0442
| 29> F 6.3828 2.4720 -0.7230
| 30> C 4.7766 0.7530 -0.3963
| 31> C 2.6378 -2.3073 0.2879
| 32> S 1.1284 -2.6150 -0.3859
| 33> N -4.6712 1.2482 0.8875
| 34> C -4.8867 2.5360 1.5643
| 35> C -5.1169 0.0633 1.4324
| 36> O -5.7284 0.0762 2.5379
| 37> H -5.5731 -3.1687 0.6237
| 38> H -4.6083 -2.7784 2.1046
| 39> H -6.3287 -2.2391 1.9371
| 40> H -3.3219 3.2628 -0.7490
| 41> H -2.1292 2.0741 -2.8064
| 42> H -2.0592 -0.2256 -3.8822
| 43> H -3.1540 -1.4783 -3.2338
| 44> H -0.0055 0.3633 -2.2564
| 45> H 4.7941 -1.7705 1.8982
| 46> H 6.8897 -0.7140 2.5020
| 47> H 4.1980 1.1754 -1.2081
| 48> H 3.1894 -3.0027 0.9043
| 49> H -3.9696 2.8227 2.1204
| 50> H -5.1319 3.3279 0.8256
| 51> H -5.7396 2.4905 2.2733
| 52> *
| 53>
| 54>                          ****END OF INPUT****

CARTESIAN COORDINATES (ANGSTROEM)
---------------------------------
  C     -5.371600   -2.395000    1.395100
  N     -4.894800   -1.140900    0.787400
  C     -4.162100   -1.181500   -0.376400
  O     -3.913500   -2.278100   -0.947100
  C     -3.692500    0.016600   -0.909200
  C     -3.954600    1.189300   -0.269400
  C     -3.342300    2.206200   -0.979300
  C     -2.723300    1.576100   -2.050700
  N     -2.941900    0.239400   -2.012100
  C     -2.378700   -0.735800   -2.947800
  C     -1.188600   -1.413200   -2.337600
  O     -1.198100   -2.664700   -2.193100
  N     -0.044200   -0.635500   -1.952300
  C      1.048600   -1.123500   -1.161100
  N      2.147900   -0.381500   -0.911800
  C      3.040800   -1.027500   -0.109300
  C      4.327400   -0.394000    0.281800
  C      5.111500   -0.906300    1.332000
  C      6.316800   -0.293400    1.685700
  C      6.768500    0.846300    0.998300
  C      8.065200    1.525000    1.370200
  F      8.728500    0.847200    2.379000
  F      8.893000    1.580300    0.262900
  F      7.803200    2.812500    1.802900
  C      5.982300    1.366600   -0.044200
  F      6.382800    2.472000   -0.723000
  C      4.776600    0.753000   -0.396300
  C      2.637800   -2.307300    0.287900
  S      1.128400   -2.615000   -0.385900
  N     -4.671200    1.248200    0.887500
  C     -4.886700    2.536000    1.564300
  C     -5.116900    0.063300    1.432400
  O     -5.728400    0.076200    2.537900
  H     -5.573100   -3.168700    0.623700
  H     -4.608300   -2.778400    2.104600
  H     -6.328700   -2.239100    1.937100
  H     -3.321900    3.262800   -0.749000
  H     -2.129200    2.074100   -2.806400
  H     -2.059200   -0.225600   -3.882200
  H     -3.154000   -1.478300   -3.233800
  H     -0.005500    0.363300   -2.256400
  H      4.794100   -1.770500    1.898200
  H      6.889700   -0.714000    2.502000
  H      4.198000    1.175400   -1.208100
  H      3.189400   -3.002700    0.904300
  H     -3.969600    2.822700    2.120400
  H     -5.131900    3.327900    0.825600
  H     -5.739600    2.490500    2.273300

 Total Charge           Charge          ....    0
 Multiplicity           Mult            ....    1
 Number of Electrons    NEL             ....  246
 Basis Dimension        Dim             ....  496

ORBITAL ENERGIES
----------------

  NO   OCC          E(Eh)            E(eV)
   0   2.0000     -88.911918     -2419.4163
   1   2.0000     -24.720266      -672.6726
   2   2.0000     -24.711794      -672.4421
   3   2.0000     -24.711589      -672.4365
   4   2.0000     -24.710003      -672.3934
   5   2.0000     -19.144336      -520.9439
   6   2.0000     -19.103820      -519.8414
   7   2.0000     -19.103592      -519.8352
   8   2.0000     -14.418032      -392.3346
   9   2.0000     -14.408049      -392.0629
  10   2.0000     -14.395802      -391.7297
  11   2.0000     -14.390757      -391.5924
  12   2.0000     -14.340973      -390.2377
  13   2.0000     -10.434431      -283.9353
  14   2.0000     -10.322560      -280.8911
  15   2.0000     -10.320494      -280.8349
  16   2.0000     -10.299960      -280.2761
  17   2.0000     -10.287960      -279.9496
  18   2.0000     -10.286850      -279.9194
  19   2.0000     -10.264219      -279.3036
  20   2.0000     -10.238812      -278.6122
  21   2.0000     -10.235903      -278.5331
  22   2.0000     -10.234890      -278.5055
  23   2.0000     -10.233001      -278.4541
  24   2.0000     -10.219643      -278.0906
  25   2.0000     -10.218722      -278.0656
  26   2.0000     -10.217526      -278.0330
  27   2.0000     -10.216033      -277.9924
  28   2.0000     -10.214446      -277.9492
  29   2.0000     -10.209474      -277.8139
  30   2.0000     -10.200525      -277.5704
  31   2.0000     -10.198932      -277.5270
  32   2.0000     -10.193434      -277.3774
  33   2.0000      -7.987971      -217.3637
  34   2.0000      -5.951098      -161.9376
  35   2.0000      -5.946802      -161.8207
  36   2.0000      -5.944992      -161.7715
  37   2.0000      -1.275872       -34.7183
  38   2.0000      -1.222584       -33.2682
  39   2.0000      -1.202260       -32.7152
  40   2.0000      -1.198022       -32.5998
  41   2.0000      -1.064090       -28.9554
  42   2.0000      -1.046774       -28.4842
  43   2.0000      -1.029825       -28.0229
  44   2.0000      -1.011465       -27.5234
  45   2.0000      -0.987289       -26.8655
  46   2.0000      -0.963889       -26.2288
  47   2.0000      -0.932810       -25.3831
  48   2.0000      -0.928134       -25.2558
  49   2.0000      -0.877415       -23.8757
  50   2.0000      -0.845359       -23.0034
  51   2.0000      -0.819053       -22.2876
  52   2.0000      -0.801937       -21.8218
  53   2.0000      -0.786977       -21.4147
  54   2.0000      -0.762293       -20.7431
  55   2.0000      -0.759546       -20.6683
  56   2.0000      -0.739557       -20.1244
  57   2.0000      -0.734783       -19.9945
  58   2.0000      -0.709585       -19.3088
  59   2.0000      -0.692028       -18.8310
  60   2.0000      -0.653795       -17.7907
  61   2.0000      -0.649866       -17.6838
  62   2.0000      -0.635602       -17.2956
  63   2.0000      -0.634749       -17.2724
  64   2.0000      -0.625988       -17.0340
  65   2.0000      -0.603971       -16.4349
  66   2.0000      -0.597249       -16.2520
  67   2.0000      -0.590563       -16.0700
  68   2.0000      -0.575309       -15.6549
  69   2.0000      -0.566414       -15.4129
  70   2.0000      -0.565701       -15.3935
  71   2.0000      -0.565235       -15.3808
  72   2.0000      -0.544382       -14.8134
  73   2.0000      -0.529503       -14.4085
  74   2.0000      -0.527158       -14.3447
  75   2.0000      -0.511119       -13.9083
  76   2.0000      -0.505192       -13.7470
  77   2.0000      -0.498483       -13.5644
  78   2.0000      -0.491738       -13.3809
  79   2.0000      -0.490020       -13.3341
  80   2.0000      -0.485076       -13.1996
  81   2.0000      -0.468605       -12.7514
  82   2.0000      -0.467909       -12.7325
  83   2.0000      -0.457620       -12.4525
  84   2.0000      -0.456966       -12.4347
  85   2.0000      -0.453607       -12.3433
  86   2.0000      -0.448336       -12.1998
  87   2.0000      -0.444646       -12.0994
  88   2.0000      -0.443648       -12.0723
  89   2.0000      -0.443130       -12.0582
  90   2.0000      -0.441174       -12.0049
  91   2.0000      -0.434819       -11.8320
  92   2.0000      -0.425988       -11.5917
  93   2.0000      -0.421950       -11.4818
  94   2.0000      -0.419887       -11.4257
  95   2.0000      -0.414140       -11.2693
  96   2.0000      -0.413049       -11.2396
  97   2.0000      -0.408090       -11.1047
  98   2.0000      -0.401009       -10.9120
  99   2.0000      -0.399330       -10.8663
 100   2.0000      -0.395901       -10.7730
 101   2.0000      -0.394163       -10.7257
 102   2.0000      -0.393236       -10.7005
 103   2.0000      -0.390561       -10.6277
 104   2.0000      -0.377392       -10.2694
 105   2.0000      -0.377202       -10.2642
 106   2.0000      -0.372738       -10.1427
 107   2.0000      -0.370149       -10.0723
 108   2.0000      -0.369379       -10.0513
 109   2.0000      -0.350750        -9.5444
 110   2.0000      -0.325332        -8.8527
 111   2.0000      -0.324338        -8.8257
 112   2.0000      -0.302351        -8.2274
 113   2.0000      -0.285943        -7.7809
 114   2.0000      -0.276309        -7.5187
 115   2.0000      -0.268381        -7.3030
 116   2.0000      -0.266435        -7.2501
 117   2.0000      -0.259898        -7.0722
 118   2.0000      -0.258479        -7.0336
 119   2.0000      -0.252509        -6.8711
 120   2.0000      -0.243685        -6.6310
 121   2.0000      -0.223348        -6.0776
 122   2.0000      -0.218540        -5.9468
 123   0.0000      -0.051892        -1.4121
 124   0.0000      -0.044729        -1.2171
 125   0.0000      -0.030651        -0.8341
 126   0.0000      -0.014279        -0.3886
 127   0.0000       0.007755         0.2110

MULLIKEN ATOMIC CHARGES
-----------------------
   0 C :   -0.312908
   1 N :   -0.488759
   2 C :    0.546535
   3 O :   -0.507926
   4 C :    0.205248
   5 C :    0.287380
   6 C :   -0.210121
   7 C :   -0.007314
   8 N :   -0.428931
   9 C :   -0.255083
  10 C :    0.577827
  11 O :   -0.419510
  12 N :   -0.645074
  13 C :    0.261793
  14 N :   -0.435399
  15 C :    0.211143
  16 C :    0.143562
  17 C :   -0.183108
  18 C :   -0.160237
  19 C :   -0.112533
  20 C :    0.918522
  21 F :   -0.306832
  22 F :   -0.299473
  23 F :   -0.298824
  24 C :    0.391448
  25 F :   -0.302219
  26 C :   -0.258418
  27 C :   -0.400540
  28 S :    0.335971
  29 N :   -0.506825
  30 C :   -0.327884
  31 C :    0.667026
  32 O :   -0.514650
  33 H :    0.194871
  34 H :    0.176317
  35 H :    0.191369
  36 H :    0.145389
  37 H :    0.154121
  38 H :    0.179038
  39 H :    0.240802
  40 H :    0.351514
  41 H :    0.135423
  42 H :    0.161030
  43 H :    0.167914
  44 H :    0.186530
  45 H :    0.173969
  46 H :    0.165127
  47 H :    0.212701
Sum of atomic charges:   -0.0000000

LOEWDIN ATOMIC CHARGES
----------------------
   0 C :   -0.258819
   1 N :   -0.030752
   2 C :    0.099854
   3 O :   -0.304756
   4 C :   -0.069702
   5 C :    0.012737
   6 C :   -0.204708
   7 C :   -0.101415
   8 N :    0.049288
   9 C :   -0.159628
  10 C :    0.140332
  11 O :   -0.224431
  12 N :   -0.200599
  13 C :   -0.078165
  14 N :   -0.186865
  15 C :   -0.009079
  16 C :    0.001863
  17 C :   -0.133708
  18 C :   -0.108048
  19 C :   -0.100653
  20 C :    0.313996
  21 F :   -0.112136
  22 F :   -0.112370
  23 F :   -0.112678
  24 C :    0.134852
  25 F :   -0.093643
  26 C :   -0.142964
  27 C :   -0.342687
  28 S :    0.441178
  29 N :   -0.026755
  30 C :   -0.259551
  31 C :    0.141263
  32 O :   -0.323823
  33 H :    0.152520
  34 H :    0.139387
  35 H :    0.150605
  36 H :    0.142508
  37 H :    0.137665
  38 H :    0.147568
  39 H :    0.182232
  40 H :    0.271943
  41 H :    0.136175
  42 H :    0.148744
  43 H :    0.157999
  44 H :    0.163275
  45 H :    0.135358
  46 H :    0.133969
  47 H :    0.162621

  Mayer bond orders larger than 0.100000
B(  0-C ,  1-N ) :   0.9205 B(  0-C , 33-H ) :   0.9238 B(  0-C , 34-H ) :   0.9411
B(  0-C , 35-H ) :   0.9272 B(  1-N ,  2-C ) :   0.9759 B(  1-N , 31-C ) :   1.0335
B(  2-C ,  3-O ) :   1.7326 B(  2-C ,  4-C ) :   1.1040 B(  4-C ,  5-C ) :   1.3668
B(  4-C ,  8-N ) :   1.0382 B(  5-C ,  6-C ) :   1.3572 B(  5-C , 29-N ) :   0.9588
B(  6-C ,  7-C ) :   1.4810 B(  6-C , 36-H ) :   0.9236 B(  7-C ,  8-N ) :   1.2081
B(  7-C , 37-H ) :   0.9256 B(  8-N ,  9-C ) :   0.9354 B(  9-C , 10-C ) :   0.9336
B(  9-C , 38-H ) :   0.9167 B(  9-C , 39-H ) :   0.8967 B( 10-C , 11-O ) :   1.8414
B( 10-C , 12-N ) :   1.0176 B( 12-N , 13-C ) :   0.9467 B( 12-N , 40-H ) :   0.8053
B( 13-C , 14-N ) :   1.4799 B( 13-C , 27-C ) :   0.1065 B( 13-C , 28-S ) :   1.1865
B( 14-N , 15-C ) :   1.2899 B( 15-C , 16-C ) :   1.0575 B( 15-C , 27-C ) :   1.5147
B( 16-C , 17-C ) :   1.4012 B( 16-C , 26-C ) :   1.3658 B( 17-C , 18-C ) :   1.4337
B( 17-C , 41-H ) :   0.9195 B( 18-C , 19-C ) :   1.4043 B( 18-C , 42-H ) :   0.9177
B( 19-C , 20-C ) :   0.9676 B( 19-C , 24-C ) :   1.3219 B( 20-C , 21-F ) :   0.9451
B( 20-C , 22-F ) :   0.9688 B( 20-C , 23-F ) :   0.9737 B( 24-C , 25-F ) :   0.9476
B( 24-C , 26-C ) :   1.3605 B( 26-C , 43-H ) :   0.9035 B( 27-C , 28-S ) :   1.1155
B( 27-C , 44-H ) :   0.9005 B( 29-N , 30-C ) :   0.9447 B( 29-N , 31-C ) :   1.0598
B( 30-C , 45-H ) :   0.9361 B( 30-C , 46-H ) :   0.9331 B( 30-C , 47-H ) :   0.9219
B( 31-C , 32-O ) :   1.7872

FINAL SINGLE POINT ENERGY     -2067.202797105219

DIPOLE MOMENT
-------------

Method             : SCF
Type of density    : Electron Density
Multiplicity       :   1
Irrep              :   0
Energy             : -2067.2027971052189059 Eh
Relativity type    :
Basis              : AO
                                X                 Y                 Z
Electronic contribution:     59.621164778       7.505128562       1.387104118
Nuclear contribution   :    -60.622677680      -6.564448750      -2.261560425
                        -----------------------------------------
Total Dipole Moment    :     -1.001512901       0.940679812      -0.874456307
                        -----------------------------------------
Magnitude (a.u.)       :      1.628674440
Magnitude (Debye)      :      4.139761435

Rotational constants in cm-1:             0.007857             0.001340             0.001291
Rotational constants in MHz :           235.538089            40.178506            38.708757

                             ****ORCA TERMINATED NORMALLY****
TOTAL RUN TIME: 0 days 0 hours 5 minutes 36 seconds 363 msec
