                         Program Version 6.0.0  -   RELEASE  -
|  1> ! B3LYP 6-31G* SP
|  2>
|  3> * xyz -1 1
|  4> O -5.6442 5.3045 2.5384
|  5> C -5.6853 4.0848 2.2289
|  6> O -6.7113 3.2959 2.7356
|  7> C -4.6587 3.4994 1.3393
|  8> C -4.7114 2.1378 0.9951
|  9> C -3.7421 1.5817 0.1557
| 10> C -2.7101 2.3774 -0.3552
| 11> S -1.4756 1.6581 -1.3810
| 12> O -2.1176 0.6918 -2.3378
| 13> O -0.7740 2.7195 -2.1822
| 14> N -0.3250 0.8269 -0.3830
| 15> C 0.5884 1.6030 0.4583
| 16> C 1.9987 1.1638 0.2275
| 17> C 2.8376 1.6480 -0.7757
| 18> C 4.0550 0.9605 -0.8268
| 19> C 5.1035 1.1971 -1.7214
| 20> F 5.0163 2.1789 -2.6536
| 21> C 6.2558 0.3963 -1.6413
| 22> C 6.3485 -0.6279 -0.6778
| 23> F 7.4643 -1.3951 -0.6133
| 24> C 5.2890 -0.8599 0.2136
| 25> C 4.1593 -0.0513 0.1175
| 26> S 2.7525 -0.1215 1.0301
| 27> C -0.5643 -0.5503 -0.0718
| 28> N -1.2669 -0.8275 1.0568
| 29> C -1.5492 -2.0881 1.4545
| 30> C -1.1065 -3.1745 0.7027
| 31> C -1.3951 -4.4816 1.1251
| 32> C -0.9466 -5.5738 0.3851
| 33> C -0.2073 -5.3712 -0.7779
| 34> C 0.0855 -4.0759 -1.2120
| 35> C -0.3611 -2.9473 -0.4834
| 36> C -0.0851 -1.6081 -0.8955
| 37> C 0.7190 -1.3439 -2.1681
| 38> F 0.0710 -1.9122 -3.2496
| 39> F 0.8879 -0.0046 -2.4507
| 40> F 1.9779 -1.9026 -2.0419
| 41> C -2.6463 3.7329 -0.0107
| 42> C -3.6150 4.2919 0.8280
| 43> H -5.4989 1.5001 1.3759
| 44> H -3.7934 0.5289 -0.0916
| 45> H 0.5013 2.6879 0.2344
| 46> H 0.3255 1.4634 1.5286
| 47> H 2.5647 2.4483 -1.4518
| 48> H 7.0767 0.5663 -2.3259
| 49> H 5.3475 -1.6478 0.9535
| 50> H -2.1161 -2.2375 2.3648
| 51> H -1.9659 -4.6580 2.0294
| 52> H -1.1702 -6.5800 0.7153
| 53> H 0.1419 -6.2228 -1.3476
| 54> H 0.6648 -3.9821 -2.1177
| 55> H -1.8452 4.3573 -0.3857
| 56> H -3.5440 5.3426 1.0787
| 57> *
| 58>
| 59>                          ****END OF INPUT****

CARTESIAN COORDINATES (ANGSTROEM)
---------------------------------
  O     -5.644200    5.304500    2.538400
  C     -5.685300    4.084800    2.228900
  O     -6.711300    3.295900    2.735600
  C     -4.658700    3.499400    1.339300
  C     -4.711400    2.137800    0.995100
  C     -3.742100    1.581700    0.155700
  C     -2.710100    2.377400   -0.355200
  S     -1.475600    1.658100   -1.381000
  O     -2.117600    0.691800   -2.337800
  O     -0.774000    2.719500   -2.182200
  N     -0.325000    0.826900   -0.383000
  C      0.588400    1.603000    0.458300
  C      1.998700    1.163800    0.227500
  C      2.837600    1.648000   -0.775700
  C      4.055000    0.960500   -0.826800
  C      5.103500    1.197100   -1.721400
  F      5.016300    2.178900   -2.653600
  C      6.255800    0.396300   -1.641300
  C      6.348500   -0.627900   -0.677800
  F      7.464300   -1.395100   -0.613300
  C      5.289000   -0.859900    0.213600
  C      4.159300   -0.051300    0.117500
  S      2.752500   -0.121500    1.030100
  C     -0.564300   -0.550300   -0.071800
  N     -1.266900   -0.827500    1.056800
  C     -1.549200   -2.088100    1.454500
  C     -1.106500   -3.174500    0.702700
  C     -1.395100   -4.481600    1.125100
  C     -0.946600   -5.573800    0.385100
  C     -0.207300   -5.371200   -0.777900
  C      0.085500   -4.075900   -1.212000
  C     -0.361100   -2.947300   -0.483400
  C     -0.085100   -1.608100   -0.895500
  C      0.719000   -1.343900   -2.168100
  F      0.071000   -1.912200   -3.249600
  F      0.887900   -0.004600   -2.450700
  F      1.977900   -1.902600   -2.041900
  C     -2.646300    3.732900   -0.010700
  C     -3.615000    4.291900    0.828000
  H     -5.498900    1.500100    1.375900
  H     -3.793400    0.528900   -0.091600
  H      0.501300    2.687900    0.234400
  H      0.325500    1.463400    1.528600
  H      2.564700    2.448300   -1.451800
  H      7.076700    0.566300   -2.325900
  H      5.347500   -1.647800    0.953500
  H     -2.116100   -2.237500    2.364800
  H     -1.965900   -4.658000    2.029400
  H     -1.170200   -6.580000    0.715300
  H      0.141900   -6.222800   -1.347600
  H      0.664800   -3.982100   -2.117700
  H     -1.845200    4.357300   -0.385700
  H     -3.544000    5.342600    1.078700

 Total Charge           Charge          ....   -1
 Multiplicity           Mult            ....    1
 Number of Electrons    NEL             ....  294
 Basis Dimension        Dim             ....  582

ORBITAL ENERGIES
----------------

  NO   OCC          E(Eh)            E(eV)
   0   2.0000     -89.005730     -2421.9690
   1   2.0000     -88.833732     -2417.2887
   2   2.0000     -24.657267      -670.9584
   3   2.0000     -24.655410      -670.9078
   4   2.0000     -24.654193      -670.8747
   5   2.0000     -24.650452      -670.7729
   6   2.0000     -24.645932      -670.6499
   7   2.0000     -19.038215      -518.0562
   8   2.0000     -19.037017      -518.0236
   9   2.0000     -18.911723      -514.6142
  10   2.0000     -18.892963      -514.1037
  11   2.0000     -14.291147      -388.8819
  12   2.0000     -14.277646      -388.5145
  13   2.0000     -10.372421      -282.2479
  14   2.0000     -10.226079      -278.2658
  15   2.0000     -10.225662      -278.2544
  16   2.0000     -10.212830      -277.9052
  17   2.0000     -10.175526      -276.8901
  18   2.0000     -10.172638      -276.8116
  19   2.0000     -10.165060      -276.6053
  20   2.0000     -10.164321      -276.5852
  21   2.0000     -10.162725      -276.5418
  22   2.0000     -10.156838      -276.3816
  23   2.0000     -10.150473      -276.2084
  24   2.0000     -10.146419      -276.0981
  25   2.0000     -10.146253      -276.0936
  26   2.0000     -10.144742      -276.0525
  27   2.0000     -10.144472      -276.0451
  28   2.0000     -10.142991      -276.0048
  29   2.0000     -10.142265      -275.9851
  30   2.0000     -10.138677      -275.8874
  31   2.0000     -10.125745      -275.5355
  32   2.0000     -10.117404      -275.3086
  33   2.0000     -10.096700      -274.7452
  34   2.0000     -10.095416      -274.7102
  35   2.0000     -10.093115      -274.6476
  36   2.0000     -10.075817      -274.1769
  37   2.0000     -10.075059      -274.1563
  38   2.0000     -10.073641      -274.1177
  39   2.0000      -8.041612      -218.8234
  40   2.0000      -7.911341      -215.2785
  41   2.0000      -6.007099      -163.4615
  42   2.0000      -6.004861      -163.4006
  43   2.0000      -6.003459      -163.3624
  44   2.0000      -5.874607      -159.8562
  45   2.0000      -5.870595      -159.7470
  46   2.0000      -5.867734      -159.6691
  47   2.0000      -1.214643       -33.0521
  48   2.0000      -1.167193       -31.7609
  49   2.0000      -1.166615       -31.7452
  50   2.0000      -1.140891       -31.0452
  51   2.0000      -1.133277       -30.8380
  52   2.0000      -0.994946       -27.0739
  53   2.0000      -0.904189       -24.6042
  54   2.0000      -0.874035       -23.7837
  55   2.0000      -0.862226       -23.4623
  56   2.0000      -0.848109       -23.0782
  57   2.0000      -0.821323       -22.3493
  58   2.0000      -0.812437       -22.1075
  59   2.0000      -0.786503       -21.4018
  60   2.0000      -0.758537       -20.6408
  61   2.0000      -0.754611       -20.5340
  62   2.0000      -0.726480       -19.7685
  63   2.0000      -0.723453       -19.6861
  64   2.0000      -0.704869       -19.1805
  65   2.0000      -0.702669       -19.1206
  66   2.0000      -0.689628       -18.7657
  67   2.0000      -0.671481       -18.2719
  68   2.0000      -0.663448       -18.0533
  69   2.0000      -0.644250       -17.5309
  70   2.0000      -0.642685       -17.4883
  71   2.0000      -0.629571       -17.1315
  72   2.0000      -0.595747       -16.2111
  73   2.0000      -0.593894       -16.1607
  74   2.0000      -0.571934       -15.5631
  75   2.0000      -0.563648       -15.3377
  76   2.0000      -0.554300       -15.0833
  77   2.0000      -0.549406       -14.9501
  78   2.0000      -0.516253       -14.0479
  79   2.0000      -0.509057       -13.8521
  80   2.0000      -0.506045       -13.7702
  81   2.0000      -0.504688       -13.7333
  82   2.0000      -0.502645       -13.6777
  83   2.0000      -0.492949       -13.4138
  84   2.0000      -0.485219       -13.2035
  85   2.0000      -0.473260       -12.8781
  86   2.0000      -0.466621       -12.6974
  87   2.0000      -0.458231       -12.4691
  88   2.0000      -0.448689       -12.2094
  89   2.0000      -0.443013       -12.0550
  90   2.0000      -0.441249       -12.0070
  91   2.0000      -0.437538       -11.9060
  92   2.0000      -0.421977       -11.4826
  93   2.0000      -0.419467       -11.4143
  94   2.0000      -0.415662       -11.3107
  95   2.0000      -0.402148       -10.9430
  96   2.0000      -0.399601       -10.8737
  97   2.0000      -0.394450       -10.7335
  98   2.0000      -0.392308       -10.6752
  99   2.0000      -0.386069       -10.5055
 100   2.0000      -0.383276       -10.4295
 101   2.0000      -0.381365       -10.3775
 102   2.0000      -0.376717       -10.2510
 103   2.0000      -0.373750       -10.1703
 104   2.0000      -0.362696        -9.8695
 105   2.0000      -0.361480        -9.8364
 106   2.0000      -0.357054        -9.7159
 107   2.0000      -0.349683        -9.5153
 108   2.0000      -0.346851        -9.4383
 109   2.0000      -0.341977        -9.3057
 110   2.0000      -0.340058        -9.2535
 111   2.0000      -0.337418        -9.1816
 112   2.0000      -0.335790        -9.1373
 113   2.0000      -0.331647        -9.0246
 114   2.0000      -0.329651        -8.9703
 115   2.0000      -0.329071        -8.9545
 116   2.0000      -0.318942        -8.6789
 117   2.0000      -0.318396        -8.6640
 118   2.0000      -0.313918        -8.5422
 119   2.0000      -0.307781        -8.3752
 120   2.0000      -0.301068        -8.1925
 121   2.0000      -0.298191        -8.1142
 122   2.0000      -0.294932        -8.0255
 123   2.0000      -0.285130        -7.7588
 124   2.0000      -0.275295        -7.4912
 125   2.0000      -0.265844        -7.2340
 126   2.0000      -0.248059        -6.7500
 127   2.0000      -0.246051        -6.6954
 128   2.0000      -0.241990        -6.5849
 129   2.0000      -0.233968        -6.3666
 130   2.0000      -0.226915        -6.1747
 131   2.0000      -0.220883        -6.0105
 132   2.0000      -0.216710        -5.8970
 133   2.0000      -0.206108        -5.6085
 134   2.0000      -0.200498        -5.4558
 135   2.0000      -0.199740        -5.4352
 136   2.0000      -0.191133        -5.2010
 137   2.0000      -0.188743        -5.1359
 138   2.0000      -0.186015        -5.0617
 139   2.0000      -0.181313        -4.9338
 140   2.0000      -0.173963        -4.7338
 141   2.0000      -0.151799        -4.1307
 142   2.0000      -0.149880        -4.0784
 143   2.0000      -0.131758        -3.5853
 144   2.0000      -0.065661        -1.7867
 145   2.0000      -0.044784        -1.2186
 146   2.0000      -0.027478        -0.7477
 147   0.0000      -0.014501        -0.3946
 148   0.0000       0.020592         0.5603
 149   0.0000       0.025771         0.7013
 150   0.0000       0.047459         1.2914
 151   0.0000       0.060487         1.6459

MULLIKEN ATOMIC CHARGES
-----------------------
   0 O :   -0.546197
   1 C :    0.416264
   2 O :   -0.650411
   3 C :    0.103662
   4 C :   -0.152425
   5 C :   -0.139348
   6 C :   -0.136849
   7 S :    1.203071
   8 O :   -0.567314
   9 O :   -0.564970
  10 N :   -0.584215
  11 C :   -0.203210
  12 C :   -0.135460
  13 C :   -0.133445
  14 C :    0.065312
  15 C :    0.372632
  16 F :   -0.306719
  17 C :   -0.314896
  18 C :    0.433441
  19 F :   -0.323090
  20 C :   -0.266078
  21 C :   -0.096488
  22 S :    0.225626
  23 C :    0.319388
  24 N :   -0.375780
  25 C :   -0.043575
  26 C :    0.135158
  27 C :   -0.203453
  28 C :   -0.125351
  29 C :   -0.122972
  30 C :   -0.188688
  31 C :    0.118240
  32 C :   -0.076772
  33 C :    0.945501
  34 F :   -0.304235
  35 F :   -0.276262
  36 F :   -0.310452
  37 C :   -0.159936
  38 C :   -0.157005
  39 H :    0.150808
  40 H :    0.139131
  41 H :    0.200588
  42 H :    0.177081
  43 H :    0.171957
  44 H :    0.146606
  45 H :    0.144483
  46 H :    0.161759
  47 H :    0.137536
  48 H :    0.126887
  49 H :    0.131258
  50 H :    0.152226
  51 H :    0.141096
  52 H :    0.145883
Sum of atomic charges:   -1.0000000

LOEWDIN ATOMIC CHARGES
----------------------
   0 O :   -0.370266
   1 C :    0.074839
   2 O :   -0.496454
   3 C :   -0.005032
   4 C :   -0.106555
   5 C :   -0.117670
   6 C :   -0.213317
   7 S :    1.261156
   8 O :   -0.583685
   9 O :   -0.587184
  10 N :   -0.288606
  11 C :   -0.147150
  12 C :   -0.186114
  13 C :   -0.144934
  14 C :   -0.071671
  15 C :    0.132254
  16 F :   -0.095694
  17 C :   -0.201660
  18 C :    0.115337
  19 F :   -0.106205
  20 C :   -0.177271
  21 C :   -0.160791
  22 S :    0.380605
  23 C :    0.056247
  24 N :   -0.122784
  25 C :   -0.045048
  26 C :   -0.028768
  27 C :   -0.115061
  28 C :   -0.129817
  29 C :   -0.120540
  30 C :   -0.122471
  31 C :    0.009939
  32 C :   -0.059073
  33 C :    0.315464
  34 F :   -0.109163
  35 F :   -0.080012
  36 F :   -0.116124
  37 C :   -0.128439
  38 C :   -0.114727
  39 H :    0.149647
  40 H :    0.137778
  41 H :    0.161994
  42 H :    0.137450
  43 H :    0.155604
  44 H :    0.148181
  45 H :    0.145231
  46 H :    0.141591
  47 H :    0.136679
  48 H :    0.131279
  49 H :    0.133846
  50 H :    0.143386
  51 H :    0.137703
  52 H :    0.146074

  Mayer bond orders larger than 0.100000
B(  0-O ,  1-C ) :   1.7088 B(  0-O ,  2-O ) :   0.1437 B(  1-C ,  2-O ) :   1.5372
B(  1-C ,  3-C ) :   0.9283 B(  3-C ,  4-C ) :   1.3993 B(  3-C , 38-C ) :   1.3934
B(  4-C ,  5-C ) :   1.4115 B(  4-C , 39-H ) :   0.9026 B(  5-C ,  6-C ) :   1.3616
B(  5-C , 40-H ) :   0.9199 B(  6-C ,  7-S ) :   0.8454 B(  6-C , 37-C ) :   1.3717
B(  7-S ,  8-O ) :   1.6231 B(  7-S ,  9-O ) :   1.6190 B(  7-S , 10-N ) :   0.7579
B( 10-N , 11-C ) :   0.9344 B( 10-N , 23-C ) :   0.9517 B( 11-C , 12-C ) :   0.9739
B( 11-C , 41-H ) :   0.9099 B( 11-C , 42-H ) :   0.9152 B( 12-C , 13-C ) :   1.5840
B( 12-C , 22-S ) :   1.0961 B( 13-C , 14-C ) :   1.2266 B( 13-C , 43-H ) :   0.9171
B( 14-C , 15-C ) :   1.2524 B( 14-C , 21-C ) :   1.3359 B( 15-C , 16-F ) :   0.9511
B( 15-C , 17-C ) :   1.4039 B( 17-C , 18-C ) :   1.3137 B( 17-C , 44-H ) :   0.9140
B( 18-C , 19-F ) :   0.8993 B( 18-C , 20-C ) :   1.4294 B( 20-C , 21-C ) :   1.3112
B( 20-C , 45-H ) :   0.9191 B( 21-C , 22-S ) :   1.0619 B( 23-C , 24-N ) :   1.2864
B( 23-C , 32-C ) :   1.4044 B( 24-N , 25-C ) :   1.4821 B( 25-C , 26-C ) :   1.2371
B( 25-C , 46-H ) :   0.9244 B( 26-C , 27-C ) :   1.2830 B( 26-C , 31-C ) :   1.2931
B( 27-C , 28-C ) :   1.5122 B( 27-C , 30-C ) :   0.1027 B( 27-C , 47-H ) :   0.9233
B( 28-C , 29-C ) :   1.3541 B( 28-C , 48-H ) :   0.9306 B( 29-C , 30-C ) :   1.5052
B( 29-C , 49-H ) :   0.9301 B( 30-C , 31-C ) :   1.3060 B( 30-C , 50-H ) :   0.9014
B( 31-C , 32-C ) :   1.2515 B( 32-C , 33-C ) :   0.9525 B( 33-C , 34-F ) :   0.9300
B( 33-C , 35-F ) :   0.9345 B( 33-C , 36-F ) :   0.9151 B( 37-C , 38-C ) :   1.4080
B( 37-C , 51-H ) :   0.9205 B( 38-C , 52-H ) :   0.9081

FINAL SINGLE POINT ENERGY     -2703.975201770525

DIPOLE MOMENT
-------------

Method             : SCF
Type of density    : Electron Density
Multiplicity       :   1
Irrep              :   0
Energy             : -2703.9752017705250182 Eh
Relativity type    :
Basis              : AO
                                X                 Y                 Z
Electronic contribution:     28.161892943      -2.116095882     -17.748618124
Nuclear contribution   :    -19.221951633      -4.981087087      15.767045907
                        -----------------------------------------
Total Dipole Moment    :      8.939941309      -7.097182969      -1.981572217
                        -----------------------------------------
Magnitude (a.u.)       :     11.585300392
Magnitude (Debye)      :     29.447493365

Rotational constants in cm-1:             0.004189             0.001843             0.001503
Rotational constants in MHz :           125.574804            55.249362            45.062734

                             ****ORCA TERMINATED NORMALLY****
TOTAL RUN TIME: 0 days 0 hours 10 minutes 21 seconds 43 msec
