                         Program Version 6.0.0  -   RELEASE  -
|  1> ! B3LYP 6-31G* SP
|  2>
|  3> * xyz 0 1
|  4> C -2.6917 -2.8769 -1.0823
|  5> C -1.1746 -2.7534 -1.1751
|  6> C -0.6655 -1.3245 -0.9093
|  7> N -1.0177 -0.8068 0.4317
|  8> C -0.8120 -1.6143 1.6134
|  9> O -1.6813 -1.5974 2.5279
| 10> C 0.3698 -2.4932 1.7799
| 11> C 0.1834 -3.7724 2.3338
| 12> C 1.2636 -4.6382 2.5049
| 13> C 2.5452 -4.2349 2.1371
| 14> C 2.7533 -2.9609 1.6063
| 15> C 1.6724 -2.0711 1.4294
| 16> O 1.8683 -0.7718 0.9309
| 17> C 3.1178 -0.2761 0.4555
| 18> C 2.9255 1.0856 -0.1428
| 19> C 2.5513 1.2183 -1.4906
| 20> C 2.3582 2.4873 -2.0462
| 21> C 2.5320 3.6291 -1.2594
| 22> C 2.8816 3.5035 0.0890
| 23> C 3.0713 2.2363 0.6496
| 24> C -1.6277 0.5340 0.6018
| 25> C -3.0895 0.5876 0.0797
| 26> C -3.2338 1.3641 -1.2368
| 27> C -2.6762 2.7997 -1.1399
| 28> C -1.5274 2.9595 -0.1148
| 29> N -0.6425 4.0531 -0.5153
| 30> C -0.7301 1.6514 0.0206
| 31> H -2.9985 -3.8963 -1.3984
| 32> H -3.1825 -2.1388 -1.7516
| 33> H -3.0282 -2.7257 -0.0356
| 34> H -0.8636 -3.0463 -2.2015
| 35> H -0.7028 -3.4765 -0.4795
| 36> H -1.0653 -0.6663 -1.7037
| 37> H 0.4352 -1.3203 -1.0319
| 38> H -0.8064 -4.1088 2.6175
| 39> H 1.1059 -5.6243 2.9223
| 40> H 3.3821 -4.9080 2.2706
| 41> H 3.7635 -2.6744 1.3482
| 42> H 3.8451 -0.2270 1.2949
| 43> H 3.5248 -0.9625 -0.3187
| 44> H 2.4048 0.3409 -2.1090
| 45> H 2.0693 2.5850 -3.0843
| 46> H 2.3784 4.6106 -1.6886
| 47> H 2.9951 4.3884 0.7031
| 48> H 3.3297 2.1519 1.6986
| 49> H -1.6901 0.7595 1.6918
| 50> H -3.7257 1.0933 0.8403
| 51> H -3.5074 -0.4300 -0.0401
| 52> H -2.7100 0.8202 -2.0497
| 53> H -4.3083 1.4058 -1.5200
| 54> H -3.4986 3.4936 -0.8597
| 55> H -2.3253 3.1012 -2.1518
| 56> H -1.9702 3.2042 0.8788
| 57> H -1.2143 4.9251 -0.5950
| 58> H 0.0326 4.2282 0.2638
| 59> H -0.3269 1.3744 -0.9749
| 60> H 0.1339 1.8051 0.7022
| 61> *
| 62>
| 63>                          ****END OF INPUT****

CARTESIAN COORDINATES (ANGSTROEM)
---------------------------------
  C     -2.691700   -2.876900   -1.082300
  C     -1.174600   -2.753400   -1.175100
  C     -0.665500   -1.324500   -0.909300
  N     -1.017700   -0.806800    0.431700
  C     -0.812000   -1.614300    1.613400
  O     -1.681300   -1.597400    2.527900
  C      0.369800   -2.493200    1.779900
  C      0.183400   -3.772400    2.333800
  C      1.263600   -4.638200    2.504900
  C      2.545200   -4.234900    2.137100
  C      2.753300   -2.960900    1.606300
  C      1.672400   -2.071100    1.429400
  O      1.868300   -0.771800    0.930900
  C      3.117800   -0.276100    0.455500
  C      2.925500    1.085600   -0.142800
  C      2.551300    1.218300   -1.490600
  C      2.358200    2.487300   -2.046200
  C      2.532000    3.629100   -1.259400
  C      2.881600    3.503500    0.089000
  C      3.071300    2.236300    0.649600
  C     -1.627700    0.534000    0.601800
  C     -3.089500    0.587600    0.079700
  C     -3.233800    1.364100   -1.236800
  C     -2.676200    2.799700   -1.139900
  C     -1.527400    2.959500   -0.114800
  N     -0.642500    4.053100   -0.515300
  C     -0.730100    1.651400    0.020600
  H     -2.998500   -3.896300   -1.398400
  H     -3.182500   -2.138800   -1.751600
  H     -3.028200   -2.725700   -0.035600
  H     -0.863600   -3.046300   -2.201500
  H     -0.702800   -3.476500   -0.479500
  H     -1.065300   -0.666300   -1.703700
  H      0.435200   -1.320300   -1.031900
  H     -0.806400   -4.108800    2.617500
  H      1.105900   -5.624300    2.922300
  H      3.382100   -4.908000    2.270600
  H      3.763500   -2.674400    1.348200
  H      3.845100   -0.227000    1.294900
  H      3.524800   -0.962500   -0.318700
  H      2.404800    0.340900   -2.109000
  H      2.069300    2.585000   -3.084300
  H      2.378400    4.610600   -1.688600
  H      2.995100    4.388400    0.703100
  H      3.329700    2.151900    1.698600
  H     -1.690100    0.759500    1.691800
  H     -3.725700    1.093300    0.840300
  H     -3.507400   -0.430000   -0.040100
  H     -2.710000    0.820200   -2.049700
  H     -4.308300    1.405800   -1.520000
  H     -3.498600    3.493600   -0.859700
  H     -2.325300    3.101200   -2.151800
  H     -1.970200    3.204200    0.878800
  H     -1.214300    4.925100   -0.595000
  H      0.032600    4.228200    0.263800
  H     -0.326900    1.374400   -0.974900
  H      0.133900    1.805100    0.702200

 Total Charge           Charge          ....    0
 Multiplicity           Mult            ....    1
 Number of Electrons    NEL             ....  198
 Basis Dimension        Dim             ....  438

ORBITAL ENERGIES
----------------

  NO   OCC          E(Eh)            E(eV)
   0   2.0000     -19.169120      -521.6183
   1   2.0000     -19.096179      -519.6334
   2   2.0000     -14.324985      -389.8027
   3   2.0000     -14.297144      -389.0451
   4   2.0000     -10.271334      -279.4972
   5   2.0000     -10.254324      -279.0343
   6   2.0000     -10.243020      -278.7267
   7   2.0000     -10.201231      -277.5896
   8   2.0000     -10.199570      -277.5444
   9   2.0000     -10.194327      -277.4017
  10   2.0000     -10.193648      -277.3833
  11   2.0000     -10.192751      -277.3589
  12   2.0000     -10.187927      -277.2276
  13   2.0000     -10.187372      -277.2125
  14   2.0000     -10.186476      -277.1881
  15   2.0000     -10.185994      -277.1750
  16   2.0000     -10.185161      -277.1523
  17   2.0000     -10.185001      -277.1480
  18   2.0000     -10.184227      -277.1269
  19   2.0000     -10.182990      -277.0933
  20   2.0000     -10.177186      -276.9353
  21   2.0000     -10.168942      -276.7110
  22   2.0000     -10.164977      -276.6031
  23   2.0000     -10.163333      -276.5584
  24   2.0000     -10.158405      -276.4242
  25   2.0000     -10.156975      -276.3853
  26   2.0000     -10.156252      -276.3657
  27   2.0000      -1.048822       -28.5399
  28   2.0000      -0.993873       -27.0446
  29   2.0000      -0.893365       -24.3097
  30   2.0000      -0.870491       -23.6873
  31   2.0000      -0.857810       -23.3422
  32   2.0000      -0.848485       -23.0885
  33   2.0000      -0.792718       -21.5710
  34   2.0000      -0.778718       -21.1900
  35   2.0000      -0.762228       -20.7413
  36   2.0000      -0.755810       -20.5666
  37   2.0000      -0.745303       -20.2807
  38   2.0000      -0.737009       -20.0550
  39   2.0000      -0.717079       -19.5127
  40   2.0000      -0.698807       -19.0155
  41   2.0000      -0.683371       -18.5955
  42   2.0000      -0.667217       -18.1559
  43   2.0000      -0.632507       -17.2114
  44   2.0000      -0.607329       -16.5263
  45   2.0000      -0.604714       -16.4551
  46   2.0000      -0.598364       -16.2823
  47   2.0000      -0.586436       -15.9577
  48   2.0000      -0.581932       -15.8352
  49   2.0000      -0.578251       -15.7350
  50   2.0000      -0.543410       -14.7869
  51   2.0000      -0.519600       -14.1390
  52   2.0000      -0.514409       -13.9978
  53   2.0000      -0.505187       -13.7468
  54   2.0000      -0.490475       -13.3465
  55   2.0000      -0.479781       -13.0555
  56   2.0000      -0.478174       -13.0118
  57   2.0000      -0.473831       -12.8936
  58   2.0000      -0.466882       -12.7045
  59   2.0000      -0.458790       -12.4843
  60   2.0000      -0.455652       -12.3989
  61   2.0000      -0.452119       -12.3028
  62   2.0000      -0.445194       -12.1143
  63   2.0000      -0.440338       -11.9822
  64   2.0000      -0.431590       -11.7442
  65   2.0000      -0.428037       -11.6475
  66   2.0000      -0.420793       -11.4504
  67   2.0000      -0.415870       -11.3164
  68   2.0000      -0.414118       -11.2687
  69   2.0000      -0.406858       -11.0712
  70   2.0000      -0.393274       -10.7015
  71   2.0000      -0.384672       -10.4675
  72   2.0000      -0.383546       -10.4368
  73   2.0000      -0.378326       -10.2948
  74   2.0000      -0.368696       -10.0327
  75   2.0000      -0.366972        -9.9858
  76   2.0000      -0.364359        -9.9147
  77   2.0000      -0.358987        -9.7685
  78   2.0000      -0.354581        -9.6486
  79   2.0000      -0.350757        -9.5446
  80   2.0000      -0.347060        -9.4440
  81   2.0000      -0.345417        -9.3993
  82   2.0000      -0.341706        -9.2983
  83   2.0000      -0.335026        -9.1165
  84   2.0000      -0.329880        -8.9765
  85   2.0000      -0.326459        -8.8834
  86   2.0000      -0.324737        -8.8365
  87   2.0000      -0.318197        -8.6586
  88   2.0000      -0.309777        -8.4295
  89   2.0000      -0.303235        -8.2515
  90   2.0000      -0.295668        -8.0455
  91   2.0000      -0.283119        -7.7041
  92   2.0000      -0.253188        -6.8896
  93   2.0000      -0.250764        -6.8236
  94   2.0000      -0.249450        -6.7879
  95   2.0000      -0.230404        -6.2696
  96   2.0000      -0.221244        -6.0204
  97   2.0000      -0.220319        -5.9952
  98   2.0000      -0.199671        -5.4333
  99   0.0000      -0.030440        -0.8283
 100   0.0000      -0.010975        -0.2986
 101   0.0000      -0.004352        -0.1184
 102   0.0000       0.006945         0.1890
 103   0.0000       0.046589         1.2677

MULLIKEN ATOMIC CHARGES
-----------------------
   0 C :   -0.439362
   1 C :   -0.266897
   2 C :   -0.138958
   3 N :   -0.412532
   4 C :    0.449524
   5 O :   -0.474654
   6 C :    0.028744
   7 C :   -0.147818
   8 C :   -0.136373
   9 C :   -0.116396
  10 C :   -0.208592
  11 C :    0.336961
  12 O :   -0.506388
  13 C :   -0.110293
  14 C :    0.142840
  15 C :   -0.160935
  16 C :   -0.118141
  17 C :   -0.087677
  18 C :   -0.146050
  19 C :   -0.162706
  20 C :    0.040411
  21 C :   -0.275950
  22 C :   -0.270418
  23 C :   -0.266512
  24 C :    0.041956
  25 N :   -0.714313
  26 C :   -0.270280
  27 H :    0.135224
  28 H :    0.136090
  29 H :    0.171563
  30 H :    0.124381
  31 H :    0.146011
  32 H :    0.147547
  33 H :    0.141077
  34 H :    0.157011
  35 H :    0.129435
  36 H :    0.133610
  37 H :    0.137896
  38 H :    0.137241
  39 H :    0.135779
  40 H :    0.129316
  41 H :    0.132698
  42 H :    0.133839
  43 H :    0.127909
  44 H :    0.131917
  45 H :    0.153126
  46 H :    0.129654
  47 H :    0.154250
  48 H :    0.128782
  49 H :    0.127797
  50 H :    0.121201
  51 H :    0.137754
  52 H :    0.097824
  53 H :    0.281451
  54 H :    0.286775
  55 H :    0.141833
  56 H :    0.141817
Sum of atomic charges:   -0.0000000

LOEWDIN ATOMIC CHARGES
----------------------
   0 C :   -0.363644
   1 C :   -0.243777
   2 C :   -0.157042
   3 N :   -0.108267
   4 C :    0.145542
   5 O :   -0.278740
   6 C :   -0.069710
   7 C :   -0.092393
   8 C :   -0.148306
   9 C :   -0.113323
  10 C :   -0.174941
  11 C :    0.098447
  12 O :   -0.178224
  13 C :   -0.082033
  14 C :   -0.034884
  15 C :   -0.120981
  16 C :   -0.119955
  17 C :   -0.105924
  18 C :   -0.137097
  19 C :   -0.124959
  20 C :   -0.048575
  21 C :   -0.239893
  22 C :   -0.233276
  23 C :   -0.234409
  24 C :   -0.077599
  25 N :   -0.464857
  26 C :   -0.231095
  27 H :    0.121158
  28 H :    0.118496
  29 H :    0.133662
  30 H :    0.117928
  31 H :    0.124949
  32 H :    0.126850
  33 H :    0.115284
  34 H :    0.148893
  35 H :    0.132734
  36 H :    0.134191
  37 H :    0.136168
  38 H :    0.115869
  39 H :    0.115437
  40 H :    0.131567
  41 H :    0.134142
  42 H :    0.135359
  43 H :    0.130432
  44 H :    0.133269
  45 H :    0.136429
  46 H :    0.119185
  47 H :    0.132819
  48 H :    0.109736
  49 H :    0.119755
  50 H :    0.113654
  51 H :    0.123783
  52 H :    0.090510
  53 H :    0.216481
  54 H :    0.218151
  55 H :    0.125024
  56 H :    0.128002

  Mayer bond orders larger than 0.100000
B(  0-C ,  1-C ) :   1.0170 B(  0-C , 27-H ) :   0.9502 B(  0-C , 28-H ) :   0.9486
B(  0-C , 29-H ) :   0.9369 B(  1-C ,  2-C ) :   1.0022 B(  1-C , 30-H ) :   0.9390
B(  1-C , 31-H ) :   0.9301 B(  2-C ,  3-N ) :   0.9457 B(  2-C , 32-H ) :   0.9262
B(  2-C , 33-H ) :   0.9141 B(  3-N ,  4-C ) :   1.0728 B(  3-N , 20-C ) :   0.9368
B(  4-C ,  5-O ) :   1.7958 B(  4-C ,  6-C ) :   0.9468 B(  6-C ,  7-C ) :   1.4080
B(  6-C , 11-C ) :   1.3476 B(  7-C ,  8-C ) :   1.4374 B(  7-C , 34-H ) :   0.9165
B(  8-C ,  9-C ) :   1.4413 B(  8-C , 35-H ) :   0.9298 B(  9-C , 10-C ) :   1.4437
B(  9-C , 36-H ) :   0.9296 B( 10-C , 11-C ) :   1.3489 B( 10-C , 37-H ) :   0.9173
B( 11-C , 12-O ) :   0.9273 B( 12-O , 13-C ) :   0.8942 B( 13-C , 14-C ) :   0.9900
B( 13-C , 38-H ) :   0.9138 B( 13-C , 39-H ) :   0.9128 B( 14-C , 15-C ) :   1.4287
B( 14-C , 19-C ) :   1.4351 B( 15-C , 16-C ) :   1.4393 B( 15-C , 40-H ) :   0.9237
B( 16-C , 17-C ) :   1.4522 B( 16-C , 41-H ) :   0.9290 B( 17-C , 18-C ) :   1.4469
B( 17-C , 42-H ) :   0.9284 B( 18-C , 19-C ) :   1.4335 B( 18-C , 43-H ) :   0.9298
B( 19-C , 44-H ) :   0.9248 B( 20-C , 21-C ) :   0.9678 B( 20-C , 26-C ) :   0.9785
B( 20-C , 45-H ) :   0.9220 B( 21-C , 22-C ) :   1.0115 B( 21-C , 46-H ) :   0.9417
B( 21-C , 47-H ) :   0.9296 B( 22-C , 23-C ) :   1.0009 B( 22-C , 48-H ) :   0.9380
B( 22-C , 49-H ) :   0.9433 B( 23-C , 24-C ) :   0.9892 B( 23-C , 50-H ) :   0.9449
B( 23-C , 51-H ) :   0.9353 B( 24-C , 25-N ) :   0.9823 B( 24-C , 26-C ) :   0.9830
B( 24-C , 52-H ) :   0.9295 B( 25-N , 53-H ) :   0.8636 B( 25-N , 54-H ) :   0.8527
B( 26-C , 55-H ) :   0.9216 B( 26-C , 56-H ) :   0.9288

FINAL SINGLE POINT ENERGY     -1153.683165059483

DIPOLE MOMENT
-------------

Method             : SCF
Type of density    : Electron Density
Multiplicity       :   1
Irrep              :   0
Energy             : -1153.6831650594833718 Eh
Relativity type    :
Basis              : AO
                                X                 Y                 Z
Electronic contribution:     16.176685912      -7.033077261      13.483199137
Nuclear contribution   :    -15.018206305       7.495433503     -14.279518063
                        -----------------------------------------
Total Dipole Moment    :      1.158479607       0.462356242      -0.796318926
                        -----------------------------------------
Magnitude (a.u.)       :      1.479855441
Magnitude (Debye)      :      3.761493600

Rotational constants in cm-1:             0.008132             0.005505             0.003831
Rotational constants in MHz :           243.784831           165.038922           114.852987

                             ****ORCA TERMINATED NORMALLY****
TOTAL RUN TIME: 0 days 0 hours 5 minutes 32 seconds 593 msec
