                         Program Version 6.0.0  -   RELEASE  -
|  1> ! B3LYP 6-31G* SP
|  2>
|  3> * xyz 0 1
|  4> C 5.7591 -3.5258 -0.1408
|  5> C 5.0829 -2.9407 -1.3752
|  6> O 4.2321 -1.8541 -1.0155
|  7> C 4.7070 -0.5795 -0.6796
|  8> O 5.9398 -0.3210 -0.7337
|  9> C 3.7724 0.4777 -0.2665
| 10> C 2.4590 0.2719 -0.1842
| 11> O 1.6225 1.3159 0.2152
| 12> C 0.2355 1.1807 0.3279
| 13> N -0.4111 0.0129 0.0560
| 14> C -1.7493 0.1119 0.2315
| 15> C -2.6867 -1.0120 0.0047
| 16> C -4.0706 -0.8516 0.1992
| 17> C -4.9460 -1.9198 -0.0180
| 18> C -4.4534 -3.1692 -0.4202
| 19> C -5.3975 -4.3028 -0.6911
| 20> C -3.0771 -3.3294 -0.6331
| 21> C -2.2002 -2.2624 -0.4165
| 22> S -2.1742 1.6661 0.7341
| 23> C -0.5901 2.2302 0.7266
| 24> C -0.1814 3.5964 1.0811
| 25> O 1.0366 3.9223 1.0464
| 26> O -1.1556 4.5260 1.4630
| 27> C -0.8642 5.8869 1.7742
| 28> C -0.6065 6.6863 0.5021
| 29> H 6.3723 -4.4043 -0.4323
| 30> H 4.9917 -3.8499 0.5935
| 31> H 6.4208 -2.7710 0.3331
| 32> H 5.8454 -2.6086 -2.1130
| 33> H 4.4647 -3.7308 -1.8509
| 34> H 4.1693 1.4554 -0.0202
| 35> H 2.0411 -0.6987 -0.4250
| 36> H -4.4817 0.0981 0.5154
| 37> H -6.0089 -1.7719 0.1286
| 38> H -5.7210 -4.2682 -1.7523
| 39> H -4.9048 -5.2788 -0.4939
| 40> H -6.2926 -4.2322 -0.0368
| 41> H -2.6816 -4.2810 -0.9664
| 42> H -1.1413 -2.4167 -0.5825
| 43> H 0.0126 5.9501 2.4548
| 44> H -1.7395 6.3246 2.2988
| 45> H -0.4376 7.7531 0.7595
| 46> H 0.2918 6.3001 -0.0231
| 47> H -1.4837 6.6137 -0.1749
| 48> *
| 49>
| 50>                          ****END OF INPUT****

CARTESIAN COORDINATES (ANGSTROEM)
---------------------------------
  C      5.759100   -3.525800   -0.140800
  C      5.082900   -2.940700   -1.375200
  O      4.232100   -1.854100   -1.015500
  C      4.707000   -0.579500   -0.679600
  O      5.939800   -0.321000   -0.733700
  C      3.772400    0.477700   -0.266500
  C      2.459000    0.271900   -0.184200
  O      1.622500    1.315900    0.215200
  C      0.235500    1.180700    0.327900
  N     -0.411100    0.012900    0.056000
  C     -1.749300    0.111900    0.231500
  C     -2.686700   -1.012000    0.004700
  C     -4.070600   -0.851600    0.199200
  C     -4.946000   -1.919800   -0.018000
  C     -4.453400   -3.169200   -0.420200
  C     -5.397500   -4.302800   -0.691100
  C     -3.077100   -3.329400   -0.633100
  C     -2.200200   -2.262400   -0.416500
  S     -2.174200    1.666100    0.734100
  C     -0.590100    2.230200    0.726600
  C     -0.181400    3.596400    1.081100
  O      1.036600    3.922300    1.046400
  O     -1.155600    4.526000    1.463000
  C     -0.864200    5.886900    1.774200
  C     -0.606500    6.686300    0.502100
  H      6.372300   -4.404300   -0.432300
  H      4.991700   -3.849900    0.593500
  H      6.420800   -2.771000    0.333100
  H      5.845400   -2.608600   -2.113000
  H      4.464700   -3.730800   -1.850900
  H      4.169300    1.455400   -0.020200
  H      2.041100   -0.698700   -0.425000
  H     -4.481700    0.098100    0.515400
  H     -6.008900   -1.771900    0.128600
  H     -5.721000   -4.268200   -1.752300
  H     -4.904800   -5.278800   -0.493900
  H     -6.292600   -4.232200   -0.036800
  H     -2.681600   -4.281000   -0.966400
  H     -1.141300   -2.416700   -0.582500
  H      0.012600    5.950100    2.454800
  H     -1.739500    6.324600    2.298800
  H     -0.437600    7.753100    0.759500
  H      0.291800    6.300100   -0.023100
  H     -1.483700    6.613700   -0.174900

 Total Charge           Charge          ....    0
 Multiplicity           Mult            ....    1
 Number of Electrons    NEL             ....  190
 Basis Dimension        Dim             ....  392

ORBITAL ENERGIES
----------------

  NO   OCC          E(Eh)            E(eV)
   0   2.0000     -88.915542     -2419.5149
   1   2.0000     -19.212691      -522.8039
   2   2.0000     -19.180612      -521.9310
   3   2.0000     -19.169650      -521.6327
   4   2.0000     -19.125416      -520.4290
   5   2.0000     -19.113158      -520.0955
   6   2.0000     -14.350299      -390.4915
   7   2.0000     -10.326791      -281.0063
   8   2.0000     -10.309590      -280.5382
   9   2.0000     -10.305129      -280.4168
  10   2.0000     -10.275677      -279.6154
  11   2.0000     -10.260190      -279.1940
  12   2.0000     -10.239728      -278.6372
  13   2.0000     -10.235607      -278.5250
  14   2.0000     -10.233188      -278.4592
  15   2.0000     -10.218999      -278.0731
  16   2.0000     -10.208438      -277.7857
  17   2.0000     -10.205268      -277.6995
  18   2.0000     -10.200078      -277.5582
  19   2.0000     -10.197217      -277.4804
  20   2.0000     -10.195280      -277.4277
  21   2.0000     -10.190243      -277.2906
  22   2.0000     -10.189474      -277.2697
  23   2.0000     -10.172112      -276.7972
  24   2.0000     -10.166931      -276.6563
  25   2.0000      -7.992628      -217.4905
  26   2.0000      -5.955576      -162.0595
  27   2.0000      -5.951505      -161.9487
  28   2.0000      -5.949709      -161.8998
  29   2.0000      -1.090365       -29.6703
  30   2.0000      -1.075414       -29.2635
  31   2.0000      -1.064270       -28.9603
  32   2.0000      -0.989583       -26.9279
  33   2.0000      -0.981110       -26.6973
  34   2.0000      -0.977513       -26.5995
  35   2.0000      -0.873650       -23.7732
  36   2.0000      -0.833483       -22.6802
  37   2.0000      -0.814644       -22.1676
  38   2.0000      -0.796489       -21.6736
  39   2.0000      -0.766565       -20.8593
  40   2.0000      -0.759520       -20.6676
  41   2.0000      -0.757157       -20.6033
  42   2.0000      -0.743700       -20.2371
  43   2.0000      -0.701644       -19.0927
  44   2.0000      -0.675106       -18.3706
  45   2.0000      -0.652720       -17.7614
  46   2.0000      -0.633064       -17.2265
  47   2.0000      -0.627873       -17.0853
  48   2.0000      -0.616432       -16.7740
  49   2.0000      -0.593700       -16.1554
  50   2.0000      -0.573317       -15.6007
  51   2.0000      -0.567512       -15.4428
  52   2.0000      -0.541903       -14.7459
  53   2.0000      -0.528463       -14.3802
  54   2.0000      -0.519909       -14.1474
  55   2.0000      -0.504361       -13.7244
  56   2.0000      -0.498724       -13.5710
  57   2.0000      -0.474768       -12.9191
  58   2.0000      -0.472242       -12.8503
  59   2.0000      -0.468119       -12.7382
  60   2.0000      -0.465889       -12.6775
  61   2.0000      -0.463144       -12.6028
  62   2.0000      -0.447005       -12.1636
  63   2.0000      -0.442936       -12.0529
  64   2.0000      -0.436470       -11.8770
  65   2.0000      -0.435805       -11.8589
  66   2.0000      -0.433480       -11.7956
  67   2.0000      -0.426261       -11.5992
  68   2.0000      -0.422171       -11.4878
  69   2.0000      -0.417176       -11.3519
  70   2.0000      -0.410533       -11.1712
  71   2.0000      -0.398825       -10.8526
  72   2.0000      -0.393024       -10.6947
  73   2.0000      -0.390403       -10.6234
  74   2.0000      -0.385133       -10.4800
  75   2.0000      -0.377427       -10.2703
  76   2.0000      -0.369895       -10.0654
  77   2.0000      -0.367189        -9.9917
  78   2.0000      -0.364868        -9.9286
  79   2.0000      -0.360897        -9.8205
  80   2.0000      -0.359301        -9.7771
  81   2.0000      -0.356345        -9.6966
  82   2.0000      -0.354111        -9.6359
  83   2.0000      -0.330195        -8.9851
  84   2.0000      -0.320453        -8.7200
  85   2.0000      -0.300428        -8.1751
  86   2.0000      -0.293594        -7.9891
  87   2.0000      -0.292046        -7.9470
  88   2.0000      -0.284716        -7.7475
  89   2.0000      -0.277364        -7.5475
  90   2.0000      -0.265076        -7.2131
  91   2.0000      -0.261515        -7.1162
  92   2.0000      -0.251524        -6.8443
  93   2.0000      -0.250896        -6.8272
  94   2.0000      -0.223372        -6.0783
  95   0.0000      -0.077891        -2.1195
  96   0.0000      -0.040830        -1.1110
  97   0.0000      -0.017449        -0.4748
  98   0.0000      -0.008942        -0.2433
  99   0.0000       0.019490         0.5303

MULLIKEN ATOMIC CHARGES
-----------------------
   0 C :   -0.458511
   1 C :   -0.018496
   2 O :   -0.492541
   3 C :    0.585289
   4 O :   -0.477732
   5 C :   -0.231828
   6 C :    0.155563
   7 O :   -0.468604
   8 C :    0.534222
   9 N :   -0.435479
  10 C :   -0.009086
  11 C :    0.140490
  12 C :   -0.188197
  13 C :   -0.175877
  14 C :    0.178064
  15 C :   -0.525773
  16 C :   -0.170804
  17 C :   -0.152275
  18 S :    0.307974
  19 C :   -0.283601
  20 C :    0.590285
  21 O :   -0.453733
  22 O :   -0.486319
  23 C :   -0.018741
  24 C :   -0.460530
  25 H :    0.140078
  26 H :    0.148155
  27 H :    0.180392
  28 H :    0.156394
  29 H :    0.145971
  30 H :    0.187507
  31 H :    0.199710
  32 H :    0.150128
  33 H :    0.133696
  34 H :    0.172295
  35 H :    0.159612
  36 H :    0.158672
  37 H :    0.134464
  38 H :    0.162014
  39 H :    0.159567
  40 H :    0.151909
  41 H :    0.143892
  42 H :    0.181199
  43 H :    0.150584
Sum of atomic charges:   -0.0000000

LOEWDIN ATOMIC CHARGES
----------------------
   0 C :   -0.375104
   1 C :   -0.090552
   2 O :   -0.189059
   3 C :    0.180620
   4 O :   -0.272167
   5 C :   -0.192217
   6 C :    0.027294
   7 O :   -0.092232
   8 C :    0.120199
   9 N :   -0.180765
  10 C :   -0.099067
  11 C :   -0.040497
  12 C :   -0.115749
  13 C :   -0.131111
  14 C :   -0.005836
  15 C :   -0.352333
  16 C :   -0.130476
  17 C :   -0.097867
  18 S :    0.430930
  19 C :   -0.265146
  20 C :    0.180150
  21 O :   -0.259206
  22 O :   -0.180126
  23 C :   -0.090523
  24 C :   -0.375052
  25 H :    0.127825
  26 H :    0.126174
  27 H :    0.141282
  28 H :    0.125361
  29 H :    0.124561
  30 H :    0.168453
  31 H :    0.154648
  32 H :    0.140831
  33 H :    0.135327
  34 H :    0.143004
  35 H :    0.135012
  36 H :    0.134482
  37 H :    0.135750
  38 H :    0.149247
  39 H :    0.127095
  40 H :    0.127863
  41 H :    0.129977
  42 H :    0.141582
  43 H :    0.127419

  Mayer bond orders larger than 0.100000
B(  0-C ,  1-C ) :   1.0117 B(  0-C , 25-H ) :   0.9428 B(  0-C , 26-H ) :   0.9488
B(  0-C , 27-H ) :   0.9393 B(  1-C ,  2-O ) :   0.8707 B(  1-C , 28-H ) :   0.9251
B(  1-C , 29-H ) :   0.9411 B(  2-O ,  3-C ) :   0.9990 B(  3-C ,  4-O ) :   1.7574
B(  3-C ,  5-C ) :   1.0940 B(  5-C ,  6-C ) :   1.7288 B(  5-C , 30-H ) :   0.9190
B(  6-C ,  7-O ) :   0.9355 B(  6-C , 31-H ) :   0.8931 B(  7-O ,  8-C ) :   0.9505
B(  8-C ,  9-N ) :   1.2823 B(  8-C , 19-C ) :   1.4229 B(  9-N , 10-C ) :   1.4214
B( 10-C , 11-C ) :   1.0229 B( 10-C , 18-S ) :   1.1684 B( 10-C , 19-C ) :   0.1087
B( 11-C , 12-C ) :   1.3835 B( 11-C , 17-C ) :   1.3986 B( 12-C , 13-C ) :   1.4431
B( 12-C , 32-H ) :   0.9155 B( 13-C , 14-C ) :   1.4259 B( 13-C , 33-H ) :   0.9246
B( 14-C , 15-C ) :   0.9907 B( 14-C , 16-C ) :   1.4234 B( 15-C , 34-H ) :   0.9304
B( 15-C , 35-H ) :   0.9441 B( 15-C , 36-H ) :   0.9443 B( 16-C , 17-C ) :   1.4305
B( 16-C , 37-H ) :   0.9250 B( 17-C , 38-H ) :   0.9118 B( 18-S , 19-C ) :   1.0680
B( 19-C , 20-C ) :   1.0250 B( 20-C , 21-O ) :   1.8165 B( 20-C , 22-O ) :   0.9929
B( 22-O , 23-C ) :   0.8629 B( 23-C , 24-C ) :   1.0119 B( 23-C , 39-H ) :   0.9247
B( 23-C , 40-H ) :   0.9398 B( 24-C , 41-H ) :   0.9423 B( 24-C , 42-H ) :   0.9393
B( 24-C , 43-H ) :   0.9482

FINAL SINGLE POINT ENERGY     -1525.668452994485

DIPOLE MOMENT
-------------

Method             : SCF
Type of density    : Electron Density
Multiplicity       :   1
Irrep              :   0
Energy             : -1525.6684529944850510 Eh
Relativity type    :
Basis              : AO
                                X                 Y                 Z
Electronic contribution:     -2.423218083      10.638942826       3.520197916
Nuclear contribution   :     -0.292531289     -11.709385371      -3.582346789
                        -----------------------------------------
Total Dipole Moment    :     -2.715749372      -1.070442545      -0.062148872
                        -----------------------------------------
Magnitude (a.u.)       :      2.919761014
Magnitude (Debye)      :      7.421442705

Rotational constants in cm-1:             0.005067             0.004080             0.002293
Rotational constants in MHz :           151.911682           122.308130            68.750838

                             ****ORCA TERMINATED NORMALLY****
TOTAL RUN TIME: 0 days 0 hours 5 minutes 11 seconds 759 msec
