                         Program Version 6.0.0  -   RELEASE  -
|  1> ! B3LYP 6-31G* SP
|  2>
|  3> * xyz 0 1
|  4> C -6.2193 0.9142 -1.6935
|  5> C -5.6068 0.9784 -0.2893
|  6> C -6.3459 1.9944 0.5894
|  7> C -4.1226 1.2883 -0.3534
|  8> C -3.6572 2.4976 -0.9027
|  9> C -2.2899 2.7782 -0.9375
| 10> C -1.3710 1.8554 -0.4353
| 11> C -1.8095 0.6339 0.0934
| 12> N -0.8438 -0.2891 0.6235
| 13> C -0.9369 -1.7183 0.4756
| 14> O -1.8570 -2.2204 -0.2259
| 15> N 0.0240 -2.5913 1.1006
| 16> C -0.2115 -4.0168 1.2534
| 17> C 0.8441 -4.5077 2.2340
| 18> C 1.9299 -3.4355 2.2534
| 19> C 1.2675 -2.1589 1.7268
| 20> C 2.1573 -1.4594 0.7375
| 21> N 2.3136 -1.8541 -0.5450
| 22> C 3.2000 -1.0723 -1.2174
| 23> C 3.7736 -0.0432 -0.4645
| 24> C 4.7684 0.9580 -0.9289
| 25> C 5.4244 1.7907 -0.0010
| 26> C 6.3605 2.7360 -0.4312
| 27> C 6.6527 2.8653 -1.7898
| 28> C 6.0082 2.0502 -2.7216
| 29> C 5.0713 1.1024 -2.2978
| 30> S 3.1344 -0.1419 1.0948
| 31> C -3.1888 0.3645 0.1508
| 32> H -5.6691 0.1757 -2.3152
| 33> H -6.1810 1.9050 -2.1939
| 34> H -7.2807 0.5921 -1.6306
| 35> H -5.7571 -0.0220 0.1750
| 36> H -5.8881 2.0263 1.6013
| 37> H -6.3075 3.0117 0.1453
| 38> H -7.4108 1.6978 0.6997
| 39> H -4.3511 3.2286 -1.2966
| 40> H -1.9415 3.7146 -1.3537
| 41> H -0.3134 2.0861 -0.4680
| 42> H 0.0112 0.1203 1.0582
| 43> H -0.0969 -4.5197 0.2688
| 44> H -1.2306 -4.2034 1.6575
| 45> H 1.2531 -5.4948 1.9268
| 46> H 0.3964 -4.5986 3.2482
| 47> H 2.7679 -3.7631 1.5971
| 48> H 2.3240 -3.2862 3.2823
| 49> H 1.0321 -1.4818 2.5773
| 50> H 3.4372 -1.2669 -2.2531
| 51> H 5.2226 1.7107 1.0590
| 52> H 6.8605 3.3687 0.2908
| 53> H 7.3773 3.5981 -2.1206
| 54> H 6.2324 2.1545 -3.7754
| 55> H 4.5816 0.4980 -3.0479
| 56> H -3.5383 -0.5505 0.6109
| 57> *
| 58>
| 59>                          ****END OF INPUT****

CARTESIAN COORDINATES (ANGSTROEM)
---------------------------------
  C     -6.219300    0.914200   -1.693500
  C     -5.606800    0.978400   -0.289300
  C     -6.345900    1.994400    0.589400
  C     -4.122600    1.288300   -0.353400
  C     -3.657200    2.497600   -0.902700
  C     -2.289900    2.778200   -0.937500
  C     -1.371000    1.855400   -0.435300
  C     -1.809500    0.633900    0.093400
  N     -0.843800   -0.289100    0.623500
  C     -0.936900   -1.718300    0.475600
  O     -1.857000   -2.220400   -0.225900
  N      0.024000   -2.591300    1.100600
  C     -0.211500   -4.016800    1.253400
  C      0.844100   -4.507700    2.234000
  C      1.929900   -3.435500    2.253400
  C      1.267500   -2.158900    1.726800
  C      2.157300   -1.459400    0.737500
  N      2.313600   -1.854100   -0.545000
  C      3.200000   -1.072300   -1.217400
  C      3.773600   -0.043200   -0.464500
  C      4.768400    0.958000   -0.928900
  C      5.424400    1.790700   -0.001000
  C      6.360500    2.736000   -0.431200
  C      6.652700    2.865300   -1.789800
  C      6.008200    2.050200   -2.721600
  C      5.071300    1.102400   -2.297800
  S      3.134400   -0.141900    1.094800
  C     -3.188800    0.364500    0.150800
  H     -5.669100    0.175700   -2.315200
  H     -6.181000    1.905000   -2.193900
  H     -7.280700    0.592100   -1.630600
  H     -5.757100   -0.022000    0.175000
  H     -5.888100    2.026300    1.601300
  H     -6.307500    3.011700    0.145300
  H     -7.410800    1.697800    0.699700
  H     -4.351100    3.228600   -1.296600
  H     -1.941500    3.714600   -1.353700
  H     -0.313400    2.086100   -0.468000
  H      0.011200    0.120300    1.058200
  H     -0.096900   -4.519700    0.268800
  H     -1.230600   -4.203400    1.657500
  H      1.253100   -5.494800    1.926800
  H      0.396400   -4.598600    3.248200
  H      2.767900   -3.763100    1.597100
  H      2.324000   -3.286200    3.282300
  H      1.032100   -1.481800    2.577300
  H      3.437200   -1.266900   -2.253100
  H      5.222600    1.710700    1.059000
  H      6.860500    3.368700    0.290800
  H      7.377300    3.598100   -2.120600
  H      6.232400    2.154500   -3.775400
  H      4.581600    0.498000   -3.047900
  H     -3.538300   -0.550500    0.610900

 Total Charge           Charge          ....    0
 Multiplicity           Mult            ....    1
 Number of Electrons    NEL             ....  208
 Basis Dimension        Dim             ....  446

ORBITAL ENERGIES
----------------

  NO   OCC          E(Eh)            E(eV)
   0   2.0000     -88.905477     -2419.2410
   1   2.0000     -19.090625      -519.4823
   2   2.0000     -14.355546      -390.6343
   3   2.0000     -14.347463      -390.4143
   4   2.0000     -14.332519      -390.0077
   5   2.0000     -10.306806      -280.4624
   6   2.0000     -10.247279      -278.8426
   7   2.0000     -10.243408      -278.7373
   8   2.0000     -10.222952      -278.1807
   9   2.0000     -10.216672      -278.0098
  10   2.0000     -10.215959      -277.9904
  11   2.0000     -10.212846      -277.9057
  12   2.0000     -10.206774      -277.7404
  13   2.0000     -10.193927      -277.3909
  14   2.0000     -10.192787      -277.3598
  15   2.0000     -10.192173      -277.3431
  16   2.0000     -10.190646      -277.3016
  17   2.0000     -10.190436      -277.2959
  18   2.0000     -10.188114      -277.2327
  19   2.0000     -10.186668      -277.1933
  20   2.0000     -10.174987      -276.8755
  21   2.0000     -10.174425      -276.8602
  22   2.0000     -10.171116      -276.7701
  23   2.0000     -10.169433      -276.7243
  24   2.0000     -10.164121      -276.5798
  25   2.0000     -10.163625      -276.5663
  26   2.0000     -10.159823      -276.4628
  27   2.0000     -10.157710      -276.4054
  28   2.0000      -7.982878      -217.2252
  29   2.0000      -5.945444      -161.7838
  30   2.0000      -5.941781      -161.6841
  31   2.0000      -5.940405      -161.6466
  32   2.0000      -1.008462       -27.4416
  33   2.0000      -0.967439       -26.3253
  34   2.0000      -0.929979       -25.3060
  35   2.0000      -0.902981       -24.5714
  36   2.0000      -0.863396       -23.4942
  37   2.0000      -0.833802       -22.6889
  38   2.0000      -0.814942       -22.1757
  39   2.0000      -0.793157       -21.5829
  40   2.0000      -0.785918       -21.3859
  41   2.0000      -0.778947       -21.1962
  42   2.0000      -0.754103       -20.5202
  43   2.0000      -0.750704       -20.4277
  44   2.0000      -0.723903       -19.6984
  45   2.0000      -0.713893       -19.4260
  46   2.0000      -0.709277       -19.3004
  47   2.0000      -0.666487       -18.1360
  48   2.0000      -0.643997       -17.5240
  49   2.0000      -0.624771       -17.0009
  50   2.0000      -0.618306       -16.8250
  51   2.0000      -0.606465       -16.5027
  52   2.0000      -0.603500       -16.4221
  53   2.0000      -0.587471       -15.9859
  54   2.0000      -0.575837       -15.6693
  55   2.0000      -0.569135       -15.4869
  56   2.0000      -0.548747       -14.9322
  57   2.0000      -0.541536       -14.7359
  58   2.0000      -0.529930       -14.4201
  59   2.0000      -0.520518       -14.1640
  60   2.0000      -0.503531       -13.7018
  61   2.0000      -0.497140       -13.5279
  62   2.0000      -0.476216       -12.9585
  63   2.0000      -0.467336       -12.7169
  64   2.0000      -0.464004       -12.6262
  65   2.0000      -0.453911       -12.3516
  66   2.0000      -0.450558       -12.2603
  67   2.0000      -0.440391       -11.9837
  68   2.0000      -0.432322       -11.7641
  69   2.0000      -0.431952       -11.7540
  70   2.0000      -0.427553       -11.6343
  71   2.0000      -0.423494       -11.5239
  72   2.0000      -0.418494       -11.3878
  73   2.0000      -0.413767       -11.2592
  74   2.0000      -0.413343       -11.2476
  75   2.0000      -0.407682       -11.0936
  76   2.0000      -0.400585       -10.9005
  77   2.0000      -0.398100       -10.8329
  78   2.0000      -0.382182       -10.3997
  79   2.0000      -0.375666       -10.2224
  80   2.0000      -0.374281       -10.1847
  81   2.0000      -0.373220       -10.1558
  82   2.0000      -0.370775       -10.0893
  83   2.0000      -0.364835        -9.9277
  84   2.0000      -0.363228        -9.8839
  85   2.0000      -0.356611        -9.7039
  86   2.0000      -0.351266        -9.5584
  87   2.0000      -0.346892        -9.4394
  88   2.0000      -0.345622        -9.4048
  89   2.0000      -0.341939        -9.3046
  90   2.0000      -0.331415        -9.0183
  91   2.0000      -0.323256        -8.7962
  92   2.0000      -0.313059        -8.5188
  93   2.0000      -0.310451        -8.4478
  94   2.0000      -0.294897        -8.0246
  95   2.0000      -0.279161        -7.5964
  96   2.0000      -0.272534        -7.4160
  97   2.0000      -0.267257        -7.2724
  98   2.0000      -0.256434        -6.9779
  99   2.0000      -0.243848        -6.6355
 100   2.0000      -0.228782        -6.2255
 101   2.0000      -0.224275        -6.1028
 102   2.0000      -0.214348        -5.8327
 103   2.0000      -0.204139        -5.5549
 104   0.0000      -0.049014        -1.3337
 105   0.0000      -0.009641        -0.2624
 106   0.0000       0.004598         0.1251
 107   0.0000       0.006419         0.1747
 108   0.0000       0.015816         0.4304

MULLIKEN ATOMIC CHARGES
-----------------------
   0 C :   -0.432481
   1 C :   -0.150943
   2 C :   -0.430207
   3 C :    0.169639
   4 C :   -0.182232
   5 C :   -0.131069
   6 C :   -0.185200
   7 C :    0.340475
   8 N :   -0.732229
   9 C :    0.708408
  10 O :   -0.496453
  11 N :   -0.448739
  12 C :   -0.085330
  13 C :   -0.301875
  14 C :   -0.298815
  15 C :    0.013148
  16 C :    0.021423
  17 N :   -0.347176
  18 C :    0.014257
  19 C :   -0.231209
  20 C :    0.169094
  21 C :   -0.198871
  22 C :   -0.128722
  23 C :   -0.121876
  24 C :   -0.130149
  25 C :   -0.167573
  26 S :    0.237080
  27 C :   -0.197171
  28 H :    0.154417
  29 H :    0.136504
  30 H :    0.134515
  31 H :    0.129376
  32 H :    0.143285
  33 H :    0.137562
  34 H :    0.135342
  35 H :    0.117792
  36 H :    0.123873
  37 H :    0.120996
  38 H :    0.328934
  39 H :    0.162244
  40 H :    0.156032
  41 H :    0.154370
  42 H :    0.145546
  43 H :    0.170990
  44 H :    0.151093
  45 H :    0.141009
  46 H :    0.157221
  47 H :    0.142840
  48 H :    0.133794
  49 H :    0.131645
  50 H :    0.135612
  51 H :    0.135829
  52 H :    0.143976
Sum of atomic charges:    0.0000000

LOEWDIN ATOMIC CHARGES
----------------------
   0 C :   -0.348690
   1 C :   -0.120782
   2 C :   -0.348787
   3 C :   -0.005336
   4 C :   -0.145287
   5 C :   -0.127356
   6 C :   -0.156165
   7 C :    0.039693
   8 N :   -0.228777
   9 C :    0.174398
  10 O :   -0.308823
  11 N :   -0.106817
  12 C :   -0.139040
  13 C :   -0.233557
  14 C :   -0.221181
  15 C :   -0.061735
  16 C :   -0.155531
  17 N :   -0.147306
  18 C :   -0.111327
  19 C :   -0.200974
  20 C :   -0.016628
  21 C :   -0.132193
  22 C :   -0.123927
  23 C :   -0.129121
  24 C :   -0.123303
  25 C :   -0.122992
  26 S :    0.379965
  27 C :   -0.132867
  28 H :    0.129707
  29 H :    0.119184
  30 H :    0.119615
  31 H :    0.121467
  32 H :    0.124174
  33 H :    0.119705
  34 H :    0.119824
  35 H :    0.126250
  36 H :    0.130108
  37 H :    0.128540
  38 H :    0.251714
  39 H :    0.127505
  40 H :    0.128995
  41 H :    0.133081
  42 H :    0.124191
  43 H :    0.138276
  44 H :    0.130768
  45 H :    0.121097
  46 H :    0.142130
  47 H :    0.137055
  48 H :    0.134263
  49 H :    0.133285
  50 H :    0.135202
  51 H :    0.135178
  52 H :    0.143134

  Mayer bond orders larger than 0.100000
B(  0-C ,  1-C ) :   1.0010 B(  0-C , 28-H ) :   0.9484 B(  0-C , 29-H ) :   0.9457
B(  0-C , 30-H ) :   0.9468 B(  1-C ,  2-C ) :   1.0000 B(  1-C ,  3-C ) :   0.9755
B(  1-C , 31-H ) :   0.9292 B(  2-C , 32-H ) :   0.9505 B(  2-C , 33-H ) :   0.9457
B(  2-C , 34-H ) :   0.9470 B(  3-C ,  4-C ) :   1.4023 B(  3-C , 27-C ) :   1.4246
B(  4-C ,  5-C ) :   1.4467 B(  4-C , 35-H ) :   0.9239 B(  5-C ,  6-C ) :   1.4409
B(  5-C , 36-H ) :   0.9296 B(  6-C ,  7-C ) :   1.4182 B(  6-C , 37-H ) :   0.9246
B(  7-C ,  8-N ) :   0.8614 B(  7-C , 27-C ) :   1.4012 B(  8-N ,  9-C ) :   1.0066
B(  8-N , 38-H ) :   0.8105 B(  9-C , 10-O ) :   1.7875 B(  9-C , 11-N ) :   1.0350
B( 11-N , 12-C ) :   0.9421 B( 11-N , 15-C ) :   0.9778 B( 12-C , 13-C ) :   0.9849
B( 12-C , 39-H ) :   0.9312 B( 12-C , 40-H ) :   0.9357 B( 13-C , 14-C ) :   0.9935
B( 13-C , 41-H ) :   0.9451 B( 13-C , 42-H ) :   0.9480 B( 14-C , 15-C ) :   0.9691
B( 14-C , 43-H ) :   0.9382 B( 14-C , 44-H ) :   0.9425 B( 15-C , 16-C ) :   0.9465
B( 15-C , 45-H ) :   0.9190 B( 16-C , 17-N ) :   1.5190 B( 16-C , 19-C ) :   0.1233
B( 16-C , 26-S ) :   1.1279 B( 17-N , 18-C ) :   1.3261 B( 18-C , 19-C ) :   1.4817
B( 18-C , 46-H ) :   0.9221 B( 19-C , 20-C ) :   1.0312 B( 19-C , 26-S ) :   1.1174
B( 20-C , 21-C ) :   1.3892 B( 20-C , 25-C ) :   1.4057 B( 21-C , 22-C ) :   1.4467
B( 21-C , 47-H ) :   0.9172 B( 22-C , 23-C ) :   1.4502 B( 22-C , 48-H ) :   0.9290
B( 23-C , 24-C ) :   1.4449 B( 23-C , 49-H ) :   0.9295 B( 24-C , 25-C ) :   1.4484
B( 24-C , 50-H ) :   0.9285 B( 25-C , 51-H ) :   0.9198 B( 27-C , 52-H ) :   0.9067

FINAL SINGLE POINT ENERGY     -1528.380804266329

DIPOLE MOMENT
-------------

Method             : SCF
Type of density    : Electron Density
Multiplicity       :   1
Irrep              :   0
Energy             : -1528.3808042663292781 Eh
Relativity type    :
Basis              : AO
                                X                 Y                 Z
Electronic contribution:     28.328066718      -1.815900759       0.588932016
Nuclear contribution   :    -26.723281026       2.332512363       0.431945731
                        -----------------------------------------
Total Dipole Moment    :      1.604785692       0.516611604       1.020877748
                        -----------------------------------------
Magnitude (a.u.)       :      1.970892194
Magnitude (Debye)      :      5.009609838

Rotational constants in cm-1:             0.007146             0.002840             0.002184
Rotational constants in MHz :           214.244180            85.136750            65.477866

                             ****ORCA TERMINATED NORMALLY****
TOTAL RUN TIME: 0 days 0 hours 5 minutes 53 seconds 645 msec
