                         Program Version 6.0.0  -   RELEASE  -
|  1> ! B3LYP 6-31G* SP
|  2>
|  3> * xyz 0 1
|  4> C -2.4219 1.2484 1.5287
|  5> C -1.5511 1.7603 0.4050
|  6> C -1.0202 0.8662 -0.5549
|  7> N -1.1724 -0.5547 -0.4260
|  8> C -0.4303 -1.3088 0.5904
|  9> C 1.0170 -0.8962 0.6146
| 10> C 1.5011 -0.0585 1.6434
| 11> C 2.8326 0.3807 1.6320
| 12> C 3.6643 -0.0191 0.5848
| 13> C 3.1995 -0.8270 -0.4212
| 14> C 1.8767 -1.2776 -0.4330
| 15> C 4.2302 -1.0951 -1.4509
| 16> C 5.5105 -0.3901 -0.9046
| 17> C 6.0760 0.5895 -1.9522
| 18> C 6.5876 -1.4377 -0.5566
| 19> C 5.0756 0.3780 0.3833
| 20> S -2.1585 -1.4056 -1.5723
| 21> O -2.7483 -0.4428 -2.5655
| 22> O -1.3188 -2.4061 -2.3177
| 23> C -3.4612 -2.2100 -0.7063
| 24> C -4.5885 -1.4816 -0.3104
| 25> C -5.5974 -2.0940 0.4379
| 26> C -5.4892 -3.4467 0.8062
| 27> C -6.5455 -4.0851 1.6225
| 28> O -6.4495 -5.2979 1.9568
| 29> O -7.6490 -3.3478 2.0427
| 30> C -4.3538 -4.1745 0.4031
| 31> C -3.3478 -3.5585 -0.3462
| 32> N -0.3130 1.3435 -1.6121
| 33> C -0.0629 2.6634 -1.7859
| 34> C -0.5134 3.5922 -0.8460
| 35> C -0.2282 4.9566 -1.0073
| 36> C -0.6583 5.8808 -0.0545
| 37> C -1.3647 5.4504 1.0695
| 38> C -1.6606 4.0949 1.2407
| 39> C -1.2521 3.1429 0.2785
| 40> H -2.8085 0.2287 1.3302
| 41> H -3.3199 1.8905 1.6460
| 42> H -1.8438 1.2391 2.4758
| 43> H -0.4912 -2.3983 0.3812
| 44> H -0.8959 -1.1532 1.5856
| 45> H 0.8453 0.2641 2.4428
| 46> H 3.2026 1.0295 2.4152
| 47> H 1.5176 -1.8942 -1.2482
| 48> H 4.3621 -2.1931 -1.5720
| 49> H 3.8926 -0.6685 -2.4215
| 50> H 6.3656 0.0450 -2.8765
| 51> H 5.3154 1.3555 -2.2172
| 52> H 6.9732 1.1098 -1.5526
| 53> H 6.8861 -2.0063 -1.4643
| 54> H 7.4915 -0.9429 -0.1404
| 55> H 6.1999 -2.1570 0.1980
| 56> H 5.1254 1.4827 0.2550
| 57> H 5.6748 0.0948 1.2769
| 58> H -4.6791 -0.4336 -0.5642
| 59> H -6.4533 -1.5034 0.7403
| 60> H -8.3748 -3.7748 2.6066
| 61> H -4.2377 -5.2167 0.6763
| 62> H -2.4740 -4.1298 -0.6305
| 63> H 0.5048 2.9822 -2.6517
| 64> H 0.3286 5.3069 -1.8690
| 65> H -0.4357 6.9332 -0.1819
| 66> H -1.6854 6.1712 1.8118
| 67> H -2.2008 3.8063 2.1316
| 68> *
| 69>
| 70>                          ****END OF INPUT****

CARTESIAN COORDINATES (ANGSTROEM)
---------------------------------
  C     -2.421900    1.248400    1.528700
  C     -1.551100    1.760300    0.405000
  C     -1.020200    0.866200   -0.554900
  N     -1.172400   -0.554700   -0.426000
  C     -0.430300   -1.308800    0.590400
  C      1.017000   -0.896200    0.614600
  C      1.501100   -0.058500    1.643400
  C      2.832600    0.380700    1.632000
  C      3.664300   -0.019100    0.584800
  C      3.199500   -0.827000   -0.421200
  C      1.876700   -1.277600   -0.433000
  C      4.230200   -1.095100   -1.450900
  C      5.510500   -0.390100   -0.904600
  C      6.076000    0.589500   -1.952200
  C      6.587600   -1.437700   -0.556600
  C      5.075600    0.378000    0.383300
  S     -2.158500   -1.405600   -1.572300
  O     -2.748300   -0.442800   -2.565500
  O     -1.318800   -2.406100   -2.317700
  C     -3.461200   -2.210000   -0.706300
  C     -4.588500   -1.481600   -0.310400
  C     -5.597400   -2.094000    0.437900
  C     -5.489200   -3.446700    0.806200
  C     -6.545500   -4.085100    1.622500
  O     -6.449500   -5.297900    1.956800
  O     -7.649000   -3.347800    2.042700
  C     -4.353800   -4.174500    0.403100
  C     -3.347800   -3.558500   -0.346200
  N     -0.313000    1.343500   -1.612100
  C     -0.062900    2.663400   -1.785900
  C     -0.513400    3.592200   -0.846000
  C     -0.228200    4.956600   -1.007300
  C     -0.658300    5.880800   -0.054500
  C     -1.364700    5.450400    1.069500
  C     -1.660600    4.094900    1.240700
  C     -1.252100    3.142900    0.278500
  H     -2.808500    0.228700    1.330200
  H     -3.319900    1.890500    1.646000
  H     -1.843800    1.239100    2.475800
  H     -0.491200   -2.398300    0.381200
  H     -0.895900   -1.153200    1.585600
  H      0.845300    0.264100    2.442800
  H      3.202600    1.029500    2.415200
  H      1.517600   -1.894200   -1.248200
  H      4.362100   -2.193100   -1.572000
  H      3.892600   -0.668500   -2.421500
  H      6.365600    0.045000   -2.876500
  H      5.315400    1.355500   -2.217200
  H      6.973200    1.109800   -1.552600
  H      6.886100   -2.006300   -1.464300
  H      7.491500   -0.942900   -0.140400
  H      6.199900   -2.157000    0.198000
  H      5.125400    1.482700    0.255000
  H      5.674800    0.094800    1.276900
  H     -4.679100   -0.433600   -0.564200
  H     -6.453300   -1.503400    0.740300
  H     -8.374800   -3.774800    2.606600
  H     -4.237700   -5.216700    0.676300
  H     -2.474000   -4.129800   -0.630500
  H      0.504800    2.982200   -2.651700
  H      0.328600    5.306900   -1.869000
  H     -0.435700    6.933200   -0.181900
  H     -1.685400    6.171200    1.811800
  H     -2.200800    3.806300    2.131600

 Total Charge           Charge          ....    0
 Multiplicity           Mult            ....    1
 Number of Electrons    NEL             ....  264
 Basis Dimension        Dim             ....  564

ORBITAL ENERGIES
----------------

  NO   OCC          E(Eh)            E(eV)
   0   2.0000     -89.091213     -2424.2952
   1   2.0000     -19.197338      -522.3861
   2   2.0000     -19.138343      -520.7808
   3   2.0000     -19.118764      -520.2480
   4   2.0000     -19.118422      -520.2387
   5   2.0000     -14.364948      -390.8901
   6   2.0000     -14.322164      -389.7259
   7   2.0000     -10.335984      -281.2564
   8   2.0000     -10.255398      -279.0636
   9   2.0000     -10.240935      -278.6700
  10   2.0000     -10.232330      -278.4359
  11   2.0000     -10.228054      -278.3195
  12   2.0000     -10.220003      -278.1004
  13   2.0000     -10.219619      -278.0900
  14   2.0000     -10.218111      -278.0489
  15   2.0000     -10.217939      -278.0443
  16   2.0000     -10.217768      -278.0396
  17   2.0000     -10.206977      -277.7460
  18   2.0000     -10.204037      -277.6660
  19   2.0000     -10.196059      -277.4489
  20   2.0000     -10.196017      -277.4477
  21   2.0000     -10.194706      -277.4121
  22   2.0000     -10.194519      -277.4070
  23   2.0000     -10.193258      -277.3727
  24   2.0000     -10.189609      -277.2733
  25   2.0000     -10.186881      -277.1991
  26   2.0000     -10.183878      -277.1174
  27   2.0000     -10.176953      -276.9290
  28   2.0000     -10.172270      -276.8015
  29   2.0000     -10.169775      -276.7336
  30   2.0000     -10.169223      -276.7186
  31   2.0000     -10.168866      -276.7089
  32   2.0000     -10.167849      -276.6812
  33   2.0000     -10.166993      -276.6579
  34   2.0000     -10.164643      -276.5940
  35   2.0000     -10.163774      -276.5703
  36   2.0000      -8.126887      -221.1438
  37   2.0000      -6.091817      -165.7668
  38   2.0000      -6.089909      -165.7149
  39   2.0000      -6.089667      -165.7083
  40   2.0000      -1.081623       -29.4325
  41   2.0000      -1.076138       -29.2832
  42   2.0000      -0.995361       -27.0851
  43   2.0000      -0.956219       -26.0201
  44   2.0000      -0.953600       -25.9488
  45   2.0000      -0.908020       -24.7085
  46   2.0000      -0.890165       -24.2226
  47   2.0000      -0.866748       -23.5854
  48   2.0000      -0.860414       -23.4131
  49   2.0000      -0.817140       -22.2355
  50   2.0000      -0.808242       -21.9934
  51   2.0000      -0.803226       -21.8569
  52   2.0000      -0.776958       -21.1421
  53   2.0000      -0.773517       -21.0485
  54   2.0000      -0.761104       -20.7107
  55   2.0000      -0.747193       -20.3322
  56   2.0000      -0.741711       -20.1830
  57   2.0000      -0.716444       -19.4954
  58   2.0000      -0.710390       -19.3307
  59   2.0000      -0.689539       -18.7633
  60   2.0000      -0.675951       -18.3936
  61   2.0000      -0.673648       -18.3309
  62   2.0000      -0.652534       -17.7563
  63   2.0000      -0.646008       -17.5788
  64   2.0000      -0.640900       -17.4398
  65   2.0000      -0.636496       -17.3199
  66   2.0000      -0.615897       -16.7594
  67   2.0000      -0.594494       -16.1770
  68   2.0000      -0.592305       -16.1174
  69   2.0000      -0.587701       -15.9922
  70   2.0000      -0.558726       -15.2037
  71   2.0000      -0.556865       -15.1531
  72   2.0000      -0.540788       -14.7156
  73   2.0000      -0.533119       -14.5069
  74   2.0000      -0.525407       -14.2971
  75   2.0000      -0.508581       -13.8392
  76   2.0000      -0.499241       -13.5850
  77   2.0000      -0.491730       -13.3806
  78   2.0000      -0.485985       -13.2243
  79   2.0000      -0.478514       -13.0210
  80   2.0000      -0.473359       -12.8808
  81   2.0000      -0.470322       -12.7981
  82   2.0000      -0.461512       -12.5584
  83   2.0000      -0.455706       -12.4004
  84   2.0000      -0.452048       -12.3008
  85   2.0000      -0.449254       -12.2248
  86   2.0000      -0.448894       -12.2150
  87   2.0000      -0.446363       -12.1462
  88   2.0000      -0.443013       -12.0550
  89   2.0000      -0.438653       -11.9363
  90   2.0000      -0.435321       -11.8457
  91   2.0000      -0.430661       -11.7189
  92   2.0000      -0.424967       -11.5639
  93   2.0000      -0.419813       -11.4237
  94   2.0000      -0.418042       -11.3755
  95   2.0000      -0.412344       -11.2204
  96   2.0000      -0.411554       -11.1989
  97   2.0000      -0.405774       -11.0417
  98   2.0000      -0.402143       -10.9429
  99   2.0000      -0.397323       -10.8117
 100   2.0000      -0.392718       -10.6864
 101   2.0000      -0.390310       -10.6209
 102   2.0000      -0.386084       -10.5059
 103   2.0000      -0.385265       -10.4836
 104   2.0000      -0.380464       -10.3529
 105   2.0000      -0.371136       -10.0991
 106   2.0000      -0.368792       -10.0353
 107   2.0000      -0.366401        -9.9703
 108   2.0000      -0.360071        -9.7980
 109   2.0000      -0.350497        -9.5375
 110   2.0000      -0.348956        -9.4956
 111   2.0000      -0.339676        -9.2431
 112   2.0000      -0.336459        -9.1555
 113   2.0000      -0.325994        -8.8708
 114   2.0000      -0.321102        -8.7376
 115   2.0000      -0.319445        -8.6925
 116   2.0000      -0.310612        -8.4522
 117   2.0000      -0.309003        -8.4084
 118   2.0000      -0.308333        -8.3902
 119   2.0000      -0.303149        -8.2491
 120   2.0000      -0.293472        -7.9858
 121   2.0000      -0.286772        -7.8035
 122   2.0000      -0.282652        -7.6913
 123   2.0000      -0.277520        -7.5517
 124   2.0000      -0.275166        -7.4876
 125   2.0000      -0.269400        -7.3308
 126   2.0000      -0.260872        -7.0987
 127   2.0000      -0.247507        -6.7350
 128   2.0000      -0.242814        -6.6073
 129   2.0000      -0.231099        -6.2885
 130   2.0000      -0.223703        -6.0873
 131   2.0000      -0.218658        -5.9500
 132   0.0000      -0.083721        -2.2782
 133   0.0000      -0.056784        -1.5452
 134   0.0000      -0.032326        -0.8796
 135   0.0000      -0.027067        -0.7365
 136   0.0000      -0.003554        -0.0967

MULLIKEN ATOMIC CHARGES
-----------------------
   0 C :   -0.547253
   1 C :    0.095590
   2 C :    0.339767
   3 N :   -0.611465
   4 C :   -0.228913
   5 C :    0.140076
   6 C :   -0.178376
   7 C :   -0.186664
   8 C :    0.135045
   9 C :    0.126715
  10 C :   -0.212941
  11 C :   -0.370027
  12 C :    0.136902
  13 C :   -0.454891
  14 C :   -0.453219
  15 C :   -0.370753
  16 S :    1.202540
  17 O :   -0.537497
  18 O :   -0.542182
  19 C :   -0.120840
  20 C :   -0.147342
  21 C :   -0.148802
  22 C :    0.081847
  23 C :    0.528080
  24 O :   -0.444863
  25 O :   -0.623522
  26 C :   -0.138576
  27 C :   -0.150574
  28 N :   -0.360072
  29 C :   -0.046922
  30 C :    0.136975
  31 C :   -0.202026
  32 C :   -0.127702
  33 C :   -0.121411
  34 C :   -0.200921
  35 C :    0.125144
  36 H :    0.166810
  37 H :    0.161431
  38 H :    0.164351
  39 H :    0.175408
  40 H :    0.145693
  41 H :    0.114281
  42 H :    0.117773
  43 H :    0.155597
  44 H :    0.147457
  45 H :    0.157675
  46 H :    0.139197
  47 H :    0.139054
  48 H :    0.135447
  49 H :    0.138912
  50 H :    0.136522
  51 H :    0.139393
  52 H :    0.146462
  53 H :    0.144565
  54 H :    0.182792
  55 H :    0.172286
  56 H :    0.434211
  57 H :    0.181216
  58 H :    0.186279
  59 H :    0.152879
  60 H :    0.139620
  61 H :    0.134506
  62 H :    0.135134
  63 H :    0.134126
Sum of atomic charges:   -0.0000000

LOEWDIN ATOMIC CHARGES
----------------------
   0 C :   -0.361304
   1 C :   -0.017845
   2 C :    0.041004
   3 N :   -0.283297
   4 C :   -0.146520
   5 C :   -0.038186
   6 C :   -0.137424
   7 C :   -0.135413
   8 C :   -0.024213
   9 C :   -0.022462
  10 C :   -0.114397
  11 C :   -0.216108
  12 C :   -0.026446
  13 C :   -0.346789
  14 C :   -0.346035
  15 C :   -0.216517
  16 S :    1.263137
  17 O :   -0.565543
  18 O :   -0.574276
  19 C :   -0.174455
  20 C :   -0.105529
  21 C :   -0.100142
  22 C :   -0.040196
  23 C :    0.179765
  24 O :   -0.261270
  25 O :   -0.334541
  26 C :   -0.085224
  27 C :   -0.107840
  28 N :   -0.105873
  29 C :   -0.054544
  30 C :   -0.027426
  31 C :   -0.110741
  32 C :   -0.128046
  33 C :   -0.119331
  34 C :   -0.126820
  35 C :   -0.006099
  36 H :    0.137545
  37 H :    0.135646
  38 H :    0.136736
  39 H :    0.143984
  40 H :    0.117727
  41 H :    0.124502
  42 H :    0.127962
  43 H :    0.145021
  44 H :    0.129954
  45 H :    0.134752
  46 H :    0.120910
  47 H :    0.120407
  48 H :    0.118900
  49 H :    0.120468
  50 H :    0.119217
  51 H :    0.120933
  52 H :    0.129172
  53 H :    0.128206
  54 H :    0.158202
  55 H :    0.154388
  56 H :    0.349892
  57 H :    0.160574
  58 H :    0.160447
  59 H :    0.137806
  60 H :    0.137390
  61 H :    0.134682
  62 H :    0.135258
  63 H :    0.136265

  Mayer bond orders larger than 0.100000
B(  0-C ,  1-C ) :   0.9974 B(  0-C , 36-H ) :   0.9278 B(  0-C , 37-H ) :   0.9299
B(  0-C , 38-H ) :   0.9246 B(  1-C ,  2-C ) :   1.4369 B(  1-C , 29-C ) :   0.1009
B(  1-C , 35-C ) :   1.2661 B(  2-C ,  3-N ) :   0.8925 B(  2-C , 28-N ) :   1.2884
B(  3-N ,  4-C ) :   0.9090 B(  3-N , 16-S ) :   0.8113 B(  4-C ,  5-C ) :   0.9758
B(  4-C , 39-H ) :   0.9140 B(  4-C , 40-H ) :   0.9209 B(  5-C ,  6-C ) :   1.4116
B(  5-C , 10-C ) :   1.4174 B(  6-C ,  7-C ) :   1.4286 B(  6-C , 41-H ) :   0.9242
B(  7-C ,  8-C ) :   1.4018 B(  7-C , 42-H ) :   0.9270 B(  8-C ,  9-C ) :   1.4984
B(  8-C , 15-C ) :   0.9682 B(  9-C , 10-C ) :   1.3822 B(  9-C , 11-C ) :   0.9679
B( 10-C , 43-H ) :   0.9121 B( 11-C , 12-C ) :   0.9679 B( 11-C , 44-H ) :   0.9264
B( 11-C , 45-H ) :   0.9234 B( 12-C , 13-C ) :   0.9987 B( 12-C , 14-C ) :   1.0010
B( 12-C , 15-C ) :   0.9694 B( 13-C , 46-H ) :   0.9467 B( 13-C , 47-H ) :   0.9460
B( 13-C , 48-H ) :   0.9469 B( 14-C , 49-H ) :   0.9462 B( 14-C , 50-H ) :   0.9463
B( 14-C , 51-H ) :   0.9461 B( 15-C , 52-H ) :   0.9251 B( 15-C , 53-H ) :   0.9266
B( 16-S , 17-O ) :   1.6374 B( 16-S , 18-O ) :   1.6366 B( 16-S , 19-C ) :   0.8099
B( 19-C , 20-C ) :   1.3904 B( 19-C , 27-C ) :   1.3850 B( 20-C , 21-C ) :   1.4202
B( 20-C , 54-H ) :   0.9102 B( 21-C , 22-C ) :   1.3804 B( 21-C , 55-H ) :   0.9150
B( 22-C , 23-C ) :   1.0086 B( 22-C , 26-C ) :   1.4039 B( 23-C , 24-O ) :   1.8622
B( 23-C , 25-O ) :   1.0252 B( 25-O , 56-H ) :   0.7418 B( 26-C , 27-C ) :   1.4158
B( 26-C , 57-H ) :   0.9096 B( 27-C , 58-H ) :   0.9083 B( 28-N , 29-C ) :   1.4995
B( 29-C , 30-C ) :   1.2316 B( 29-C , 59-H ) :   0.9266 B( 30-C , 31-C ) :   1.2848
B( 30-C , 35-C ) :   1.2913 B( 31-C , 32-C ) :   1.5118 B( 31-C , 34-C ) :   0.1059
B( 31-C , 60-H ) :   0.9231 B( 32-C , 33-C ) :   1.3537 B( 32-C , 61-H ) :   0.9295
B( 33-C , 34-C ) :   1.5096 B( 33-C , 62-H ) :   0.9295 B( 34-C , 35-C ) :   1.2924
B( 34-C , 63-H ) :   0.9177

FINAL SINGLE POINT ENERGY     -1929.447158067244

DIPOLE MOMENT
-------------

Method             : SCF
Type of density    : Electron Density
Multiplicity       :   1
Irrep              :   0
Energy             : -1929.4471580672438904 Eh
Relativity type    :
Basis              : AO
                                X                 Y                 Z
Electronic contribution:    -43.873912758     -10.412556295      -3.721976326
Nuclear contribution   :     43.609103087      11.973972837       5.994531687
                        -----------------------------------------
Total Dipole Moment    :     -0.264809671       1.561416542       2.272555360
                        -----------------------------------------
Magnitude (a.u.)       :      2.769955531
Magnitude (Debye)      :      7.040667429

Rotational constants in cm-1:             0.004614             0.002027             0.001611
Rotational constants in MHz :           138.330306            60.766274            48.303194

                             ****ORCA TERMINATED NORMALLY****
TOTAL RUN TIME: 0 days 0 hours 13 minutes 29 seconds 474 msec
