                         Program Version 6.0.0  -   RELEASE  -
|  1> ! B3LYP 6-31G* SP
|  2>
|  3> * xyz 0 1
|  4> O 1.4201 1.4980 -0.0481
|  5> C 1.6183 0.3538 0.4466
|  6> N 2.8274 0.1035 1.1898
|  7> C 3.9679 0.9795 1.1725
|  8> C 4.3479 1.6764 0.0127
|  9> C 5.4771 2.4975 0.0291
| 10> C 6.2279 2.6052 1.2007
| 11> N 5.8628 1.9082 2.3090
| 12> C 4.7671 1.1022 2.3184
| 13> N 0.6198 -0.6783 0.2674
| 14> C 0.6506 -1.8801 1.1266
| 15> C -0.6361 -2.7113 1.0549
| 16> C -1.0780 -2.8930 -0.3620
| 17> C -1.6779 -4.0854 -0.7891
| 18> C -2.1245 -4.2056 -2.1060
| 19> C -1.9801 -3.1249 -2.9774
| 20> N -1.4122 -1.9696 -2.5405
| 21> C -0.9588 -1.8276 -1.2634
| 22> C -0.3707 -0.5119 -0.8220
| 23> C -1.4769 0.4570 -0.4447
| 24> C -1.8668 0.6612 0.8920
| 25> C -2.9105 1.5376 1.2016
| 26> C -3.5785 2.2395 0.1847
| 27> C -4.7361 3.1490 0.5114
| 28> F -5.9139 2.4277 0.4453
| 29> F -4.7980 4.1984 -0.3899
| 30> F -4.6024 3.6787 1.7840
| 31> C -3.2119 2.0126 -1.1517
| 32> C -2.1689 1.1360 -1.4617
| 33> H 2.8735 -0.7159 1.8339
| 34> H 3.7914 1.5688 -0.9089
| 35> H 5.7729 3.0382 -0.8607
| 36> H 7.1062 3.2364 1.2267
| 37> H 4.5121 0.5634 3.2218
| 38> H 0.7847 -1.5767 2.1875
| 39> H 1.5128 -2.5155 0.8284
| 40> H -0.4515 -3.6963 1.5368
| 41> H -1.4479 -2.2070 1.6195
| 42> H -1.8011 -4.9165 -0.1059
| 43> H -2.5839 -5.1247 -2.4462
| 44> H -2.3259 -3.2015 -3.9995
| 45> H 0.1678 -0.1016 -1.7069
| 46> H -1.3646 0.1538 1.7029
| 47> H -3.1948 1.6658 2.2384
| 48> H -3.7337 2.5130 -1.9584
| 49> H -1.9026 0.9822 -2.5004
| 50> *
| 51>
| 52>                          ****END OF INPUT****

CARTESIAN COORDINATES (ANGSTROEM)
---------------------------------
  O      1.420100    1.498000   -0.048100
  C      1.618300    0.353800    0.446600
  N      2.827400    0.103500    1.189800
  C      3.967900    0.979500    1.172500
  C      4.347900    1.676400    0.012700
  C      5.477100    2.497500    0.029100
  C      6.227900    2.605200    1.200700
  N      5.862800    1.908200    2.309000
  C      4.767100    1.102200    2.318400
  N      0.619800   -0.678300    0.267400
  C      0.650600   -1.880100    1.126600
  C     -0.636100   -2.711300    1.054900
  C     -1.078000   -2.893000   -0.362000
  C     -1.677900   -4.085400   -0.789100
  C     -2.124500   -4.205600   -2.106000
  C     -1.980100   -3.124900   -2.977400
  N     -1.412200   -1.969600   -2.540500
  C     -0.958800   -1.827600   -1.263400
  C     -0.370700   -0.511900   -0.822000
  C     -1.476900    0.457000   -0.444700
  C     -1.866800    0.661200    0.892000
  C     -2.910500    1.537600    1.201600
  C     -3.578500    2.239500    0.184700
  C     -4.736100    3.149000    0.511400
  F     -5.913900    2.427700    0.445300
  F     -4.798000    4.198400   -0.389900
  F     -4.602400    3.678700    1.784000
  C     -3.211900    2.012600   -1.151700
  C     -2.168900    1.136000   -1.461700
  H      2.873500   -0.715900    1.833900
  H      3.791400    1.568800   -0.908900
  H      5.772900    3.038200   -0.860700
  H      7.106200    3.236400    1.226700
  H      4.512100    0.563400    3.221800
  H      0.784700   -1.576700    2.187500
  H      1.512800   -2.515500    0.828400
  H     -0.451500   -3.696300    1.536800
  H     -1.447900   -2.207000    1.619500
  H     -1.801100   -4.916500   -0.105900
  H     -2.583900   -5.124700   -2.446200
  H     -2.325900   -3.201500   -3.999500
  H      0.167800   -0.101600   -1.706900
  H     -1.364600    0.153800    1.702900
  H     -3.194800    1.665800    2.238400
  H     -3.733700    2.513000   -1.958400
  H     -1.902600    0.982200   -2.500400

 Total Charge           Charge          ....    0
 Multiplicity           Mult            ....    1
 Number of Electrons    NEL             ....  206
 Basis Dimension        Dim             ....  440

ORBITAL ENERGIES
----------------

  NO   OCC          E(Eh)            E(eV)
   0   2.0000     -24.710322      -672.4021
   1   2.0000     -24.709333      -672.3751
   2   2.0000     -24.706630      -672.3016
   3   2.0000     -19.110626      -520.0266
   4   2.0000     -14.377271      -391.2254
   5   2.0000     -14.368904      -390.9978
   6   2.0000     -14.336836      -390.1252
   7   2.0000     -14.322980      -389.7481
   8   2.0000     -10.424620      -283.6683
   9   2.0000     -10.326036      -280.9857
  10   2.0000     -10.244477      -278.7664
  11   2.0000     -10.242312      -278.7075
  12   2.0000     -10.240037      -278.6456
  13   2.0000     -10.238803      -278.6120
  14   2.0000     -10.228605      -278.3345
  15   2.0000     -10.218335      -278.0550
  16   2.0000     -10.213233      -277.9162
  17   2.0000     -10.211265      -277.8627
  18   2.0000     -10.210635      -277.8455
  19   2.0000     -10.210239      -277.8347
  20   2.0000     -10.202166      -277.6150
  21   2.0000     -10.201382      -277.5937
  22   2.0000     -10.200996      -277.5832
  23   2.0000     -10.193660      -277.3836
  24   2.0000     -10.193494      -277.3791
  25   2.0000     -10.192104      -277.3412
  26   2.0000     -10.189457      -277.2692
  27   2.0000     -10.187332      -277.2114
  28   2.0000     -10.185400      -277.1588
  29   2.0000      -1.269507       -34.5450
  30   2.0000      -1.195151       -32.5217
  31   2.0000      -1.194139       -32.4942
  32   2.0000      -1.027211       -27.9518
  33   2.0000      -0.950665       -25.8689
  34   2.0000      -0.934151       -25.4195
  35   2.0000      -0.926581       -25.2136
  36   2.0000      -0.906188       -24.6586
  37   2.0000      -0.862604       -23.4726
  38   2.0000      -0.829403       -22.5692
  39   2.0000      -0.806207       -21.9380
  40   2.0000      -0.786601       -21.4045
  41   2.0000      -0.784698       -21.3527
  42   2.0000      -0.759856       -20.6767
  43   2.0000      -0.753741       -20.5103
  44   2.0000      -0.749853       -20.4045
  45   2.0000      -0.708219       -19.2716
  46   2.0000      -0.673830       -18.3358
  47   2.0000      -0.665258       -18.1026
  48   2.0000      -0.638854       -17.3841
  49   2.0000      -0.632149       -17.2016
  50   2.0000      -0.629292       -17.1239
  51   2.0000      -0.614838       -16.7306
  52   2.0000      -0.605228       -16.4691
  53   2.0000      -0.593242       -16.1429
  54   2.0000      -0.563678       -15.3385
  55   2.0000      -0.560632       -15.2556
  56   2.0000      -0.557176       -15.1615
  57   2.0000      -0.551371       -15.0036
  58   2.0000      -0.547970       -14.9110
  59   2.0000      -0.528813       -14.3897
  60   2.0000      -0.520332       -14.1589
  61   2.0000      -0.509388       -13.8612
  62   2.0000      -0.498685       -13.5699
  63   2.0000      -0.488939       -13.3047
  64   2.0000      -0.481536       -13.1033
  65   2.0000      -0.472990       -12.8707
  66   2.0000      -0.470315       -12.7979
  67   2.0000      -0.455887       -12.4053
  68   2.0000      -0.449456       -12.2303
  69   2.0000      -0.441693       -12.0191
  70   2.0000      -0.439009       -11.9460
  71   2.0000      -0.438652       -11.9363
  72   2.0000      -0.434481       -11.8228
  73   2.0000      -0.427083       -11.6215
  74   2.0000      -0.426124       -11.5954
  75   2.0000      -0.423639       -11.5278
  76   2.0000      -0.419555       -11.4167
  77   2.0000      -0.412152       -11.2152
  78   2.0000      -0.410748       -11.1770
  79   2.0000      -0.403389       -10.9768
  80   2.0000      -0.400519       -10.8987
  81   2.0000      -0.399883       -10.8814
  82   2.0000      -0.394317       -10.7299
  83   2.0000      -0.388682       -10.5766
  84   2.0000      -0.386243       -10.5102
  85   2.0000      -0.378919       -10.3109
  86   2.0000      -0.376756       -10.2521
  87   2.0000      -0.374399       -10.1879
  88   2.0000      -0.364078        -9.9071
  89   2.0000      -0.353964        -9.6318
  90   2.0000      -0.349102        -9.4995
  91   2.0000      -0.347821        -9.4647
  92   2.0000      -0.309146        -8.4123
  93   2.0000      -0.287665        -7.8278
  94   2.0000      -0.271890        -7.3985
  95   2.0000      -0.267404        -7.2764
  96   2.0000      -0.261737        -7.1222
  97   2.0000      -0.256718        -6.9857
  98   2.0000      -0.253359        -6.8942
  99   2.0000      -0.244762        -6.6603
 100   2.0000      -0.242100        -6.5879
 101   2.0000      -0.240991        -6.5577
 102   2.0000      -0.225801        -6.1443
 103   0.0000      -0.041184        -1.1207
 104   0.0000      -0.026958        -0.7336
 105   0.0000      -0.019960        -0.5431
 106   0.0000      -0.012683        -0.3451
 107   0.0000      -0.008637        -0.2350

MULLIKEN ATOMIC CHARGES
-----------------------
   0 O :   -0.485184
   1 C :    0.705193
   2 N :   -0.735139
   3 C :    0.320851
   4 C :   -0.097124
   5 C :   -0.148164
   6 C :    0.017461
   7 N :   -0.372215
   8 C :   -0.033003
   9 N :   -0.469498
  10 C :   -0.138113
  11 C :   -0.375273
  12 C :    0.133086
  13 C :   -0.149008
  14 C :   -0.135176
  15 C :    0.015681
  16 N :   -0.414688
  17 C :    0.216653
  18 C :   -0.099531
  19 C :    0.195295
  20 C :   -0.168603
  21 C :   -0.161358
  22 C :   -0.012806
  23 C :    0.892212
  24 F :   -0.299400
  25 F :   -0.306168
  26 F :   -0.307276
  27 C :   -0.160884
  28 C :   -0.162284
  29 H :    0.331534
  30 H :    0.162732
  31 H :    0.137173
  32 H :    0.145970
  33 H :    0.138086
  34 H :    0.145243
  35 H :    0.150425
  36 H :    0.156400
  37 H :    0.174961
  38 H :    0.138611
  39 H :    0.137689
  40 H :    0.153780
  41 H :    0.187698
  42 H :    0.125411
  43 H :    0.146770
  44 H :    0.150183
  45 H :    0.151797
Sum of atomic charges:   -0.0000000

LOEWDIN ATOMIC CHARGES
----------------------
   0 O :   -0.299095
   1 C :    0.172252
   2 N :   -0.229570
   3 C :    0.025302
   4 C :   -0.102989
   5 C :   -0.139655
   6 C :   -0.080482
   7 N :   -0.132077
   8 C :   -0.093917
   9 N :   -0.122592
  10 C :   -0.153913
  11 C :   -0.228063
  12 C :   -0.035238
  13 C :   -0.105961
  14 C :   -0.142021
  15 C :   -0.066509
  16 N :   -0.134379
  17 C :    0.028917
  18 C :   -0.038604
  19 C :    0.005814
  20 C :   -0.130762
  21 C :   -0.112710
  22 C :   -0.073167
  23 C :    0.309922
  24 F :   -0.116670
  25 F :   -0.114899
  26 F :   -0.115292
  27 C :   -0.108896
  28 C :   -0.118451
  29 H :    0.255182
  30 H :    0.150790
  31 H :    0.137573
  32 H :    0.133377
  33 H :    0.129322
  34 H :    0.120524
  35 H :    0.118190
  36 H :    0.137527
  37 H :    0.141756
  38 H :    0.136598
  39 H :    0.137465
  40 H :    0.137548
  41 H :    0.158962
  42 H :    0.131327
  43 H :    0.140981
  44 H :    0.142589
  45 H :    0.143991

  Mayer bond orders larger than 0.100000
B(  0-O ,  1-C ) :   1.7798 B(  1-C ,  2-N ) :   1.0003 B(  1-C ,  9-N ) :   1.0384
B(  2-N ,  3-C ) :   0.8673 B(  2-N , 29-H ) :   0.8159 B(  3-C ,  4-C ) :   1.4183
B(  3-C ,  8-C ) :   1.3604 B(  4-C ,  5-C ) :   1.4537 B(  4-C , 30-H ) :   0.9109
B(  5-C ,  6-C ) :   1.4112 B(  5-C , 31-H ) :   0.9239 B(  6-C ,  7-N ) :   1.4293
B(  6-C , 32-H ) :   0.9319 B(  7-N ,  8-C ) :   1.4384 B(  8-C , 33-H ) :   0.9299
B(  9-N , 10-C ) :   0.9393 B(  9-N , 18-C ) :   0.9190 B( 10-C , 11-C ) :   0.9989
B( 10-C , 34-H ) :   0.9233 B( 10-C , 35-H ) :   0.9198 B( 11-C , 12-C ) :   0.9841
B( 11-C , 36-H ) :   0.9300 B( 11-C , 37-H ) :   0.9116 B( 12-C , 13-C ) :   1.4282
B( 12-C , 17-C ) :   1.4030 B( 13-C , 14-C ) :   1.4472 B( 13-C , 38-H ) :   0.9233
B( 14-C , 15-C ) :   1.4162 B( 14-C , 39-H ) :   0.9243 B( 15-C , 16-N ) :   1.4294
B( 15-C , 40-H ) :   0.9292 B( 16-N , 17-C ) :   1.3653 B( 17-C , 18-C ) :   0.9535
B( 18-C , 19-C ) :   0.9398 B( 18-C , 41-H ) :   0.9016 B( 19-C , 20-C ) :   1.4245
B( 19-C , 28-C ) :   1.4166 B( 20-C , 21-C ) :   1.4252 B( 20-C , 42-H ) :   0.9177
B( 21-C , 22-C ) :   1.4149 B( 21-C , 43-H ) :   0.9206 B( 22-C , 23-C ) :   0.9812
B( 22-C , 27-C ) :   1.4062 B( 23-C , 24-F ) :   0.9831 B( 23-C , 25-F ) :   0.9487
B( 23-C , 26-F ) :   0.9458 B( 27-C , 28-C ) :   1.4265 B( 27-C , 44-H ) :   0.9207
B( 28-C , 45-H ) :   0.9168

FINAL SINGLE POINT ENERGY     -1403.430741024156

DIPOLE MOMENT
-------------

Method             : SCF
Type of density    : Electron Density
Multiplicity       :   1
Irrep              :   0
Energy             : -1403.4307410241563048 Eh
Relativity type    :
Basis              : AO
                                X                 Y                 Z
Electronic contribution:    -26.981290326      22.687201990       1.132635928
Nuclear contribution   :     27.142880617     -25.536304658      -1.184582110
                        -----------------------------------------
Total Dipole Moment    :      0.161590291      -2.849102667      -0.051946183
                        -----------------------------------------
Magnitude (a.u.)       :      2.854154137
Magnitude (Debye)      :      7.254683277

Rotational constants in cm-1:             0.006000             0.003188             0.002331
Rotational constants in MHz :           179.868337            95.559402            69.872196

                             ****ORCA TERMINATED NORMALLY****
TOTAL RUN TIME: 0 days 0 hours 5 minutes 8 seconds 652 msec
