                         Program Version 6.0.0  -   RELEASE  -
|  1> ! B3LYP 6-31G* SP
|  2>
|  3> * xyz 0 1
|  4> C -0.5152 -2.2070 -2.4360
|  5> C -1.3441 -1.3707 -1.4852
|  6> C -0.7180 -0.5644 -0.5097
|  7> N 0.7076 -0.4662 -0.4268
|  8> C 1.4448 0.3716 -1.3755
|  9> C 1.6594 1.7479 -0.8055
| 10> C 0.5853 2.6446 -0.7032
| 11> C 0.7736 3.9093 -0.1395
| 12> C 2.0345 4.3027 0.3243
| 13> O 2.1658 5.5849 0.8824
| 14> C 3.3813 6.1497 1.3707
| 15> F 3.8712 5.3936 2.4207
| 16> F 3.1297 7.4299 1.8251
| 17> F 4.3197 6.2127 0.3556
| 18> C 3.1147 3.4046 0.2168
| 19> C 2.9255 2.1378 -0.3428
| 20> S 1.5268 -1.1924 0.9199
| 21> O 2.2770 -0.1436 1.6919
| 22> O 0.5275 -1.8314 1.8441
| 23> C 2.6294 -2.4267 0.3252
| 24> C 2.1517 -3.7105 0.0380
| 25> C 3.0205 -4.6941 -0.4427
| 26> C 4.3811 -4.4035 -0.6503
| 27> C 5.3064 -5.4425 -1.1531
| 28> O 4.8841 -6.6010 -1.4152
| 29> O 6.6552 -5.1505 -1.3396
| 30> C 4.8506 -3.1078 -0.3731
| 31> C 3.9795 -2.1263 0.1088
| 32> N -1.4659 0.1437 0.3721
| 33> C -2.8207 0.1397 0.3611
| 34> N -3.5173 0.9591 1.3072
| 35> C -4.0683 2.2549 0.9493
| 36> C -4.2128 3.0170 2.2615
| 37> C -4.0757 1.9745 3.3689
| 38> C -3.3533 0.7921 2.7384
| 39> C -3.5088 -0.6363 -0.5911
| 40> C -4.9160 -0.6973 -0.6062
| 41> C -5.5806 -1.4634 -1.5628
| 42> C -4.8566 -2.1827 -2.5101
| 43> C -3.4614 -2.1525 -2.5006
| 44> C -2.7624 -1.3915 -1.5363
| 45> H 0.5652 -2.1993 -2.1898
| 46> H -0.6367 -1.8259 -3.4713
| 47> H -0.8408 -3.2671 -2.3892
| 48> H 2.4150 -0.1119 -1.6205
| 49> H 0.8828 0.4561 -2.3318
| 50> H -0.3985 2.3636 -1.0558
| 51> H -0.0659 4.5890 -0.0614
| 52> H 4.1022 3.6704 0.5653
| 53> H 3.7664 1.4579 -0.4069
| 54> H 1.1060 -3.9501 0.1839
| 55> H 2.6272 -5.6810 -0.6513
| 56> H 7.2981 -5.8553 -1.6810
| 57> H 5.8906 -2.8508 -0.5284
| 58> H 4.3589 -1.1331 0.3106
| 59> H -3.3815 2.7938 0.2599
| 60> H -5.0584 2.1257 0.4636
| 61> H -3.3930 3.7639 2.3521
| 62> H -5.1924 3.5404 2.3206
| 63> H -5.0878 1.6557 3.7047
| 64> H -3.5114 2.3780 4.2377
| 65> H -2.2721 0.8147 3.0012
| 66> H -3.8047 -0.1696 3.0672
| 67> H -5.5103 -0.1689 0.1270
| 68> H -6.6621 -1.5017 -1.5680
| 69> H -5.3791 -2.7732 -3.2521
| 70> H -2.9435 -2.7293 -3.2544
| 71> *
| 72>
| 73>                          ****END OF INPUT****

CARTESIAN COORDINATES (ANGSTROEM)
---------------------------------
  C     -0.515200   -2.207000   -2.436000
  C     -1.344100   -1.370700   -1.485200
  C     -0.718000   -0.564400   -0.509700
  N      0.707600   -0.466200   -0.426800
  C      1.444800    0.371600   -1.375500
  C      1.659400    1.747900   -0.805500
  C      0.585300    2.644600   -0.703200
  C      0.773600    3.909300   -0.139500
  C      2.034500    4.302700    0.324300
  O      2.165800    5.584900    0.882400
  C      3.381300    6.149700    1.370700
  F      3.871200    5.393600    2.420700
  F      3.129700    7.429900    1.825100
  F      4.319700    6.212700    0.355600
  C      3.114700    3.404600    0.216800
  C      2.925500    2.137800   -0.342800
  S      1.526800   -1.192400    0.919900
  O      2.277000   -0.143600    1.691900
  O      0.527500   -1.831400    1.844100
  C      2.629400   -2.426700    0.325200
  C      2.151700   -3.710500    0.038000
  C      3.020500   -4.694100   -0.442700
  C      4.381100   -4.403500   -0.650300
  C      5.306400   -5.442500   -1.153100
  O      4.884100   -6.601000   -1.415200
  O      6.655200   -5.150500   -1.339600
  C      4.850600   -3.107800   -0.373100
  C      3.979500   -2.126300    0.108800
  N     -1.465900    0.143700    0.372100
  C     -2.820700    0.139700    0.361100
  N     -3.517300    0.959100    1.307200
  C     -4.068300    2.254900    0.949300
  C     -4.212800    3.017000    2.261500
  C     -4.075700    1.974500    3.368900
  C     -3.353300    0.792100    2.738400
  C     -3.508800   -0.636300   -0.591100
  C     -4.916000   -0.697300   -0.606200
  C     -5.580600   -1.463400   -1.562800
  C     -4.856600   -2.182700   -2.510100
  C     -3.461400   -2.152500   -2.500600
  C     -2.762400   -1.391500   -1.536300
  H      0.565200   -2.199300   -2.189800
  H     -0.636700   -1.825900   -3.471300
  H     -0.840800   -3.267100   -2.389200
  H      2.415000   -0.111900   -1.620500
  H      0.882800    0.456100   -2.331800
  H     -0.398500    2.363600   -1.055800
  H     -0.065900    4.589000   -0.061400
  H      4.102200    3.670400    0.565300
  H      3.766400    1.457900   -0.406900
  H      1.106000   -3.950100    0.183900
  H      2.627200   -5.681000   -0.651300
  H      7.298100   -5.855300   -1.681000
  H      5.890600   -2.850800   -0.528400
  H      4.358900   -1.133100    0.310600
  H     -3.381500    2.793800    0.259900
  H     -5.058400    2.125700    0.463600
  H     -3.393000    3.763900    2.352100
  H     -5.192400    3.540400    2.320600
  H     -5.087800    1.655700    3.704700
  H     -3.511400    2.378000    4.237700
  H     -2.272100    0.814700    3.001200
  H     -3.804700   -0.169600    3.067200
  H     -5.510300   -0.168900    0.127000
  H     -6.662100   -1.501700   -1.568000
  H     -5.379100   -2.773200   -3.252100
  H     -2.943500   -2.729300   -3.254400

 Total Charge           Charge          ....    0
 Multiplicity           Mult            ....    1
 Number of Electrons    NEL             ....  304
 Basis Dimension        Dim             ....  630

ORBITAL ENERGIES
----------------

  NO   OCC          E(Eh)            E(eV)
   0   2.0000     -89.094777     -2424.3921
   1   2.0000     -24.734161      -673.0507
   2   2.0000     -24.731800      -672.9865
   3   2.0000     -24.730420      -672.9490
   4   2.0000     -19.203787      -522.5616
   5   2.0000     -19.198698      -522.4231
   6   2.0000     -19.140629      -520.8430
   7   2.0000     -19.121729      -520.3287
   8   2.0000     -19.120023      -520.2823
   9   2.0000     -14.367811      -390.9680
  10   2.0000     -14.320625      -389.6840
  11   2.0000     -14.311523      -389.4363
  12   2.0000     -10.496114      -285.6138
  13   2.0000     -10.338024      -281.3119
  14   2.0000     -10.258112      -279.1374
  15   2.0000     -10.256569      -279.0954
  16   2.0000     -10.251014      -278.9443
  17   2.0000     -10.244099      -278.7561
  18   2.0000     -10.236892      -278.5600
  19   2.0000     -10.234808      -278.5033
  20   2.0000     -10.223126      -278.1854
  21   2.0000     -10.222692      -278.1736
  22   2.0000     -10.220426      -278.1119
  23   2.0000     -10.220211      -278.1061
  24   2.0000     -10.205629      -277.7093
  25   2.0000     -10.204251      -277.6718
  26   2.0000     -10.201180      -277.5882
  27   2.0000     -10.196585      -277.4632
  28   2.0000     -10.194536      -277.4074
  29   2.0000     -10.193134      -277.3693
  30   2.0000     -10.191210      -277.3169
  31   2.0000     -10.190534      -277.2985
  32   2.0000     -10.190241      -277.2905
  33   2.0000     -10.189252      -277.2636
  34   2.0000     -10.187601      -277.2187
  35   2.0000     -10.186590      -277.1912
  36   2.0000     -10.186524      -277.1894
  37   2.0000     -10.185660      -277.1659
  38   2.0000     -10.185033      -277.1488
  39   2.0000     -10.174579      -276.8644
  40   2.0000     -10.171662      -276.7850
  41   2.0000      -8.130304      -221.2368
  42   2.0000      -6.095357      -165.8631
  43   2.0000      -6.093281      -165.8066
  44   2.0000      -6.093046      -165.8002
  45   2.0000      -1.296421       -35.2774
  46   2.0000      -1.217495       -33.1297
  47   2.0000      -1.216533       -33.1036
  48   2.0000      -1.083411       -29.4811
  49   2.0000      -1.079360       -29.3709
  50   2.0000      -1.073429       -29.2095
  51   2.0000      -0.997722       -27.1494
  52   2.0000      -0.964370       -26.2418
  53   2.0000      -0.957141       -26.0451
  54   2.0000      -0.934666       -25.4335
  55   2.0000      -0.897032       -24.4095
  56   2.0000      -0.892508       -24.2864
  57   2.0000      -0.861014       -23.4294
  58   2.0000      -0.853409       -23.2225
  59   2.0000      -0.810588       -22.0572
  60   2.0000      -0.806474       -21.9453
  61   2.0000      -0.783432       -21.3183
  62   2.0000      -0.779543       -21.2125
  63   2.0000      -0.774133       -21.0652
  64   2.0000      -0.755380       -20.5549
  65   2.0000      -0.748224       -20.3602
  66   2.0000      -0.740413       -20.1477
  67   2.0000      -0.724648       -19.7187
  68   2.0000      -0.721480       -19.6325
  69   2.0000      -0.711360       -19.3571
  70   2.0000      -0.688492       -18.7348
  71   2.0000      -0.673352       -18.3228
  72   2.0000      -0.653992       -17.7960
  73   2.0000      -0.642757       -17.4903
  74   2.0000      -0.640023       -17.4159
  75   2.0000      -0.625025       -17.0078
  76   2.0000      -0.620249       -16.8778
  77   2.0000      -0.612033       -16.6543
  78   2.0000      -0.604424       -16.4472
  79   2.0000      -0.593127       -16.1398
  80   2.0000      -0.588404       -16.0113
  81   2.0000      -0.584200       -15.8969
  82   2.0000      -0.572716       -15.5844
  83   2.0000      -0.566197       -15.4070
  84   2.0000      -0.563807       -15.3420
  85   2.0000      -0.554120       -15.0784
  86   2.0000      -0.541374       -14.7315
  87   2.0000      -0.531071       -14.4512
  88   2.0000      -0.518078       -14.0976
  89   2.0000      -0.504250       -13.7213
  90   2.0000      -0.494441       -13.4544
  91   2.0000      -0.492083       -13.3903
  92   2.0000      -0.486592       -13.2408
  93   2.0000      -0.483792       -13.1646
  94   2.0000      -0.480832       -13.0841
  95   2.0000      -0.475952       -12.9513
  96   2.0000      -0.470442       -12.8014
  97   2.0000      -0.466916       -12.7054
  98   2.0000      -0.463396       -12.6096
  99   2.0000      -0.462298       -12.5798
 100   2.0000      -0.460565       -12.5326
 101   2.0000      -0.453171       -12.3314
 102   2.0000      -0.451150       -12.2764
 103   2.0000      -0.445200       -12.1145
 104   2.0000      -0.444347       -12.0913
 105   2.0000      -0.440987       -11.9999
 106   2.0000      -0.438416       -11.9299
 107   2.0000      -0.437208       -11.8970
 108   2.0000      -0.436927       -11.8894
 109   2.0000      -0.427500       -11.6329
 110   2.0000      -0.421722       -11.4757
 111   2.0000      -0.419782       -11.4229
 112   2.0000      -0.416695       -11.3388
 113   2.0000      -0.416077       -11.3220
 114   2.0000      -0.409958       -11.1555
 115   2.0000      -0.408921       -11.1273
 116   2.0000      -0.407906       -11.0997
 117   2.0000      -0.404001       -10.9934
 118   2.0000      -0.397442       -10.8150
 119   2.0000      -0.395771       -10.7695
 120   2.0000      -0.391681       -10.6582
 121   2.0000      -0.388462       -10.5706
 122   2.0000      -0.387631       -10.5480
 123   2.0000      -0.382257       -10.4017
 124   2.0000      -0.379522       -10.3273
 125   2.0000      -0.376600       -10.2478
 126   2.0000      -0.371191       -10.1006
 127   2.0000      -0.368213       -10.0196
 128   2.0000      -0.365243        -9.9388
 129   2.0000      -0.350652        -9.5417
 130   2.0000      -0.346346        -9.4245
 131   2.0000      -0.340757        -9.2725
 132   2.0000      -0.339423        -9.2362
 133   2.0000      -0.338548        -9.2124
 134   2.0000      -0.334137        -9.0923
 135   2.0000      -0.323044        -8.7905
 136   2.0000      -0.318995        -8.6803
 137   2.0000      -0.312596        -8.5062
 138   2.0000      -0.305894        -8.3238
 139   2.0000      -0.295012        -8.0277
 140   2.0000      -0.285401        -7.7662
 141   2.0000      -0.283808        -7.7228
 142   2.0000      -0.281219        -7.6524
 143   2.0000      -0.277402        -7.5485
 144   2.0000      -0.271534        -7.3888
 145   2.0000      -0.263719        -7.1762
 146   2.0000      -0.252979        -6.8839
 147   2.0000      -0.249806        -6.7976
 148   2.0000      -0.243788        -6.6338
 149   2.0000      -0.229428        -6.2430
 150   2.0000      -0.220762        -6.0073
 151   2.0000      -0.191944        -5.2231
 152   0.0000      -0.086019        -2.3407
 153   0.0000      -0.057306        -1.5594
 154   0.0000      -0.034884        -0.9493
 155   0.0000      -0.027448        -0.7469
 156   0.0000      -0.003660        -0.0996

MULLIKEN ATOMIC CHARGES
-----------------------
   0 C :   -0.545703
   1 C :    0.101849
   2 C :    0.302569
   3 N :   -0.602285
   4 C :   -0.276725
   5 C :    0.193322
   6 C :   -0.141841
   7 C :   -0.174198
   8 C :    0.353807
   9 O :   -0.547403
  10 C :    1.085164
  11 F :   -0.289621
  12 F :   -0.280980
  13 F :   -0.293348
  14 C :   -0.189730
  15 C :   -0.141055
  16 S :    1.203921
  17 O :   -0.529587
  18 O :   -0.536165
  19 C :   -0.125997
  20 C :   -0.144834
  21 C :   -0.141358
  22 C :    0.082918
  23 C :    0.528518
  24 O :   -0.443574
  25 O :   -0.623604
  26 C :   -0.146555
  27 C :   -0.153435
  28 N :   -0.379573
  29 C :    0.290357
  30 N :   -0.473711
  31 C :   -0.093471
  32 C :   -0.289168
  33 C :   -0.293180
  34 C :   -0.093157
  35 C :    0.129380
  36 C :   -0.196399
  37 C :   -0.124556
  38 C :   -0.118754
  39 C :   -0.204943
  40 C :    0.114444
  41 H :    0.166973
  42 H :    0.160115
  43 H :    0.163970
  44 H :    0.154467
  45 H :    0.174248
  46 H :    0.138644
  47 H :    0.142238
  48 H :    0.148164
  49 H :    0.126477
  50 H :    0.186845
  51 H :    0.181099
  52 H :    0.434815
  53 H :    0.173363
  54 H :    0.184387
  55 H :    0.131000
  56 H :    0.119833
  57 H :    0.147714
  58 H :    0.140377
  59 H :    0.137114
  60 H :    0.149514
  61 H :    0.161751
  62 H :    0.132825
  63 H :    0.150880
  64 H :    0.133238
  65 H :    0.134523
  66 H :    0.134088
Sum of atomic charges:   -0.0000000

LOEWDIN ATOMIC CHARGES
----------------------
   0 C :   -0.362076
   1 C :   -0.026911
   2 C :    0.028419
   3 N :   -0.280075
   4 C :   -0.147073
   5 C :   -0.036533
   6 C :   -0.109305
   7 C :   -0.140493
   8 C :    0.087673
   9 O :   -0.161179
  10 C :    0.359388
  11 F :   -0.103755
  12 F :   -0.089235
  13 F :   -0.106819
  14 C :   -0.158195
  15 C :   -0.109176
  16 S :    1.266056
  17 O :   -0.562518
  18 O :   -0.564241
  19 C :   -0.175117
  20 C :   -0.102203
  21 C :   -0.086265
  22 C :   -0.039266
  23 C :    0.179761
  24 O :   -0.259816
  25 O :   -0.334510
  26 C :   -0.099140
  27 C :   -0.111007
  28 N :   -0.118715
  29 C :    0.076830
  30 N :   -0.153736
  31 C :   -0.144970
  32 C :   -0.232874
  33 C :   -0.233032
  34 C :   -0.146974
  35 C :   -0.027987
  36 C :   -0.106435
  37 C :   -0.129462
  38 C :   -0.117669
  39 C :   -0.128833
  40 C :   -0.005716
  41 H :    0.136555
  42 H :    0.135461
  43 H :    0.137275
  44 H :    0.127938
  45 H :    0.142481
  46 H :    0.138426
  47 H :    0.142323
  48 H :    0.140517
  49 H :    0.130529
  50 H :    0.160764
  51 H :    0.160632
  52 H :    0.350301
  53 H :    0.154932
  54 H :    0.156823
  55 H :    0.110562
  56 H :    0.100099
  57 H :    0.125888
  58 H :    0.124733
  59 H :    0.120025
  60 H :    0.129838
  61 H :    0.123051
  62 H :    0.113202
  63 H :    0.145143
  64 H :    0.134280
  65 H :    0.134862
  66 H :    0.136546

  Mayer bond orders larger than 0.100000
B(  0-C ,  1-C ) :   0.9959 B(  0-C , 41-H ) :   0.9306 B(  0-C , 42-H ) :   0.9279
B(  0-C , 43-H ) :   0.9291 B(  1-C ,  2-C ) :   1.4375 B(  1-C , 40-C ) :   1.2606
B(  2-C ,  3-N ) :   0.8824 B(  2-C , 28-N ) :   1.2794 B(  3-N ,  4-C ) :   0.9284
B(  3-N , 16-S ) :   0.8060 B(  4-C ,  5-C ) :   0.9426 B(  4-C , 44-H ) :   0.9261
B(  4-C , 45-H ) :   0.9224 B(  5-C ,  6-C ) :   1.4278 B(  5-C , 15-C ) :   1.4392
B(  6-C ,  7-C ) :   1.4442 B(  6-C , 46-H ) :   0.9167 B(  7-C ,  8-C ) :   1.4152
B(  7-C , 47-H ) :   0.9193 B(  8-C ,  9-O ) :   0.8195 B(  8-C , 14-C ) :   1.3969
B(  9-O , 10-C ) :   0.9936 B( 10-C , 11-F ) :   0.9705 B( 10-C , 12-F ) :   1.0059
B( 10-C , 13-F ) :   0.9668 B( 14-C , 15-C ) :   1.4354 B( 14-C , 48-H ) :   0.9097
B( 15-C , 49-H ) :   0.9201 B( 16-S , 17-O ) :   1.6516 B( 16-S , 18-O ) :   1.6378
B( 16-S , 19-C ) :   0.8094 B( 19-C , 20-C ) :   1.3800 B( 19-C , 27-C ) :   1.3946
B( 20-C , 21-C ) :   1.4254 B( 20-C , 50-H ) :   0.9092 B( 21-C , 22-C ) :   1.3973
B( 21-C , 51-H ) :   0.9094 B( 22-C , 23-C ) :   1.0079 B( 22-C , 26-C ) :   1.3889
B( 23-C , 24-O ) :   1.8633 B( 23-C , 25-O ) :   1.0257 B( 25-O , 52-H ) :   0.7414
B( 26-C , 27-C ) :   1.4105 B( 26-C , 53-H ) :   0.9147 B( 27-C , 54-H ) :   0.9073
B( 28-N , 29-C ) :   1.4361 B( 29-C , 30-N ) :   0.9992 B( 29-C , 35-C ) :   1.2241
B( 30-N , 31-C ) :   0.9739 B( 30-N , 34-C ) :   0.9605 B( 31-C , 32-C ) :   0.9944
B( 31-C , 55-H ) :   0.9353 B( 31-C , 56-H ) :   0.9315 B( 32-C , 33-C ) :   1.0054
B( 32-C , 57-H ) :   0.9489 B( 32-C , 58-H ) :   0.9483 B( 33-C , 34-C ) :   0.9907
B( 33-C , 59-H ) :   0.9499 B( 33-C , 60-H ) :   0.9476 B( 34-C , 61-H ) :   0.9256
B( 34-C , 62-H ) :   0.9391 B( 35-C , 36-C ) :   1.3000 B( 35-C , 40-C ) :   1.2761
B( 36-C , 37-C ) :   1.4962 B( 36-C , 39-C ) :   0.1055 B( 36-C , 63-H ) :   0.9111
B( 37-C , 38-C ) :   1.3548 B( 37-C , 64-H ) :   0.9300 B( 38-C , 39-C ) :   1.5089
B( 38-C , 65-H ) :   0.9295 B( 39-C , 40-C ) :   1.2904 B( 39-C , 66-H ) :   0.9173

FINAL SINGLE POINT ENERGY     -2357.549151679976

DIPOLE MOMENT
-------------

Method             : SCF
Type of density    : Electron Density
Multiplicity       :   1
Irrep              :   0
Energy             : -2357.5491516799761484 Eh
Relativity type    :
Basis              : AO
                                X                 Y                 Z
Electronic contribution:     44.551366615      26.074969532       8.053614817
Nuclear contribution   :    -44.917346173     -26.803132563     -10.299090640
                        -----------------------------------------
Total Dipole Moment    :     -0.365979558      -0.728163031      -2.245475822
                        -----------------------------------------
Magnitude (a.u.)       :      2.388791348
Magnitude (Debye)      :      6.071825071

Rotational constants in cm-1:             0.002337             0.001985             0.001200
Rotational constants in MHz :            70.076458            59.521726            35.985690

                             ****ORCA TERMINATED NORMALLY****
TOTAL RUN TIME: 0 days 0 hours 9 minutes 35 seconds 996 msec
