                         Program Version 6.0.0  -   RELEASE  -
|  1> ! B3LYP 6-31G* SP
|  2>
|  3> * xyz 0 1
|  4> C -2.1552 2.0881 1.9952
|  5> C -3.2338 1.2001 1.3566
|  6> C -3.4916 -0.0257 2.2409
|  7> C -2.8516 0.7570 -0.0495
|  8> N -1.5309 0.6243 -0.3360
|  9> C -1.0598 0.1922 -1.5299
| 10> N 0.3527 -0.0027 -1.6797
| 11> C 1.2526 1.1520 -1.7704
| 12> C 2.0532 1.3164 -0.5066
| 13> C 3.3666 0.8281 -0.4290
| 14> C 4.0823 0.9117 0.7680
| 15> C 3.4953 1.4975 1.9068
| 16> O 4.1637 1.5970 3.1371
| 17> C 5.4997 1.1626 3.3843
| 18> F 5.8251 1.4381 4.6984
| 19> F 6.3792 1.8359 2.5547
| 20> F 5.6055 -0.2007 3.1766
| 21> C 2.1925 2.0022 1.8188
| 22> C 1.4768 1.9158 0.6220
| 23> S 0.9966 -1.6128 -1.5318
| 24> O -0.0740 -2.6272 -1.8233
| 25> O 2.1067 -1.7873 -2.5304
| 26> C 1.5896 -1.8679 0.1085
| 27> C 2.8889 -2.3393 0.3360
| 28> C 3.3746 -2.4648 1.6412
| 29> C 2.5650 -2.1245 2.7381
| 30> C 3.0873 -2.2356 4.1172
| 31> O 2.3914 -1.8492 5.0949
| 32> O 4.3548 -2.7643 4.3498
| 33> C 1.2540 -1.6752 2.5033
| 34> C 0.7703 -1.5556 1.1991
| 35> C -1.9557 -0.1241 -2.5704
| 36> C -1.4164 -0.5612 -3.9222
| 37> C -1.8704 0.2702 -5.1201
| 38> C -0.4612 0.4210 -4.5962
| 39> C -3.3467 -0.1042 -2.2902
| 40> C -4.2944 -0.5633 -3.2334
| 41> C -5.6599 -0.5158 -2.9570
| 42> C -6.1087 -0.0352 -1.7325
| 43> C -5.1966 0.3875 -0.7672
| 44> C -3.8059 0.3600 -1.0227
| 45> H -2.5125 2.4769 2.9734
| 46> H -1.2197 1.5140 2.1690
| 47> H -1.9333 2.9556 1.3366
| 48> H -4.1488 1.8256 1.3227
| 49> H -4.2893 -0.6612 1.8039
| 50> H -2.5687 -0.6356 2.3406
| 51> H -3.8209 0.2945 3.2534
| 52> H 1.9280 1.0207 -2.6427
| 53> H 0.6694 2.0802 -1.9575
| 54> H 3.8266 0.3539 -1.2873
| 55> H 5.0836 0.5094 0.7978
| 56> H 1.7321 2.4636 2.6835
| 57> H 0.4729 2.3151 0.5736
| 58> H 3.5374 -2.5884 -0.4939
| 59> H 4.3889 -2.8112 1.7900
| 60> H 4.7209 -2.8434 5.2920
| 61> H 0.6019 -1.4125 3.3259
| 62> H -0.2393 -1.2097 1.0417
| 63> H -1.2289 -1.6359 -4.1273
| 64> H -1.9397 -0.2945 -6.0725
| 65> H -2.5280 1.1356 -4.8929
| 66> H 0.3063 -0.0443 -5.2493
| 67> H -0.3060 1.4041 -4.1072
| 68> H -3.9958 -0.9789 -4.1850
| 69> H -6.3730 -0.8654 -3.6932
| 70> H -7.1712 -0.0051 -1.5214
| 71> H -5.6044 0.7160 0.1771
| 72> *
| 73>
| 74>                          ****END OF INPUT****

CARTESIAN COORDINATES (ANGSTROEM)
---------------------------------
  C     -2.155200    2.088100    1.995200
  C     -3.233800    1.200100    1.356600
  C     -3.491600   -0.025700    2.240900
  C     -2.851600    0.757000   -0.049500
  N     -1.530900    0.624300   -0.336000
  C     -1.059800    0.192200   -1.529900
  N      0.352700   -0.002700   -1.679700
  C      1.252600    1.152000   -1.770400
  C      2.053200    1.316400   -0.506600
  C      3.366600    0.828100   -0.429000
  C      4.082300    0.911700    0.768000
  C      3.495300    1.497500    1.906800
  O      4.163700    1.597000    3.137100
  C      5.499700    1.162600    3.384300
  F      5.825100    1.438100    4.698400
  F      6.379200    1.835900    2.554700
  F      5.605500   -0.200700    3.176600
  C      2.192500    2.002200    1.818800
  C      1.476800    1.915800    0.622000
  S      0.996600   -1.612800   -1.531800
  O     -0.074000   -2.627200   -1.823300
  O      2.106700   -1.787300   -2.530400
  C      1.589600   -1.867900    0.108500
  C      2.888900   -2.339300    0.336000
  C      3.374600   -2.464800    1.641200
  C      2.565000   -2.124500    2.738100
  C      3.087300   -2.235600    4.117200
  O      2.391400   -1.849200    5.094900
  O      4.354800   -2.764300    4.349800
  C      1.254000   -1.675200    2.503300
  C      0.770300   -1.555600    1.199100
  C     -1.955700   -0.124100   -2.570400
  C     -1.416400   -0.561200   -3.922200
  C     -1.870400    0.270200   -5.120100
  C     -0.461200    0.421000   -4.596200
  C     -3.346700   -0.104200   -2.290200
  C     -4.294400   -0.563300   -3.233400
  C     -5.659900   -0.515800   -2.957000
  C     -6.108700   -0.035200   -1.732500
  C     -5.196600    0.387500   -0.767200
  C     -3.805900    0.360000   -1.022700
  H     -2.512500    2.476900    2.973400
  H     -1.219700    1.514000    2.169000
  H     -1.933300    2.955600    1.336600
  H     -4.148800    1.825600    1.322700
  H     -4.289300   -0.661200    1.803900
  H     -2.568700   -0.635600    2.340600
  H     -3.820900    0.294500    3.253400
  H      1.928000    1.020700   -2.642700
  H      0.669400    2.080200   -1.957500
  H      3.826600    0.353900   -1.287300
  H      5.083600    0.509400    0.797800
  H      1.732100    2.463600    2.683500
  H      0.472900    2.315100    0.573600
  H      3.537400   -2.588400   -0.493900
  H      4.388900   -2.811200    1.790000
  H      4.720900   -2.843400    5.292000
  H      0.601900   -1.412500    3.325900
  H     -0.239300   -1.209700    1.041700
  H     -1.228900   -1.635900   -4.127300
  H     -1.939700   -0.294500   -6.072500
  H     -2.528000    1.135600   -4.892900
  H      0.306300   -0.044300   -5.249300
  H     -0.306000    1.404100   -4.107200
  H     -3.995800   -0.978900   -4.185000
  H     -6.373000   -0.865400   -3.693200
  H     -7.171200   -0.005100   -1.521400
  H     -5.604400    0.716000    0.177100

 Total Charge           Charge          ....    0
 Multiplicity           Mult            ....    1
 Number of Electrons    NEL             ....  304
 Basis Dimension        Dim             ....  632

ORBITAL ENERGIES
----------------

  NO   OCC          E(Eh)            E(eV)
   0   2.0000     -89.095751     -2424.4186
   1   2.0000     -24.740654      -673.2274
   2   2.0000     -24.740126      -673.2131
   3   2.0000     -24.738070      -673.1571
   4   2.0000     -19.210765      -522.7515
   5   2.0000     -19.188419      -522.1434
   6   2.0000     -19.130142      -520.5576
   7   2.0000     -19.125384      -520.4281
   8   2.0000     -19.124736      -520.4105
   9   2.0000     -14.366804      -390.9406
  10   2.0000     -14.330754      -389.9596
  11   2.0000     -10.503106      -285.8040
  12   2.0000     -10.327161      -281.0163
  13   2.0000     -10.265399      -279.3357
  14   2.0000     -10.256841      -279.1028
  15   2.0000     -10.234797      -278.5030
  16   2.0000     -10.233768      -278.4750
  17   2.0000     -10.230172      -278.3771
  18   2.0000     -10.221889      -278.1518
  19   2.0000     -10.210276      -277.8357
  20   2.0000     -10.209418      -277.8124
  21   2.0000     -10.207754      -277.7671
  22   2.0000     -10.207395      -277.7573
  23   2.0000     -10.205569      -277.7077
  24   2.0000     -10.204678      -277.6834
  25   2.0000     -10.202982      -277.6373
  26   2.0000     -10.198070      -277.5036
  27   2.0000     -10.196420      -277.4587
  28   2.0000     -10.194384      -277.4033
  29   2.0000     -10.193931      -277.3910
  30   2.0000     -10.192867      -277.3620
  31   2.0000     -10.192353      -277.3480
  32   2.0000     -10.191895      -277.3356
  33   2.0000     -10.191469      -277.3240
  34   2.0000     -10.190813      -277.3061
  35   2.0000     -10.190298      -277.2921
  36   2.0000     -10.189179      -277.2617
  37   2.0000     -10.179550      -276.9996
  38   2.0000     -10.179176      -276.9895
  39   2.0000     -10.178926      -276.9827
  40   2.0000     -10.172561      -276.8095
  41   2.0000      -8.131209      -221.2614
  42   2.0000      -6.096370      -165.8907
  43   2.0000      -6.094312      -165.8346
  44   2.0000      -6.093726      -165.8187
  45   2.0000      -1.303774       -35.4775
  46   2.0000      -1.224966       -33.3330
  47   2.0000      -1.223748       -33.2999
  48   2.0000      -1.081663       -29.4336
  49   2.0000      -1.080715       -29.4078
  50   2.0000      -1.072822       -29.1930
  51   2.0000      -0.987249       -26.8644
  52   2.0000      -0.963285       -26.2123
  53   2.0000      -0.960594       -26.1391
  54   2.0000      -0.914537       -24.8858
  55   2.0000      -0.881306       -23.9816
  56   2.0000      -0.865573       -23.5534
  57   2.0000      -0.861191       -23.4342
  58   2.0000      -0.850756       -23.1502
  59   2.0000      -0.812679       -22.1141
  60   2.0000      -0.798829       -21.7372
  61   2.0000      -0.781754       -21.2726
  62   2.0000      -0.780474       -21.2378
  63   2.0000      -0.767532       -20.8856
  64   2.0000      -0.763970       -20.7887
  65   2.0000      -0.754618       -20.5342
  66   2.0000      -0.734732       -19.9931
  67   2.0000      -0.723248       -19.6806
  68   2.0000      -0.701289       -19.0831
  69   2.0000      -0.682867       -18.5818
  70   2.0000      -0.674554       -18.3555
  71   2.0000      -0.661851       -18.0099
  72   2.0000      -0.647855       -17.6290
  73   2.0000      -0.632556       -17.2127
  74   2.0000      -0.630223       -17.1492
  75   2.0000      -0.623859       -16.9761
  76   2.0000      -0.621061       -16.8999
  77   2.0000      -0.608734       -16.5645
  78   2.0000      -0.595898       -16.2152
  79   2.0000      -0.591132       -16.0855
  80   2.0000      -0.590619       -16.0716
  81   2.0000      -0.583288       -15.8721
  82   2.0000      -0.582560       -15.8523
  83   2.0000      -0.569944       -15.5090
  84   2.0000      -0.560422       -15.2499
  85   2.0000      -0.548625       -14.9288
  86   2.0000      -0.534737       -14.5509
  87   2.0000      -0.531024       -14.4499
  88   2.0000      -0.516100       -14.0438
  89   2.0000      -0.502324       -13.6689
  90   2.0000      -0.497294       -13.5321
  91   2.0000      -0.489037       -13.3074
  92   2.0000      -0.483056       -13.1446
  93   2.0000      -0.479162       -13.0387
  94   2.0000      -0.475679       -12.9439
  95   2.0000      -0.471858       -12.8399
  96   2.0000      -0.469653       -12.7799
  97   2.0000      -0.467945       -12.7334
  98   2.0000      -0.463810       -12.6209
  99   2.0000      -0.459220       -12.4960
 100   2.0000      -0.456962       -12.4346
 101   2.0000      -0.453802       -12.3486
 102   2.0000      -0.452085       -12.3019
 103   2.0000      -0.447542       -12.1782
 104   2.0000      -0.444252       -12.0887
 105   2.0000      -0.442422       -12.0389
 106   2.0000      -0.439031       -11.9466
 107   2.0000      -0.433397       -11.7933
 108   2.0000      -0.432167       -11.7599
 109   2.0000      -0.431564       -11.7434
 110   2.0000      -0.430892       -11.7252
 111   2.0000      -0.426230       -11.5983
 112   2.0000      -0.422621       -11.5001
 113   2.0000      -0.416786       -11.3413
 114   2.0000      -0.416255       -11.3269
 115   2.0000      -0.409861       -11.1529
 116   2.0000      -0.406890       -11.0720
 117   2.0000      -0.404593       -11.0095
 118   2.0000      -0.395421       -10.7599
 119   2.0000      -0.388318       -10.5667
 120   2.0000      -0.383961       -10.4481
 121   2.0000      -0.382788       -10.4162
 122   2.0000      -0.380763       -10.3611
 123   2.0000      -0.377782       -10.2800
 124   2.0000      -0.373908       -10.1746
 125   2.0000      -0.371157       -10.0997
 126   2.0000      -0.363910        -9.9025
 127   2.0000      -0.362058        -9.8521
 128   2.0000      -0.359946        -9.7946
 129   2.0000      -0.352550        -9.5934
 130   2.0000      -0.345530        -9.4024
 131   2.0000      -0.343871        -9.3572
 132   2.0000      -0.342167        -9.3108
 133   2.0000      -0.339326        -9.2335
 134   2.0000      -0.333635        -9.0787
 135   2.0000      -0.323226        -8.7954
 136   2.0000      -0.313077        -8.5193
 137   2.0000      -0.304477        -8.2852
 138   2.0000      -0.302983        -8.2446
 139   2.0000      -0.295314        -8.0359
 140   2.0000      -0.286698        -7.8014
 141   2.0000      -0.278731        -7.5847
 142   2.0000      -0.278247        -7.5715
 143   2.0000      -0.272619        -7.4183
 144   2.0000      -0.271064        -7.3760
 145   2.0000      -0.266980        -7.2649
 146   2.0000      -0.263276        -7.1641
 147   2.0000      -0.253414        -6.8957
 148   2.0000      -0.250735        -6.8228
 149   2.0000      -0.248595        -6.7646
 150   2.0000      -0.232793        -6.3346
 151   2.0000      -0.220189        -5.9916
 152   0.0000      -0.075618        -2.0577
 153   0.0000      -0.061269        -1.6672
 154   0.0000      -0.032556        -0.8859
 155   0.0000      -0.027201        -0.7402
 156   0.0000      -0.010234        -0.2785

MULLIKEN ATOMIC CHARGES
-----------------------
   0 C :   -0.434973
   1 C :   -0.130276
   2 C :   -0.440091
   3 C :    0.188331
   4 N :   -0.440161
   5 C :    0.288428
   6 N :   -0.599293
   7 C :   -0.232675
   8 C :    0.128274
   9 C :   -0.179374
  10 C :   -0.186335
  11 C :    0.353417
  12 O :   -0.544887
  13 C :    1.086600
  14 F :   -0.279458
  15 F :   -0.291555
  16 F :   -0.290201
  17 C :   -0.180010
  18 C :   -0.147288
  19 S :    1.220637
  20 O :   -0.544130
  21 O :   -0.552544
  22 C :   -0.113375
  23 C :   -0.145820
  24 C :   -0.144688
  25 C :    0.084590
  26 C :    0.527185
  27 O :   -0.448548
  28 O :   -0.624559
  29 C :   -0.142829
  30 C :   -0.139717
  31 C :    0.075269
  32 C :   -0.174486
  33 C :   -0.319253
  34 C :   -0.297161
  35 C :    0.115678
  36 C :   -0.188580
  37 C :   -0.121490
  38 C :   -0.122253
  39 C :   -0.212995
  40 C :    0.106105
  41 H :    0.135811
  42 H :    0.160252
  43 H :    0.140504
  44 H :    0.136041
  45 H :    0.149865
  46 H :    0.153981
  47 H :    0.146975
  48 H :    0.183726
  49 H :    0.172206
  50 H :    0.157290
  51 H :    0.148957
  52 H :    0.149134
  53 H :    0.156189
  54 H :    0.180964
  55 H :    0.169031
  56 H :    0.432265
  57 H :    0.173169
  58 H :    0.187120
  59 H :    0.193416
  60 H :    0.146684
  61 H :    0.151505
  62 H :    0.158800
  63 H :    0.142771
  64 H :    0.156304
  65 H :    0.137046
  66 H :    0.134590
  67 H :    0.139894
Sum of atomic charges:   -0.0000000

LOEWDIN ATOMIC CHARGES
----------------------
   0 C :   -0.348509
   1 C :   -0.130064
   2 C :   -0.346319
   3 C :    0.048831
   4 N :   -0.145140
   5 C :    0.025648
   6 N :   -0.274163
   7 C :   -0.143501
   8 C :   -0.049825
   9 C :   -0.124604
  10 C :   -0.160169
  11 C :    0.086618
  12 O :   -0.158442
  13 C :    0.359240
  14 F :   -0.087758
  15 F :   -0.105130
  16 F :   -0.103773
  17 C :   -0.141836
  18 C :   -0.113814
  19 S :    1.269864
  20 O :   -0.566446
  21 O :   -0.579489
  22 C :   -0.166251
  23 C :   -0.101577
  24 C :   -0.100501
  25 C :   -0.040136
  26 C :    0.179103
  27 O :   -0.263986
  28 O :   -0.334810
  29 C :   -0.086547
  30 C :   -0.101144
  31 C :   -0.001267
  32 C :   -0.136708
  33 C :   -0.260620
  34 C :   -0.244548
  35 C :    0.000133
  36 C :   -0.113008
  37 C :   -0.119400
  38 C :   -0.125048
  39 C :   -0.121831
  40 C :   -0.028526
  41 H :    0.121357
  42 H :    0.130431
  43 H :    0.122433
  44 H :    0.125313
  45 H :    0.125948
  46 H :    0.127271
  47 H :    0.126252
  48 H :    0.141464
  49 H :    0.143494
  50 H :    0.143840
  51 H :    0.140186
  52 H :    0.144995
  53 H :    0.145571
  54 H :    0.158239
  55 H :    0.152976
  56 H :    0.348627
  57 H :    0.157026
  58 H :    0.156958
  59 H :    0.155193
  60 H :    0.130998
  61 H :    0.132525
  62 H :    0.138681
  63 H :    0.129371
  64 H :    0.147888
  65 H :    0.136157
  66 H :    0.134760
  67 H :    0.137497

  Mayer bond orders larger than 0.100000
B(  0-C ,  1-C ) :   1.0025 B(  0-C , 41-H ) :   0.9433 B(  0-C , 42-H ) :   0.9373
B(  0-C , 43-H ) :   0.9475 B(  1-C ,  2-C ) :   0.9946 B(  1-C ,  3-C ) :   0.9852
B(  1-C , 44-H ) :   0.9197 B(  2-C , 45-H ) :   0.9430 B(  2-C , 46-H ) :   0.9424
B(  2-C , 47-H ) :   0.9442 B(  3-C ,  4-N ) :   1.4265 B(  3-C , 40-C ) :   1.2298
B(  4-N ,  5-C ) :   1.2689 B(  5-C ,  6-N ) :   0.9157 B(  5-C , 31-C ) :   1.4298
B(  6-N ,  7-C ) :   0.9069 B(  6-N , 19-S ) :   0.7998 B(  7-C ,  8-C ) :   0.9562
B(  7-C , 48-H ) :   0.9196 B(  7-C , 49-H ) :   0.9206 B(  8-C ,  9-C ) :   1.4382
B(  8-C , 18-C ) :   1.4305 B(  9-C , 10-C ) :   1.4178 B(  9-C , 50-H ) :   0.9141
B( 10-C , 11-C ) :   1.3986 B( 10-C , 51-H ) :   0.9100 B( 11-C , 12-O ) :   0.8223
B( 11-C , 17-C ) :   1.4072 B( 12-O , 13-C ) :   0.9924 B( 13-C , 14-F ) :   1.0076
B( 13-C , 15-F ) :   0.9683 B( 13-C , 16-F ) :   0.9618 B( 17-C , 18-C ) :   1.4402
B( 17-C , 52-H ) :   0.9184 B( 18-C , 53-H ) :   0.9057 B( 19-S , 20-O ) :   1.6488
B( 19-S , 21-O ) :   1.6207 B( 19-S , 22-C ) :   0.8120 B( 22-C , 23-C ) :   1.4046
B( 22-C , 30-C ) :   1.3786 B( 23-C , 24-C ) :   1.4097 B( 23-C , 54-H ) :   0.9106
B( 24-C , 25-C ) :   1.3873 B( 24-C , 55-H ) :   0.9150 B( 25-C , 26-C ) :   1.0089
B( 25-C , 29-C ) :   1.3968 B( 26-C , 27-O ) :   1.8596 B( 26-C , 28-O ) :   1.0194
B( 28-O , 56-H ) :   0.7430 B( 29-C , 30-C ) :   1.4337 B( 29-C , 57-H ) :   0.9110
B( 30-C , 58-H ) :   0.8922 B( 31-C , 32-C ) :   1.0350 B( 31-C , 35-C ) :   1.2545
B( 32-C , 33-C ) :   0.9200 B( 32-C , 34-C ) :   0.9355 B( 32-C , 59-H ) :   0.9041
B( 33-C , 34-C ) :   0.9588 B( 33-C , 60-H ) :   0.9433 B( 33-C , 61-H ) :   0.9423
B( 34-C , 62-H ) :   0.9408 B( 34-C , 63-H ) :   0.9411 B( 35-C , 36-C ) :   1.2959
B( 35-C , 40-C ) :   1.2755 B( 36-C , 37-C ) :   1.5048 B( 36-C , 39-C ) :   0.1046
B( 36-C , 64-H ) :   0.9094 B( 37-C , 38-C ) :   1.3545 B( 37-C , 65-H ) :   0.9289
B( 38-C , 39-C ) :   1.5125 B( 38-C , 66-H ) :   0.9291 B( 39-C , 40-C ) :   1.2877
B( 39-C , 67-H ) :   0.9160

FINAL SINGLE POINT ENERGY     -2341.491494292120

DIPOLE MOMENT
-------------

Method             : SCF
Type of density    : Electron Density
Multiplicity       :   1
Irrep              :   0
Energy             : -2341.4914942921200236 Eh
Relativity type    :
Basis              : AO
                                X                 Y                 Z
Electronic contribution:     53.616340982      -4.598398011      24.956298330
Nuclear contribution   :    -54.669722808       5.536866745     -25.001216277
                        -----------------------------------------
Total Dipole Moment    :     -1.053381826       0.938468734      -0.044917947
                        -----------------------------------------
Magnitude (a.u.)       :      1.411507867
Magnitude (Debye)      :      3.587767873

Rotational constants in cm-1:             0.005227             0.001690             0.001579
Rotational constants in MHz :           156.687648            50.652501            47.333808

                             ****ORCA TERMINATED NORMALLY****
TOTAL RUN TIME: 0 days 0 hours 15 minutes 58 seconds 639 msec
