                         Program Version 6.0.0  -   RELEASE  -
|  1> ! B3LYP 6-31G* SP
|  2>
|  3> * xyz 0 1
|  4> C -5.7508 -2.0692 0.5035
|  5> C -5.6682 -0.5837 0.1276
|  6> C -5.9398 -0.3774 -1.3685
|  7> C -4.3293 0.0095 0.5235
|  8> C -4.2773 1.0954 1.4155
|  9> C -3.0507 1.6620 1.7725
| 10> C -1.8528 1.1435 1.2611
| 11> N -0.6069 1.7634 1.6145
| 12> C 0.6081 1.0274 1.8318
| 13> O 0.5788 -0.2229 1.9968
| 14> C 1.9250 1.7409 1.8501
| 15> N 2.5632 1.6350 0.5381
| 16> C 2.4026 2.4951 -0.4985
| 17> N 3.0475 2.1012 -1.6271
| 18> C 3.6166 0.9358 -1.2572
| 19> C 3.3267 0.6460 0.0331
| 20> C 3.8118 -0.5215 0.6153
| 21> O 3.5536 -0.7952 1.8187
| 22> N 4.5865 -1.3612 -0.1540
| 23> C 5.1558 -2.5863 0.4332
| 24> C 4.8953 -1.0234 -1.4607
| 25> O 5.6609 -1.7692 -2.1360
| 26> N 4.3818 0.1205 -2.0336
| 27> C 4.7151 0.4965 -3.4139
| 28> C -1.8998 0.0682 0.3585
| 29> C -3.1263 -0.4936 -0.0067
| 30> H -5.0350 -2.6757 -0.0941
| 31> H -6.7770 -2.4506 0.3144
| 32> H -5.5227 -2.2038 1.5836
| 33> H -6.4815 -0.0626 0.6819
| 34> H -5.2030 -0.9322 -1.9907
| 35> H -5.8823 0.7051 -1.6209
| 36> H -6.9588 -0.7386 -1.6227
| 37> H -5.1872 1.5117 1.8311
| 38> H -3.0321 2.5027 2.4561
| 39> H -0.6035 2.7915 1.8063
| 40> H 2.5812 1.3201 2.6405
| 41> H 1.7720 2.8124 2.1052
| 42> H 1.8108 3.4005 -0.4408
| 43> H 5.1636 -3.4123 -0.3075
| 44> H 4.5607 -2.9476 1.2963
| 45> H 6.1926 -2.3876 0.7686
| 46> H 4.7817 -0.4039 -4.0620
| 47> H 5.6877 1.0310 -3.4288
| 48> H 3.9339 1.1538 -3.8524
| 49> H -0.9921 -0.3160 -0.0881
| 50> H -3.1366 -1.3122 -0.7135
| 51> *
| 52>
| 53>                          ****END OF INPUT****

CARTESIAN COORDINATES (ANGSTROEM)
---------------------------------
  C     -5.750800   -2.069200    0.503500
  C     -5.668200   -0.583700    0.127600
  C     -5.939800   -0.377400   -1.368500
  C     -4.329300    0.009500    0.523500
  C     -4.277300    1.095400    1.415500
  C     -3.050700    1.662000    1.772500
  C     -1.852800    1.143500    1.261100
  N     -0.606900    1.763400    1.614500
  C      0.608100    1.027400    1.831800
  O      0.578800   -0.222900    1.996800
  C      1.925000    1.740900    1.850100
  N      2.563200    1.635000    0.538100
  C      2.402600    2.495100   -0.498500
  N      3.047500    2.101200   -1.627100
  C      3.616600    0.935800   -1.257200
  C      3.326700    0.646000    0.033100
  C      3.811800   -0.521500    0.615300
  O      3.553600   -0.795200    1.818700
  N      4.586500   -1.361200   -0.154000
  C      5.155800   -2.586300    0.433200
  C      4.895300   -1.023400   -1.460700
  O      5.660900   -1.769200   -2.136000
  N      4.381800    0.120500   -2.033600
  C      4.715100    0.496500   -3.413900
  C     -1.899800    0.068200    0.358500
  C     -3.126300   -0.493600   -0.006700
  H     -5.035000   -2.675700   -0.094100
  H     -6.777000   -2.450600    0.314400
  H     -5.522700   -2.203800    1.583600
  H     -6.481500   -0.062600    0.681900
  H     -5.203000   -0.932200   -1.990700
  H     -5.882300    0.705100   -1.620900
  H     -6.958800   -0.738600   -1.622700
  H     -5.187200    1.511700    1.831100
  H     -3.032100    2.502700    2.456100
  H     -0.603500    2.791500    1.806300
  H      2.581200    1.320100    2.640500
  H      1.772000    2.812400    2.105200
  H      1.810800    3.400500   -0.440800
  H      5.163600   -3.412300   -0.307500
  H      4.560700   -2.947600    1.296300
  H      6.192600   -2.387600    0.768600
  H      4.781700   -0.403900   -4.062000
  H      5.687700    1.031000   -3.428800
  H      3.933900    1.153800   -3.852400
  H     -0.992100   -0.316000   -0.088100
  H     -3.136600   -1.312200   -0.713500

 Total Charge           Charge          ....    0
 Multiplicity           Mult            ....    1
 Number of Electrons    NEL             ....  188
 Basis Dimension        Dim             ....  406

ORBITAL ENERGIES
----------------

  NO   OCC          E(Eh)            E(eV)
   0   2.0000     -19.123659      -520.3812
   1   2.0000     -19.100126      -519.7408
   2   2.0000     -19.098133      -519.6866
   3   2.0000     -14.421189      -392.4205
   4   2.0000     -14.390704      -391.5910
   5   2.0000     -14.386617      -391.4798
   6   2.0000     -14.380582      -391.3155
   7   2.0000     -14.334298      -390.0561
   8   2.0000     -10.316319      -280.7213
   9   2.0000     -10.305080      -280.4155
  10   2.0000     -10.283697      -279.8336
  11   2.0000     -10.263528      -279.2848
  12   2.0000     -10.257964      -279.1334
  13   2.0000     -10.253285      -279.0061
  14   2.0000     -10.231631      -278.4168
  15   2.0000     -10.219145      -278.0771
  16   2.0000     -10.214927      -277.9623
  17   2.0000     -10.209855      -277.8243
  18   2.0000     -10.187824      -277.2248
  19   2.0000     -10.187142      -277.2062
  20   2.0000     -10.186832      -277.1978
  21   2.0000     -10.183940      -277.1191
  22   2.0000     -10.183666      -277.1116
  23   2.0000     -10.182131      -277.0699
  24   2.0000     -10.170273      -276.7472
  25   2.0000     -10.168605      -276.7018
  26   2.0000      -1.068304       -29.0700
  27   2.0000      -1.044161       -28.4131
  28   2.0000      -1.021879       -27.8067
  29   2.0000      -1.008778       -27.4502
  30   2.0000      -0.962944       -26.2030
  31   2.0000      -0.928083       -25.2544
  32   2.0000      -0.925943       -25.1962
  33   2.0000      -0.904714       -24.6185
  34   2.0000      -0.850122       -23.1330
  35   2.0000      -0.803669       -21.8690
  36   2.0000      -0.794170       -21.6105
  37   2.0000      -0.763031       -20.7631
  38   2.0000      -0.746340       -20.3089
  39   2.0000      -0.730352       -19.8739
  40   2.0000      -0.721028       -19.6202
  41   2.0000      -0.706600       -19.2276
  42   2.0000      -0.676532       -18.4094
  43   2.0000      -0.655273       -17.8309
  44   2.0000      -0.644465       -17.5368
  45   2.0000      -0.631480       -17.1834
  46   2.0000      -0.620416       -16.8824
  47   2.0000      -0.605060       -16.4645
  48   2.0000      -0.592807       -16.1311
  49   2.0000      -0.572026       -15.5656
  50   2.0000      -0.561930       -15.2909
  51   2.0000      -0.545405       -14.8412
  52   2.0000      -0.534061       -14.5325
  53   2.0000      -0.520859       -14.1733
  54   2.0000      -0.504789       -13.7360
  55   2.0000      -0.494420       -13.4539
  56   2.0000      -0.486368       -13.2347
  57   2.0000      -0.478037       -13.0081
  58   2.0000      -0.458824       -12.4852
  59   2.0000      -0.456352       -12.4180
  60   2.0000      -0.451944       -12.2980
  61   2.0000      -0.450003       -12.2452
  62   2.0000      -0.446506       -12.1500
  63   2.0000      -0.442744       -12.0477
  64   2.0000      -0.431063       -11.7298
  65   2.0000      -0.426472       -11.6049
  66   2.0000      -0.419570       -11.4171
  67   2.0000      -0.414779       -11.2867
  68   2.0000      -0.409568       -11.1449
  69   2.0000      -0.404671       -11.0116
  70   2.0000      -0.398230       -10.8364
  71   2.0000      -0.395117       -10.7517
  72   2.0000      -0.389918       -10.6102
  73   2.0000      -0.387285       -10.5386
  74   2.0000      -0.384564       -10.4645
  75   2.0000      -0.381341       -10.3768
  76   2.0000      -0.375510       -10.2181
  77   2.0000      -0.368519       -10.0279
  78   2.0000      -0.357852        -9.7376
  79   2.0000      -0.354601        -9.6492
  80   2.0000      -0.335755        -9.1364
  81   2.0000      -0.326604        -8.8874
  82   2.0000      -0.326070        -8.8728
  83   2.0000      -0.321218        -8.7408
  84   2.0000      -0.298917        -8.1339
  85   2.0000      -0.290568        -7.9068
  86   2.0000      -0.279587        -7.6080
  87   2.0000      -0.262814        -7.1515
  88   2.0000      -0.261513        -7.1161
  89   2.0000      -0.252958        -6.8833
  90   2.0000      -0.246523        -6.7082
  91   2.0000      -0.235760        -6.4154
  92   2.0000      -0.219220        -5.9653
  93   2.0000      -0.214700        -5.8423
  94   0.0000      -0.037598        -1.0231
  95   0.0000      -0.021981        -0.5981
  96   0.0000      -0.002864        -0.0779
  97   0.0000       0.017427         0.4742
  98   0.0000       0.025191         0.6855

MULLIKEN ATOMIC CHARGES
-----------------------
   0 C :   -0.431824
   1 C :   -0.154926
   2 C :   -0.429927
   3 C :    0.185848
   4 C :   -0.195653
   5 C :   -0.175788
   6 C :    0.334179
   7 N :   -0.703821
   8 C :    0.548644
   9 O :   -0.427061
  10 C :   -0.240989
  11 N :   -0.412395
  12 C :    0.160241
  13 N :   -0.432148
  14 C :    0.392033
  15 C :    0.214338
  16 C :    0.552649
  17 O :   -0.504253
  18 N :   -0.490933
  19 C :   -0.313960
  20 C :    0.671678
  21 O :   -0.513044
  22 N :   -0.501908
  23 C :   -0.320754
  24 C :   -0.130959
  25 C :   -0.192391
  26 H :    0.141053
  27 H :    0.138075
  28 H :    0.149232
  29 H :    0.124286
  30 H :    0.140301
  31 H :    0.143779
  32 H :    0.139082
  33 H :    0.127043
  34 H :    0.120805
  35 H :    0.324314
  36 H :    0.239683
  37 H :    0.155705
  38 H :    0.165181
  39 H :    0.189144
  40 H :    0.200700
  41 H :    0.173788
  42 H :    0.194470
  43 H :    0.174204
  44 H :    0.190670
  45 H :    0.148816
  46 H :    0.132792
Sum of atomic charges:   -0.0000000

LOEWDIN ATOMIC CHARGES
----------------------
   0 C :   -0.348919
   1 C :   -0.122134
   2 C :   -0.348288
   3 C :   -0.010601
   4 C :   -0.134516
   5 C :   -0.146154
   6 C :    0.026360
   7 N :   -0.215186
   8 C :    0.129372
   9 O :   -0.245112
  10 C :   -0.162567
  11 N :    0.057106
  12 C :   -0.041412
  13 N :   -0.179306
  14 C :    0.029504
  15 C :   -0.079702
  16 C :    0.103284
  17 O :   -0.301588
  18 N :   -0.030310
  19 C :   -0.259415
  20 C :    0.142324
  21 O :   -0.320829
  22 N :   -0.024874
  23 C :   -0.258073
  24 C :   -0.119200
  25 C :   -0.127177
  26 H :    0.121485
  27 H :    0.121498
  28 H :    0.127254
  29 H :    0.118577
  30 H :    0.121219
  31 H :    0.124483
  32 H :    0.121744
  33 H :    0.131652
  34 H :    0.128546
  35 H :    0.253339
  36 H :    0.182005
  37 H :    0.132548
  38 H :    0.143445
  39 H :    0.149246
  40 H :    0.155591
  41 H :    0.138136
  42 H :    0.152080
  43 H :    0.136881
  44 H :    0.149534
  45 H :    0.144423
  46 H :    0.133725

  Mayer bond orders larger than 0.100000
B(  0-C ,  1-C ) :   0.9997 B(  0-C , 26-H ) :   0.9449 B(  0-C , 27-H ) :   0.9463
B(  0-C , 28-H ) :   0.9491 B(  1-C ,  2-C ) :   0.9996 B(  1-C ,  3-C ) :   0.9788
B(  1-C , 29-H ) :   0.9306 B(  2-C , 30-H ) :   0.9453 B(  2-C , 31-H ) :   0.9499
B(  2-C , 32-H ) :   0.9461 B(  3-C ,  4-C ) :   1.4373 B(  3-C , 25-C ) :   1.3989
B(  4-C ,  5-C ) :   1.4261 B(  4-C , 33-H ) :   0.9227 B(  5-C ,  6-C ) :   1.4173
B(  5-C , 34-H ) :   0.9249 B(  6-C ,  7-N ) :   0.8453 B(  6-C , 24-C ) :   1.4168
B(  7-N ,  8-C ) :   1.0384 B(  7-N , 35-H ) :   0.8277 B(  8-C ,  9-O ) :   1.8757
B(  8-C , 10-C ) :   0.9205 B( 10-C , 11-N ) :   0.9395 B( 10-C , 36-H ) :   0.8898
B( 10-C , 37-H ) :   0.9219 B( 11-N , 12-C ) :   1.2297 B( 11-N , 15-C ) :   1.0276
B( 12-C , 13-N ) :   1.4851 B( 12-C , 38-H ) :   0.9297 B( 13-N , 14-C ) :   1.3252
B( 14-C , 15-C ) :   1.3613 B( 14-C , 22-N ) :   0.9738 B( 15-C , 16-C ) :   1.0972
B( 16-C , 17-O ) :   1.7392 B( 16-C , 18-N ) :   0.9726 B( 18-N , 19-C ) :   0.9207
B( 18-N , 20-C ) :   1.0358 B( 19-C , 39-H ) :   0.9297 B( 19-C , 40-H ) :   0.9211
B( 19-C , 41-H ) :   0.9415 B( 20-C , 21-O ) :   1.7893 B( 20-C , 22-N ) :   1.0599
B( 22-N , 23-C ) :   0.9353 B( 23-C , 42-H ) :   0.9284 B( 23-C , 43-H ) :   0.9391
B( 23-C , 44-H ) :   0.9268 B( 24-C , 25-C ) :   1.4425 B( 24-C , 45-H ) :   0.9152
B( 25-C , 46-H ) :   0.9217

FINAL SINGLE POINT ENERGY     -1197.304184990440

DIPOLE MOMENT
-------------

Method             : SCF
Type of density    : Electron Density
Multiplicity       :   1
Irrep              :   0
Energy             : -1197.3041849904398077 Eh
Relativity type    :
Basis              : AO
                                X                 Y                 Z
Electronic contribution:     30.642546870       7.639471318       4.583409138
Nuclear contribution   :    -31.917101771      -5.611088472      -4.416565130
                        -----------------------------------------
Total Dipole Moment    :     -1.274554900       2.028382846       0.166844008
                        -----------------------------------------
Magnitude (a.u.)       :      2.401387950
Magnitude (Debye)      :      6.103843090

Rotational constants in cm-1:             0.012509             0.002857             0.002768
Rotational constants in MHz :           374.998702            85.637422            82.984561

                             ****ORCA TERMINATED NORMALLY****
TOTAL RUN TIME: 0 days 0 hours 3 minutes 57 seconds 738 msec
