                         Program Version 6.0.0  -   RELEASE  -
|  1> ! B3LYP 6-31G* SP
|  2>
|  3> * xyz 0 1
|  4> C -3.0387 1.5672 0.3208
|  5> C -2.1247 2.0896 -0.7667
|  6> C -0.9179 1.4201 -1.0813
|  7> N -0.5089 0.2470 -0.3694
|  8> C 0.0905 0.3614 0.9624
|  9> C 1.5508 0.0034 0.9184
| 10> C 2.4538 0.7899 0.1925
| 11> C 3.8034 0.4394 0.1373
| 12> C 4.2508 -0.7081 0.8143
| 13> C 5.6761 -1.1255 0.7860
| 14> C 6.5039 -0.8388 -0.3177
| 15> C 7.8414 -1.2472 -0.3252
| 16> C 8.3675 -1.9503 0.7610
| 17> C 7.5547 -2.2528 1.8538
| 18> C 6.2164 -1.8472 1.8671
| 19> N 3.3537 -1.4454 1.5292
| 20> C 2.0354 -1.1231 1.5966
| 21> S -0.7802 -1.3114 -1.0855
| 22> O 0.4420 -2.1722 -0.9321
| 23> O -1.0597 -1.1555 -2.5546
| 24> C -2.1584 -2.0725 -0.3026
| 25> C -3.4517 -1.8653 -0.7976
| 26> C -4.5522 -2.4371 -0.1529
| 27> C -4.3738 -3.2212 1.0019
| 28> C -5.5351 -3.8263 1.6912
| 29> O -6.7012 -3.6581 1.2446
| 30> O -5.3510 -4.5880 2.8423
| 31> C -3.0728 -3.4193 1.4967
| 32> C -1.9740 -2.8469 0.8488
| 33> N -0.1215 1.8819 -2.0803
| 34> C -0.4232 2.9902 -2.7988
| 35> C -1.5904 3.7072 -2.5262
| 36> C -1.9003 4.8611 -3.2628
| 37> C -3.0658 5.5760 -2.9883
| 38> C -3.9297 5.1459 -1.9811
| 39> C -3.6344 3.9991 -1.2398
| 40> C -2.4592 3.2588 -1.4991
| 41> H -2.6932 0.6112 0.7580
| 42> H -3.1034 2.3106 1.1429
| 43> H -4.0513 1.3833 -0.0958
| 44> H -0.0109 1.4006 1.3457
| 45> H -0.4606 -0.2959 1.6681
| 46> H 2.1140 1.6763 -0.3259
| 47> H 4.4867 1.0738 -0.4091
| 48> H 6.1181 -0.3228 -1.1859
| 49> H 8.4687 -1.0239 -1.1772
| 50> H 9.4033 -2.2658 0.7536
| 51> H 7.9624 -2.8005 2.6939
| 52> H 5.6078 -2.0880 2.7302
| 53> H 1.3668 -1.7488 2.1742
| 54> H -3.6108 -1.2525 -1.6760
| 55> H -5.5419 -2.2604 -0.5549
| 56> H -6.1393 -5.0085 3.3206
| 57> H -2.9027 -4.0132 2.3866
| 58> H -0.9808 -3.0018 1.2502
| 59> H 0.2543 3.3116 -3.5805
| 60> H -1.2406 5.2103 -4.0485
| 61> H -3.2992 6.4669 -3.5571
| 62> H -4.8323 5.7048 -1.7718
| 63> H -4.3309 3.7067 -0.4656
| 64> *
| 65>
| 66>                          ****END OF INPUT****

CARTESIAN COORDINATES (ANGSTROEM)
---------------------------------
  C     -3.038700    1.567200    0.320800
  C     -2.124700    2.089600   -0.766700
  C     -0.917900    1.420100   -1.081300
  N     -0.508900    0.247000   -0.369400
  C      0.090500    0.361400    0.962400
  C      1.550800    0.003400    0.918400
  C      2.453800    0.789900    0.192500
  C      3.803400    0.439400    0.137300
  C      4.250800   -0.708100    0.814300
  C      5.676100   -1.125500    0.786000
  C      6.503900   -0.838800   -0.317700
  C      7.841400   -1.247200   -0.325200
  C      8.367500   -1.950300    0.761000
  C      7.554700   -2.252800    1.853800
  C      6.216400   -1.847200    1.867100
  N      3.353700   -1.445400    1.529200
  C      2.035400   -1.123100    1.596600
  S     -0.780200   -1.311400   -1.085500
  O      0.442000   -2.172200   -0.932100
  O     -1.059700   -1.155500   -2.554600
  C     -2.158400   -2.072500   -0.302600
  C     -3.451700   -1.865300   -0.797600
  C     -4.552200   -2.437100   -0.152900
  C     -4.373800   -3.221200    1.001900
  C     -5.535100   -3.826300    1.691200
  O     -6.701200   -3.658100    1.244600
  O     -5.351000   -4.588000    2.842300
  C     -3.072800   -3.419300    1.496700
  C     -1.974000   -2.846900    0.848800
  N     -0.121500    1.881900   -2.080300
  C     -0.423200    2.990200   -2.798800
  C     -1.590400    3.707200   -2.526200
  C     -1.900300    4.861100   -3.262800
  C     -3.065800    5.576000   -2.988300
  C     -3.929700    5.145900   -1.981100
  C     -3.634400    3.999100   -1.239800
  C     -2.459200    3.258800   -1.499100
  H     -2.693200    0.611200    0.758000
  H     -3.103400    2.310600    1.142900
  H     -4.051300    1.383300   -0.095800
  H     -0.010900    1.400600    1.345700
  H     -0.460600   -0.295900    1.668100
  H      2.114000    1.676300   -0.325900
  H      4.486700    1.073800   -0.409100
  H      6.118100   -0.322800   -1.185900
  H      8.468700   -1.023900   -1.177200
  H      9.403300   -2.265800    0.753600
  H      7.962400   -2.800500    2.693900
  H      5.607800   -2.088000    2.730200
  H      1.366800   -1.748800    2.174200
  H     -3.610800   -1.252500   -1.676000
  H     -5.541900   -2.260400   -0.554900
  H     -6.139300   -5.008500    3.320600
  H     -2.902700   -4.013200    2.386600
  H     -0.980800   -3.001800    1.250200
  H      0.254300    3.311600   -3.580500
  H     -1.240600    5.210300   -4.048500
  H     -3.299200    6.466900   -3.557100
  H     -4.832300    5.704800   -1.771800
  H     -4.330900    3.706700   -0.465600

 Total Charge           Charge          ....    0
 Multiplicity           Mult            ....    1
 Number of Electrons    NEL             ....  266
 Basis Dimension        Dim             ....  568

ORBITAL ENERGIES
----------------

  NO   OCC          E(Eh)            E(eV)
   0   2.0000     -89.096395     -2424.4362
   1   2.0000     -19.198725      -522.4239
   2   2.0000     -19.140718      -520.8454
   3   2.0000     -19.123517      -520.3774
   4   2.0000     -19.122789      -520.3575
   5   2.0000     -14.370870      -391.0513
   6   2.0000     -14.331898      -389.9908
   7   2.0000     -14.311158      -389.4264
   8   2.0000     -10.338126      -281.3147
   9   2.0000     -10.262760      -279.2639
  10   2.0000     -10.243944      -278.7519
  11   2.0000     -10.239413      -278.6286
  12   2.0000     -10.235105      -278.5114
  13   2.0000     -10.226910      -278.2884
  14   2.0000     -10.223334      -278.1911
  15   2.0000     -10.222567      -278.1702
  16   2.0000     -10.220767      -278.1212
  17   2.0000     -10.220536      -278.1149
  18   2.0000     -10.215664      -277.9823
  19   2.0000     -10.215084      -277.9666
  20   2.0000     -10.211294      -277.8634
  21   2.0000     -10.209015      -277.8014
  22   2.0000     -10.204006      -277.6651
  23   2.0000     -10.202377      -277.6208
  24   2.0000     -10.201512      -277.5973
  25   2.0000     -10.200848      -277.5792
  26   2.0000     -10.199708      -277.5482
  27   2.0000     -10.194920      -277.4179
  28   2.0000     -10.187599      -277.2187
  29   2.0000     -10.185905      -277.1726
  30   2.0000     -10.182509      -277.0801
  31   2.0000     -10.178655      -276.9753
  32   2.0000     -10.174771      -276.8696
  33   2.0000     -10.172983      -276.8209
  34   2.0000     -10.172437      -276.8061
  35   2.0000     -10.171019      -276.7675
  36   2.0000     -10.169417      -276.7239
  37   2.0000      -8.131878      -221.2797
  38   2.0000      -6.096986      -165.9074
  39   2.0000      -6.094840      -165.8490
  40   2.0000      -6.094590      -165.8422
  41   2.0000      -1.083620       -29.4868
  42   2.0000      -1.081239       -29.4220
  43   2.0000      -0.997977       -27.1563
  44   2.0000      -0.964101       -26.2345
  45   2.0000      -0.958843       -26.0914
  46   2.0000      -0.920087       -25.0369
  47   2.0000      -0.912933       -24.8422
  48   2.0000      -0.893206       -24.3054
  49   2.0000      -0.868371       -23.6296
  50   2.0000      -0.840378       -22.8679
  51   2.0000      -0.814795       -22.1717
  52   2.0000      -0.810525       -22.0555
  53   2.0000      -0.796847       -21.6833
  54   2.0000      -0.779767       -21.2185
  55   2.0000      -0.778438       -21.1824
  56   2.0000      -0.772317       -21.0158
  57   2.0000      -0.748547       -20.3690
  58   2.0000      -0.736848       -20.0507
  59   2.0000      -0.731372       -19.9016
  60   2.0000      -0.717557       -19.5257
  61   2.0000      -0.704898       -19.1812
  62   2.0000      -0.683601       -18.6017
  63   2.0000      -0.657301       -17.8861
  64   2.0000      -0.648899       -17.6574
  65   2.0000      -0.640434       -17.4271
  66   2.0000      -0.625693       -17.0260
  67   2.0000      -0.623452       -16.9650
  68   2.0000      -0.614115       -16.7109
  69   2.0000      -0.600861       -16.3502
  70   2.0000      -0.595048       -16.1921
  71   2.0000      -0.586310       -15.9543
  72   2.0000      -0.571626       -15.5547
  73   2.0000      -0.561270       -15.2729
  74   2.0000      -0.544980       -14.8297
  75   2.0000      -0.535363       -14.5680
  76   2.0000      -0.520595       -14.1661
  77   2.0000      -0.515308       -14.0222
  78   2.0000      -0.506610       -13.7856
  79   2.0000      -0.494990       -13.4694
  80   2.0000      -0.487765       -13.2728
  81   2.0000      -0.482651       -13.1336
  82   2.0000      -0.481193       -13.0939
  83   2.0000      -0.476678       -12.9711
  84   2.0000      -0.470520       -12.8035
  85   2.0000      -0.463923       -12.6240
  86   2.0000      -0.462976       -12.5982
  87   2.0000      -0.455499       -12.3948
  88   2.0000      -0.451547       -12.2872
  89   2.0000      -0.450303       -12.2534
  90   2.0000      -0.445034       -12.1100
  91   2.0000      -0.441881       -12.0242
  92   2.0000      -0.436961       -11.8903
  93   2.0000      -0.434308       -11.8181
  94   2.0000      -0.430629       -11.7180
  95   2.0000      -0.421063       -11.4577
  96   2.0000      -0.420254       -11.4357
  97   2.0000      -0.414944       -11.2912
  98   2.0000      -0.412330       -11.2201
  99   2.0000      -0.407171       -11.0797
 100   2.0000      -0.406872       -11.0716
 101   2.0000      -0.402263       -10.9461
 102   2.0000      -0.397169       -10.8075
 103   2.0000      -0.390138       -10.6162
 104   2.0000      -0.389087       -10.5876
 105   2.0000      -0.387516       -10.5449
 106   2.0000      -0.378573       -10.3015
 107   2.0000      -0.373541       -10.1646
 108   2.0000      -0.371394       -10.1061
 109   2.0000      -0.366677        -9.9778
 110   2.0000      -0.356979        -9.7139
 111   2.0000      -0.353749        -9.6260
 112   2.0000      -0.348395        -9.4803
 113   2.0000      -0.333979        -9.0880
 114   2.0000      -0.331796        -9.0286
 115   2.0000      -0.325150        -8.8478
 116   2.0000      -0.322841        -8.7850
 117   2.0000      -0.307752        -8.3743
 118   2.0000      -0.296369        -8.0646
 119   2.0000      -0.293419        -7.9843
 120   2.0000      -0.288099        -7.8396
 121   2.0000      -0.281904        -7.6710
 122   2.0000      -0.277636        -7.5549
 123   2.0000      -0.273775        -7.4498
 124   2.0000      -0.270790        -7.3686
 125   2.0000      -0.267224        -7.2715
 126   2.0000      -0.259808        -7.0697
 127   2.0000      -0.257221        -6.9993
 128   2.0000      -0.250148        -6.8069
 129   2.0000      -0.238222        -6.4824
 130   2.0000      -0.231208        -6.2915
 131   2.0000      -0.226732        -6.1697
 132   2.0000      -0.214367        -5.8332
 133   0.0000      -0.086122        -2.3435
 134   0.0000      -0.064982        -1.7683
 135   0.0000      -0.037165        -1.0113
 136   0.0000      -0.032607        -0.8873
 137   0.0000      -0.029117        -0.7923

MULLIKEN ATOMIC CHARGES
-----------------------
   0 C :   -0.543567
   1 C :    0.102540
   2 C :    0.304135
   3 N :   -0.597798
   4 C :   -0.268944
   5 C :    0.176344
   6 C :   -0.121436
   7 C :   -0.167817
   8 C :    0.195696
   9 C :    0.111778
  10 C :   -0.172074
  11 C :   -0.133849
  12 C :   -0.120007
  13 C :   -0.131269
  14 C :   -0.154344
  15 N :   -0.419823
  16 C :   -0.005220
  17 S :    1.201528
  18 O :   -0.525957
  19 O :   -0.532347
  20 C :   -0.122140
  21 C :   -0.146581
  22 C :   -0.141277
  23 C :    0.082319
  24 C :    0.528525
  25 O :   -0.443540
  26 O :   -0.623652
  27 C :   -0.147457
  28 C :   -0.155063
  29 N :   -0.363618
  30 C :   -0.052269
  31 C :    0.136851
  32 C :   -0.201446
  33 C :   -0.126424
  34 C :   -0.119873
  35 C :   -0.200466
  36 C :    0.124229
  37 H :    0.169085
  38 H :    0.163539
  39 H :    0.166597
  40 H :    0.179388
  41 H :    0.150346
  42 H :    0.148098
  43 H :    0.134399
  44 H :    0.132959
  45 H :    0.126629
  46 H :    0.124605
  47 H :    0.126403
  48 H :    0.145355
  49 H :    0.129799
  50 H :    0.188110
  51 H :    0.180577
  52 H :    0.434902
  53 H :    0.174759
  54 H :    0.184821
  55 H :    0.156632
  56 H :    0.142359
  57 H :    0.138137
  58 H :    0.139000
  59 H :    0.137813
Sum of atomic charges:   -0.0000000

LOEWDIN ATOMIC CHARGES
----------------------
   0 C :   -0.361672
   1 C :   -0.018835
   2 C :    0.026938
   3 N :   -0.282667
   4 C :   -0.146841
   5 C :   -0.047786
   6 C :   -0.092963
   7 C :   -0.136352
   8 C :    0.036495
   9 C :   -0.020886
  10 C :   -0.124778
  11 C :   -0.131041
  12 C :   -0.127833
  13 C :   -0.130558
  14 C :   -0.108435
  15 N :   -0.135507
  16 C :   -0.064197
  17 S :    1.267572
  18 O :   -0.555731
  19 O :   -0.561314
  20 C :   -0.176435
  21 C :   -0.103805
  22 C :   -0.086966
  23 C :   -0.039690
  24 C :    0.179378
  25 O :   -0.259681
  26 O :   -0.334541
  27 C :   -0.098704
  28 C :   -0.111700
  29 N :   -0.113843
  30 C :   -0.055735
  31 C :   -0.027891
  32 C :   -0.109870
  33 C :   -0.125377
  34 C :   -0.116189
  35 C :   -0.125734
  36 C :   -0.007186
  37 H :    0.138146
  38 H :    0.137773
  39 H :    0.139143
  40 H :    0.147229
  41 H :    0.123166
  42 H :    0.141983
  43 H :    0.135781
  44 H :    0.133569
  45 H :    0.130809
  46 H :    0.129631
  47 H :    0.130460
  48 H :    0.142584
  49 H :    0.125481
  50 H :    0.161490
  51 H :    0.160339
  52 H :    0.350400
  53 H :    0.155527
  54 H :    0.157017
  55 H :    0.139360
  56 H :    0.138693
  57 H :    0.136483
  58 H :    0.137174
  59 H :    0.138124

  Mayer bond orders larger than 0.100000
B(  0-C ,  1-C ) :   0.9986 B(  0-C , 37-H ) :   0.9299 B(  0-C , 38-H ) :   0.9272
B(  0-C , 39-H ) :   0.9275 B(  1-C ,  2-C ) :   1.4328 B(  1-C , 30-C ) :   0.1018
B(  1-C , 36-C ) :   1.2628 B(  2-C ,  3-N ) :   0.8922 B(  2-C , 29-N ) :   1.2918
B(  3-N ,  4-C ) :   0.9195 B(  3-N , 17-S ) :   0.8016 B(  4-C ,  5-C ) :   0.9513
B(  4-C , 40-H ) :   0.9198 B(  4-C , 41-H ) :   0.9242 B(  5-C ,  6-C ) :   1.4174
B(  5-C , 16-C ) :   1.3848 B(  6-C ,  7-C ) :   1.4480 B(  6-C , 42-H ) :   0.9132
B(  7-C ,  8-C ) :   1.3665 B(  7-C , 43-H ) :   0.9164 B(  8-C ,  9-C ) :   1.0240
B(  8-C , 15-N ) :   1.3760 B(  9-C , 10-C ) :   1.4108 B(  9-C , 14-C ) :   1.4034
B( 10-C , 11-C ) :   1.4411 B( 10-C , 44-H ) :   0.9197 B( 11-C , 12-C ) :   1.4507
B( 11-C , 45-H ) :   0.9301 B( 12-C , 13-C ) :   1.4463 B( 12-C , 46-H ) :   0.9309
B( 13-C , 14-C ) :   1.4321 B( 13-C , 47-H ) :   0.9311 B( 14-C , 48-H ) :   0.9156
B( 15-N , 16-C ) :   1.4310 B( 16-C , 49-H ) :   0.9265 B( 17-S , 18-O ) :   1.6517
B( 17-S , 19-O ) :   1.6425 B( 17-S , 20-C ) :   0.8101 B( 20-C , 21-C ) :   1.3802
B( 20-C , 28-C ) :   1.3904 B( 21-C , 22-C ) :   1.4219 B( 21-C , 50-H ) :   0.9083
B( 22-C , 23-C ) :   1.3982 B( 22-C , 51-H ) :   0.9096 B( 23-C , 24-C ) :   1.0077
B( 23-C , 27-C ) :   1.3876 B( 24-C , 25-O ) :   1.8638 B( 24-C , 26-O ) :   1.0257
B( 26-O , 52-H ) :   0.7413 B( 27-C , 28-C ) :   1.4129 B( 27-C , 53-H ) :   0.9144
B( 28-C , 54-H ) :   0.9071 B( 29-N , 30-C ) :   1.4942 B( 30-C , 31-C ) :   1.2331
B( 30-C , 55-H ) :   0.9257 B( 31-C , 32-C ) :   1.2837 B( 31-C , 36-C ) :   1.2922
B( 32-C , 33-C ) :   1.5128 B( 32-C , 35-C ) :   0.1060 B( 32-C , 56-H ) :   0.9227
B( 33-C , 34-C ) :   1.3529 B( 33-C , 57-H ) :   0.9289 B( 34-C , 35-C ) :   1.5089
B( 34-C , 58-H ) :   0.9288 B( 35-C , 36-C ) :   1.2941 B( 35-C , 59-H ) :   0.9169

FINAL SINGLE POINT ENERGY     -1981.163078178098

DIPOLE MOMENT
-------------

Method             : SCF
Type of density    : Electron Density
Multiplicity       :   1
Irrep              :   0
Energy             : -1981.1630781780979760 Eh
Relativity type    :
Basis              : AO
                                X                 Y                 Z
Electronic contribution:     -7.711992557     -10.384938451      -3.901134521
Nuclear contribution   :      6.058719304      12.405309707       5.325671961
                        -----------------------------------------
Total Dipole Moment    :     -1.653273253       2.020371256       1.424537441
                        -----------------------------------------
Magnitude (a.u.)       :      2.973973669
Magnitude (Debye)      :      7.559240323

Rotational constants in cm-1:             0.003568             0.001969             0.001361
Rotational constants in MHz :           106.969037            59.033404            40.808432

                             ****ORCA TERMINATED NORMALLY****
TOTAL RUN TIME: 0 days 0 hours 12 minutes 14 seconds 138 msec
