                         Program Version 6.0.0  -   RELEASE  -
|  1> ! B3LYP 6-31G* SP
|  2>
|  3> * xyz 0 1
|  4> C -5.7320 2.6609 -0.0397
|  5> N -5.2156 1.2814 -0.0853
|  6> C -4.4093 0.8859 -1.1280
|  7> O -4.1202 1.6827 -2.0620
|  8> C -3.9105 -0.4148 -1.1268
|  9> C -4.2145 -1.2542 -0.0987
| 10> C -3.5607 -2.4530 -0.3213
| 11> C -2.8749 -2.2736 -1.5155
| 12> N -3.0937 -1.0312 -2.0120
| 13> C -2.4642 -0.4802 -3.2138
| 14> C -1.2960 0.3798 -2.8363
| 15> O -1.3128 1.6063 -3.1257
| 16> N -0.1657 -0.2051 -2.1704
| 17> C 0.8951 0.5382 -1.5535
| 18> N 1.9968 -0.0566 -1.0504
| 19> C 2.8546 0.8351 -0.4785
| 20> C 4.1398 0.3926 0.1240
| 21> C 4.6172 -0.9075 -0.1233
| 22> C 5.8263 -1.3396 0.4281
| 23> C 6.5842 -0.4899 1.2398
| 24> O 7.7947 -0.9759 1.7603
| 25> C 8.6860 -0.2414 2.5964
| 26> F 8.0524 0.1107 3.7750
| 27> F 9.7758 -1.0362 2.8965
| 28> F 9.1287 0.8935 1.9405
| 29> C 6.1074 0.8074 1.5029
| 30> C 4.8986 1.2429 0.9510
| 31> C 2.4199 2.1645 -0.5261
| 32> S 0.9277 2.2014 -1.3002
| 33> N -5.0012 -0.8768 0.9473
| 34> C -5.2585 -1.8081 2.0563
| 35> C -5.4812 0.4154 0.9614
| 36> O -6.1653 0.8164 1.9454
| 37> H -5.0330 3.3012 0.5394
| 38> H -5.8546 3.0845 -1.0594
| 39> H -6.7370 2.6953 0.4333
| 40> H -3.5565 -3.3367 0.3020
| 41> H -2.2356 -3.0120 -1.9831
| 42> H -2.1054 -1.3051 -3.8669
| 43> H -3.2083 0.0968 -3.8034
| 44> H -0.1120 -1.2473 -2.1196
| 45> H 4.0613 -1.5916 -0.7520
| 46> H 6.1792 -2.3420 0.2197
| 47> H 6.6588 1.4890 2.1344
| 48> H 4.5608 2.2417 1.1890
| 49> H 2.9403 3.0349 -0.1539
| 50> H -5.4819 -2.8241 1.6656
| 51> H -6.1380 -1.4991 2.6598
| 52> H -4.3671 -1.8564 2.7172
| 53> *
| 54>
| 55>                          ****END OF INPUT****

CARTESIAN COORDINATES (ANGSTROEM)
---------------------------------
  C     -5.732000    2.660900   -0.039700
  N     -5.215600    1.281400   -0.085300
  C     -4.409300    0.885900   -1.128000
  O     -4.120200    1.682700   -2.062000
  C     -3.910500   -0.414800   -1.126800
  C     -4.214500   -1.254200   -0.098700
  C     -3.560700   -2.453000   -0.321300
  C     -2.874900   -2.273600   -1.515500
  N     -3.093700   -1.031200   -2.012000
  C     -2.464200   -0.480200   -3.213800
  C     -1.296000    0.379800   -2.836300
  O     -1.312800    1.606300   -3.125700
  N     -0.165700   -0.205100   -2.170400
  C      0.895100    0.538200   -1.553500
  N      1.996800   -0.056600   -1.050400
  C      2.854600    0.835100   -0.478500
  C      4.139800    0.392600    0.124000
  C      4.617200   -0.907500   -0.123300
  C      5.826300   -1.339600    0.428100
  C      6.584200   -0.489900    1.239800
  O      7.794700   -0.975900    1.760300
  C      8.686000   -0.241400    2.596400
  F      8.052400    0.110700    3.775000
  F      9.775800   -1.036200    2.896500
  F      9.128700    0.893500    1.940500
  C      6.107400    0.807400    1.502900
  C      4.898600    1.242900    0.951000
  C      2.419900    2.164500   -0.526100
  S      0.927700    2.201400   -1.300200
  N     -5.001200   -0.876800    0.947300
  C     -5.258500   -1.808100    2.056300
  C     -5.481200    0.415400    0.961400
  O     -6.165300    0.816400    1.945400
  H     -5.033000    3.301200    0.539400
  H     -5.854600    3.084500   -1.059400
  H     -6.737000    2.695300    0.433300
  H     -3.556500   -3.336700    0.302000
  H     -2.235600   -3.012000   -1.983100
  H     -2.105400   -1.305100   -3.866900
  H     -3.208300    0.096800   -3.803400
  H     -0.112000   -1.247300   -2.119600
  H      4.061300   -1.591600   -0.752000
  H      6.179200   -2.342000    0.219700
  H      6.658800    1.489000    2.134400
  H      4.560800    2.241700    1.189000
  H      2.940300    3.034900   -0.153900
  H     -5.481900   -2.824100    1.665600
  H     -6.138000   -1.499100    2.659800
  H     -4.367100   -1.856400    2.717200

 Total Charge           Charge          ....    0
 Multiplicity           Mult            ....    1
 Number of Electrons    NEL             ....  246
 Basis Dimension        Dim             ....  498

ORBITAL ENERGIES
----------------

  NO   OCC          E(Eh)            E(eV)
   0   2.0000     -88.903946     -2419.1994
   1   2.0000     -24.739761      -673.2031
   2   2.0000     -24.737506      -673.1418
   3   2.0000     -24.737433      -673.1398
   4   2.0000     -19.210588      -522.7467
   5   2.0000     -19.139393      -520.8094
   6   2.0000     -19.101902      -519.7892
   7   2.0000     -19.100676      -519.7558
   8   2.0000     -14.415397      -392.2629
   9   2.0000     -14.402557      -391.9135
  10   2.0000     -14.393910      -391.6782
  11   2.0000     -14.388446      -391.5295
  12   2.0000     -14.333313      -390.0293
  13   2.0000     -10.502467      -285.7867
  14   2.0000     -10.318636      -280.7843
  15   2.0000     -10.318154      -280.7713
  16   2.0000     -10.292535      -280.0741
  17   2.0000     -10.285496      -279.8826
  18   2.0000     -10.265452      -279.3371
  19   2.0000     -10.261108      -279.2189
  20   2.0000     -10.236738      -278.5558
  21   2.0000     -10.232642      -278.4444
  22   2.0000     -10.231565      -278.4150
  23   2.0000     -10.226638      -278.2810
  24   2.0000     -10.216482      -278.0046
  25   2.0000     -10.212592      -277.8988
  26   2.0000     -10.206017      -277.7198
  27   2.0000     -10.201266      -277.5906
  28   2.0000     -10.195984      -277.4468
  29   2.0000     -10.194771      -277.4138
  30   2.0000     -10.193422      -277.3771
  31   2.0000     -10.191223      -277.3173
  32   2.0000     -10.191066      -277.3130
  33   2.0000      -7.980034      -217.1478
  34   2.0000      -5.943174      -161.7220
  35   2.0000      -5.938876      -161.6050
  36   2.0000      -5.937045      -161.5552
  37   2.0000      -1.302525       -35.4435
  38   2.0000      -1.223359       -33.2893
  39   2.0000      -1.222892       -33.2766
  40   2.0000      -1.080575       -29.4039
  41   2.0000      -1.061559       -28.8865
  42   2.0000      -1.042380       -28.3646
  43   2.0000      -1.026494       -27.9323
  44   2.0000      -1.008631       -27.4463
  45   2.0000      -0.980026       -26.6679
  46   2.0000      -0.961730       -26.1700
  47   2.0000      -0.930247       -25.3133
  48   2.0000      -0.922045       -25.0901
  49   2.0000      -0.862595       -23.4724
  50   2.0000      -0.842306       -22.9203
  51   2.0000      -0.810282       -22.0489
  52   2.0000      -0.785237       -21.3674
  53   2.0000      -0.784436       -21.3456
  54   2.0000      -0.756581       -20.5876
  55   2.0000      -0.753068       -20.4920
  56   2.0000      -0.733207       -19.9516
  57   2.0000      -0.731353       -19.9011
  58   2.0000      -0.707458       -19.2509
  59   2.0000      -0.695506       -18.9257
  60   2.0000      -0.650973       -17.7139
  61   2.0000      -0.646195       -17.5839
  62   2.0000      -0.635540       -17.2939
  63   2.0000      -0.631871       -17.1941
  64   2.0000      -0.621798       -16.9200
  65   2.0000      -0.601711       -16.3734
  66   2.0000      -0.596640       -16.2354
  67   2.0000      -0.594718       -16.1831
  68   2.0000      -0.591088       -16.0843
  69   2.0000      -0.587918       -15.9981
  70   2.0000      -0.570601       -15.5268
  71   2.0000      -0.565243       -15.3810
  72   2.0000      -0.540640       -14.7116
  73   2.0000      -0.523559       -14.2468
  74   2.0000      -0.514963       -14.0129
  75   2.0000      -0.505426       -13.7533
  76   2.0000      -0.500562       -13.6210
  77   2.0000      -0.493862       -13.4387
  78   2.0000      -0.488329       -13.2881
  79   2.0000      -0.476062       -12.9543
  80   2.0000      -0.468420       -12.7463
  81   2.0000      -0.467357       -12.7174
  82   2.0000      -0.461094       -12.5470
  83   2.0000      -0.458884       -12.4869
  84   2.0000      -0.458377       -12.4731
  85   2.0000      -0.454786       -12.3754
  86   2.0000      -0.449894       -12.2422
  87   2.0000      -0.444085       -12.0842
  88   2.0000      -0.443494       -12.0681
  89   2.0000      -0.439414       -11.9571
  90   2.0000      -0.436379       -11.8745
  91   2.0000      -0.432348       -11.7648
  92   2.0000      -0.428405       -11.6575
  93   2.0000      -0.423065       -11.5122
  94   2.0000      -0.421302       -11.4642
  95   2.0000      -0.419087       -11.4039
  96   2.0000      -0.415044       -11.2939
  97   2.0000      -0.410508       -11.1705
  98   2.0000      -0.405824       -11.0430
  99   2.0000      -0.399984       -10.8841
 100   2.0000      -0.396710       -10.7950
 101   2.0000      -0.392020       -10.6674
 102   2.0000      -0.389709       -10.6045
 103   2.0000      -0.388072       -10.5600
 104   2.0000      -0.379119       -10.3163
 105   2.0000      -0.374916       -10.2020
 106   2.0000      -0.369723       -10.0607
 107   2.0000      -0.354767        -9.6537
 108   2.0000      -0.352555        -9.5935
 109   2.0000      -0.345136        -9.3916
 110   2.0000      -0.322769        -8.7830
 111   2.0000      -0.315817        -8.5938
 112   2.0000      -0.289892        -7.8884
 113   2.0000      -0.278413        -7.5760
 114   2.0000      -0.270888        -7.3712
 115   2.0000      -0.265603        -7.2274
 116   2.0000      -0.259268        -7.0550
 117   2.0000      -0.257643        -7.0108
 118   2.0000      -0.250875        -6.8267
 119   2.0000      -0.248634        -6.7657
 120   2.0000      -0.240695        -6.5497
 121   2.0000      -0.216446        -5.8898
 122   2.0000      -0.209539        -5.7019
 123   0.0000      -0.044425        -1.2089
 124   0.0000      -0.030486        -0.8296
 125   0.0000      -0.024557        -0.6682
 126   0.0000      -0.009874        -0.2687
 127   0.0000       0.015108         0.4111

MULLIKEN ATOMIC CHARGES
-----------------------
   0 C :   -0.312298
   1 N :   -0.489019
   2 C :    0.546921
   3 O :   -0.506729
   4 C :    0.205989
   5 C :    0.286720
   6 C :   -0.210265
   7 C :   -0.004392
   8 N :   -0.428698
   9 C :   -0.254126
  10 C :    0.574443
  11 O :   -0.418840
  12 N :   -0.644576
  13 C :    0.259582
  14 N :   -0.438758
  15 C :    0.213142
  16 C :    0.117970
  17 C :   -0.163398
  18 C :   -0.173319
  19 C :    0.356230
  20 O :   -0.546290
  21 C :    1.085749
  22 F :   -0.291662
  23 F :   -0.279711
  24 F :   -0.291568
  25 C :   -0.195244
  26 C :   -0.178525
  27 C :   -0.404934
  28 S :    0.325894
  29 N :   -0.506611
  30 C :   -0.328302
  31 C :    0.667166
  32 O :   -0.515573
  33 H :    0.176473
  34 H :    0.195406
  35 H :    0.189666
  36 H :    0.144190
  37 H :    0.152084
  38 H :    0.175754
  39 H :    0.240019
  40 H :    0.348640
  41 H :    0.155177
  42 H :    0.146661
  43 H :    0.151652
  44 H :    0.134735
  45 H :    0.181943
  46 H :    0.164486
  47 H :    0.212974
  48 H :    0.173173
Sum of atomic charges:   -0.0000000

LOEWDIN ATOMIC CHARGES
----------------------
   0 C :   -0.258542
   1 N :   -0.031075
   2 C :    0.100229
   3 O :   -0.304026
   4 C :   -0.069036
   5 C :    0.012356
   6 C :   -0.205120
   7 C :   -0.100277
   8 N :    0.050012
   9 C :   -0.159856
  10 C :    0.138570
  11 O :   -0.225350
  12 N :   -0.201218
  13 C :   -0.081378
  14 N :   -0.189116
  15 C :   -0.006476
  16 C :   -0.024627
  17 C :   -0.107581
  18 C :   -0.141202
  19 C :    0.084982
  20 O :   -0.159922
  21 C :    0.359308
  22 F :   -0.105372
  23 F :   -0.088215
  24 F :   -0.105106
  25 C :   -0.159311
  26 C :   -0.116355
  27 C :   -0.350566
  28 S :    0.433663
  29 N :   -0.027051
  30 C :   -0.259673
  31 C :    0.141566
  32 O :   -0.324708
  33 H :    0.139513
  34 H :    0.152863
  35 H :    0.149569
  36 H :    0.142016
  37 H :    0.136841
  38 H :    0.145509
  39 H :    0.181832
  40 H :    0.270297
  41 H :    0.148124
  42 H :    0.144298
  43 H :    0.141841
  44 H :    0.135612
  45 H :    0.161045
  46 H :    0.133434
  47 H :    0.162792
  48 H :    0.134890

  Mayer bond orders larger than 0.100000
B(  0-C ,  1-N ) :   0.9205 B(  0-C , 33-H ) :   0.9411 B(  0-C , 34-H ) :   0.9232
B(  0-C , 35-H ) :   0.9281 B(  1-N ,  2-C ) :   0.9741 B(  1-N , 31-C ) :   1.0345
B(  2-C ,  3-O ) :   1.7336 B(  2-C ,  4-C ) :   1.1036 B(  4-C ,  5-C ) :   1.3670
B(  4-C ,  8-N ) :   1.0378 B(  5-C ,  6-C ) :   1.3568 B(  5-C , 29-N ) :   0.9583
B(  6-C ,  7-C ) :   1.4811 B(  6-C , 36-H ) :   0.9240 B(  7-C ,  8-N ) :   1.2086
B(  7-C , 37-H ) :   0.9260 B(  8-N ,  9-C ) :   0.9365 B(  9-C , 10-C ) :   0.9325
B(  9-C , 38-H ) :   0.9175 B(  9-C , 39-H ) :   0.8967 B( 10-C , 11-O ) :   1.8423
B( 10-C , 12-N ) :   1.0205 B( 12-N , 13-C ) :   0.9418 B( 12-N , 40-H ) :   0.8074
B( 13-C , 14-N ) :   1.4797 B( 13-C , 27-C ) :   0.1101 B( 13-C , 28-S ) :   1.1884
B( 14-N , 15-C ) :   1.2894 B( 15-C , 16-C ) :   1.0562 B( 15-C , 27-C ) :   1.5151
B( 16-C , 17-C ) :   1.3974 B( 16-C , 26-C ) :   1.4031 B( 17-C , 18-C ) :   1.4236
B( 17-C , 41-H ) :   0.9121 B( 18-C , 19-C ) :   1.4134 B( 18-C , 42-H ) :   0.9197
B( 19-C , 20-O ) :   0.8211 B( 19-C , 25-C ) :   1.3865 B( 20-O , 21-C ) :   0.9924
B( 21-C , 22-F ) :   0.9683 B( 21-C , 23-F ) :   1.0073 B( 21-C , 24-F ) :   0.9680
B( 25-C , 26-C ) :   1.4372 B( 25-C , 43-H ) :   0.9095 B( 26-C , 44-H ) :   0.9191
B( 27-C , 28-S ) :   1.1095 B( 27-C , 45-H ) :   0.9014 B( 29-N , 30-C ) :   0.9450
B( 29-N , 31-C ) :   1.0595 B( 30-C , 46-H ) :   0.9334 B( 30-C , 47-H ) :   0.9215
B( 30-C , 48-H ) :   0.9360 B( 31-C , 32-O ) :   1.7860

FINAL SINGLE POINT ENERGY     -2043.182107870187

DIPOLE MOMENT
-------------

Method             : SCF
Type of density    : Electron Density
Multiplicity       :   1
Irrep              :   0
Energy             : -2043.1821078701866554 Eh
Relativity type    :
Basis              : AO
                                X                 Y                 Z
Electronic contribution:     54.062322756       3.239275771       9.349954488
Nuclear contribution   :    -54.378820436      -5.139884351      -9.694291218
                        -----------------------------------------
Total Dipole Moment    :     -0.316497680      -1.900608580      -0.344336730
                        -----------------------------------------
Magnitude (a.u.)       :      1.957307217
Magnitude (Debye)      :      4.975079569

Rotational constants in cm-1:             0.008364             0.001205             0.001164
Rotational constants in MHz :           250.732136            36.130927            34.906283

                             ****ORCA TERMINATED NORMALLY****
TOTAL RUN TIME: 0 days 0 hours 5 minutes 1 seconds 60 msec
