                         Program Version 6.0.0  -   RELEASE  -
|  1> ! B3LYP 6-31G* SP
|  2>
|  3> * xyz -1 1
|  4> C 0.4579 -1.4684 -1.9671
|  5> C -0.2781 -1.6797 -0.6630
|  6> C -0.8224 -0.5818 0.0429
|  7> N -0.6338 0.7616 -0.4141
|  8> C 0.3741 1.6135 0.2200
|  9> C 1.7559 1.1113 -0.0978
| 10> C 2.4422 1.4716 -1.2489
| 11> C 3.5844 0.7096 -1.2453
| 12> C 4.6116 0.6565 -2.1828
| 13> C 5.6558 -0.2508 -1.9629
| 14> C 5.6550 -1.0755 -0.8203
| 15> C 4.6084 -1.0063 0.1191
| 16> Cl 4.6840 -2.0640 1.5222
| 17> C 3.5655 -0.0858 -0.1228
| 18> N 2.4390 0.1540 0.5943
| 19> C 2.0208 -0.5154 1.8292
| 20> S -1.8272 1.4718 -1.4535
| 21> O -1.1402 2.2191 -2.5633
| 22> O -2.6877 0.3994 -2.0631
| 23> C -2.8329 2.5563 -0.5007
| 24> C -3.7324 2.0264 0.4310
| 25> C -4.5058 2.8762 1.2264
| 26> C -4.3841 4.2725 1.1048
| 27> C -5.1924 5.1771 1.9518
| 28> O -6.0201 4.7108 2.7788
| 29> O -5.0448 6.5561 1.8508
| 30> C -3.4789 4.7981 0.1672
| 31> C -2.7067 3.9454 -0.6276
| 32> N -1.4918 -0.7819 1.2076
| 33> C -1.6584 -2.0126 1.7478
| 34> C -1.1117 -3.1343 1.1206
| 35> C -1.2532 -4.4055 1.6965
| 36> C -0.6849 -5.5206 1.0819
| 37> C 0.0249 -5.3762 -0.1094
| 38> C 0.1656 -4.1170 -0.6990
| 39> C -0.4044 -2.9746 -0.0972
| 40> H 0.0318 -2.1246 -2.7526
| 41> H 0.3818 -0.4290 -2.3410
| 42> H 1.5329 -1.7048 -1.8298
| 43> H 0.2807 2.6567 -0.1518
| 44> H 0.1996 1.6659 1.3124
| 45> H 2.1278 2.1759 -2.0066
| 46> H 4.6024 1.2908 -3.0597
| 47> H 6.4690 -0.3185 -2.6735
| 48> H 6.4735 -1.7677 -0.6671
| 49> H 1.0560 -0.1313 2.2066
| 50> H 1.8979 -1.6026 1.6430
| 51> H 2.7773 -0.3449 2.6229
| 52> H -3.8320 0.9537 0.5457
| 53> H -5.1939 2.4401 1.9399
| 54> H -3.3614 5.8682 0.0511
| 55> H -2.0082 4.3714 -1.3348
| 56> H -2.2022 -2.1090 2.6790
| 57> H -1.7963 -4.5349 2.6253
| 58> H -0.7911 -6.4982 1.5333
| 59> H 0.4702 -6.2433 -0.5781
| 60> H 0.7307 -4.0510 -1.6181
| 61> *
| 62>
| 63>                          ****END OF INPUT****

CARTESIAN COORDINATES (ANGSTROEM)
---------------------------------
  C      0.457900   -1.468400   -1.967100
  C     -0.278100   -1.679700   -0.663000
  C     -0.822400   -0.581800    0.042900
  N     -0.633800    0.761600   -0.414100
  C      0.374100    1.613500    0.220000
  C      1.755900    1.111300   -0.097800
  C      2.442200    1.471600   -1.248900
  C      3.584400    0.709600   -1.245300
  C      4.611600    0.656500   -2.182800
  C      5.655800   -0.250800   -1.962900
  C      5.655000   -1.075500   -0.820300
  C      4.608400   -1.006300    0.119100
  Cl     4.684000   -2.064000    1.522200
  C      3.565500   -0.085800   -0.122800
  N      2.439000    0.154000    0.594300
  C      2.020800   -0.515400    1.829200
  S     -1.827200    1.471800   -1.453500
  O     -1.140200    2.219100   -2.563300
  O     -2.687700    0.399400   -2.063100
  C     -2.832900    2.556300   -0.500700
  C     -3.732400    2.026400    0.431000
  C     -4.505800    2.876200    1.226400
  C     -4.384100    4.272500    1.104800
  C     -5.192400    5.177100    1.951800
  O     -6.020100    4.710800    2.778800
  O     -5.044800    6.556100    1.850800
  C     -3.478900    4.798100    0.167200
  C     -2.706700    3.945400   -0.627600
  N     -1.491800   -0.781900    1.207600
  C     -1.658400   -2.012600    1.747800
  C     -1.111700   -3.134300    1.120600
  C     -1.253200   -4.405500    1.696500
  C     -0.684900   -5.520600    1.081900
  C      0.024900   -5.376200   -0.109400
  C      0.165600   -4.117000   -0.699000
  C     -0.404400   -2.974600   -0.097200
  H      0.031800   -2.124600   -2.752600
  H      0.381800   -0.429000   -2.341000
  H      1.532900   -1.704800   -1.829800
  H      0.280700    2.656700   -0.151800
  H      0.199600    1.665900    1.312400
  H      2.127800    2.175900   -2.006600
  H      4.602400    1.290800   -3.059700
  H      6.469000   -0.318500   -2.673500
  H      6.473500   -1.767700   -0.667100
  H      1.056000   -0.131300    2.206600
  H      1.897900   -1.602600    1.643000
  H      2.777300   -0.344900    2.622900
  H     -3.832000    0.953700    0.545700
  H     -5.193900    2.440100    1.939900
  H     -3.361400    5.868200    0.051100
  H     -2.008200    4.371400   -1.334800
  H     -2.202200   -2.109000    2.679000
  H     -1.796300   -4.534900    2.625300
  H     -0.791100   -6.498200    1.533300
  H      0.470200   -6.243300   -0.578100
  H      0.730700   -4.051000   -1.618100

 Total Charge           Charge          ....   -1
 Multiplicity           Mult            ....    1
 Number of Electrons    NEL             ....  270
 Basis Dimension        Dim             ....  554

ORBITAL ENERGIES
----------------

  NO   OCC          E(Eh)            E(eV)
   0   2.0000    -101.475660     -2761.2931
   1   2.0000     -89.002178     -2421.8724
   2   2.0000     -19.035123      -517.9720
   3   2.0000     -19.033818      -517.9365
   4   2.0000     -18.903626      -514.3938
   5   2.0000     -18.882868      -513.8290
   6   2.0000     -14.326650      -389.8480
   7   2.0000     -14.285995      -388.7417
   8   2.0000     -14.268605      -388.2685
   9   2.0000     -10.191235      -277.3176
  10   2.0000     -10.186439      -277.1871
  11   2.0000     -10.166209      -276.6366
  12   2.0000     -10.164804      -276.5984
  13   2.0000     -10.163247      -276.5560
  14   2.0000     -10.158932      -276.4386
  15   2.0000     -10.154192      -276.3096
  16   2.0000     -10.146623      -276.1037
  17   2.0000     -10.145183      -276.0645
  18   2.0000     -10.142337      -275.9870
  19   2.0000     -10.142104      -275.9807
  20   2.0000     -10.141645      -275.9682
  21   2.0000     -10.140962      -275.9496
  22   2.0000     -10.139203      -275.9017
  23   2.0000     -10.129414      -275.6354
  24   2.0000     -10.123992      -275.4878
  25   2.0000     -10.121105      -275.4093
  26   2.0000     -10.113653      -275.2065
  27   2.0000     -10.112561      -275.1768
  28   2.0000     -10.109461      -275.0924
  29   2.0000     -10.096504      -274.7398
  30   2.0000     -10.089433      -274.5474
  31   2.0000     -10.089419      -274.5470
  32   2.0000     -10.088998      -274.5356
  33   2.0000     -10.071078      -274.0480
  34   2.0000     -10.070197      -274.0240
  35   2.0000     -10.068786      -273.9856
  36   2.0000      -9.407264      -255.9847
  37   2.0000      -8.037961      -218.7240
  38   2.0000      -7.170258      -195.1126
  39   2.0000      -7.160949      -194.8593
  40   2.0000      -7.160615      -194.8503
  41   2.0000      -6.003354      -163.3596
  42   2.0000      -6.001250      -163.3023
  43   2.0000      -5.999897      -163.2655
  44   2.0000      -0.991399       -26.9773
  45   2.0000      -0.947185       -25.7742
  46   2.0000      -0.892538       -24.2872
  47   2.0000      -0.870844       -23.6969
  48   2.0000      -0.843012       -22.9395
  49   2.0000      -0.821538       -22.3552
  50   2.0000      -0.813161       -22.1272
  51   2.0000      -0.805902       -21.9297
  52   2.0000      -0.783861       -21.3299
  53   2.0000      -0.753611       -20.5068
  54   2.0000      -0.745642       -20.2900
  55   2.0000      -0.735229       -20.0066
  56   2.0000      -0.718543       -19.5525
  57   2.0000      -0.699268       -19.0281
  58   2.0000      -0.693930       -18.8828
  59   2.0000      -0.682735       -18.5782
  60   2.0000      -0.674289       -18.3483
  61   2.0000      -0.661134       -17.9904
  62   2.0000      -0.640562       -17.4306
  63   2.0000      -0.639157       -17.3924
  64   2.0000      -0.630474       -17.1561
  65   2.0000      -0.618567       -16.8321
  66   2.0000      -0.588386       -16.0108
  67   2.0000      -0.585375       -15.9289
  68   2.0000      -0.555081       -15.1045
  69   2.0000      -0.543066       -14.7776
  70   2.0000      -0.534672       -14.5492
  71   2.0000      -0.527117       -14.3436
  72   2.0000      -0.512031       -13.9331
  73   2.0000      -0.501317       -13.6415
  74   2.0000      -0.497685       -13.5427
  75   2.0000      -0.473463       -12.8836
  76   2.0000      -0.460288       -12.5251
  77   2.0000      -0.454849       -12.3771
  78   2.0000      -0.445217       -12.1150
  79   2.0000      -0.439883       -11.9698
  80   2.0000      -0.431810       -11.7501
  81   2.0000      -0.419785       -11.4229
  82   2.0000      -0.418096       -11.3770
  83   2.0000      -0.410659       -11.1746
  84   2.0000      -0.402498       -10.9525
  85   2.0000      -0.393925       -10.7192
  86   2.0000      -0.390172       -10.6171
  87   2.0000      -0.385683       -10.4950
  88   2.0000      -0.381385       -10.3780
  89   2.0000      -0.380913       -10.3652
  90   2.0000      -0.370206       -10.0738
  91   2.0000      -0.365299        -9.9403
  92   2.0000      -0.362461        -9.8631
  93   2.0000      -0.354707        -9.6521
  94   2.0000      -0.347450        -9.4546
  95   2.0000      -0.343302        -9.3417
  96   2.0000      -0.340788        -9.2733
  97   2.0000      -0.334545        -9.1034
  98   2.0000      -0.332988        -9.0611
  99   2.0000      -0.331446        -9.0191
 100   2.0000      -0.330428        -8.9914
 101   2.0000      -0.327108        -8.9011
 102   2.0000      -0.318729        -8.6731
 103   2.0000      -0.313331        -8.5262
 104   2.0000      -0.306612        -8.3433
 105   2.0000      -0.304332        -8.2813
 106   2.0000      -0.302080        -8.2200
 107   2.0000      -0.293356        -7.9826
 108   2.0000      -0.292261        -7.9528
 109   2.0000      -0.291862        -7.9420
 110   2.0000      -0.288432        -7.8486
 111   2.0000      -0.270310        -7.3555
 112   2.0000      -0.260746        -7.0953
 113   2.0000      -0.253856        -6.9078
 114   2.0000      -0.241003        -6.5580
 115   2.0000      -0.239836        -6.5263
 116   2.0000      -0.230946        -6.2843
 117   2.0000      -0.227088        -6.1794
 118   2.0000      -0.214773        -5.8443
 119   2.0000      -0.212001        -5.7688
 120   2.0000      -0.211684        -5.7602
 121   2.0000      -0.203298        -5.5320
 122   2.0000      -0.194996        -5.3061
 123   2.0000      -0.189707        -5.1622
 124   2.0000      -0.185930        -5.0594
 125   2.0000      -0.182495        -4.9659
 126   2.0000      -0.175932        -4.7874
 127   2.0000      -0.166887        -4.5412
 128   2.0000      -0.162463        -4.4209
 129   2.0000      -0.145601        -3.9620
 130   2.0000      -0.137570        -3.7435
 131   2.0000      -0.126301        -3.4368
 132   2.0000      -0.057889        -1.5752
 133   2.0000      -0.036231        -0.9859
 134   2.0000      -0.019567        -0.5324
 135   0.0000      -0.002118        -0.0576
 136   0.0000       0.027960         0.7608
 137   0.0000       0.039256         1.0682
 138   0.0000       0.068935         1.8758
 139   0.0000       0.079035         2.1507

MULLIKEN ATOMIC CHARGES
-----------------------
   0 C :   -0.546675
   1 C :    0.126291
   2 C :    0.300103
   3 N :   -0.606261
   4 C :   -0.228913
   5 C :    0.278190
   6 C :   -0.257355
   7 C :    0.142025
   8 C :   -0.200589
   9 C :   -0.137637
  10 C :   -0.154039
  11 C :   -0.133923
  12 Cl:   -0.034622
  13 C :    0.282747
  14 N :   -0.470278
  15 C :   -0.350066
  16 S :    1.206311
  17 O :   -0.574594
  18 O :   -0.563209
  19 C :   -0.146012
  20 C :   -0.142581
  21 C :   -0.159918
  22 C :    0.104885
  23 C :    0.409941
  24 O :   -0.552539
  25 O :   -0.659520
  26 C :   -0.150881
  27 C :   -0.163931
  28 N :   -0.379432
  29 C :   -0.065919
  30 C :    0.142524
  31 C :   -0.204007
  32 C :   -0.127714
  33 C :   -0.122089
  34 C :   -0.194008
  35 C :    0.108915
  36 H :    0.157301
  37 H :    0.213631
  38 H :    0.158859
  39 H :    0.197962
  40 H :    0.167417
  41 H :    0.152876
  42 H :    0.125093
  43 H :    0.114128
  44 H :    0.127594
  45 H :    0.190868
  46 H :    0.185929
  47 H :    0.176874
  48 H :    0.146383
  49 H :    0.144670
  50 H :    0.150407
  51 H :    0.142851
  52 H :    0.149222
  53 H :    0.132435
  54 H :    0.123710
  55 H :    0.126573
  56 H :    0.139998
Sum of atomic charges:   -1.0000000

LOEWDIN ATOMIC CHARGES
----------------------
   0 C :   -0.362144
   1 C :    0.002082
   2 C :    0.032103
   3 N :   -0.291365
   4 C :   -0.151577
   5 C :    0.007900
   6 C :   -0.187468
   7 C :   -0.035840
   8 C :   -0.130573
   9 C :   -0.148600
  10 C :   -0.159210
  11 C :   -0.111150
  12 Cl:    0.019259
  13 C :   -0.002328
  14 N :    0.014362
  15 C :   -0.274712
  16 S :    1.262345
  17 O :   -0.595194
  18 O :   -0.586301
  19 C :   -0.217831
  20 C :   -0.117975
  21 C :   -0.113240
  22 C :   -0.003839
  23 C :    0.071212
  24 O :   -0.378055
  25 O :   -0.507929
  26 C :   -0.110638
  27 C :   -0.131293
  28 N :   -0.126262
  29 C :   -0.067680
  30 C :   -0.030916
  31 C :   -0.114831
  32 C :   -0.132857
  33 C :   -0.123997
  34 C :   -0.120019
  35 C :   -0.009611
  36 H :    0.135611
  37 H :    0.159591
  38 H :    0.135922
  39 H :    0.160916
  40 H :    0.130242
  41 H :    0.147211
  42 H :    0.132483
  43 H :    0.126329
  44 H :    0.134484
  45 H :    0.147260
  46 H :    0.142113
  47 H :    0.137109
  48 H :    0.140292
  49 H :    0.145718
  50 H :    0.149452
  51 H :    0.138967
  52 H :    0.135343
  53 H :    0.134006
  54 H :    0.129769
  55 H :    0.131479
  56 H :    0.139874

  Mayer bond orders larger than 0.100000
B(  0-C ,  1-C ) :   1.0101 B(  0-C , 36-H ) :   0.9273 B(  0-C , 37-H ) :   0.9135
B(  0-C , 38-H ) :   0.9216 B(  1-C ,  2-C ) :   1.4298 B(  1-C , 29-C ) :   0.1032
B(  1-C , 35-C ) :   1.2580 B(  2-C ,  3-N ) :   0.9177 B(  2-C , 28-N ) :   1.2721
B(  3-N ,  4-C ) :   0.9338 B(  3-N , 16-S ) :   0.7712 B(  4-C ,  5-C ) :   0.9722
B(  4-C , 39-H ) :   0.9121 B(  4-C , 40-H ) :   0.9111 B(  5-C ,  6-C ) :   1.5146
B(  5-C , 14-N ) :   1.1244 B(  6-C ,  7-C ) :   1.2848 B(  6-C , 41-H ) :   0.9237
B(  7-C ,  8-C ) :   1.3361 B(  7-C , 13-C ) :   1.3023 B(  8-C ,  9-C ) :   1.4767
B(  8-C , 42-H ) :   0.9263 B(  9-C , 10-C ) :   1.3782 B(  9-C , 43-H ) :   0.9316
B( 10-C , 11-C ) :   1.4469 B( 10-C , 44-H ) :   0.9277 B( 11-C , 12-Cl) :   0.9969
B( 11-C , 13-C ) :   1.2840 B( 13-C , 14-N ) :   1.0520 B( 14-N , 15-C ) :   0.9386
B( 15-C , 45-H ) :   0.9207 B( 15-C , 46-H ) :   0.9267 B( 15-C , 47-H ) :   0.9314
B( 16-S , 17-O ) :   1.6036 B( 16-S , 18-O ) :   1.6394 B( 16-S , 19-C ) :   0.8461
B( 19-C , 20-C ) :   1.3632 B( 19-C , 27-C ) :   1.3678 B( 20-C , 21-C ) :   1.4223
B( 20-C , 48-H ) :   0.9160 B( 21-C , 22-C ) :   1.3834 B( 21-C , 49-H ) :   0.9082
B( 22-C , 23-C ) :   0.9271 B( 22-C , 26-C ) :   1.4069 B( 23-C , 24-O ) :   1.7074
B( 23-C , 25-O ) :   1.5502 B( 24-O , 25-O ) :   0.1479 B( 26-C , 27-C ) :   1.3976
B( 26-C , 50-H ) :   0.9016 B( 27-C , 51-H ) :   0.9206 B( 28-N , 29-C ) :   1.4934
B( 29-C , 30-C ) :   1.2341 B( 29-C , 52-H ) :   0.9273 B( 30-C , 31-C ) :   1.2848
B( 30-C , 35-C ) :   1.2880 B( 31-C , 32-C ) :   1.5133 B( 31-C , 34-C ) :   0.1065
B( 31-C , 53-H ) :   0.9240 B( 32-C , 33-C ) :   1.3520 B( 32-C , 54-H ) :   0.9312
B( 33-C , 34-C ) :   1.5088 B( 33-C , 55-H ) :   0.9310 B( 34-C , 35-C ) :   1.2961
B( 34-C , 56-H ) :   0.9151

FINAL SINGLE POINT ENERGY     -2363.967476784136

DIPOLE MOMENT
-------------

Method             : SCF
Type of density    : Electron Density
Multiplicity       :   1
Irrep              :   0
Energy             : -2363.9674767841356697 Eh
Relativity type    :
Basis              : AO
                                X                 Y                 Z
Electronic contribution:      2.136153393       3.459834190       3.347186112
Nuclear contribution   :      6.116915408     -12.234649630      -4.786857896
                        -----------------------------------------
Total Dipole Moment    :      8.253068801      -8.774815439      -1.439671784
                        -----------------------------------------
Magnitude (a.u.)       :     12.131907742
Magnitude (Debye)      :     30.836858836

Rotational constants in cm-1:             0.005055             0.002006             0.001696
Rotational constants in MHz :           151.550815            60.131650            50.850525

                             ****ORCA TERMINATED NORMALLY****
TOTAL RUN TIME: 0 days 0 hours 13 minutes 16 seconds 522 msec
