                         Program Version 6.0.0  -   RELEASE  -
|  1> ! B3LYP 6-31G* SP
|  2>
|  3> * xyz 0 1
|  4> O 0.8853 0.0465 1.9796
|  5> C 0.9721 -0.3650 0.7901
|  6> N -0.2188 -0.7506 0.0839
|  7> C -1.5582 -0.4251 0.5867
|  8> C -1.8274 1.0645 0.4695
|  9> C -2.5758 1.7194 1.4609
| 10> C -2.8563 3.0843 1.3532
| 11> C -2.4198 3.8162 0.2362
| 12> C -2.6806 5.2989 0.1453
| 13> F -3.8757 5.6233 0.7635
| 14> F -2.7545 5.7029 -1.1765
| 15> F -1.6520 5.9807 0.7678
| 16> C -1.6630 3.1641 -0.7518
| 17> C -1.3830 1.7994 -0.6449
| 18> C -2.6073 -1.2316 -0.1613
| 19> N -3.1022 -0.7216 -1.3263
| 20> C -4.0197 -1.3739 -2.0826
| 21> C -4.4893 -2.6195 -1.6831
| 22> C -3.9968 -3.1918 -0.5126
| 23> C -3.0287 -2.5238 0.2625
| 24> C -2.4997 -3.1761 1.5264
| 25> F -1.1166 -3.1670 1.5262
| 26> F -2.9651 -2.4877 2.6319
| 27> F -2.9114 -4.4938 1.6327
| 28> C 2.3042 -0.4532 0.1470
| 29> C 2.4388 -0.3671 -1.2517
| 30> C 3.6994 -0.4407 -1.8513
| 31> C 4.8432 -0.5951 -1.0643
| 32> N 6.0703 -0.6673 -1.6479
| 33> C 7.2039 -0.8157 -0.9114
| 34> C 7.1309 -0.8975 0.4814
| 35> C 5.8859 -0.8254 1.1101
| 36> C 4.7248 -0.6728 0.3403
| 37> C 3.4587 -0.5969 0.9388
| 38> H -0.1297 -1.2736 -0.8167
| 39> H -1.5960 -0.6871 1.6639
| 40> H -2.9393 1.1739 2.3230
| 41> H -3.4162 3.5677 2.1440
| 42> H -1.2891 3.7094 -1.6092
| 43> H -0.8171 1.3174 -1.4323
| 44> H -4.3851 -0.9215 -2.9948
| 45> H -5.2270 -3.1414 -2.2788
| 46> H -4.3745 -4.1632 -0.2215
| 47> H 1.5753 -0.2172 -1.8859
| 48> H 3.7846 -0.3705 -2.9288
| 49> H 8.1637 -0.8699 -1.4076
| 50> H 8.0324 -1.0151 1.0686
| 51> H 5.8307 -0.8886 2.1903
| 52> H 3.3714 -0.6614 2.0175
| 53> *
| 54>
| 55>                          ****END OF INPUT****

CARTESIAN COORDINATES (ANGSTROEM)
---------------------------------
  O      0.885300    0.046500    1.979600
  C      0.972100   -0.365000    0.790100
  N     -0.218800   -0.750600    0.083900
  C     -1.558200   -0.425100    0.586700
  C     -1.827400    1.064500    0.469500
  C     -2.575800    1.719400    1.460900
  C     -2.856300    3.084300    1.353200
  C     -2.419800    3.816200    0.236200
  C     -2.680600    5.298900    0.145300
  F     -3.875700    5.623300    0.763500
  F     -2.754500    5.702900   -1.176500
  F     -1.652000    5.980700    0.767800
  C     -1.663000    3.164100   -0.751800
  C     -1.383000    1.799400   -0.644900
  C     -2.607300   -1.231600   -0.161300
  N     -3.102200   -0.721600   -1.326300
  C     -4.019700   -1.373900   -2.082600
  C     -4.489300   -2.619500   -1.683100
  C     -3.996800   -3.191800   -0.512600
  C     -3.028700   -2.523800    0.262500
  C     -2.499700   -3.176100    1.526400
  F     -1.116600   -3.167000    1.526200
  F     -2.965100   -2.487700    2.631900
  F     -2.911400   -4.493800    1.632700
  C      2.304200   -0.453200    0.147000
  C      2.438800   -0.367100   -1.251700
  C      3.699400   -0.440700   -1.851300
  C      4.843200   -0.595100   -1.064300
  N      6.070300   -0.667300   -1.647900
  C      7.203900   -0.815700   -0.911400
  C      7.130900   -0.897500    0.481400
  C      5.885900   -0.825400    1.110100
  C      4.724800   -0.672800    0.340300
  C      3.458700   -0.596900    0.938800
  H     -0.129700   -1.273600   -0.816700
  H     -1.596000   -0.687100    1.663900
  H     -2.939300    1.173900    2.323000
  H     -3.416200    3.567700    2.144000
  H     -1.289100    3.709400   -1.609200
  H     -0.817100    1.317400   -1.432300
  H     -4.385100   -0.921500   -2.994800
  H     -5.227000   -3.141400   -2.278800
  H     -4.374500   -4.163200   -0.221500
  H      1.575300   -0.217200   -1.885900
  H      3.784600   -0.370500   -2.928800
  H      8.163700   -0.869900   -1.407600
  H      8.032400   -1.015100    1.068600
  H      5.830700   -0.888600    2.190300
  H      3.371400   -0.661400    2.017500

 Total Charge           Charge          ....    0
 Multiplicity           Mult            ....    1
 Number of Electrons    NEL             ....  242
 Basis Dimension        Dim             ....  506

ORBITAL ENERGIES
----------------

  NO   OCC          E(Eh)            E(eV)
   0   2.0000     -24.734327      -673.0553
   1   2.0000     -24.731499      -672.9783
   2   2.0000     -24.729843      -672.9332
   3   2.0000     -24.710021      -672.3939
   4   2.0000     -24.709702      -672.3852
   5   2.0000     -24.705165      -672.2617
   6   2.0000     -19.112414      -520.0752
   7   2.0000     -14.362692      -390.8287
   8   2.0000     -14.353152      -390.5691
   9   2.0000     -14.327552      -389.8725
  10   2.0000     -10.450726      -284.3787
  11   2.0000     -10.424065      -283.6532
  12   2.0000     -10.293572      -280.1023
  13   2.0000     -10.263592      -279.2865
  14   2.0000     -10.245927      -278.8058
  15   2.0000     -10.243689      -278.7449
  16   2.0000     -10.238234      -278.5965
  17   2.0000     -10.230235      -278.3789
  18   2.0000     -10.227015      -278.2912
  19   2.0000     -10.224728      -278.2290
  20   2.0000     -10.216458      -278.0040
  21   2.0000     -10.208402      -277.7847
  22   2.0000     -10.206855      -277.7426
  23   2.0000     -10.202206      -277.6162
  24   2.0000     -10.201803      -277.6052
  25   2.0000     -10.201011      -277.5836
  26   2.0000     -10.199998      -277.5561
  27   2.0000     -10.198185      -277.5067
  28   2.0000     -10.196842      -277.4702
  29   2.0000     -10.192608      -277.3550
  30   2.0000     -10.191514      -277.3252
  31   2.0000     -10.191095      -277.3138
  32   2.0000     -10.187547      -277.2172
  33   2.0000     -10.186415      -277.1865
  34   2.0000      -1.293182       -35.1893
  35   2.0000      -1.269417       -34.5426
  36   2.0000      -1.218159       -33.1478
  37   2.0000      -1.216508       -33.1029
  38   2.0000      -1.195318       -32.5262
  39   2.0000      -1.193307       -32.4715
  40   2.0000      -1.013221       -27.5711
  41   2.0000      -0.960734       -26.1429
  42   2.0000      -0.938566       -25.5397
  43   2.0000      -0.913308       -24.8524
  44   2.0000      -0.860589       -23.4178
  45   2.0000      -0.856370       -23.3030
  46   2.0000      -0.836040       -22.7498
  47   2.0000      -0.812786       -22.1170
  48   2.0000      -0.809450       -22.0263
  49   2.0000      -0.782248       -21.2861
  50   2.0000      -0.769118       -20.9288
  51   2.0000      -0.748738       -20.3742
  52   2.0000      -0.746011       -20.3000
  53   2.0000      -0.730611       -19.8809
  54   2.0000      -0.709782       -19.3141
  55   2.0000      -0.678436       -18.4612
  56   2.0000      -0.664144       -18.0723
  57   2.0000      -0.649028       -17.6609
  58   2.0000      -0.641439       -17.4544
  59   2.0000      -0.632523       -17.2118
  60   2.0000      -0.616237       -16.7687
  61   2.0000      -0.611805       -16.6480
  62   2.0000      -0.598401       -16.2833
  63   2.0000      -0.584279       -15.8990
  64   2.0000      -0.582179       -15.8419
  65   2.0000      -0.577747       -15.7213
  66   2.0000      -0.573801       -15.6139
  67   2.0000      -0.560003       -15.2384
  68   2.0000      -0.556873       -15.1533
  69   2.0000      -0.550130       -14.9698
  70   2.0000      -0.547776       -14.9057
  71   2.0000      -0.533296       -14.5117
  72   2.0000      -0.521740       -14.1973
  73   2.0000      -0.514552       -14.0017
  74   2.0000      -0.513310       -13.9679
  75   2.0000      -0.492072       -13.3899
  76   2.0000      -0.478095       -13.0096
  77   2.0000      -0.474106       -12.9011
  78   2.0000      -0.463017       -12.5993
  79   2.0000      -0.462861       -12.5951
  80   2.0000      -0.457123       -12.4390
  81   2.0000      -0.453392       -12.3374
  82   2.0000      -0.448585       -12.2066
  83   2.0000      -0.439928       -11.9710
  84   2.0000      -0.439359       -11.9556
  85   2.0000      -0.437613       -11.9080
  86   2.0000      -0.435714       -11.8564
  87   2.0000      -0.433982       -11.8092
  88   2.0000      -0.430763       -11.7216
  89   2.0000      -0.429769       -11.6946
  90   2.0000      -0.426422       -11.6035
  91   2.0000      -0.420729       -11.4486
  92   2.0000      -0.417841       -11.3700
  93   2.0000      -0.415401       -11.3036
  94   2.0000      -0.411658       -11.2018
  95   2.0000      -0.411264       -11.1911
  96   2.0000      -0.410346       -11.1661
  97   2.0000      -0.409138       -11.1332
  98   2.0000      -0.403278       -10.9738
  99   2.0000      -0.398310       -10.8386
 100   2.0000      -0.394516       -10.7353
 101   2.0000      -0.388126       -10.5614
 102   2.0000      -0.380917       -10.3653
 103   2.0000      -0.377359       -10.2685
 104   2.0000      -0.370263       -10.0754
 105   2.0000      -0.361019        -9.8238
 106   2.0000      -0.357903        -9.7390
 107   2.0000      -0.348362        -9.4794
 108   2.0000      -0.346786        -9.4365
 109   2.0000      -0.334416        -9.0999
 110   2.0000      -0.309170        -8.4129
 111   2.0000      -0.308366        -8.3911
 112   2.0000      -0.290688        -7.9100
 113   2.0000      -0.273182        -7.4337
 114   2.0000      -0.263515        -7.1706
 115   2.0000      -0.257617        -7.0101
 116   2.0000      -0.253304        -6.8927
 117   2.0000      -0.250272        -6.8102
 118   2.0000      -0.247866        -6.7448
 119   2.0000      -0.241724        -6.5776
 120   2.0000      -0.230201        -6.2641
 121   0.0000      -0.070281        -1.9124
 122   0.0000      -0.055245        -1.5033
 123   0.0000      -0.051885        -1.4119
 124   0.0000      -0.036161        -0.9840
 125   0.0000      -0.016691        -0.4542

MULLIKEN ATOMIC CHARGES
-----------------------
   0 O :   -0.479134
   1 C :    0.517813
   2 N :   -0.640016
   3 C :   -0.070327
   4 C :    0.189723
   5 C :   -0.170182
   6 C :   -0.161673
   7 C :   -0.013106
   8 C :    0.891935
   9 F :   -0.307337
  10 F :   -0.307619
  11 F :   -0.296953
  12 C :   -0.166528
  13 C :   -0.136438
  14 C :    0.181620
  15 N :   -0.394326
  16 C :    0.027253
  17 C :   -0.133757
  18 C :   -0.130932
  19 C :   -0.056931
  20 C :    0.921492
  21 F :   -0.295196
  22 F :   -0.295489
  23 F :   -0.303681
  24 C :    0.076630
  25 C :   -0.183587
  26 C :   -0.143596
  27 C :    0.218872
  28 N :   -0.435040
  29 C :    0.019532
  30 C :   -0.149879
  31 C :   -0.145103
  32 C :    0.160855
  33 C :   -0.231928
  34 H :    0.328051
  35 H :    0.182813
  36 H :    0.138517
  37 H :    0.148840
  38 H :    0.146915
  39 H :    0.125796
  40 H :    0.164433
  41 H :    0.150436
  42 H :    0.170356
  43 H :    0.133631
  44 H :    0.147069
  45 H :    0.153200
  46 H :    0.137926
  47 H :    0.150187
  48 H :    0.164862
Sum of atomic charges:   -0.0000000

LOEWDIN ATOMIC CHARGES
----------------------
   0 O :   -0.282371
   1 C :    0.147080
   2 N :   -0.233154
   3 C :   -0.055665
   4 C :    0.003360
   5 C :   -0.122921
   6 C :   -0.112612
   7 C :   -0.071503
   8 C :    0.309079
   9 F :   -0.115412
  10 F :   -0.115524
  11 F :   -0.114559
  12 C :   -0.114507
  13 C :   -0.111167
  14 C :    0.043192
  15 N :   -0.121452
  16 C :   -0.053567
  17 C :   -0.138579
  18 C :   -0.089457
  19 C :   -0.078809
  20 C :    0.312247
  21 F :   -0.104025
  22 F :   -0.109083
  23 F :   -0.109084
  24 C :   -0.052268
  25 C :   -0.124592
  26 C :   -0.114137
  27 C :    0.020725
  28 N :   -0.132131
  29 C :   -0.057463
  30 C :   -0.149182
  31 C :   -0.085765
  32 C :   -0.029631
  33 C :   -0.079091
  34 H :    0.251789
  35 H :    0.151477
  36 H :    0.136819
  37 H :    0.142090
  38 H :    0.141091
  39 H :    0.132580
  40 H :    0.142455
  41 H :    0.143677
  42 H :    0.151639
  43 H :    0.133277
  44 H :    0.146068
  45 H :    0.137278
  46 H :    0.137658
  47 H :    0.142142
  48 H :    0.151988

  Mayer bond orders larger than 0.100000
B(  0-O ,  1-C ) :   1.8042 B(  1-C ,  2-N ) :   1.0232 B(  1-C , 24-C ) :   0.9843
B(  2-N ,  3-C ) :   0.8997 B(  2-N , 34-H ) :   0.8184 B(  3-C ,  4-C ) :   0.9501
B(  3-C , 14-C ) :   0.9513 B(  3-C , 35-H ) :   0.8897 B(  4-C ,  5-C ) :   1.4289
B(  4-C , 13-C ) :   1.4157 B(  5-C ,  6-C ) :   1.4214 B(  5-C , 36-H ) :   0.9218
B(  6-C ,  7-C ) :   1.4161 B(  6-C , 37-H ) :   0.9204 B(  7-C ,  8-C ) :   0.9807
B(  7-C , 12-C ) :   1.4043 B(  8-C ,  9-F ) :   0.9467 B(  8-C , 10-F ) :   0.9460
B(  8-C , 11-F ) :   0.9866 B( 12-C , 13-C ) :   1.4316 B( 12-C , 38-H ) :   0.9212
B( 13-C , 39-H ) :   0.9183 B( 14-C , 15-N ) :   1.3993 B( 14-C , 19-C ) :   1.3494
B( 15-N , 16-C ) :   1.4189 B( 16-C , 17-C ) :   1.4197 B( 16-C , 40-H ) :   0.9260
B( 17-C , 18-C ) :   1.4326 B( 17-C , 41-H ) :   0.9227 B( 18-C , 19-C ) :   1.4099
B( 18-C , 42-H ) :   0.9157 B( 19-C , 20-C ) :   0.9680 B( 20-C , 21-F ) :   0.9416
B( 20-C , 22-F ) :   0.9525 B( 20-C , 23-F ) :   0.9440 B( 24-C , 25-C ) :   1.2995
B( 24-C , 33-C ) :   1.4535 B( 25-C , 26-C ) :   1.5053 B( 25-C , 43-H ) :   0.9193
B( 26-C , 27-C ) :   1.3107 B( 26-C , 33-C ) :   0.1025 B( 26-C , 44-H ) :   0.9165
B( 27-C , 28-N ) :   1.2543 B( 27-C , 32-C ) :   1.2490 B( 28-N , 29-C ) :   1.5102
B( 29-C , 30-C ) :   1.3238 B( 29-C , 45-H ) :   0.9296 B( 30-C , 31-C ) :   1.5141
B( 30-C , 46-H ) :   0.9244 B( 31-C , 32-C ) :   1.2967 B( 31-C , 47-H ) :   0.9228
B( 32-C , 33-C ) :   1.2471 B( 33-C , 48-H ) :   0.9100

FINAL SINGLE POINT ENERGY     -1761.191188849302

DIPOLE MOMENT
-------------

Method             : SCF
Type of density    : Electron Density
Multiplicity       :   1
Irrep              :   0
Energy             : -1761.1911888493020797 Eh
Relativity type    :
Basis              : AO
                                X                 Y                 Z
Electronic contribution:    -23.743502106      10.518505384      10.284644443
Nuclear contribution   :     23.416815802     -12.513984496     -11.225709413
                        -----------------------------------------
Total Dipole Moment    :     -0.326686304      -1.995479111      -0.941064971
                        -----------------------------------------
Magnitude (a.u.)       :      2.230305832
Magnitude (Debye)      :      5.668986904

Rotational constants in cm-1:             0.003794             0.002504             0.001729
Rotational constants in MHz :           113.755616            75.073061            51.830695

                             ****ORCA TERMINATED NORMALLY****
TOTAL RUN TIME: 0 days 0 hours 5 minutes 7 seconds 330 msec
