                         Program Version 6.0.0  -   RELEASE  -
|  1> ! B3LYP 6-31G* SP
|  2>
|  3> * xyz 0 1
|  4> N 1.3102 2.8132 3.5775
|  5> C 2.2409 2.4222 3.0115
|  6> C 3.3999 1.9342 2.3044
|  7> C 4.6348 2.5654 2.5101
|  8> C 5.7718 2.1289 1.8261
|  9> C 5.6837 1.0580 0.9355
| 10> C 4.4578 0.4226 0.7223
| 11> C 3.3008 0.8591 1.3938
| 12> N 2.0450 0.1850 1.1907
| 13> C 1.5916 -0.2656 -0.0963
| 14> O 2.1612 0.1477 -1.1434
| 15> N 0.4448 -1.1322 -0.2050
| 16> C 0.1141 -2.0510 0.8899
| 17> C -0.2995 -3.4049 0.3268
| 18> C -1.3679 -3.2589 -0.7196
| 19> C -2.2385 -4.3331 -0.9665
| 20> C -3.1890 -4.2531 -1.9859
| 21> C -3.2647 -3.1107 -2.7826
| 22> C -2.3918 -2.0439 -2.5610
| 23> C -1.4406 -2.1003 -1.5256
| 24> C -0.5128 -0.9149 -1.3058
| 25> C -1.2964 0.3580 -1.0448
| 26> C -0.9596 1.5405 -1.7228
| 27> C -1.6412 2.7313 -1.4559
| 28> C -2.6814 2.7604 -0.5111
| 29> C -3.3976 4.0452 -0.1788
| 30> F -3.2338 4.9861 -1.1813
| 31> F -4.7524 3.8069 -0.0245
| 32> F -2.8920 4.5561 1.0026
| 33> C -2.9985 1.5849 0.1885
| 34> C -2.3146 0.3955 -0.0758
| 35> H 4.7180 3.3976 3.1993
| 36> H 6.7231 2.6190 1.9897
| 37> H 6.5682 0.7149 0.4144
| 38> H 4.4165 -0.4232 0.0480
| 39> H 1.3793 0.1190 1.9932
| 40> H 0.9927 -2.2115 1.5522
| 41> H -0.7078 -1.6233 1.5024
| 42> H -0.6598 -4.0436 1.1629
| 43> H 0.5843 -3.8978 -0.1329
| 44> H -2.1772 -5.2361 -0.3716
| 45> H -3.8608 -5.0825 -2.1650
| 46> H -3.9975 -3.0534 -3.5770
| 47> H -2.4591 -1.1677 -3.1946
| 48> H 0.0616 -0.8104 -2.2535
| 49> H -0.1612 1.5446 -2.4544
| 50> H -1.3492 3.6283 -1.9870
| 51> H -3.7736 1.5894 0.9451
| 52> H -2.5816 -0.4959 0.4761
| 53> *
| 54>
| 55>                          ****END OF INPUT****

CARTESIAN COORDINATES (ANGSTROEM)
---------------------------------
  N      1.310200    2.813200    3.577500
  C      2.240900    2.422200    3.011500
  C      3.399900    1.934200    2.304400
  C      4.634800    2.565400    2.510100
  C      5.771800    2.128900    1.826100
  C      5.683700    1.058000    0.935500
  C      4.457800    0.422600    0.722300
  C      3.300800    0.859100    1.393800
  N      2.045000    0.185000    1.190700
  C      1.591600   -0.265600   -0.096300
  O      2.161200    0.147700   -1.143400
  N      0.444800   -1.132200   -0.205000
  C      0.114100   -2.051000    0.889900
  C     -0.299500   -3.404900    0.326800
  C     -1.367900   -3.258900   -0.719600
  C     -2.238500   -4.333100   -0.966500
  C     -3.189000   -4.253100   -1.985900
  C     -3.264700   -3.110700   -2.782600
  C     -2.391800   -2.043900   -2.561000
  C     -1.440600   -2.100300   -1.525600
  C     -0.512800   -0.914900   -1.305800
  C     -1.296400    0.358000   -1.044800
  C     -0.959600    1.540500   -1.722800
  C     -1.641200    2.731300   -1.455900
  C     -2.681400    2.760400   -0.511100
  C     -3.397600    4.045200   -0.178800
  F     -3.233800    4.986100   -1.181300
  F     -4.752400    3.806900   -0.024500
  F     -2.892000    4.556100    1.002600
  C     -2.998500    1.584900    0.188500
  C     -2.314600    0.395500   -0.075800
  H      4.718000    3.397600    3.199300
  H      6.723100    2.619000    1.989700
  H      6.568200    0.714900    0.414400
  H      4.416500   -0.423200    0.048000
  H      1.379300    0.119000    1.993200
  H      0.992700   -2.211500    1.552200
  H     -0.707800   -1.623300    1.502400
  H     -0.659800   -4.043600    1.162900
  H      0.584300   -3.897800   -0.132900
  H     -2.177200   -5.236100   -0.371600
  H     -3.860800   -5.082500   -2.165000
  H     -3.997500   -3.053400   -3.577000
  H     -2.459100   -1.167700   -3.194600
  H      0.061600   -0.810400   -2.253500
  H     -0.161200    1.544600   -2.454400
  H     -1.349200    3.628300   -1.987000
  H     -3.773600    1.589400    0.945100
  H     -2.581600   -0.495900    0.476100

 Total Charge           Charge          ....    0
 Multiplicity           Mult            ....    1
 Number of Electrons    NEL             ....  218
 Basis Dimension        Dim             ....  470

ORBITAL ENERGIES
----------------

  NO   OCC          E(Eh)            E(eV)
   0   2.0000     -24.712248      -672.4545
   1   2.0000     -24.710155      -672.3975
   2   2.0000     -24.706081      -672.2866
   3   2.0000     -19.113696      -520.1101
   4   2.0000     -14.382222      -391.3601
   5   2.0000     -14.363473      -390.8500
   6   2.0000     -14.334393      -390.0587
   7   2.0000     -10.426024      -283.7065
   8   2.0000     -10.326800      -281.0065
   9   2.0000     -10.258410      -279.1455
  10   2.0000     -10.238195      -278.5954
  11   2.0000     -10.233906      -278.4787
  12   2.0000     -10.232110      -278.4299
  13   2.0000     -10.224700      -278.2282
  14   2.0000     -10.209592      -277.8171
  15   2.0000     -10.206334      -277.7285
  16   2.0000     -10.203431      -277.6495
  17   2.0000     -10.201586      -277.5993
  18   2.0000     -10.201398      -277.5941
  19   2.0000     -10.200032      -277.5570
  20   2.0000     -10.198563      -277.5170
  21   2.0000     -10.198003      -277.5018
  22   2.0000     -10.197385      -277.4849
  23   2.0000     -10.197077      -277.4766
  24   2.0000     -10.195710      -277.4394
  25   2.0000     -10.193045      -277.3669
  26   2.0000     -10.189968      -277.2831
  27   2.0000     -10.188707      -277.2488
  28   2.0000     -10.186952      -277.2010
  29   2.0000     -10.186487      -277.1884
  30   2.0000     -10.186036      -277.1761
  31   2.0000      -1.270421       -34.5699
  32   2.0000      -1.196705       -32.5640
  33   2.0000      -1.193975       -32.4897
  34   2.0000      -1.029614       -28.0172
  35   2.0000      -0.938732       -25.5442
  36   2.0000      -0.933805       -25.4101
  37   2.0000      -0.904063       -24.6008
  38   2.0000      -0.867775       -23.6134
  39   2.0000      -0.862798       -23.4779
  40   2.0000      -0.857622       -23.3371
  41   2.0000      -0.806834       -21.9551
  42   2.0000      -0.787535       -21.4299
  43   2.0000      -0.780300       -21.2330
  44   2.0000      -0.761962       -20.7340
  45   2.0000      -0.754837       -20.5402
  46   2.0000      -0.753557       -20.5053
  47   2.0000      -0.737589       -20.0708
  48   2.0000      -0.698745       -19.0138
  49   2.0000      -0.669803       -18.2263
  50   2.0000      -0.651998       -17.7418
  51   2.0000      -0.649270       -17.6675
  52   2.0000      -0.634932       -17.2774
  53   2.0000      -0.620984       -16.8978
  54   2.0000      -0.612905       -16.6780
  55   2.0000      -0.595926       -16.2160
  56   2.0000      -0.589215       -16.0334
  57   2.0000      -0.567313       -15.4374
  58   2.0000      -0.560877       -15.2622
  59   2.0000      -0.559169       -15.2158
  60   2.0000      -0.557282       -15.1644
  61   2.0000      -0.553007       -15.0481
  62   2.0000      -0.536076       -14.5874
  63   2.0000      -0.519806       -14.1446
  64   2.0000      -0.507021       -13.7968
  65   2.0000      -0.496474       -13.5097
  66   2.0000      -0.487456       -13.2644
  67   2.0000      -0.478484       -13.0202
  68   2.0000      -0.470017       -12.7898
  69   2.0000      -0.466896       -12.7049
  70   2.0000      -0.463254       -12.6058
  71   2.0000      -0.455578       -12.3969
  72   2.0000      -0.447463       -12.1761
  73   2.0000      -0.445466       -12.1217
  74   2.0000      -0.440420       -11.9844
  75   2.0000      -0.438239       -11.9251
  76   2.0000      -0.436040       -11.8653
  77   2.0000      -0.430035       -11.7019
  78   2.0000      -0.418873       -11.3981
  79   2.0000      -0.415925       -11.3179
  80   2.0000      -0.411724       -11.2036
  81   2.0000      -0.411145       -11.1878
  82   2.0000      -0.409578       -11.1452
  83   2.0000      -0.402047       -10.9403
  84   2.0000      -0.397465       -10.8156
  85   2.0000      -0.393161       -10.6985
  86   2.0000      -0.389177       -10.5901
  87   2.0000      -0.388300       -10.5662
  88   2.0000      -0.384560       -10.4644
  89   2.0000      -0.378017       -10.2864
  90   2.0000      -0.375474       -10.2172
  91   2.0000      -0.366718        -9.9789
  92   2.0000      -0.356321        -9.6960
  93   2.0000      -0.355919        -9.6850
  94   2.0000      -0.354987        -9.6597
  95   2.0000      -0.347969        -9.4687
  96   2.0000      -0.346422        -9.4266
  97   2.0000      -0.337429        -9.1819
  98   2.0000      -0.335093        -9.1183
  99   2.0000      -0.333145        -9.0653
 100   2.0000      -0.307035        -8.3549
 101   2.0000      -0.270460        -7.3596
 102   2.0000      -0.267509        -7.2793
 103   2.0000      -0.259699        -7.0668
 104   2.0000      -0.257568        -7.0088
 105   2.0000      -0.247108        -6.7242
 106   2.0000      -0.241615        -6.5747
 107   2.0000      -0.237280        -6.4567
 108   2.0000      -0.232119        -6.3163
 109   0.0000      -0.046587        -1.2677
 110   0.0000      -0.027096        -0.7373
 111   0.0000      -0.021742        -0.5916
 112   0.0000      -0.014094        -0.3835
 113   0.0000      -0.011257        -0.3063

MULLIKEN ATOMIC CHARGES
-----------------------
   0 N :   -0.304880
   1 C :    0.075521
   2 C :    0.076692
   3 C :   -0.149035
   4 C :   -0.130236
   5 C :   -0.123982
   6 C :   -0.136822
   7 C :    0.343221
   8 N :   -0.729527
   9 C :    0.687075
  10 O :   -0.488933
  11 N :   -0.449148
  12 C :   -0.161723
  13 C :   -0.333156
  14 C :    0.103246
  15 C :   -0.185318
  16 C :   -0.121258
  17 C :   -0.130534
  18 C :   -0.168417
  19 C :    0.091618
  20 C :   -0.114750
  21 C :    0.178295
  22 C :   -0.185214
  23 C :   -0.160032
  24 C :   -0.013995
  25 C :    0.895957
  26 F :   -0.307251
  27 F :   -0.306774
  28 F :   -0.295360
  29 C :   -0.156346
  30 C :   -0.178814
  31 H :    0.159371
  32 H :    0.141050
  33 H :    0.145890
  34 H :    0.161738
  35 H :    0.347916
  36 H :    0.157021
  37 H :    0.141935
  38 H :    0.146795
  39 H :    0.166672
  40 H :    0.124748
  41 H :    0.129423
  42 H :    0.132591
  43 H :    0.136285
  44 H :    0.185797
  45 H :    0.157828
  46 H :    0.153755
  47 H :    0.151691
  48 H :    0.139374
Sum of atomic charges:    0.0000000

LOEWDIN ATOMIC CHARGES
----------------------
   0 N :   -0.099049
   1 C :   -0.012446
   2 C :   -0.074017
   3 C :   -0.096727
   4 C :   -0.134825
   5 C :   -0.107436
   6 C :   -0.118774
   7 C :    0.066744
   8 N :   -0.219705
   9 C :    0.169017
  10 O :   -0.303820
  11 N :   -0.113903
  12 C :   -0.158246
  13 C :   -0.225587
  14 C :   -0.030073
  15 C :   -0.131492
  16 C :   -0.127494
  17 C :   -0.128726
  18 C :   -0.122124
  19 C :   -0.023201
  20 C :   -0.037875
  21 C :   -0.013631
  22 C :   -0.128179
  23 C :   -0.111454
  24 C :   -0.069477
  25 C :    0.310332
  26 F :   -0.114012
  27 F :   -0.116066
  28 F :   -0.112389
  29 C :   -0.109148
  30 C :   -0.127045
  31 H :    0.148655
  32 H :    0.138661
  33 H :    0.140785
  34 H :    0.151536
  35 H :    0.266887
  36 H :    0.133072
  37 H :    0.111781
  38 H :    0.132139
  39 H :    0.139316
  40 H :    0.130743
  41 H :    0.132419
  42 H :    0.133993
  43 H :    0.136657
  44 H :    0.154219
  45 H :    0.145642
  46 H :    0.144587
  47 H :    0.143153
  48 H :    0.136578

  Mayer bond orders larger than 0.100000
B(  0-N ,  1-C ) :   3.0148 B(  1-C ,  2-C ) :   0.9716 B(  2-C ,  3-C ) :   1.3905
B(  2-C ,  7-C ) :   1.3718 B(  3-C ,  4-C ) :   1.4516 B(  3-C , 31-H ) :   0.9222
B(  4-C ,  5-C ) :   1.4245 B(  4-C , 32-H ) :   0.9277 B(  5-C ,  6-C ) :   1.4476
B(  5-C , 33-H ) :   0.9274 B(  6-C ,  7-C ) :   1.4081 B(  6-C , 34-H ) :   0.9113
B(  7-C ,  8-N ) :   0.8847 B(  8-N ,  9-C ) :   1.0031 B(  8-N , 35-H ) :   0.8056
B(  9-C , 10-O ) :   1.7941 B(  9-C , 11-N ) :   1.0441 B( 11-N , 12-C ) :   0.9445
B( 11-N , 20-C ) :   0.9203 B( 12-C , 13-C ) :   0.9893 B( 12-C , 36-H ) :   0.9281
B( 12-C , 37-H ) :   0.9162 B( 13-C , 14-C ) :   0.9925 B( 13-C , 38-H ) :   0.9282
B( 13-C , 39-H ) :   0.9189 B( 14-C , 15-C ) :   1.4044 B( 14-C , 19-C ) :   1.4432
B( 15-C , 16-C ) :   1.4522 B( 15-C , 40-H ) :   0.9255 B( 16-C , 17-C ) :   1.4369
B( 16-C , 41-H ) :   0.9294 B( 17-C , 18-C ) :   1.4499 B( 17-C , 42-H ) :   0.9293
B( 18-C , 19-C ) :   1.3956 B( 18-C , 43-H ) :   0.9212 B( 19-C , 20-C ) :   0.9593
B( 20-C , 21-C ) :   0.9400 B( 20-C , 44-H ) :   0.8981 B( 21-C , 22-C ) :   1.4269
B( 21-C , 30-C ) :   1.4057 B( 22-C , 23-C ) :   1.4075 B( 22-C , 45-H ) :   0.9175
B( 23-C , 24-C ) :   1.4220 B( 23-C , 46-H ) :   0.9194 B( 24-C , 25-C ) :   0.9801
B( 24-C , 29-C ) :   1.3997 B( 25-C , 26-F ) :   0.9443 B( 25-C , 27-F ) :   0.9506
B( 25-C , 28-F ) :   0.9858 B( 29-C , 30-C ) :   1.4411 B( 29-C , 47-H ) :   0.9206
B( 30-C , 48-H ) :   0.9170

FINAL SINGLE POINT ENERGY     -1463.563899173667

DIPOLE MOMENT
-------------

Method             : SCF
Type of density    : Electron Density
Multiplicity       :   1
Irrep              :   0
Energy             : -1463.5638991736666412 Eh
Relativity type    :
Basis              : AO
                                X                 Y                 Z
Electronic contribution:    -16.046222007      32.417852674       2.589949063
Nuclear contribution   :     16.996133354     -34.498101518      -2.646702974
                        -----------------------------------------
Total Dipole Moment    :      0.949911348      -2.080248844      -0.056753912
                        -----------------------------------------
Magnitude (a.u.)       :      2.287572475
Magnitude (Debye)      :      5.814547142

Rotational constants in cm-1:             0.004815             0.003670             0.002334
Rotational constants in MHz :           144.352972           110.022038            69.957147

                             ****ORCA TERMINATED NORMALLY****
TOTAL RUN TIME: 0 days 0 hours 8 minutes 31 seconds 51 msec
