                         Program Version 6.0.0  -   RELEASE  -
|  1> ! B3LYP 6-31G* SP
|  2>
|  3> * xyz 0 1
|  4> C 0.7368 0.1215 -2.0427
|  5> C 0.5960 0.5364 -0.5690
|  6> C 1.5728 -0.1404 0.3842
|  7> C 2.3656 -1.2517 0.0151
|  8> C 3.2490 -1.8252 0.9293
|  9> F 3.9943 -2.8989 0.5666
| 10> C 3.3541 -1.3058 2.2202
| 11> C 2.5831 -0.2059 2.5995
| 12> F 2.6874 0.2989 3.8536
| 13> C 1.7024 0.3752 1.6884
| 14> N -0.8073 0.4356 -0.0737
| 15> C -1.3720 1.5719 0.6339
| 16> O -2.0585 1.3845 1.6800
| 17> C -1.1536 2.9640 0.1845
| 18> C -1.1387 3.2889 -1.1829
| 19> C -0.9224 4.6078 -1.5936
| 20> C -0.7327 5.6145 -0.6435
| 21> C -0.7694 5.3045 0.7195
| 22> C -0.9844 3.9868 1.1336
| 23> C -1.6280 -0.8126 -0.1377
| 24> C -2.3994 -0.9191 -1.4397
| 25> N -3.3647 -1.9620 -1.6212
| 26> O -2.2553 -0.0589 -2.3455
| 27> C -0.8409 -2.0598 0.2447
| 28> C -0.4470 -3.0335 -0.6975
| 29> C 0.3021 -4.1410 -0.2969
| 30> C 0.6638 -4.2942 1.0413
| 31> C 0.2655 -3.3484 1.9872
| 32> C -0.4874 -2.2429 1.5943
| 33> H 0.4242 -0.9227 -2.2113
| 34> H 1.7859 0.2363 -2.3735
| 35> H 0.1276 0.7807 -2.6852
| 36> H 0.9082 1.6022 -0.5686
| 37> H 2.3031 -1.6914 -0.9705
| 38> H 4.0338 -1.7542 2.9263
| 39> H 1.1164 1.2321 1.9986
| 40> H -1.3081 2.5277 -1.9305
| 41> H -0.9067 4.8525 -2.6493
| 42> H -0.5653 6.6351 -0.9626
| 43> H -0.6312 6.0861 1.4541
| 44> H -1.0030 3.7639 2.1934
| 45> H -2.4358 -0.7565 0.6271
| 46> H -3.5380 -2.6647 -0.8692
| 47> H -3.9582 -1.9814 -2.4815
| 48> H -0.7098 -2.9431 -1.7419
| 49> H 0.6089 -4.8775 -1.0276
| 50> H 1.2575 -5.1422 1.3450
| 51> H 0.5534 -3.4621 3.0226
| 52> H -0.7740 -1.5110 2.3390
| 53> *
| 54>
| 55>                          ****END OF INPUT****

CARTESIAN COORDINATES (ANGSTROEM)
---------------------------------
  C      0.736800    0.121500   -2.042700
  C      0.596000    0.536400   -0.569000
  C      1.572800   -0.140400    0.384200
  C      2.365600   -1.251700    0.015100
  C      3.249000   -1.825200    0.929300
  F      3.994300   -2.898900    0.566600
  C      3.354100   -1.305800    2.220200
  C      2.583100   -0.205900    2.599500
  F      2.687400    0.298900    3.853600
  C      1.702400    0.375200    1.688400
  N     -0.807300    0.435600   -0.073700
  C     -1.372000    1.571900    0.633900
  O     -2.058500    1.384500    1.680000
  C     -1.153600    2.964000    0.184500
  C     -1.138700    3.288900   -1.182900
  C     -0.922400    4.607800   -1.593600
  C     -0.732700    5.614500   -0.643500
  C     -0.769400    5.304500    0.719500
  C     -0.984400    3.986800    1.133600
  C     -1.628000   -0.812600   -0.137700
  C     -2.399400   -0.919100   -1.439700
  N     -3.364700   -1.962000   -1.621200
  O     -2.255300   -0.058900   -2.345500
  C     -0.840900   -2.059800    0.244700
  C     -0.447000   -3.033500   -0.697500
  C      0.302100   -4.141000   -0.296900
  C      0.663800   -4.294200    1.041300
  C      0.265500   -3.348400    1.987200
  C     -0.487400   -2.242900    1.594300
  H      0.424200   -0.922700   -2.211300
  H      1.785900    0.236300   -2.373500
  H      0.127600    0.780700   -2.685200
  H      0.908200    1.602200   -0.568600
  H      2.303100   -1.691400   -0.970500
  H      4.033800   -1.754200    2.926300
  H      1.116400    1.232100    1.998600
  H     -1.308100    2.527700   -1.930500
  H     -0.906700    4.852500   -2.649300
  H     -0.565300    6.635100   -0.962600
  H     -0.631200    6.086100    1.454100
  H     -1.003000    3.763900    2.193400
  H     -2.435800   -0.756500    0.627100
  H     -3.538000   -2.664700   -0.869200
  H     -3.958200   -1.981400   -2.481500
  H     -0.709800   -2.943100   -1.741900
  H      0.608900   -4.877500   -1.027600
  H      1.257500   -5.142200    1.345000
  H      0.553400   -3.462100    3.022600
  H     -0.774000   -1.511000    2.339000

 Total Charge           Charge          ....    0
 Multiplicity           Mult            ....    1
 Number of Electrons    NEL             ....  206
 Basis Dimension        Dim             ....  446

ORBITAL ENERGIES
----------------

  NO   OCC          E(Eh)            E(eV)
   0   2.0000     -24.699651      -672.1117
   1   2.0000     -24.698993      -672.0938
   2   2.0000     -19.115615      -520.1623
   3   2.0000     -19.115222      -520.1516
   4   2.0000     -14.358254      -390.7079
   5   2.0000     -14.353092      -390.5675
   6   2.0000     -10.296578      -280.1841
   7   2.0000     -10.288678      -279.9692
   8   2.0000     -10.271667      -279.5063
   9   2.0000     -10.271207      -279.4937
  10   2.0000     -10.241506      -278.6856
  11   2.0000     -10.231659      -278.4176
  12   2.0000     -10.203195      -277.6431
  13   2.0000     -10.200930      -277.5814
  14   2.0000     -10.197214      -277.4803
  15   2.0000     -10.189027      -277.2575
  16   2.0000     -10.188762      -277.2503
  17   2.0000     -10.188710      -277.2489
  18   2.0000     -10.188090      -277.2320
  19   2.0000     -10.186912      -277.2000
  20   2.0000     -10.186199      -277.1806
  21   2.0000     -10.186125      -277.1785
  22   2.0000     -10.185966      -277.1742
  23   2.0000     -10.185048      -277.1492
  24   2.0000     -10.184527      -277.1351
  25   2.0000     -10.184130      -277.1243
  26   2.0000     -10.184100      -277.1235
  27   2.0000     -10.183751      -277.1140
  28   2.0000     -10.166709      -276.6502
  29   2.0000      -1.212448       -32.9924
  30   2.0000      -1.211968       -32.9793
  31   2.0000      -1.018127       -27.7046
  32   2.0000      -1.008877       -27.4529
  33   2.0000      -0.916702       -24.9447
  34   2.0000      -0.882803       -24.0223
  35   2.0000      -0.859602       -23.3910
  36   2.0000      -0.856481       -23.3060
  37   2.0000      -0.852992       -23.2111
  38   2.0000      -0.791776       -21.5453
  39   2.0000      -0.771509       -20.9938
  40   2.0000      -0.754518       -20.5315
  41   2.0000      -0.748119       -20.3573
  42   2.0000      -0.746209       -20.3054
  43   2.0000      -0.745825       -20.2949
  44   2.0000      -0.726924       -19.7806
  45   2.0000      -0.703145       -19.1336
  46   2.0000      -0.646671       -17.5968
  47   2.0000      -0.632722       -17.2172
  48   2.0000      -0.615942       -16.7606
  49   2.0000      -0.612354       -16.6630
  50   2.0000      -0.606057       -16.4916
  51   2.0000      -0.600780       -16.3480
  52   2.0000      -0.592565       -16.1245
  53   2.0000      -0.574283       -15.6270
  54   2.0000      -0.550933       -14.9917
  55   2.0000      -0.539628       -14.6840
  56   2.0000      -0.527522       -14.3546
  57   2.0000      -0.522759       -14.2250
  58   2.0000      -0.515423       -14.0254
  59   2.0000      -0.507115       -13.7993
  60   2.0000      -0.499242       -13.5851
  61   2.0000      -0.489158       -13.3107
  62   2.0000      -0.486304       -13.2330
  63   2.0000      -0.479145       -13.0382
  64   2.0000      -0.464442       -12.6381
  65   2.0000      -0.461038       -12.5455
  66   2.0000      -0.454633       -12.3712
  67   2.0000      -0.450814       -12.2673
  68   2.0000      -0.447460       -12.1760
  69   2.0000      -0.442714       -12.0469
  70   2.0000      -0.439493       -11.9592
  71   2.0000      -0.436625       -11.8812
  72   2.0000      -0.427802       -11.6411
  73   2.0000      -0.422945       -11.5089
  74   2.0000      -0.421620       -11.4729
  75   2.0000      -0.419705       -11.4208
  76   2.0000      -0.410791       -11.1782
  77   2.0000      -0.399347       -10.8668
  78   2.0000      -0.396701       -10.7948
  79   2.0000      -0.387118       -10.5340
  80   2.0000      -0.380648       -10.3580
  81   2.0000      -0.375624       -10.2213
  82   2.0000      -0.372051       -10.1240
  83   2.0000      -0.364757        -9.9255
  84   2.0000      -0.362437        -9.8624
  85   2.0000      -0.357971        -9.7409
  86   2.0000      -0.352638        -9.5958
  87   2.0000      -0.349262        -9.5039
  88   2.0000      -0.346841        -9.4380
  89   2.0000      -0.346505        -9.4289
  90   2.0000      -0.340232        -9.2582
  91   2.0000      -0.335653        -9.1336
  92   2.0000      -0.329178        -8.9574
  93   2.0000      -0.271292        -7.3822
  94   2.0000      -0.264749        -7.2042
  95   2.0000      -0.257951        -7.0192
  96   2.0000      -0.252716        -6.8768
  97   2.0000      -0.252491        -6.8706
  98   2.0000      -0.251326        -6.8389
  99   2.0000      -0.241479        -6.5710
 100   2.0000      -0.238271        -6.4837
 101   2.0000      -0.234666        -6.3856
 102   2.0000      -0.227097        -6.1796
 103   0.0000      -0.042347        -1.1523
 104   0.0000      -0.018121        -0.4931
 105   0.0000      -0.006767        -0.1842
 106   0.0000      -0.005051        -0.1374
 107   0.0000      -0.002843        -0.0774

MULLIKEN ATOMIC CHARGES
-----------------------
   0 C :   -0.455311
   1 C :   -0.082844
   2 C :    0.190825
   3 C :   -0.254479
   4 C :    0.440478
   5 F :   -0.321073
   6 C :   -0.301741
   7 C :    0.430644
   8 F :   -0.317943
   9 C :   -0.269159
  10 N :   -0.405295
  11 C :    0.454080
  12 O :   -0.472053
  13 C :    0.066960
  14 C :   -0.170853
  15 C :   -0.134493
  16 C :   -0.115547
  17 C :   -0.132786
  18 C :   -0.146412
  19 C :   -0.135043
  20 C :    0.562725
  21 N :   -0.764921
  22 O :   -0.472171
  23 C :    0.103628
  24 C :   -0.184058
  25 C :   -0.132689
  26 C :   -0.119961
  27 C :   -0.124388
  28 C :   -0.158550
  29 H :    0.148866
  30 H :    0.140314
  31 H :    0.179258
  32 H :    0.174470
  33 H :    0.144667
  34 H :    0.151942
  35 H :    0.149884
  36 H :    0.181611
  37 H :    0.135858
  38 H :    0.134025
  39 H :    0.135655
  40 H :    0.153548
  41 H :    0.200768
  42 H :    0.337787
  43 H :    0.352062
  44 H :    0.144203
  45 H :    0.132296
  46 H :    0.132665
  47 H :    0.135746
  48 H :    0.156804
Sum of atomic charges:    0.0000000

LOEWDIN ATOMIC CHARGES
----------------------
   0 C :   -0.364903
   1 C :   -0.049070
   2 C :   -0.004090
   3 C :   -0.164269
   4 C :    0.124936
   5 F :   -0.102473
   6 C :   -0.193865
   7 C :    0.121512
   8 F :   -0.101876
   9 C :   -0.168216
  10 N :   -0.095090
  11 C :    0.149766
  12 O :   -0.276098
  13 C :   -0.054548
  14 C :   -0.115888
  15 C :   -0.130067
  16 C :   -0.115812
  17 C :   -0.129950
  18 C :   -0.099854
  19 C :   -0.067803
  20 C :    0.136740
  21 N :   -0.404854
  22 O :   -0.285816
  23 C :   -0.034785
  24 C :   -0.142050
  25 C :   -0.131580
  26 C :   -0.123787
  27 C :   -0.124244
  28 C :   -0.114314
  29 H :    0.126999
  30 H :    0.124702
  31 H :    0.142106
  32 H :    0.149895
  33 H :    0.145838
  34 H :    0.150555
  35 H :    0.145835
  36 H :    0.152623
  37 H :    0.134799
  38 H :    0.133856
  39 H :    0.135076
  40 H :    0.145686
  41 H :    0.170725
  42 H :    0.254286
  43 H :    0.266173
  44 H :    0.136417
  45 H :    0.133232
  46 H :    0.133891
  47 H :    0.135263
  48 H :    0.144393

  Mayer bond orders larger than 0.100000
B(  0-C ,  1-C ) :   1.0116 B(  0-C , 29-H ) :   0.9324 B(  0-C , 30-H ) :   0.9349
B(  0-C , 31-H ) :   0.9305 B(  1-C ,  2-C ) :   0.9467 B(  1-C , 10-N ) :   0.9469
B(  1-C , 32-H ) :   0.9096 B(  2-C ,  3-C ) :   1.4103 B(  2-C ,  9-C ) :   1.3772
B(  3-C ,  4-C ) :   1.3768 B(  3-C , 33-H ) :   0.9075 B(  4-C ,  5-F ) :   0.9009
B(  4-C ,  6-C ) :   1.3725 B(  6-C ,  7-C ) :   1.3652 B(  6-C , 34-H ) :   0.9132
B(  7-C ,  8-F ) :   0.9075 B(  7-C ,  9-C ) :   1.3938 B(  9-C , 35-H ) :   0.9103
B( 10-N , 11-C ) :   1.0204 B( 10-N , 19-C ) :   0.9543 B( 11-C , 12-O ) :   1.7944
B( 11-C , 13-C ) :   0.9751 B( 13-C , 14-C ) :   1.3982 B( 13-C , 18-C ) :   1.4025
B( 14-C , 15-C ) :   1.4304 B( 14-C , 36-H ) :   0.8992 B( 15-C , 16-C ) :   1.4509
B( 15-C , 37-H ) :   0.9294 B( 16-C , 17-C ) :   1.4408 B( 16-C , 38-H ) :   0.9301
B( 17-C , 18-C ) :   1.4401 B( 17-C , 39-H ) :   0.9295 B( 18-C , 40-H ) :   0.9179
B( 19-C , 20-C ) :   0.8991 B( 19-C , 23-C ) :   0.9684 B( 19-C , 41-H ) :   0.8809
B( 20-C , 21-N ) :   1.0683 B( 20-C , 22-O ) :   1.8376 B( 21-N , 42-H ) :   0.8257
B( 21-N , 43-H ) :   0.8220 B( 23-C , 24-C ) :   1.4293 B( 23-C , 28-C ) :   1.4139
B( 24-C , 25-C ) :   1.4278 B( 24-C , 44-H ) :   0.9130 B( 25-C , 26-C ) :   1.4595
B( 25-C , 45-H ) :   0.9291 B( 26-C , 27-C ) :   1.4394 B( 26-C , 46-H ) :   0.9295
B( 27-C , 28-C ) :   1.4463 B( 27-C , 47-H ) :   0.9282 B( 28-C , 48-H ) :   0.9155

FINAL SINGLE POINT ENERGY     -1347.314059019744

DIPOLE MOMENT
-------------

Method             : SCF
Type of density    : Electron Density
Multiplicity       :   1
Irrep              :   0
Energy             : -1347.3140590197440360 Eh
Relativity type    :
Basis              : AO
                                X                 Y                 Z
Electronic contribution:     10.873631284      -3.771060698      13.186403959
Nuclear contribution   :    -11.012298958       3.118485302     -13.827094697
                        -----------------------------------------
Total Dipole Moment    :     -0.138667675      -0.652575396      -0.640690739
                        -----------------------------------------
Magnitude (a.u.)       :      0.924969185
Magnitude (Debye)      :      2.351084825

Rotational constants in cm-1:             0.007905             0.004649             0.003567
Rotational constants in MHz :           237.000447           139.377788           106.923413

                             ****ORCA TERMINATED NORMALLY****
TOTAL RUN TIME: 0 days 0 hours 9 minutes 11 seconds 319 msec
