                         Program Version 6.0.0  -   RELEASE  -
|  1> ! B3LYP 6-31G* SP
|  2>
|  3> * xyz 0 1
|  4> C 5.6480 -2.3744 -2.4069
|  5> O 4.2413 -2.1730 -2.3002
|  6> C 3.6463 -0.9983 -1.8168
|  7> C 4.3991 0.0685 -1.2913
|  8> C 3.7590 1.2221 -0.8312
|  9> C 2.3698 1.3305 -0.9028
| 10> C 1.6085 0.2835 -1.4400
| 11> C 0.1135 0.4184 -1.5418
| 12> N -0.5131 0.2320 -0.2240
| 13> C -0.7656 1.3834 0.6076
| 14> O -0.3569 1.3988 1.8061
| 15> C -1.5146 2.5419 0.0873
| 16> C -1.4298 3.8460 0.5709
| 17> C -2.2428 4.7484 -0.1255
| 18> C -2.9722 4.1593 -1.1521
| 19> S -2.6026 2.5147 -1.1952
| 20> C -0.7721 -1.1370 0.2703
| 21> C 0.3097 -1.6170 1.2152
| 22> N 0.2400 -2.9260 1.7781
| 23> O 1.2903 -0.8834 1.4967
| 24> C -2.1675 -1.2282 0.8670
| 25> C -2.4129 -0.9498 2.2275
| 26> C -3.7195 -0.9597 2.7305
| 27> C -4.7926 -1.2414 1.8836
| 28> C -4.5635 -1.5094 0.5319
| 29> C -3.2600 -1.4931 0.0229
| 30> C 2.2525 -0.8869 -1.8735
| 31> H 5.8333 -3.3674 -2.8688
| 32> H 6.1179 -2.3532 -1.3968
| 33> H 6.1028 -1.5876 -3.0555
| 34> H 5.4787 0.0152 -1.2381
| 35> H 4.3411 2.0383 -0.4254
| 36> H 1.8876 2.2328 -0.5491
| 37> H -0.1210 1.4225 -1.9537
| 38> H -0.3032 -0.3132 -2.2693
| 39> H -0.7859 4.1413 1.3878
| 40> H -2.2758 5.8098 0.0907
| 41> H -3.6546 4.6760 -1.8154
| 42> H -0.7322 -1.8437 -0.5888
| 43> H 1.0067 -3.2766 2.3973
| 44> H -0.5614 -3.5625 1.5491
| 45> H -1.5993 -0.7149 2.9008
| 46> H -3.8989 -0.7414 3.7749
| 47> H -5.8037 -1.2444 2.2759
| 48> H -5.3955 -1.7159 -0.1268
| 49> H -3.1033 -1.6769 -1.0320
| 50> H 1.6742 -1.7081 -2.2775
| 51> *
| 52>
| 53>                          ****END OF INPUT****

CARTESIAN COORDINATES (ANGSTROEM)
---------------------------------
  C      5.648000   -2.374400   -2.406900
  O      4.241300   -2.173000   -2.300200
  C      3.646300   -0.998300   -1.816800
  C      4.399100    0.068500   -1.291300
  C      3.759000    1.222100   -0.831200
  C      2.369800    1.330500   -0.902800
  C      1.608500    0.283500   -1.440000
  C      0.113500    0.418400   -1.541800
  N     -0.513100    0.232000   -0.224000
  C     -0.765600    1.383400    0.607600
  O     -0.356900    1.398800    1.806100
  C     -1.514600    2.541900    0.087300
  C     -1.429800    3.846000    0.570900
  C     -2.242800    4.748400   -0.125500
  C     -2.972200    4.159300   -1.152100
  S     -2.602600    2.514700   -1.195200
  C     -0.772100   -1.137000    0.270300
  C      0.309700   -1.617000    1.215200
  N      0.240000   -2.926000    1.778100
  O      1.290300   -0.883400    1.496700
  C     -2.167500   -1.228200    0.867000
  C     -2.412900   -0.949800    2.227500
  C     -3.719500   -0.959700    2.730500
  C     -4.792600   -1.241400    1.883600
  C     -4.563500   -1.509400    0.531900
  C     -3.260000   -1.493100    0.022900
  C      2.252500   -0.886900   -1.873500
  H      5.833300   -3.367400   -2.868800
  H      6.117900   -2.353200   -1.396800
  H      6.102800   -1.587600   -3.055500
  H      5.478700    0.015200   -1.238100
  H      4.341100    2.038300   -0.425400
  H      1.887600    2.232800   -0.549100
  H     -0.121000    1.422500   -1.953700
  H     -0.303200   -0.313200   -2.269300
  H     -0.785900    4.141300    1.387800
  H     -2.275800    5.809800    0.090700
  H     -3.654600    4.676000   -1.815400
  H     -0.732200   -1.843700   -0.588800
  H      1.006700   -3.276600    2.397300
  H     -0.561400   -3.562500    1.549100
  H     -1.599300   -0.714900    2.900800
  H     -3.898900   -0.741400    3.774900
  H     -5.803700   -1.244400    2.275900
  H     -5.395500   -1.715900   -0.126800
  H     -3.103300   -1.676900   -1.032000
  H      1.674200   -1.708100   -2.277500

 Total Charge           Charge          ....    0
 Multiplicity           Mult            ....    1
 Number of Electrons    NEL             ....  200
 Basis Dimension        Dim             ....  422

ORBITAL ENERGIES
----------------

  NO   OCC          E(Eh)            E(eV)
   0   2.0000     -88.894429     -2418.9404
   1   2.0000     -19.153153      -521.1838
   2   2.0000     -19.107861      -519.9513
   3   2.0000     -19.090712      -519.4847
   4   2.0000     -14.342223      -390.2717
   5   2.0000     -14.340722      -390.2309
   6   2.0000     -10.288263      -279.9579
   7   2.0000     -10.273392      -279.5532
   8   2.0000     -10.235997      -278.5356
   9   2.0000     -10.232296      -278.4349
  10   2.0000     -10.229813      -278.3674
  11   2.0000     -10.214934      -277.9625
  12   2.0000     -10.212244      -277.8893
  13   2.0000     -10.210686      -277.8469
  14   2.0000     -10.193716      -277.3851
  15   2.0000     -10.187125      -277.2058
  16   2.0000     -10.186699      -277.1942
  17   2.0000     -10.184301      -277.1289
  18   2.0000     -10.181574      -277.0547
  19   2.0000     -10.180816      -277.0341
  20   2.0000     -10.178978      -276.9841
  21   2.0000     -10.178368      -276.9675
  22   2.0000     -10.176366      -276.9130
  23   2.0000     -10.168640      -276.7028
  24   2.0000     -10.166483      -276.6441
  25   2.0000     -10.165961      -276.6299
  26   2.0000     -10.159406      -276.4515
  27   2.0000      -7.970912      -216.8995
  28   2.0000      -5.933860      -161.4685
  29   2.0000      -5.929817      -161.3585
  30   2.0000      -5.928203      -161.3146
  31   2.0000      -1.030762       -28.0485
  32   2.0000      -1.005544       -27.3622
  33   2.0000      -0.989296       -26.9201
  34   2.0000      -0.913683       -24.8626
  35   2.0000      -0.893319       -24.3084
  36   2.0000      -0.865296       -23.5459
  37   2.0000      -0.848600       -23.0916
  38   2.0000      -0.834033       -22.6952
  39   2.0000      -0.778301       -21.1787
  40   2.0000      -0.751176       -20.4405
  41   2.0000      -0.740472       -20.1493
  42   2.0000      -0.739103       -20.1120
  43   2.0000      -0.738401       -20.0929
  44   2.0000      -0.735724       -20.0201
  45   2.0000      -0.700684       -19.0666
  46   2.0000      -0.676813       -18.4170
  47   2.0000      -0.670082       -18.2338
  48   2.0000      -0.614710       -16.7271
  49   2.0000      -0.604990       -16.4626
  50   2.0000      -0.593217       -16.1423
  51   2.0000      -0.588941       -16.0259
  52   2.0000      -0.568032       -15.4569
  53   2.0000      -0.566486       -15.4149
  54   2.0000      -0.552662       -15.0387
  55   2.0000      -0.526178       -14.3180
  56   2.0000      -0.517042       -14.0694
  57   2.0000      -0.515299       -14.0220
  58   2.0000      -0.510098       -13.8805
  59   2.0000      -0.489334       -13.3155
  60   2.0000      -0.478438       -13.0190
  61   2.0000      -0.473440       -12.8829
  62   2.0000      -0.470115       -12.7925
  63   2.0000      -0.464484       -12.6393
  64   2.0000      -0.452494       -12.3130
  65   2.0000      -0.449251       -12.2248
  66   2.0000      -0.448597       -12.2069
  67   2.0000      -0.434805       -11.8316
  68   2.0000      -0.425954       -11.5908
  69   2.0000      -0.422676       -11.5016
  70   2.0000      -0.417014       -11.3475
  71   2.0000      -0.410515       -11.1707
  72   2.0000      -0.409554       -11.1445
  73   2.0000      -0.401783       -10.9331
  74   2.0000      -0.398660       -10.8481
  75   2.0000      -0.391378       -10.6499
  76   2.0000      -0.383299       -10.4301
  77   2.0000      -0.377784       -10.2800
  78   2.0000      -0.374312       -10.1856
  79   2.0000      -0.363961        -9.9039
  80   2.0000      -0.354910        -9.6576
  81   2.0000      -0.351933        -9.5766
  82   2.0000      -0.348749        -9.4900
  83   2.0000      -0.344894        -9.3850
  84   2.0000      -0.340353        -9.2615
  85   2.0000      -0.339913        -9.2495
  86   2.0000      -0.335889        -9.1400
  87   2.0000      -0.332814        -9.0563
  88   2.0000      -0.303825        -8.2675
  89   2.0000      -0.296286        -8.0624
  90   2.0000      -0.257484        -7.0065
  91   2.0000      -0.254653        -6.9295
  92   2.0000      -0.249791        -6.7972
  93   2.0000      -0.245175        -6.6716
  94   2.0000      -0.240946        -6.5565
  95   2.0000      -0.235470        -6.4075
  96   2.0000      -0.229025        -6.2321
  97   2.0000      -0.222887        -6.0651
  98   2.0000      -0.214003        -5.8233
  99   2.0000      -0.201181        -5.4744
 100   0.0000      -0.048730        -1.3260
 101   0.0000      -0.006937        -0.1888
 102   0.0000       0.001720         0.0468
 103   0.0000       0.013171         0.3584
 104   0.0000       0.020940         0.5698

MULLIKEN ATOMIC CHARGES
-----------------------
   0 C :   -0.191302
   1 O :   -0.517195
   2 C :    0.374658
   3 C :   -0.202886
   4 C :   -0.121432
   5 C :   -0.154628
   6 C :    0.220255
   7 C :   -0.288356
   8 N :   -0.398708
   9 C :    0.514193
  10 O :   -0.438339
  11 C :   -0.207056
  12 C :   -0.087131
  13 C :   -0.111810
  14 C :   -0.336684
  15 S :    0.287899
  16 C :   -0.136959
  17 C :    0.578757
  18 N :   -0.769174
  19 O :   -0.449221
  20 C :    0.118208
  21 C :   -0.158518
  22 C :   -0.132993
  23 C :   -0.122186
  24 C :   -0.128066
  25 C :   -0.174651
  26 C :   -0.228320
  27 H :    0.163181
  28 H :    0.146159
  29 H :    0.142529
  30 H :    0.123902
  31 H :    0.127232
  32 H :    0.122860
  33 H :    0.172125
  34 H :    0.141837
  35 H :    0.162662
  36 H :    0.142967
  37 H :    0.180999
  38 H :    0.157219
  39 H :    0.347971
  40 H :    0.325629
  41 H :    0.172699
  42 H :    0.134416
  43 H :    0.128272
  44 H :    0.127796
  45 H :    0.123643
  46 H :    0.117548
Sum of atomic charges:    0.0000000

LOEWDIN ATOMIC CHARGES
----------------------
   0 C :   -0.197994
   1 O :   -0.198408
   2 C :    0.090275
   3 C :   -0.175898
   4 C :   -0.114809
   5 C :   -0.134580
   6 C :   -0.016636
   7 C :   -0.147458
   8 N :   -0.099215
   9 C :    0.146778
  10 O :   -0.241589
  11 C :   -0.230601
  12 C :   -0.125962
  13 C :   -0.163226
  14 C :   -0.303196
  15 S :    0.413572
  16 C :   -0.061065
  17 C :    0.127119
  18 N :   -0.409476
  19 O :   -0.258128
  20 C :   -0.034870
  21 C :   -0.118814
  22 C :   -0.127938
  23 C :   -0.126086
  24 C :   -0.132053
  25 C :   -0.130731
  26 C :   -0.157302
  27 H :    0.132068
  28 H :    0.115171
  29 H :    0.114020
  30 H :    0.131565
  31 H :    0.131691
  32 H :    0.130511
  33 H :    0.139672
  34 H :    0.119458
  35 H :    0.152197
  36 H :    0.138428
  37 H :    0.159102
  38 H :    0.144126
  39 H :    0.263849
  40 H :    0.247493
  41 H :    0.152077
  42 H :    0.134489
  43 H :    0.131252
  44 H :    0.131426
  45 H :    0.129090
  46 H :    0.130605

  Mayer bond orders larger than 0.100000
B(  0-C ,  1-O ) :   0.9254 B(  0-C , 27-H ) :   0.9461 B(  0-C , 28-H ) :   0.9299
B(  0-C , 29-H ) :   0.9303 B(  1-O ,  2-C ) :   0.9076 B(  2-C ,  3-C ) :   1.3799
B(  2-C , 26-C ) :   1.3873 B(  3-C ,  4-C ) :   1.4302 B(  3-C , 30-H ) :   0.9199
B(  4-C ,  5-C ) :   1.4592 B(  4-C , 31-H ) :   0.9294 B(  5-C ,  6-C ) :   1.4160
B(  5-C , 32-H ) :   0.9228 B(  6-C ,  7-C ) :   0.9290 B(  6-C , 26-C ) :   1.4343
B(  7-C ,  8-N ) :   0.9660 B(  7-C , 33-H ) :   0.9179 B(  7-C , 34-H ) :   0.9273
B(  8-N ,  9-C ) :   0.9875 B(  8-N , 16-C ) :   0.9661 B(  9-C , 10-O ) :   1.8376
B(  9-C , 11-C ) :   1.0027 B( 11-C , 12-C ) :   1.4951 B( 11-C , 14-C ) :   0.1323
B( 11-C , 15-S ) :   1.1154 B( 12-C , 13-C ) :   1.3718 B( 12-C , 35-H ) :   0.9210
B( 13-C , 14-C ) :   1.5480 B( 13-C , 36-H ) :   0.9278 B( 14-C , 15-S ) :   1.1796
B( 14-C , 37-H ) :   0.9166 B( 16-C , 17-C ) :   0.8884 B( 16-C , 20-C ) :   0.9673
B( 16-C , 38-H ) :   0.9043 B( 17-C , 18-N ) :   1.0543 B( 17-C , 19-O ) :   1.8693
B( 18-N , 39-H ) :   0.8242 B( 18-N , 40-H ) :   0.8312 B( 20-C , 21-C ) :   1.4321
B( 20-C , 25-C ) :   1.4156 B( 21-C , 22-C ) :   1.4293 B( 21-C , 41-H ) :   0.9069
B( 22-C , 23-C ) :   1.4527 B( 22-C , 42-H ) :   0.9293 B( 23-C , 24-C ) :   1.4514
B( 23-C , 43-H ) :   0.9303 B( 24-C , 25-C ) :   1.4446 B( 24-C , 44-H ) :   0.9297
B( 25-C , 45-H ) :   0.9261 B( 26-C , 46-H ) :   0.9156

FINAL SINGLE POINT ENERGY     -1544.818679258581

DIPOLE MOMENT
-------------

Method             : SCF
Type of density    : Electron Density
Multiplicity       :   1
Irrep              :   0
Energy             : -1544.8186792585811418 Eh
Relativity type    :
Basis              : AO
                                X                 Y                 Z
Electronic contribution:     -8.706490543       7.086189458       2.218905199
Nuclear contribution   :      7.968986656      -7.595497397      -3.150704416
                        -----------------------------------------
Total Dipole Moment    :     -0.737503887      -0.509307940      -0.931799217
                        -----------------------------------------
Magnitude (a.u.)       :      1.292886824
Magnitude (Debye)      :      3.286257145

Rotational constants in cm-1:             0.008498             0.004261             0.003292
Rotational constants in MHz :           254.769881           127.731009            98.694590

                             ****ORCA TERMINATED NORMALLY****
TOTAL RUN TIME: 0 days 0 hours 7 minutes 44 seconds 646 msec
