                         Program Version 6.0.0  -   RELEASE  -
|  1> ! B3LYP 6-31G* SP
|  2>
|  3> * xyz 0 1
|  4> C -2.6387 0.1910 -1.9799
|  5> C -1.7539 1.0669 -1.1381
|  6> C -1.6851 2.4431 -1.4032
|  7> C -0.8250 3.2613 -0.6606
|  8> C -0.7267 4.6378 -0.9141
|  9> C 0.1559 5.4240 -0.1657
| 10> C 0.9402 4.8427 0.8370
| 11> C 0.8441 3.4727 1.0980
| 12> C -0.0356 2.6796 0.3537
| 13> N -0.1109 1.3448 0.5878
| 14> C -0.9311 0.5285 -0.1276
| 15> N -0.8699 -0.8840 0.1062
| 16> C 0.0003 -1.7257 -0.7210
| 17> C 1.4008 -1.1730 -0.7255
| 18> C 1.8116 -0.3039 -1.7477
| 19> C 3.0433 0.3495 -1.6653
| 20> C 3.8895 0.1416 -0.5616
| 21> C 5.1629 0.9427 -0.4203
| 22> F 5.7497 1.1075 -1.6645
| 23> F 6.0706 0.2620 0.3822
| 24> C 4.8182 2.3358 0.1438
| 25> C 5.9299 3.0566 0.8932
| 26> C 4.7590 2.4575 1.6602
| 27> C 3.4728 -0.7288 0.4614
| 28> C 2.2410 -1.3833 0.3771
| 29> S -1.6290 -1.5409 1.5209
| 30> O -2.3207 -0.4465 2.2858
| 31> O -0.5891 -2.1570 2.4140
| 32> C -2.8135 -2.7504 1.0413
| 33> C -4.1270 -2.3680 0.7417
| 34> C -5.0670 -3.3241 0.3468
| 35> C -4.7038 -4.6781 0.2414
| 36> C -5.7011 -5.6874 -0.1770
| 37> O -5.3692 -6.8946 -0.3115
| 38> O -7.0184 -5.3119 -0.4258
| 39> C -3.3806 -5.0547 0.5367
| 40> C -2.4431 -4.0963 0.9329
| 41> H -2.0648 -0.1867 -2.8507
| 42> H -3.5181 0.7591 -2.3509
| 43> H -3.0183 -0.6686 -1.3925
| 44> H -2.2920 2.8716 -2.1933
| 45> H -1.3248 5.1014 -1.6893
| 46> H 0.2337 6.4849 -0.3651
| 47> H 1.6244 5.4540 1.4112
| 48> H 1.4575 3.0282 1.8719
| 49> H 0.0160 -2.7669 -0.3337
| 50> H -0.4043 -1.7723 -1.7543
| 51> H 1.1587 -0.0966 -2.5870
| 52> H 3.3218 1.0444 -2.4478
| 53> H 4.1190 2.9984 -0.4122
| 54> H 6.8849 2.5044 1.0241
| 55> H 5.8947 4.1640 0.8157
| 56> H 4.0413 3.2169 2.0376
| 57> H 5.0174 1.5497 2.2459
| 58> H 4.0855 -0.8808 1.3411
| 59> H 1.9246 -2.0241 1.1908
| 60> H -4.4237 -1.3292 0.8093
| 61> H -6.0763 -3.0018 0.1220
| 62> H -7.7101 -5.9938 -0.7118
| 63> H -3.0690 -6.0886 0.4616
| 64> H -1.4286 -4.4046 1.1517
| 65> *
| 66>
| 67>                          ****END OF INPUT****

CARTESIAN COORDINATES (ANGSTROEM)
---------------------------------
  C     -2.638700    0.191000   -1.979900
  C     -1.753900    1.066900   -1.138100
  C     -1.685100    2.443100   -1.403200
  C     -0.825000    3.261300   -0.660600
  C     -0.726700    4.637800   -0.914100
  C      0.155900    5.424000   -0.165700
  C      0.940200    4.842700    0.837000
  C      0.844100    3.472700    1.098000
  C     -0.035600    2.679600    0.353700
  N     -0.110900    1.344800    0.587800
  C     -0.931100    0.528500   -0.127600
  N     -0.869900   -0.884000    0.106200
  C      0.000300   -1.725700   -0.721000
  C      1.400800   -1.173000   -0.725500
  C      1.811600   -0.303900   -1.747700
  C      3.043300    0.349500   -1.665300
  C      3.889500    0.141600   -0.561600
  C      5.162900    0.942700   -0.420300
  F      5.749700    1.107500   -1.664500
  F      6.070600    0.262000    0.382200
  C      4.818200    2.335800    0.143800
  C      5.929900    3.056600    0.893200
  C      4.759000    2.457500    1.660200
  C      3.472800   -0.728800    0.461400
  C      2.241000   -1.383300    0.377100
  S     -1.629000   -1.540900    1.520900
  O     -2.320700   -0.446500    2.285800
  O     -0.589100   -2.157000    2.414000
  C     -2.813500   -2.750400    1.041300
  C     -4.127000   -2.368000    0.741700
  C     -5.067000   -3.324100    0.346800
  C     -4.703800   -4.678100    0.241400
  C     -5.701100   -5.687400   -0.177000
  O     -5.369200   -6.894600   -0.311500
  O     -7.018400   -5.311900   -0.425800
  C     -3.380600   -5.054700    0.536700
  C     -2.443100   -4.096300    0.932900
  H     -2.064800   -0.186700   -2.850700
  H     -3.518100    0.759100   -2.350900
  H     -3.018300   -0.668600   -1.392500
  H     -2.292000    2.871600   -2.193300
  H     -1.324800    5.101400   -1.689300
  H      0.233700    6.484900   -0.365100
  H      1.624400    5.454000    1.411200
  H      1.457500    3.028200    1.871900
  H      0.016000   -2.766900   -0.333700
  H     -0.404300   -1.772300   -1.754300
  H      1.158700   -0.096600   -2.587000
  H      3.321800    1.044400   -2.447800
  H      4.119000    2.998400   -0.412200
  H      6.884900    2.504400    1.024100
  H      5.894700    4.164000    0.815700
  H      4.041300    3.216900    2.037600
  H      5.017400    1.549700    2.245900
  H      4.085500   -0.880800    1.341100
  H      1.924600   -2.024100    1.190800
  H     -4.423700   -1.329200    0.809300
  H     -6.076300   -3.001800    0.122000
  H     -7.710100   -5.993800   -0.711800
  H     -3.069000   -6.088600    0.461600
  H     -1.428600   -4.404600    1.151700

 Total Charge           Charge          ....    0
 Multiplicity           Mult            ....    1
 Number of Electrons    NEL             ....  272
 Basis Dimension        Dim             ....  570

ORBITAL ENERGIES
----------------

  NO   OCC          E(Eh)            E(eV)
   0   2.0000     -89.098617     -2424.4966
   1   2.0000     -24.694755      -671.9785
   2   2.0000     -24.680694      -671.5958
   3   2.0000     -19.199605      -522.4478
   4   2.0000     -19.141543      -520.8679
   5   2.0000     -19.125680      -520.4362
   6   2.0000     -19.125215      -520.4236
   7   2.0000     -14.372049      -391.0833
   8   2.0000     -14.327934      -389.8829
   9   2.0000     -10.341794      -281.4145
  10   2.0000     -10.338909      -281.3360
  11   2.0000     -10.264418      -279.3090
  12   2.0000     -10.246606      -278.8243
  13   2.0000     -10.237545      -278.5778
  14   2.0000     -10.236355      -278.5454
  15   2.0000     -10.224983      -278.2359
  16   2.0000     -10.224486      -278.2224
  17   2.0000     -10.222101      -278.1575
  18   2.0000     -10.221992      -278.1545
  19   2.0000     -10.220380      -278.1107
  20   2.0000     -10.209907      -277.8257
  21   2.0000     -10.202843      -277.6335
  22   2.0000     -10.198583      -277.5176
  23   2.0000     -10.196940      -277.4728
  24   2.0000     -10.194257      -277.3998
  25   2.0000     -10.193341      -277.3749
  26   2.0000     -10.193110      -277.3686
  27   2.0000     -10.192555      -277.3535
  28   2.0000     -10.192511      -277.3523
  29   2.0000     -10.191616      -277.3280
  30   2.0000     -10.187663      -277.2204
  31   2.0000     -10.185620      -277.1648
  32   2.0000     -10.185181      -277.1529
  33   2.0000     -10.185095      -277.1505
  34   2.0000     -10.182627      -277.0834
  35   2.0000     -10.182565      -277.0817
  36   2.0000     -10.179210      -276.9904
  37   2.0000      -8.134244      -221.3440
  38   2.0000      -6.099241      -165.9688
  39   2.0000      -6.097270      -165.9151
  40   2.0000      -6.096966      -165.9069
  41   2.0000      -1.226270       -33.3685
  42   2.0000      -1.172454       -31.9041
  43   2.0000      -1.084808       -29.5191
  44   2.0000      -1.083611       -29.4866
  45   2.0000      -0.999175       -27.1889
  46   2.0000      -0.964547       -26.2467
  47   2.0000      -0.961495       -26.1636
  48   2.0000      -0.918148       -24.9841
  49   2.0000      -0.894725       -24.3467
  50   2.0000      -0.860761       -23.4225
  51   2.0000      -0.851247       -23.1636
  52   2.0000      -0.847070       -23.0499
  53   2.0000      -0.821760       -22.3612
  54   2.0000      -0.811099       -22.0711
  55   2.0000      -0.784658       -21.3516
  56   2.0000      -0.781152       -21.2562
  57   2.0000      -0.768989       -20.9252
  58   2.0000      -0.747148       -20.3309
  59   2.0000      -0.743424       -20.2296
  60   2.0000      -0.726533       -19.7700
  61   2.0000      -0.708486       -19.2789
  62   2.0000      -0.697214       -18.9722
  63   2.0000      -0.669876       -18.2283
  64   2.0000      -0.665099       -18.0983
  65   2.0000      -0.643590       -17.5130
  66   2.0000      -0.627235       -17.0679
  67   2.0000      -0.615225       -16.7411
  68   2.0000      -0.609836       -16.5945
  69   2.0000      -0.607466       -16.5300
  70   2.0000      -0.601172       -16.3587
  71   2.0000      -0.591468       -16.0947
  72   2.0000      -0.586263       -15.9530
  73   2.0000      -0.575222       -15.6526
  74   2.0000      -0.561948       -15.2914
  75   2.0000      -0.543335       -14.7849
  76   2.0000      -0.536596       -14.6015
  77   2.0000      -0.533381       -14.5140
  78   2.0000      -0.525667       -14.3041
  79   2.0000      -0.516676       -14.0595
  80   2.0000      -0.513327       -13.9683
  81   2.0000      -0.501693       -13.6518
  82   2.0000      -0.495509       -13.4835
  83   2.0000      -0.486102       -13.2275
  84   2.0000      -0.478527       -13.0214
  85   2.0000      -0.472097       -12.8464
  86   2.0000      -0.469544       -12.7770
  87   2.0000      -0.464685       -12.6447
  88   2.0000      -0.463907       -12.6236
  89   2.0000      -0.458352       -12.4724
  90   2.0000      -0.453046       -12.3280
  91   2.0000      -0.450070       -12.2470
  92   2.0000      -0.446151       -12.1404
  93   2.0000      -0.445378       -12.1193
  94   2.0000      -0.440102       -11.9758
  95   2.0000      -0.437201       -11.8969
  96   2.0000      -0.425055       -11.5663
  97   2.0000      -0.423015       -11.5108
  98   2.0000      -0.420347       -11.4382
  99   2.0000      -0.417745       -11.3674
 100   2.0000      -0.416499       -11.3335
 101   2.0000      -0.408359       -11.1120
 102   2.0000      -0.406270       -11.0552
 103   2.0000      -0.404898       -11.0178
 104   2.0000      -0.397697       -10.8219
 105   2.0000      -0.394175       -10.7260
 106   2.0000      -0.392277       -10.6744
 107   2.0000      -0.391984       -10.6664
 108   2.0000      -0.388809       -10.5800
 109   2.0000      -0.379434       -10.3249
 110   2.0000      -0.377151       -10.2628
 111   2.0000      -0.372421       -10.1341
 112   2.0000      -0.366353        -9.9690
 113   2.0000      -0.362574        -9.8661
 114   2.0000      -0.356643        -9.7048
 115   2.0000      -0.352069        -9.5803
 116   2.0000      -0.342060        -9.3079
 117   2.0000      -0.339982        -9.2514
 118   2.0000      -0.326337        -8.8801
 119   2.0000      -0.324170        -8.8211
 120   2.0000      -0.323054        -8.7907
 121   2.0000      -0.308718        -8.4006
 122   2.0000      -0.303424        -8.2566
 123   2.0000      -0.297023        -8.0824
 124   2.0000      -0.292697        -7.9647
 125   2.0000      -0.288979        -7.8635
 126   2.0000      -0.284338        -7.7372
 127   2.0000      -0.282270        -7.6809
 128   2.0000      -0.278534        -7.5793
 129   2.0000      -0.273428        -7.4404
 130   2.0000      -0.255849        -6.9620
 131   2.0000      -0.254569        -6.9272
 132   2.0000      -0.251487        -6.8433
 133   2.0000      -0.247026        -6.7219
 134   2.0000      -0.236084        -6.4242
 135   2.0000      -0.226546        -6.1646
 136   0.0000      -0.087754        -2.3879
 137   0.0000      -0.064590        -1.7576
 138   0.0000      -0.036795        -1.0013
 139   0.0000      -0.024362        -0.6629
 140   0.0000      -0.014576        -0.3966

MULLIKEN ATOMIC CHARGES
-----------------------
   0 C :   -0.533972
   1 C :    0.148299
   2 C :   -0.212485
   3 C :    0.178549
   4 C :   -0.206978
   5 C :   -0.127533
   6 C :   -0.139264
   7 C :   -0.145351
   8 C :    0.208023
   9 N :   -0.411814
  10 C :    0.338372
  11 N :   -0.608868
  12 C :   -0.242889
  13 C :    0.165045
  14 C :   -0.169422
  15 C :   -0.167596
  16 C :    0.045298
  17 C :    0.670402
  18 F :   -0.337145
  19 F :   -0.339976
  20 C :   -0.174242
  21 C :   -0.316888
  22 C :   -0.307712
  23 C :   -0.164193
  24 C :   -0.152985
  25 S :    1.200273
  26 O :   -0.535907
  27 O :   -0.537806
  28 C :   -0.121437
  29 C :   -0.146647
  30 C :   -0.147839
  31 C :    0.082575
  32 C :    0.528436
  33 O :   -0.441883
  34 O :   -0.623836
  35 C :   -0.138610
  36 C :   -0.149450
  37 H :    0.165138
  38 H :    0.159010
  39 H :    0.161645
  40 H :    0.136135
  41 H :    0.132374
  42 H :    0.134611
  43 H :    0.134660
  44 H :    0.157661
  45 H :    0.173118
  46 H :    0.154483
  47 H :    0.122925
  48 H :    0.138785
  49 H :    0.165961
  50 H :    0.168766
  51 H :    0.148737
  52 H :    0.149121
  53 H :    0.166769
  54 H :    0.143881
  55 H :    0.162712
  56 H :    0.185165
  57 H :    0.174432
  58 H :    0.435146
  59 H :    0.182432
  60 H :    0.183788
Sum of atomic charges:    0.0000000

LOEWDIN ATOMIC CHARGES
----------------------
   0 C :   -0.356350
   1 C :   -0.032366
   2 C :   -0.101187
   3 C :   -0.021493
   4 C :   -0.124006
   5 C :   -0.124146
   6 C :   -0.128411
   7 C :   -0.109746
   8 C :    0.016225
   9 N :   -0.093496
  10 C :    0.052444
  11 N :   -0.284491
  12 C :   -0.144396
  13 C :   -0.030265
  14 C :   -0.131042
  15 C :   -0.123456
  16 C :   -0.041013
  17 C :    0.238516
  18 F :   -0.136365
  19 F :   -0.131307
  20 C :   -0.159660
  21 C :   -0.253464
  22 C :   -0.251076
  23 C :   -0.116422
  24 C :   -0.109294
  25 S :    1.263618
  26 O :   -0.565861
  27 O :   -0.571632
  28 C :   -0.174149
  29 C :   -0.105272
  30 C :   -0.098744
  31 C :   -0.038551
  32 C :    0.178930
  33 O :   -0.257915
  34 O :   -0.334466
  35 C :   -0.084682
  36 C :   -0.107991
  37 H :    0.137250
  38 H :    0.135048
  39 H :    0.135582
  40 H :    0.136742
  41 H :    0.133162
  42 H :    0.134737
  43 H :    0.134979
  44 H :    0.148753
  45 H :    0.143406
  46 H :    0.123150
  47 H :    0.128706
  48 H :    0.136982
  49 H :    0.146706
  50 H :    0.141464
  51 H :    0.132388
  52 H :    0.131810
  53 H :    0.139949
  54 H :    0.139379
  55 H :    0.147574
  56 H :    0.159514
  57 H :    0.155480
  58 H :    0.350447
  59 H :    0.161261
  60 H :    0.158511

  Mayer bond orders larger than 0.100000
B(  0-C ,  1-C ) :   0.9858 B(  0-C , 37-H ) :   0.9283 B(  0-C , 38-H ) :   0.9425
B(  0-C , 39-H ) :   0.9291 B(  1-C ,  2-C ) :   1.4709 B(  1-C , 10-C ) :   1.3094
B(  2-C ,  3-C ) :   1.2958 B(  2-C , 40-H ) :   0.9183 B(  3-C ,  4-C ) :   1.2810
B(  3-C ,  8-C ) :   1.2432 B(  4-C ,  5-C ) :   1.5159 B(  4-C ,  7-C ) :   0.1071
B(  4-C , 41-H ) :   0.9251 B(  5-C ,  6-C ) :   1.3437 B(  5-C , 42-H ) :   0.9299
B(  6-C ,  7-C ) :   1.5147 B(  6-C , 43-H ) :   0.9300 B(  7-C ,  8-C ) :   1.3010
B(  7-C , 44-H ) :   0.9101 B(  8-C ,  9-N ) :   1.2529 B(  9-N , 10-C ) :   1.4411
B( 10-C , 11-N ) :   0.9010 B( 11-N , 12-C ) :   0.9178 B( 11-N , 25-S ) :   0.8118
B( 12-C , 13-C ) :   0.9640 B( 12-C , 45-H ) :   0.9177 B( 12-C , 46-H ) :   0.9219
B( 13-C , 14-C ) :   1.4279 B( 13-C , 24-C ) :   1.4309 B( 14-C , 15-C ) :   1.4255
B( 14-C , 47-H ) :   0.9240 B( 15-C , 16-C ) :   1.4114 B( 15-C , 48-H ) :   0.9214
B( 16-C , 17-C ) :   0.9716 B( 16-C , 23-C ) :   1.4042 B( 17-C , 18-F ) :   0.8973
B( 17-C , 19-F ) :   0.8669 B( 17-C , 20-C ) :   0.9989 B( 20-C , 21-C ) :   0.9383
B( 20-C , 22-C ) :   0.9326 B( 20-C , 49-H ) :   0.9214 B( 21-C , 22-C ) :   0.9582
B( 21-C , 50-H ) :   0.9370 B( 21-C , 51-H ) :   0.9454 B( 22-C , 52-H ) :   0.9404
B( 22-C , 53-H ) :   0.9380 B( 23-C , 24-C ) :   1.4258 B( 23-C , 54-H ) :   0.9211
B( 24-C , 55-H ) :   0.9109 B( 25-S , 26-O ) :   1.6372 B( 25-S , 27-O ) :   1.6386
B( 25-S , 28-C ) :   0.8102 B( 28-C , 29-C ) :   1.3927 B( 28-C , 36-C ) :   1.3824
B( 29-C , 30-C ) :   1.4178 B( 29-C , 56-H ) :   0.9091 B( 30-C , 31-C ) :   1.3821
B( 30-C , 57-H ) :   0.9143 B( 31-C , 32-C ) :   1.0073 B( 31-C , 35-C ) :   1.4047
B( 32-C , 33-O ) :   1.8657 B( 32-C , 34-O ) :   1.0257 B( 34-O , 58-H ) :   0.7411
B( 35-C , 36-C ) :   1.4185 B( 35-C , 59-H ) :   0.9091 B( 36-C , 60-H ) :   0.9090

FINAL SINGLE POINT ENERGY     -2088.536548418640

DIPOLE MOMENT
-------------

Method             : SCF
Type of density    : Electron Density
Multiplicity       :   1
Irrep              :   0
Energy             : -2088.5365484186404501 Eh
Relativity type    :
Basis              : AO
                                X                 Y                 Z
Electronic contribution:      2.782273301     -14.559224391       3.536777536
Nuclear contribution   :     -4.505725412      15.398150809      -5.489103649
                        -----------------------------------------
Total Dipole Moment    :     -1.723452110       0.838926418      -1.952326113
                        -----------------------------------------
Magnitude (a.u.)       :      2.735993780
Magnitude (Debye)      :      6.954343518

Rotational constants in cm-1:             0.005980             0.001700             0.001477
Rotational constants in MHz :           179.273882            50.969850            44.273332

                             ****ORCA TERMINATED NORMALLY****
TOTAL RUN TIME: 0 days 0 hours 8 minutes 26 seconds 63 msec
