                         Program Version 6.0.0  -   RELEASE  -
|  1> ! B3LYP 6-31G* SP
|  2>
|  3> * xyz 0 1
|  4> C -2.6647 1.4446 2.6227
|  5> N -3.4816 0.8830 1.5284
|  6> C -2.9762 0.8460 0.2582
|  7> O -1.8168 1.2954 0.0531
|  8> C -3.7362 0.3030 -0.8064
|  9> C -3.2816 0.2671 -2.1704
| 10> C -1.9437 0.8067 -2.6471
| 11> C -0.8193 -0.1257 -2.2931
| 12> O -0.9387 -1.3577 -2.5336
| 13> N 0.4058 0.4001 -1.7586
| 14> C 1.4352 -0.3931 -1.1508
| 15> N 2.6160 0.1305 -0.7601
| 16> C 3.4243 -0.7940 -0.1682
| 17> C 4.7786 -0.4333 0.3272
| 18> C 5.3649 0.7823 -0.0626
| 19> C 6.6372 1.1429 0.3902
| 20> F 7.1447 2.3432 0.0103
| 21> C 7.3669 0.2820 1.2338
| 22> C 8.7281 0.6901 1.7566
| 23> F 9.5083 -0.4185 2.0350
| 24> F 9.4071 1.4553 0.8246
| 25> F 8.5674 1.4287 2.9139
| 26> C 6.7601 -0.9154 1.6636
| 27> F 7.3854 -1.7386 2.5432
| 28> C 5.4877 -1.2711 1.2060
| 29> C 2.8696 -2.0760 -0.0854
| 30> S 1.3333 -2.0283 -0.7670
| 31> C -4.0947 -0.3247 -3.1496
| 32> C -5.3349 -0.8487 -2.8278
| 33> C -5.7957 -0.8045 -1.5208
| 34> C -5.0159 -0.2361 -0.4850
| 35> N -5.4748 -0.2127 0.8161
| 36> C -6.7993 -0.7788 1.1560
| 37> C -4.7014 0.3325 1.8099
| 38> O -5.1141 0.3242 3.0051
| 39> H -2.0211 0.6487 3.0533
| 40> H -2.0237 2.2783 2.2640
| 41> H -3.2996 1.8753 3.4262
| 42> H -1.7733 1.8291 -2.2521
| 43> H -1.9371 0.9330 -3.7516
| 44> H 0.5544 1.4338 -1.7902
| 45> H 4.8384 1.4607 -0.7224
| 46> H 5.0557 -2.1941 1.5663
| 47> H 3.3338 -2.9617 0.3242
| 48> H -3.7670 -0.3821 -4.1807
| 49> H -5.9471 -1.2960 -3.6008
| 50> H -6.7711 -1.2316 -1.3394
| 51> H -6.8212 -1.8626 0.9129
| 52> H -7.5947 -0.2458 0.5925
| 53> H -7.0579 -0.6855 2.2305
| 54> *
| 55>
| 56>                          ****END OF INPUT****

CARTESIAN COORDINATES (ANGSTROEM)
---------------------------------
  C     -2.664700    1.444600    2.622700
  N     -3.481600    0.883000    1.528400
  C     -2.976200    0.846000    0.258200
  O     -1.816800    1.295400    0.053100
  C     -3.736200    0.303000   -0.806400
  C     -3.281600    0.267100   -2.170400
  C     -1.943700    0.806700   -2.647100
  C     -0.819300   -0.125700   -2.293100
  O     -0.938700   -1.357700   -2.533600
  N      0.405800    0.400100   -1.758600
  C      1.435200   -0.393100   -1.150800
  N      2.616000    0.130500   -0.760100
  C      3.424300   -0.794000   -0.168200
  C      4.778600   -0.433300    0.327200
  C      5.364900    0.782300   -0.062600
  C      6.637200    1.142900    0.390200
  F      7.144700    2.343200    0.010300
  C      7.366900    0.282000    1.233800
  C      8.728100    0.690100    1.756600
  F      9.508300   -0.418500    2.035000
  F      9.407100    1.455300    0.824600
  F      8.567400    1.428700    2.913900
  C      6.760100   -0.915400    1.663600
  F      7.385400   -1.738600    2.543200
  C      5.487700   -1.271100    1.206000
  C      2.869600   -2.076000   -0.085400
  S      1.333300   -2.028300   -0.767000
  C     -4.094700   -0.324700   -3.149600
  C     -5.334900   -0.848700   -2.827800
  C     -5.795700   -0.804500   -1.520800
  C     -5.015900   -0.236100   -0.485000
  N     -5.474800   -0.212700    0.816100
  C     -6.799300   -0.778800    1.156000
  C     -4.701400    0.332500    1.809900
  O     -5.114100    0.324200    3.005100
  H     -2.021100    0.648700    3.053300
  H     -2.023700    2.278300    2.264000
  H     -3.299600    1.875300    3.426200
  H     -1.773300    1.829100   -2.252100
  H     -1.937100    0.933000   -3.751600
  H      0.554400    1.433800   -1.790200
  H      4.838400    1.460700   -0.722400
  H      5.055700   -2.194100    1.566300
  H      3.333800   -2.961700    0.324200
  H     -3.767000   -0.382100   -4.180700
  H     -5.947100   -1.296000   -3.600800
  H     -6.771100   -1.231600   -1.339400
  H     -6.821200   -1.862600    0.912900
  H     -7.594700   -0.245800    0.592500
  H     -7.057900   -0.685500    2.230500

 Total Charge           Charge          ....    0
 Multiplicity           Mult            ....    1
 Number of Electrons    NEL             ....  260
 Basis Dimension        Dim             ....  524

ORBITAL ENERGIES
----------------

  NO   OCC          E(Eh)            E(eV)
   0   2.0000     -88.906040     -2419.2563
   1   2.0000     -24.713159      -672.4792
   2   2.0000     -24.711188      -672.4256
   3   2.0000     -24.710198      -672.3987
   4   2.0000     -24.709909      -672.3908
   5   2.0000     -24.709380      -672.3764
   6   2.0000     -19.133099      -520.6381
   7   2.0000     -19.121756      -520.3294
   8   2.0000     -19.114823      -520.1408
   9   2.0000     -14.408480      -392.0747
  10   2.0000     -14.402731      -391.9182
  11   2.0000     -14.391684      -391.6176
  12   2.0000     -14.334386      -390.0585
  13   2.0000     -10.434174      -283.9283
  14   2.0000     -10.330966      -281.1199
  15   2.0000     -10.313602      -280.6474
  16   2.0000     -10.302364      -280.3416
  17   2.0000     -10.293918      -280.1117
  18   2.0000     -10.292453      -280.0719
  19   2.0000     -10.291947      -280.0581
  20   2.0000     -10.265290      -279.3327
  21   2.0000     -10.238324      -278.5989
  22   2.0000     -10.232464      -278.4395
  23   2.0000     -10.231953      -278.4256
  24   2.0000     -10.223663      -278.2000
  25   2.0000     -10.223157      -278.1862
  26   2.0000     -10.221775      -278.1487
  27   2.0000     -10.220287      -278.1081
  28   2.0000     -10.213464      -277.9225
  29   2.0000     -10.211656      -277.8733
  30   2.0000     -10.210175      -277.8330
  31   2.0000     -10.206784      -277.7407
  32   2.0000     -10.201858      -277.6067
  33   2.0000     -10.199116      -277.5320
  34   2.0000     -10.196213      -277.4531
  35   2.0000      -7.982266      -217.2085
  36   2.0000      -5.945394      -161.7824
  37   2.0000      -5.941134      -161.6665
  38   2.0000      -5.939241      -161.6150
  39   2.0000      -1.272268       -34.6202
  40   2.0000      -1.225769       -33.3549
  41   2.0000      -1.223578       -33.2953
  42   2.0000      -1.196404       -32.5558
  43   2.0000      -1.194620       -32.5073
  44   2.0000      -1.074691       -29.2438
  45   2.0000      -1.034258       -28.1436
  46   2.0000      -1.030043       -28.0289
  47   2.0000      -0.979929       -26.6652
  48   2.0000      -0.976093       -26.5609
  49   2.0000      -0.946677       -25.7604
  50   2.0000      -0.915516       -24.9125
  51   2.0000      -0.879957       -23.9448
  52   2.0000      -0.875916       -23.8349
  53   2.0000      -0.814819       -22.1724
  54   2.0000      -0.805630       -21.9223
  55   2.0000      -0.801378       -21.8066
  56   2.0000      -0.793691       -21.5974
  57   2.0000      -0.760618       -20.6975
  58   2.0000      -0.753879       -20.5141
  59   2.0000      -0.746173       -20.3044
  60   2.0000      -0.730859       -19.8877
  61   2.0000      -0.715150       -19.4602
  62   2.0000      -0.688941       -18.7470
  63   2.0000      -0.663262       -18.0483
  64   2.0000      -0.659181       -17.9372
  65   2.0000      -0.641684       -17.4611
  66   2.0000      -0.637976       -17.3602
  67   2.0000      -0.627286       -17.0693
  68   2.0000      -0.611114       -16.6292
  69   2.0000      -0.589978       -16.0541
  70   2.0000      -0.579014       -15.7558
  71   2.0000      -0.569898       -15.5077
  72   2.0000      -0.564518       -15.3613
  73   2.0000      -0.563243       -15.3266
  74   2.0000      -0.560359       -15.2481
  75   2.0000      -0.552731       -15.0406
  76   2.0000      -0.534594       -14.5470
  77   2.0000      -0.526161       -14.3176
  78   2.0000      -0.520303       -14.1582
  79   2.0000      -0.512811       -13.9543
  80   2.0000      -0.509295       -13.8586
  81   2.0000      -0.498327       -13.5602
  82   2.0000      -0.493989       -13.4421
  83   2.0000      -0.492501       -13.4016
  84   2.0000      -0.480064       -13.0632
  85   2.0000      -0.476837       -12.9754
  86   2.0000      -0.474715       -12.9176
  87   2.0000      -0.467182       -12.7127
  88   2.0000      -0.466120       -12.6838
  89   2.0000      -0.460150       -12.5213
  90   2.0000      -0.454903       -12.3785
  91   2.0000      -0.454524       -12.3682
  92   2.0000      -0.446708       -12.1555
  93   2.0000      -0.441426       -12.0118
  94   2.0000      -0.437572       -11.9070
  95   2.0000      -0.434450       -11.8220
  96   2.0000      -0.431848       -11.7512
  97   2.0000      -0.427355       -11.6289
  98   2.0000      -0.420436       -11.4407
  99   2.0000      -0.411541       -11.1986
 100   2.0000      -0.410732       -11.1766
 101   2.0000      -0.409094       -11.1320
 102   2.0000      -0.407136       -11.0787
 103   2.0000      -0.406008       -11.0480
 104   2.0000      -0.400084       -10.8868
 105   2.0000      -0.395514       -10.7625
 106   2.0000      -0.393193       -10.6993
 107   2.0000      -0.390810       -10.6345
 108   2.0000      -0.389872       -10.6090
 109   2.0000      -0.383618       -10.4388
 110   2.0000      -0.378049       -10.2872
 111   2.0000      -0.376534       -10.2460
 112   2.0000      -0.374197       -10.1824
 113   2.0000      -0.368771       -10.0348
 114   2.0000      -0.365740        -9.9523
 115   2.0000      -0.358309        -9.7501
 116   2.0000      -0.349930        -9.5221
 117   2.0000      -0.320747        -8.7280
 118   2.0000      -0.313298        -8.5253
 119   2.0000      -0.296699        -8.0736
 120   2.0000      -0.280860        -7.6426
 121   2.0000      -0.279646        -7.6096
 122   2.0000      -0.273321        -7.4374
 123   2.0000      -0.272670        -7.4197
 124   2.0000      -0.264931        -7.2091
 125   2.0000      -0.262098        -7.1320
 126   2.0000      -0.256144        -6.9700
 127   2.0000      -0.252847        -6.8803
 128   2.0000      -0.236498        -6.4354
 129   2.0000      -0.217685        -5.9235
 130   0.0000      -0.065341        -1.7780
 131   0.0000      -0.050008        -1.3608
 132   0.0000      -0.035704        -0.9716
 133   0.0000      -0.022524        -0.6129
 134   0.0000      -0.009984        -0.2717

MULLIKEN ATOMIC CHARGES
-----------------------
   0 C :   -0.314395
   1 N :   -0.464307
   2 C :    0.509700
   3 O :   -0.511400
   4 C :    0.009552
   5 C :    0.131689
   6 C :   -0.439360
   7 C :    0.591357
   8 O :   -0.461120
   9 N :   -0.627884
  10 C :    0.269382
  11 N :   -0.435505
  12 C :    0.210211
  13 C :    0.161549
  14 C :   -0.266166
  15 C :    0.413684
  16 F :   -0.300010
  17 C :   -0.218786
  18 C :    0.925542
  19 F :   -0.299784
  20 F :   -0.299356
  21 F :   -0.294425
  22 C :    0.407318
  23 F :   -0.300561
  24 C :   -0.276295
  25 C :   -0.399692
  26 S :    0.323829
  27 C :   -0.177322
  28 C :   -0.105243
  29 C :   -0.195799
  30 C :    0.319465
  31 N :   -0.511328
  32 C :   -0.336930
  33 C :    0.672468
  34 O :   -0.508564
  35 H :    0.181324
  36 H :    0.192273
  37 H :    0.197241
  38 H :    0.180404
  39 H :    0.178721
  40 H :    0.360021
  41 H :    0.173038
  42 H :    0.147529
  43 H :    0.184306
  44 H :    0.141728
  45 H :    0.146804
  46 H :    0.143212
  47 H :    0.174801
  48 H :    0.171919
  49 H :    0.225166
Sum of atomic charges:   -0.0000000

LOEWDIN ATOMIC CHARGES
----------------------
   0 C :   -0.258307
   1 N :   -0.019247
   2 C :    0.115922
   3 O :   -0.298019
   4 C :   -0.072793
   5 C :    0.044495
   6 C :   -0.241351
   7 C :    0.162981
   8 O :   -0.263440
   9 N :   -0.188075
  10 C :   -0.070227
  11 N :   -0.186398
  12 C :   -0.010693
  13 C :    0.010614
  14 C :   -0.151656
  15 C :    0.140373
  16 F :   -0.088620
  17 C :   -0.131610
  18 C :    0.315897
  19 F :   -0.109731
  20 F :   -0.109582
  21 F :   -0.112300
  22 C :    0.139616
  23 F :   -0.089345
  24 C :   -0.162745
  25 C :   -0.343974
  26 S :    0.432768
  27 C :   -0.134323
  28 C :   -0.096725
  29 C :   -0.162687
  30 C :    0.054338
  31 N :   -0.026181
  32 C :   -0.265259
  33 C :    0.137157
  34 O :   -0.317574
  35 H :    0.142654
  36 H :    0.150962
  37 H :    0.153641
  38 H :    0.148733
  39 H :    0.149208
  40 H :    0.279220
  41 H :    0.160583
  42 H :    0.146590
  43 H :    0.161958
  44 H :    0.139571
  45 H :    0.141780
  46 H :    0.141299
  47 H :    0.136714
  48 H :    0.135252
  49 H :    0.168535

  Mayer bond orders larger than 0.100000
B(  0-C ,  1-N ) :   0.9158 B(  0-C , 35-H ) :   0.9398 B(  0-C , 36-H ) :   0.9253
B(  0-C , 37-H ) :   0.9249 B(  1-N ,  2-C ) :   1.0060 B(  1-N , 33-C ) :   1.0375
B(  2-C ,  3-O ) :   1.7287 B(  2-C ,  4-C ) :   1.0650 B(  4-C ,  5-C ) :   1.3583
B(  4-C , 30-C ) :   1.2852 B(  5-C ,  6-C ) :   0.9966 B(  5-C , 27-C ) :   1.4423
B(  6-C ,  7-C ) :   0.9393 B(  6-C , 38-H ) :   0.9035 B(  6-C , 39-H ) :   0.9103
B(  7-C ,  8-O ) :   1.8325 B(  7-C ,  9-N ) :   1.0195 B(  9-N , 10-C ) :   0.9616
B(  9-N , 40-H ) :   0.8073 B( 10-C , 11-N ) :   1.4784 B( 10-C , 25-C ) :   0.1023
B( 10-C , 26-S ) :   1.1776 B( 11-N , 12-C ) :   1.2908 B( 12-C , 13-C ) :   1.0604
B( 12-C , 25-C ) :   1.5153 B( 13-C , 14-C ) :   1.3682 B( 13-C , 24-C ) :   1.3661
B( 14-C , 15-C ) :   1.3634 B( 14-C , 41-H ) :   0.9019 B( 15-C , 16-F ) :   0.9426
B( 15-C , 17-C ) :   1.3141 B( 17-C , 18-C ) :   0.9494 B( 17-C , 22-C ) :   1.3131
B( 18-C , 19-F ) :   0.9576 B( 18-C , 20-F ) :   0.9582 B( 18-C , 21-F ) :   0.9972
B( 22-C , 23-F ) :   0.9420 B( 22-C , 24-C ) :   1.3886 B( 24-C , 42-H ) :   0.9098
B( 25-C , 26-S ) :   1.1152 B( 25-C , 43-H ) :   0.9010 B( 27-C , 28-C ) :   1.4034
B( 27-C , 44-H ) :   0.9212 B( 28-C , 29-C ) :   1.4704 B( 28-C , 45-H ) :   0.9253
B( 29-C , 30-C ) :   1.3440 B( 29-C , 46-H ) :   0.9142 B( 30-C , 31-N ) :   0.9702
B( 31-N , 32-C ) :   0.9334 B( 31-N , 33-C ) :   1.0462 B( 32-C , 47-H ) :   0.9316
B( 32-C , 48-H ) :   0.9318 B( 32-C , 49-H ) :   0.9137 B( 33-C , 34-O ) :   1.7863

FINAL SINGLE POINT ENERGY     -2188.469430651917

DIPOLE MOMENT
-------------

Method             : SCF
Type of density    : Electron Density
Multiplicity       :   1
Irrep              :   0
Energy             : -2188.4694306519172642 Eh
Relativity type    :
Basis              : AO
                                X                 Y                 Z
Electronic contribution:     81.079935004       2.777033296      10.914551211
Nuclear contribution   :    -84.508918399      -2.940020818     -12.179288251
                        -----------------------------------------
Total Dipole Moment    :     -3.428983395      -0.162987523      -1.264737041
                        -----------------------------------------
Magnitude (a.u.)       :      3.658422042
Magnitude (Debye)      :      9.298969831

Rotational constants in cm-1:             0.008592             0.001132             0.001082
Rotational constants in MHz :           257.575255            33.927862            32.428171

                             ****ORCA TERMINATED NORMALLY****
TOTAL RUN TIME: 0 days 0 hours 9 minutes 30 seconds 357 msec
