                         Program Version 6.0.0  -   RELEASE  -
|  1> ! B3LYP 6-31G* SP
|  2>
|  3> * xyz -1 1
|  4> O -4.2745 3.4064 -3.9321
|  5> C -4.6476 2.5215 -3.1246
|  6> O -5.6155 1.6091 -3.5242
|  7> C -4.0287 2.4216 -1.7812
|  8> C -2.9426 3.2462 -1.4247
|  9> C -2.3442 3.1246 -0.1657
| 10> C -2.8209 2.1824 0.7575
| 11> S -2.0098 1.9567 2.3044
| 12> O -3.0271 1.7132 3.3842
| 13> O -1.2388 3.2033 2.6463
| 14> N -0.9256 0.5982 2.2031
| 15> C 0.3386 0.6009 2.9471
| 16> C 1.4979 0.5069 1.9945
| 17> C 1.9393 -0.7440 1.5411
| 18> C 2.9440 -0.8269 0.5744
| 19> C 3.5060 0.3362 0.0183
| 20> C 4.6059 0.2091 -1.0157
| 21> F 4.2708 -0.7961 -1.9046
| 22> F 4.7392 1.3760 -1.7523
| 23> C 5.9246 -0.1799 -0.3161
| 24> C 7.2210 0.3119 -0.9446
| 25> C 6.7018 0.9598 0.3326
| 26> C 3.0674 1.5937 0.4901
| 27> F 3.5994 2.7472 0.0182
| 28> C 2.0635 1.6739 1.4606
| 29> C -1.4445 -0.6492 1.7152
| 30> N -2.0672 -1.4519 2.6115
| 31> C -2.5932 -2.6452 2.2830
| 32> C -2.4998 -3.1140 0.9762
| 33> C -3.0577 -4.3651 0.6745
| 34> C -2.9878 -4.8785 -0.6150
| 35> C -2.3324 -4.1655 -1.6086
| 36> C -1.7668 -2.9149 -1.3264
| 37> C -1.8482 -2.3314 -0.0266
| 38> C -1.3198 -1.0335 0.3466
| 39> C -0.6510 0.0223 -0.5648
| 40> C 0.3048 -0.4198 -1.6518
| 41> C -1.0666 0.1664 -2.0143
| 42> C -3.9019 1.3596 0.4079
| 43> C -4.5020 1.4809 -0.8496
| 44> H -2.5403 3.9731 -2.1200
| 45> H -1.4952 3.7523 0.0777
| 46> H 0.3622 -0.2488 3.6623
| 47> H 0.4293 1.5215 3.5570
| 48> H 1.4947 -1.6540 1.9271
| 49> H 3.2823 -1.8027 0.2539
| 50> H 5.9946 -1.1582 0.2114
| 51> H 7.1410 0.9629 -1.8374
| 52> H 8.0985 -0.3499 -0.7791
| 53> H 6.2840 1.9822 0.1908
| 54> H 7.2624 0.6715 1.2453
| 55> H 1.7235 2.6458 1.7948
| 56> H -3.0871 -3.2245 3.0534
| 57> H -3.5535 -4.9525 1.4381
| 58> H -3.4333 -5.8379 -0.8401
| 59> H -2.2534 -4.5870 -2.6076
| 60> H -1.2737 -2.4689 -2.1660
| 61> H -0.3400 0.9925 -0.1244
| 62> H 1.1573 0.2860 -1.7746
| 63> H 0.5011 -1.5078 -1.6419
| 64> H -1.0380 1.2257 -2.3557
| 65> H -1.9227 -0.4775 -2.3111
| 66> H -4.2712 0.6122 1.0992
| 67> H -5.3327 0.8323 -1.0971
| 68> *
| 69>
| 70>                          ****END OF INPUT****

CARTESIAN COORDINATES (ANGSTROEM)
---------------------------------
  O     -4.274500    3.406400   -3.932100
  C     -4.647600    2.521500   -3.124600
  O     -5.615500    1.609100   -3.524200
  C     -4.028700    2.421600   -1.781200
  C     -2.942600    3.246200   -1.424700
  C     -2.344200    3.124600   -0.165700
  C     -2.820900    2.182400    0.757500
  S     -2.009800    1.956700    2.304400
  O     -3.027100    1.713200    3.384200
  O     -1.238800    3.203300    2.646300
  N     -0.925600    0.598200    2.203100
  C      0.338600    0.600900    2.947100
  C      1.497900    0.506900    1.994500
  C      1.939300   -0.744000    1.541100
  C      2.944000   -0.826900    0.574400
  C      3.506000    0.336200    0.018300
  C      4.605900    0.209100   -1.015700
  F      4.270800   -0.796100   -1.904600
  F      4.739200    1.376000   -1.752300
  C      5.924600   -0.179900   -0.316100
  C      7.221000    0.311900   -0.944600
  C      6.701800    0.959800    0.332600
  C      3.067400    1.593700    0.490100
  F      3.599400    2.747200    0.018200
  C      2.063500    1.673900    1.460600
  C     -1.444500   -0.649200    1.715200
  N     -2.067200   -1.451900    2.611500
  C     -2.593200   -2.645200    2.283000
  C     -2.499800   -3.114000    0.976200
  C     -3.057700   -4.365100    0.674500
  C     -2.987800   -4.878500   -0.615000
  C     -2.332400   -4.165500   -1.608600
  C     -1.766800   -2.914900   -1.326400
  C     -1.848200   -2.331400   -0.026600
  C     -1.319800   -1.033500    0.346600
  C     -0.651000    0.022300   -0.564800
  C      0.304800   -0.419800   -1.651800
  C     -1.066600    0.166400   -2.014300
  C     -3.901900    1.359600    0.407900
  C     -4.502000    1.480900   -0.849600
  H     -2.540300    3.973100   -2.120000
  H     -1.495200    3.752300    0.077700
  H      0.362200   -0.248800    3.662300
  H      0.429300    1.521500    3.557000
  H      1.494700   -1.654000    1.927100
  H      3.282300   -1.802700    0.253900
  H      5.994600   -1.158200    0.211400
  H      7.141000    0.962900   -1.837400
  H      8.098500   -0.349900   -0.779100
  H      6.284000    1.982200    0.190800
  H      7.262400    0.671500    1.245300
  H      1.723500    2.645800    1.794800
  H     -3.087100   -3.224500    3.053400
  H     -3.553500   -4.952500    1.438100
  H     -3.433300   -5.837900   -0.840100
  H     -2.253400   -4.587000   -2.607600
  H     -1.273700   -2.468900   -2.166000
  H     -0.340000    0.992500   -0.124400
  H      1.157300    0.286000   -1.774600
  H      0.501100   -1.507800   -1.641900
  H     -1.038000    1.225700   -2.355700
  H     -1.922700   -0.477500   -2.311100
  H     -4.271200    0.612200    1.099200
  H     -5.332700    0.832300   -1.097100

 Total Charge           Charge          ....   -1
 Multiplicity           Mult            ....    1
 Number of Electrons    NEL             ....  294
 Basis Dimension        Dim             ....  612

ORBITAL ENERGIES
----------------

  NO   OCC          E(Eh)            E(eV)
   0   2.0000     -88.998422     -2421.7702
   1   2.0000     -24.642939      -670.5685
   2   2.0000     -24.642454      -670.5553
   3   2.0000     -24.632485      -670.2840
   4   2.0000     -19.032974      -517.9136
   5   2.0000     -19.021809      -517.6097
   6   2.0000     -18.907767      -514.5065
   7   2.0000     -18.886219      -513.9201
   8   2.0000     -14.280229      -388.5848
   9   2.0000     -14.255320      -387.9070
  10   2.0000     -10.296372      -280.1785
  11   2.0000     -10.217076      -278.0208
  12   2.0000     -10.180310      -277.0203
  13   2.0000     -10.155743      -276.3518
  14   2.0000     -10.152624      -276.2670
  15   2.0000     -10.149516      -276.1824
  16   2.0000     -10.146340      -276.0959
  17   2.0000     -10.146324      -276.0955
  18   2.0000     -10.145859      -276.0829
  19   2.0000     -10.139557      -275.9114
  20   2.0000     -10.139222      -275.9022
  21   2.0000     -10.139097      -275.8989
  22   2.0000     -10.137650      -275.8595
  23   2.0000     -10.132073      -275.7077
  24   2.0000     -10.129265      -275.6313
  25   2.0000     -10.128650      -275.6146
  26   2.0000     -10.128625      -275.6139
  27   2.0000     -10.128139      -275.6007
  28   2.0000     -10.127885      -275.5938
  29   2.0000     -10.127586      -275.5856
  30   2.0000     -10.117036      -275.2985
  31   2.0000     -10.112723      -275.1812
  32   2.0000     -10.107606      -275.0420
  33   2.0000     -10.102336      -274.8985
  34   2.0000     -10.095127      -274.7024
  35   2.0000     -10.093480      -274.6575
  36   2.0000     -10.092734      -274.6372
  37   2.0000     -10.076417      -274.1933
  38   2.0000     -10.075507      -274.1685
  39   2.0000     -10.073109      -274.1032
  40   2.0000      -8.034364      -218.6262
  41   2.0000      -5.999711      -163.2604
  42   2.0000      -5.997507      -163.2004
  43   2.0000      -5.996463      -163.1721
  44   2.0000      -1.178574       -32.0706
  45   2.0000      -1.156616       -31.4731
  46   2.0000      -1.122966       -30.5574
  47   2.0000      -0.985661       -26.8212
  48   2.0000      -0.883937       -24.0531
  49   2.0000      -0.864248       -23.5174
  50   2.0000      -0.835369       -22.7315
  51   2.0000      -0.819359       -22.2959
  52   2.0000      -0.813260       -22.1299
  53   2.0000      -0.801735       -21.8163
  54   2.0000      -0.793452       -21.5909
  55   2.0000      -0.775533       -21.1033
  56   2.0000      -0.756284       -20.5795
  57   2.0000      -0.730039       -19.8654
  58   2.0000      -0.712307       -19.3829
  59   2.0000      -0.705639       -19.2014
  60   2.0000      -0.698287       -19.0013
  61   2.0000      -0.691629       -18.8202
  62   2.0000      -0.673673       -18.3316
  63   2.0000      -0.667566       -18.1654
  64   2.0000      -0.649083       -17.6624
  65   2.0000      -0.643428       -17.5086
  66   2.0000      -0.611158       -16.6304
  67   2.0000      -0.590834       -16.0774
  68   2.0000      -0.577920       -15.7260
  69   2.0000      -0.565654       -15.3922
  70   2.0000      -0.553758       -15.0685
  71   2.0000      -0.547176       -14.8894
  72   2.0000      -0.542270       -14.7559
  73   2.0000      -0.537042       -14.6137
  74   2.0000      -0.527456       -14.3528
  75   2.0000      -0.514747       -14.0070
  76   2.0000      -0.502212       -13.6659
  77   2.0000      -0.499103       -13.5813
  78   2.0000      -0.494790       -13.4639
  79   2.0000      -0.488457       -13.2916
  80   2.0000      -0.478915       -13.0319
  81   2.0000      -0.469163       -12.7666
  82   2.0000      -0.458686       -12.4815
  83   2.0000      -0.452077       -12.3017
  84   2.0000      -0.447562       -12.1788
  85   2.0000      -0.435930       -11.8623
  86   2.0000      -0.432198       -11.7607
  87   2.0000      -0.429228       -11.6799
  88   2.0000      -0.419958       -11.4276
  89   2.0000      -0.416546       -11.3348
  90   2.0000      -0.416351       -11.3295
  91   2.0000      -0.404952       -11.0193
  92   2.0000      -0.397689       -10.8217
  93   2.0000      -0.394336       -10.7304
  94   2.0000      -0.385354       -10.4860
  95   2.0000      -0.384516       -10.4632
  96   2.0000      -0.375681       -10.2228
  97   2.0000      -0.371019       -10.0959
  98   2.0000      -0.365130        -9.9357
  99   2.0000      -0.360305        -9.8044
 100   2.0000      -0.356447        -9.6994
 101   2.0000      -0.353005        -9.6058
 102   2.0000      -0.348345        -9.4790
 103   2.0000      -0.347962        -9.4685
 104   2.0000      -0.345033        -9.3888
 105   2.0000      -0.339578        -9.2404
 106   2.0000      -0.336099        -9.1457
 107   2.0000      -0.332030        -9.0350
 108   2.0000      -0.326599        -8.8872
 109   2.0000      -0.321762        -8.7556
 110   2.0000      -0.319384        -8.6909
 111   2.0000      -0.317150        -8.6301
 112   2.0000      -0.316083        -8.6011
 113   2.0000      -0.308068        -8.3830
 114   2.0000      -0.302320        -8.2265
 115   2.0000      -0.300011        -8.1637
 116   2.0000      -0.295448        -8.0395
 117   2.0000      -0.291571        -7.9340
 118   2.0000      -0.289764        -7.8849
 119   2.0000      -0.282743        -7.6938
 120   2.0000      -0.274226        -7.4621
 121   2.0000      -0.271309        -7.3827
 122   2.0000      -0.268619        -7.3095
 123   2.0000      -0.248274        -6.7559
 124   2.0000      -0.244923        -6.6647
 125   2.0000      -0.243613        -6.6290
 126   2.0000      -0.239154        -6.5077
 127   2.0000      -0.232760        -6.3337
 128   2.0000      -0.230599        -6.2749
 129   2.0000      -0.220812        -6.0086
 130   2.0000      -0.211989        -5.7685
 131   2.0000      -0.205869        -5.6020
 132   2.0000      -0.202265        -5.5039
 133   2.0000      -0.199236        -5.4215
 134   2.0000      -0.195911        -5.3310
 135   2.0000      -0.191550        -5.2123
 136   2.0000      -0.187321        -5.0973
 137   2.0000      -0.184217        -5.0128
 138   2.0000      -0.178443        -4.8557
 139   2.0000      -0.173492        -4.7209
 140   2.0000      -0.157253        -4.2791
 141   2.0000      -0.151555        -4.1240
 142   2.0000      -0.142501        -3.8776
 143   2.0000      -0.131417        -3.5760
 144   2.0000      -0.061924        -1.6850
 145   2.0000      -0.040169        -1.0931
 146   2.0000      -0.023309        -0.6343
 147   0.0000       0.010842         0.2950
 148   0.0000       0.036497         0.9931
 149   0.0000       0.038364         1.0439
 150   0.0000       0.055876         1.5205
 151   0.0000       0.062616         1.7039

MULLIKEN ATOMIC CHARGES
-----------------------
   0 O :   -0.546705
   1 C :    0.407714
   2 O :   -0.657820
   3 C :    0.108234
   4 C :   -0.166621
   5 C :   -0.149603
   6 C :   -0.154361
   7 S :    1.184733
   8 O :   -0.540381
   9 O :   -0.577916
  10 N :   -0.598081
  11 C :   -0.221294
  12 C :    0.174186
  13 C :   -0.167815
  14 C :   -0.156952
  15 C :   -0.058061
  16 C :    0.689836
  17 F :   -0.334153
  18 F :   -0.333861
  19 C :   -0.176563
  20 C :   -0.314597
  21 C :   -0.315281
  22 C :    0.375481
  23 F :   -0.311340
  24 C :   -0.256831
  25 C :    0.255058
  26 N :   -0.354716
  27 C :   -0.071230
  28 C :    0.143280
  29 C :   -0.203320
  30 C :   -0.124076
  31 C :   -0.123601
  32 C :   -0.215417
  33 C :    0.093693
  34 C :    0.125929
  35 C :   -0.173281
  36 C :   -0.317569
  37 C :   -0.308484
  38 C :   -0.148132
  39 C :   -0.154491
  40 H :    0.146834
  41 H :    0.146080
  42 H :    0.161007
  43 H :    0.190807
  44 H :    0.135993
  45 H :    0.139709
  46 H :    0.155452
  47 H :    0.169984
  48 H :    0.141799
  49 H :    0.175484
  50 H :    0.144450
  51 H :    0.171967
  52 H :    0.138623
  53 H :    0.126401
  54 H :    0.120614
  55 H :    0.131368
  56 H :    0.158256
  57 H :    0.167915
  58 H :    0.152820
  59 H :    0.141540
  60 H :    0.177313
  61 H :    0.177132
  62 H :    0.150008
  63 H :    0.152850
Sum of atomic charges:   -1.0000000

LOEWDIN ATOMIC CHARGES
----------------------
   0 O :   -0.372104
   1 C :    0.067591
   2 O :   -0.506269
   3 C :   -0.002209
   4 C :   -0.119234
   5 C :   -0.122112
   6 C :   -0.211556
   7 S :    1.257682
   8 O :   -0.583210
   9 O :   -0.602463
  10 N :   -0.288998
  11 C :   -0.141125
  12 C :   -0.012223
  13 C :   -0.135240
  14 C :   -0.113849
  15 C :   -0.081060
  16 C :    0.239223
  17 F :   -0.134354
  18 F :   -0.125309
  19 C :   -0.160483
  20 C :   -0.255027
  21 C :   -0.255439
  22 C :    0.118587
  23 F :   -0.099221
  24 C :   -0.152079
  25 C :    0.015853
  26 N :   -0.116298
  27 C :   -0.077201
  28 C :   -0.026840
  29 C :   -0.118834
  30 C :   -0.131092
  31 C :   -0.125928
  32 C :   -0.124420
  33 C :   -0.006314
  34 C :    0.015437
  35 C :   -0.140387
  36 C :   -0.256039
  37 C :   -0.239489
  38 C :   -0.121011
  39 C :   -0.110137
  40 H :    0.145976
  41 H :    0.140335
  42 H :    0.130260
  43 H :    0.153758
  44 H :    0.135961
  45 H :    0.137507
  46 H :    0.141538
  47 H :    0.142387
  48 H :    0.129046
  49 H :    0.143661
  50 H :    0.130392
  51 H :    0.156535
  52 H :    0.130632
  53 H :    0.131681
  54 H :    0.128294
  55 H :    0.133536
  56 H :    0.148502
  57 H :    0.145242
  58 H :    0.135335
  59 H :    0.126555
  60 H :    0.149822
  61 H :    0.144713
  62 H :    0.141183
  63 H :    0.150326

  Mayer bond orders larger than 0.100000
B(  0-O ,  1-C ) :   1.7142 B(  0-O ,  2-O ) :   0.1473 B(  1-C ,  2-O ) :   1.5508
B(  1-C ,  3-C ) :   0.9230 B(  3-C ,  4-C ) :   1.3791 B(  3-C , 39-C ) :   1.4021
B(  4-C ,  5-C ) :   1.4083 B(  4-C , 40-H ) :   0.9083 B(  5-C ,  6-C ) :   1.3686
B(  5-C , 41-H ) :   0.9200 B(  6-C ,  7-S ) :   0.8417 B(  6-C , 38-C ) :   1.3609
B(  7-S ,  8-O ) :   1.6843 B(  7-S ,  9-O ) :   1.5765 B(  7-S , 10-N ) :   0.7805
B( 10-N , 11-C ) :   0.9434 B( 10-N , 25-C ) :   0.9175 B( 11-C , 12-C ) :   0.9566
B( 11-C , 42-H ) :   0.9211 B( 11-C , 43-H ) :   0.9105 B( 12-C , 13-C ) :   1.4251
B( 12-C , 24-C ) :   1.4133 B( 13-C , 14-C ) :   1.4300 B( 13-C , 44-H ) :   0.9218
B( 14-C , 15-C ) :   1.3935 B( 14-C , 45-H ) :   0.9226 B( 15-C , 16-C ) :   0.9553
B( 15-C , 22-C ) :   1.3255 B( 16-C , 17-F ) :   0.9041 B( 16-C , 18-F ) :   0.8808
B( 16-C , 19-C ) :   0.9993 B( 19-C , 20-C ) :   0.9441 B( 19-C , 21-C ) :   0.9325
B( 19-C , 46-H ) :   0.9248 B( 20-C , 21-C ) :   0.9602 B( 20-C , 47-H ) :   0.9363
B( 20-C , 48-H ) :   0.9457 B( 21-C , 49-H ) :   0.9328 B( 21-C , 50-H ) :   0.9454
B( 22-C , 23-F ) :   0.9225 B( 22-C , 24-C ) :   1.3676 B( 24-C , 51-H ) :   0.9048
B( 25-C , 26-N ) :   1.2891 B( 25-C , 34-C ) :   1.4062 B( 26-N , 27-C ) :   1.5059
B( 27-C , 28-C ) :   1.2316 B( 27-C , 52-H ) :   0.9292 B( 28-C , 29-C ) :   1.2839
B( 28-C , 33-C ) :   1.2889 B( 29-C , 30-C ) :   1.5133 B( 29-C , 32-C ) :   0.1038
B( 29-C , 53-H ) :   0.9254 B( 30-C , 31-C ) :   1.3605 B( 30-C , 54-H ) :   0.9307
B( 31-C , 32-C ) :   1.5164 B( 31-C , 55-H ) :   0.9298 B( 32-C , 33-C ) :   1.2710
B( 32-C , 56-H ) :   0.9074 B( 33-C , 34-C ) :   1.2227 B( 34-C , 35-C ) :   1.0564
B( 35-C , 36-C ) :   0.9132 B( 35-C , 37-C ) :   0.9138 B( 35-C , 57-H ) :   0.9071
B( 36-C , 37-C ) :   0.9462 B( 36-C , 58-H ) :   0.9355 B( 36-C , 59-H ) :   0.9346
B( 37-C , 60-H ) :   0.9295 B( 37-C , 61-H ) :   0.9290 B( 38-C , 39-C ) :   1.4036
B( 38-C , 62-H ) :   0.9190 B( 39-C , 63-H ) :   0.9017

FINAL SINGLE POINT ENERGY     -2264.488099990938

DIPOLE MOMENT
-------------

Method             : SCF
Type of density    : Electron Density
Multiplicity       :   1
Irrep              :   0
Energy             : -2264.4880999909378261 Eh
Relativity type    :
Basis              : AO
                                X                 Y                 Z
Electronic contribution:      1.614870895      12.915562426       2.855419818
Nuclear contribution   :      6.109924031     -18.164836308       0.932714687
                        -----------------------------------------
Total Dipole Moment    :      7.724794927      -5.249273882       3.788134505
                        -----------------------------------------
Magnitude (a.u.)       :     10.078556244
Magnitude (Debye)      :     25.617654105

Rotational constants in cm-1:             0.003697             0.001977             0.001835
Rotational constants in MHz :           110.829510            59.275627            55.011205

                             ****ORCA TERMINATED NORMALLY****
TOTAL RUN TIME: 0 days 0 hours 16 minutes 0 seconds 497 msec
