                         Program Version 6.0.0  -   RELEASE  -
|  1> ! B3LYP 6-31G* SP
|  2>
|  3> * xyz 0 1
|  4> N -1.3709 -1.0033 -1.7380
|  5> C -1.3004 0.4184 -2.0663
|  6> C -2.3048 1.2634 -1.2576
|  7> N -2.1068 1.1431 0.1985
|  8> C -3.2356 0.7360 1.0470
|  9> C -3.4647 -0.7403 0.9577
| 10> C -2.6956 -1.7248 1.5646
| 11> C -3.1289 -3.0220 1.2672
| 12> C -4.2352 -3.0623 0.4282
| 13> S -4.6737 -1.4824 0.0546
| 14> C -0.8297 1.4268 0.8077
| 15> O -0.4766 0.7953 1.8406
| 16> C 0.0837 2.4451 0.2506
| 17> C -0.3919 3.7377 -0.0185
| 18> C 0.4661 4.7108 -0.5349
| 19> C 1.8045 4.4024 -0.7839
| 20> C 2.2892 3.1184 -0.5221
| 21> C 1.4318 2.1269 -0.0065
| 22> O 1.8712 0.8162 0.2346
| 23> C 3.1473 0.3037 -0.1321
| 24> C 3.1704 -1.1715 0.1402
| 25> C 2.3848 -2.0366 -0.6394
| 26> C 2.3677 -3.4082 -0.3691
| 27> C 3.1296 -3.9239 0.6829
| 28> C 3.9083 -3.0683 1.4677
| 29> C 3.9270 -1.6953 1.2019
| 30> H -1.0721 -1.1404 -0.7460
| 31> H -2.3596 -1.3284 -1.8344
| 32> H -1.5215 0.5450 -3.1477
| 33> H -0.2645 0.7806 -1.9059
| 34> H -3.3354 0.9521 -1.5366
| 35> H -2.2039 2.3266 -1.5586
| 36> H -4.1540 1.2772 0.7330
| 37> H -3.0524 1.0144 2.1077
| 38> H -1.8446 -1.5167 2.1987
| 39> H -2.6457 -3.9102 1.6517
| 40> H -4.7262 -3.9586 0.0737
| 41> H -1.4248 3.9948 0.1828
| 42> H 0.0942 5.7067 -0.7379
| 43> H 2.4679 5.1597 -1.1816
| 44> H 3.3296 2.9052 -0.7265
| 45> H 3.9407 0.8280 0.4439
| 46> H 3.3245 0.4740 -1.2166
| 47> H 1.7831 -1.6469 -1.4514
| 48> H 1.7609 -4.0707 -0.9728
| 49> H 3.1149 -4.9857 0.8918
| 50> H 4.4943 -3.4685 2.2850
| 51> H 4.5277 -1.0435 1.8242
| 52> *
| 53>
| 54>                          ****END OF INPUT****

CARTESIAN COORDINATES (ANGSTROEM)
---------------------------------
  N     -1.370900   -1.003300   -1.738000
  C     -1.300400    0.418400   -2.066300
  C     -2.304800    1.263400   -1.257600
  N     -2.106800    1.143100    0.198500
  C     -3.235600    0.736000    1.047000
  C     -3.464700   -0.740300    0.957700
  C     -2.695600   -1.724800    1.564600
  C     -3.128900   -3.022000    1.267200
  C     -4.235200   -3.062300    0.428200
  S     -4.673700   -1.482400    0.054600
  C     -0.829700    1.426800    0.807700
  O     -0.476600    0.795300    1.840600
  C      0.083700    2.445100    0.250600
  C     -0.391900    3.737700   -0.018500
  C      0.466100    4.710800   -0.534900
  C      1.804500    4.402400   -0.783900
  C      2.289200    3.118400   -0.522100
  C      1.431800    2.126900   -0.006500
  O      1.871200    0.816200    0.234600
  C      3.147300    0.303700   -0.132100
  C      3.170400   -1.171500    0.140200
  C      2.384800   -2.036600   -0.639400
  C      2.367700   -3.408200   -0.369100
  C      3.129600   -3.923900    0.682900
  C      3.908300   -3.068300    1.467700
  C      3.927000   -1.695300    1.201900
  H     -1.072100   -1.140400   -0.746000
  H     -2.359600   -1.328400   -1.834400
  H     -1.521500    0.545000   -3.147700
  H     -0.264500    0.780600   -1.905900
  H     -3.335400    0.952100   -1.536600
  H     -2.203900    2.326600   -1.558600
  H     -4.154000    1.277200    0.733000
  H     -3.052400    1.014400    2.107700
  H     -1.844600   -1.516700    2.198700
  H     -2.645700   -3.910200    1.651700
  H     -4.726200   -3.958600    0.073700
  H     -1.424800    3.994800    0.182800
  H      0.094200    5.706700   -0.737900
  H      2.467900    5.159700   -1.181600
  H      3.329600    2.905200   -0.726500
  H      3.940700    0.828000    0.443900
  H      3.324500    0.474000   -1.216600
  H      1.783100   -1.646900   -1.451400
  H      1.760900   -4.070700   -0.972800
  H      3.114900   -4.985700    0.891800
  H      4.494300   -3.468500    2.285000
  H      4.527700   -1.043500    1.824200

 Total Charge           Charge          ....    0
 Multiplicity           Mult            ....    1
 Number of Electrons    NEL             ....  194
 Basis Dimension        Dim             ....  412

ORBITAL ENERGIES
----------------

  NO   OCC          E(Eh)            E(eV)
   0   2.0000     -88.884828     -2418.6791
   1   2.0000     -19.164168      -521.4835
   2   2.0000     -19.106916      -519.9256
   3   2.0000     -14.347464      -390.4143
   4   2.0000     -14.292456      -388.9175
   5   2.0000     -10.282796      -279.8091
   6   2.0000     -10.255914      -279.0776
   7   2.0000     -10.238145      -278.5941
   8   2.0000     -10.226543      -278.2784
   9   2.0000     -10.210556      -277.8433
  10   2.0000     -10.198350      -277.5112
  11   2.0000     -10.197377      -277.4847
  12   2.0000     -10.195453      -277.4324
  13   2.0000     -10.195446      -277.4322
  14   2.0000     -10.194159      -277.3972
  15   2.0000     -10.192109      -277.3414
  16   2.0000     -10.187807      -277.2243
  17   2.0000     -10.186098      -277.1778
  18   2.0000     -10.183152      -277.0977
  19   2.0000     -10.179375      -276.9949
  20   2.0000     -10.177621      -276.9472
  21   2.0000     -10.177168      -276.9348
  22   2.0000     -10.176220      -276.9090
  23   2.0000     -10.175739      -276.8959
  24   2.0000     -10.174157      -276.8529
  25   2.0000     -10.166951      -276.6568
  26   2.0000      -7.961636      -216.6471
  27   2.0000      -5.924455      -161.2126
  28   2.0000      -5.920612      -161.1080
  29   2.0000      -5.919006      -161.0643
  30   2.0000      -1.045934       -28.4613
  31   2.0000      -1.005187       -27.3525
  32   2.0000      -0.917590       -24.9689
  33   2.0000      -0.882153       -24.0046
  34   2.0000      -0.858839       -23.3702
  35   2.0000      -0.855939       -23.2913
  36   2.0000      -0.845058       -22.9952
  37   2.0000      -0.776390       -21.1266
  38   2.0000      -0.767379       -20.8815
  39   2.0000      -0.750353       -20.4181
  40   2.0000      -0.738009       -20.0823
  41   2.0000      -0.736241       -20.0341
  42   2.0000      -0.727774       -19.8037
  43   2.0000      -0.708027       -19.2664
  44   2.0000      -0.681382       -18.5414
  45   2.0000      -0.667935       -18.1754
  46   2.0000      -0.631173       -17.1751
  47   2.0000      -0.611973       -16.6526
  48   2.0000      -0.602497       -16.3948
  49   2.0000      -0.598516       -16.2864
  50   2.0000      -0.574017       -15.6198
  51   2.0000      -0.554303       -15.0833
  52   2.0000      -0.552481       -15.0338
  53   2.0000      -0.532035       -14.4774
  54   2.0000      -0.520306       -14.1583
  55   2.0000      -0.507330       -13.8052
  56   2.0000      -0.501756       -13.6535
  57   2.0000      -0.498013       -13.5516
  58   2.0000      -0.488369       -13.2892
  59   2.0000      -0.474245       -12.9049
  60   2.0000      -0.472579       -12.8595
  61   2.0000      -0.463070       -12.6008
  62   2.0000      -0.455227       -12.3873
  63   2.0000      -0.448360       -12.2005
  64   2.0000      -0.442042       -12.0286
  65   2.0000      -0.438421       -11.9300
  66   2.0000      -0.423546       -11.5253
  67   2.0000      -0.423279       -11.5180
  68   2.0000      -0.415915       -11.3176
  69   2.0000      -0.412264       -11.2183
  70   2.0000      -0.410570       -11.1722
  71   2.0000      -0.400097       -10.8872
  72   2.0000      -0.398058       -10.8317
  73   2.0000      -0.381847       -10.3906
  74   2.0000      -0.378376       -10.2961
  75   2.0000      -0.373530       -10.1643
  76   2.0000      -0.370876       -10.0921
  77   2.0000      -0.367091        -9.9891
  78   2.0000      -0.366343        -9.9687
  79   2.0000      -0.357019        -9.7150
  80   2.0000      -0.353059        -9.6072
  81   2.0000      -0.345044        -9.3891
  82   2.0000      -0.344654        -9.3785
  83   2.0000      -0.340180        -9.2568
  84   2.0000      -0.336206        -9.1486
  85   2.0000      -0.328828        -8.9479
  86   2.0000      -0.314767        -8.5652
  87   2.0000      -0.311632        -8.4799
  88   2.0000      -0.259110        -7.0508
  89   2.0000      -0.246164        -6.6985
  90   2.0000      -0.242780        -6.6064
  91   2.0000      -0.242398        -6.5960
  92   2.0000      -0.240925        -6.5559
  93   2.0000      -0.231593        -6.3020
  94   2.0000      -0.224455        -6.1077
  95   2.0000      -0.220865        -6.0100
  96   2.0000      -0.206600        -5.6219
  97   0.0000      -0.032880        -0.8947
  98   0.0000      -0.003868        -0.1052
  99   0.0000      -0.002921        -0.0795
 100   0.0000       0.000869         0.0237
 101   0.0000       0.007434         0.2023

MULLIKEN ATOMIC CHARGES
-----------------------
   0 N :   -0.716134
   1 C :   -0.152039
   2 C :   -0.152209
   3 N :   -0.392482
   4 C :   -0.203416
   5 C :   -0.130085
   6 C :   -0.118492
   7 C :   -0.106298
   8 C :   -0.348451
   9 S :    0.226277
  10 C :    0.449695
  11 O :   -0.457879
  12 C :    0.018835
  13 C :   -0.155736
  14 C :   -0.138756
  15 C :   -0.116028
  16 C :   -0.208297
  17 C :    0.361033
  18 O :   -0.498358
  19 C :   -0.107983
  20 C :    0.140773
  21 C :   -0.161430
  22 C :   -0.132194
  23 C :   -0.121221
  24 C :   -0.128264
  25 C :   -0.162977
  26 H :    0.323059
  27 H :    0.303949
  28 H :    0.135108
  29 H :    0.153884
  30 H :    0.147445
  31 H :    0.135740
  32 H :    0.149968
  33 H :    0.190390
  34 H :    0.170863
  35 H :    0.136680
  36 H :    0.172797
  37 H :    0.141637
  38 H :    0.128974
  39 H :    0.135903
  40 H :    0.142381
  41 H :    0.136604
  42 H :    0.136597
  43 H :    0.152979
  44 H :    0.134848
  45 H :    0.127081
  46 H :    0.127926
  47 H :    0.127303
Sum of atomic charges:    0.0000000

LOEWDIN ATOMIC CHARGES
----------------------
   0 N :   -0.476612
   1 C :   -0.186076
   2 C :   -0.175168
   3 N :   -0.113678
   4 C :   -0.143086
   5 C :   -0.215313
   6 C :   -0.166340
   7 C :   -0.161301
   8 C :   -0.330151
   9 S :    0.373704
  10 C :    0.144201
  11 O :   -0.263753
  12 C :   -0.068664
  13 C :   -0.111696
  14 C :   -0.148899
  15 C :   -0.112677
  16 C :   -0.171452
  17 C :    0.109730
  18 O :   -0.170153
  19 C :   -0.080400
  20 C :   -0.032114
  21 C :   -0.116614
  22 C :   -0.125990
  23 C :   -0.126142
  24 C :   -0.129357
  25 C :   -0.124387
  26 H :    0.235202
  27 H :    0.224871
  28 H :    0.119443
  29 H :    0.126273
  30 H :    0.127358
  31 H :    0.116892
  32 H :    0.127683
  33 H :    0.154306
  34 H :    0.152428
  35 H :    0.135825
  36 H :    0.155229
  37 H :    0.139184
  38 H :    0.132470
  39 H :    0.135430
  40 H :    0.138719
  41 H :    0.115103
  42 H :    0.116387
  43 H :    0.141792
  44 H :    0.134399
  45 H :    0.130889
  46 H :    0.131278
  47 H :    0.131229

  Mayer bond orders larger than 0.100000
B(  0-N ,  1-C ) :   1.0473 B(  0-N , 26-H ) :   0.8345 B(  0-N , 27-H ) :   0.8488
B(  1-C ,  2-C ) :   0.9682 B(  1-C , 28-H ) :   0.9358 B(  1-C , 29-H ) :   0.9296
B(  2-C ,  3-N ) :   0.9363 B(  2-C , 30-H ) :   0.9313 B(  2-C , 31-H ) :   0.9162
B(  3-N ,  4-C ) :   0.9603 B(  3-N , 10-C ) :   1.0613 B(  4-C ,  5-C ) :   0.9719
B(  4-C , 32-H ) :   0.9276 B(  4-C , 33-H ) :   0.9177 B(  5-C ,  6-C ) :   1.5744
B(  5-C ,  8-C ) :   0.1451 B(  5-C ,  9-S ) :   1.1371 B(  6-C ,  7-C ) :   1.3542
B(  6-C , 34-H ) :   0.9104 B(  7-C ,  8-C ) :   1.5854 B(  7-C , 35-H ) :   0.9283
B(  8-C ,  9-S ) :   1.1458 B(  8-C , 36-H ) :   0.9189 B( 10-C , 11-O ) :   1.8023
B( 10-C , 12-C ) :   0.9365 B( 12-C , 13-C ) :   1.4197 B( 12-C , 17-C ) :   1.3452
B( 13-C , 14-C ) :   1.4364 B( 13-C , 37-H ) :   0.9214 B( 14-C , 15-C ) :   1.4493
B( 14-C , 38-H ) :   0.9292 B( 15-C , 16-C ) :   1.4362 B( 15-C , 39-H ) :   0.9292
B( 16-C , 17-C ) :   1.3512 B( 16-C , 40-H ) :   0.9170 B( 17-C , 18-O ) :   0.9540
B( 18-O , 19-C ) :   0.8907 B( 19-C , 20-C ) :   0.9929 B( 19-C , 41-H ) :   0.9158
B( 19-C , 42-H ) :   0.9108 B( 20-C , 21-C ) :   1.4176 B( 20-C , 25-C ) :   1.4469
B( 21-C , 22-C ) :   1.4508 B( 21-C , 43-H ) :   0.9164 B( 22-C , 23-C ) :   1.4457
B( 22-C , 44-H ) :   0.9291 B( 23-C , 24-C ) :   1.4587 B( 23-C , 45-H ) :   0.9307
B( 24-C , 25-C ) :   1.4379 B( 24-C , 46-H ) :   0.9297 B( 25-C , 47-H ) :   0.9238

FINAL SINGLE POINT ENERGY     -1470.828538558500

DIPOLE MOMENT
-------------

Method             : SCF
Type of density    : Electron Density
Multiplicity       :   1
Irrep              :   0
Energy             : -1470.8285385584997584 Eh
Relativity type    :
Basis              : AO
                                X                 Y                 Z
Electronic contribution:     -5.829541034       0.925682560       6.498423603
Nuclear contribution   :      5.858090824      -0.357851902      -7.167791311
                        -----------------------------------------
Total Dipole Moment    :      0.028549790       0.567830657      -0.669367708
                        -----------------------------------------
Magnitude (a.u.)       :      0.878236799
Magnitude (Debye)      :      2.232300539

Rotational constants in cm-1:             0.006995             0.005349             0.003438
Rotational constants in MHz :           209.707618           160.354160           103.079422

                             ****ORCA TERMINATED NORMALLY****
TOTAL RUN TIME: 0 days 0 hours 4 minutes 32 seconds 217 msec
