                         Program Version 6.0.0  -   RELEASE  -
|  1> ! B3LYP 6-31G* SP
|  2>
|  3> * xyz 0 1
|  4> C -5.1531 0.2705 -1.7072
|  5> C -4.2813 -0.7298 -1.4909
|  6> C -4.3055 -1.9171 -2.4205
|  7> C -3.2770 -0.6651 -0.3370
|  8> C -4.0348 -0.6838 1.0338
|  9> C -3.5739 0.3830 2.0413
| 10> C -3.3935 1.7194 1.3742
| 11> C -3.9067 2.9777 2.0188
| 12> C -2.7731 1.7838 0.1868
| 13> C -2.2884 0.5402 -0.5213
| 14> C -0.8012 0.3022 -0.2045
| 15> C 0.1467 1.1418 -0.8452
| 16> O -0.2758 2.1211 -1.7464
| 17> C 1.5155 1.0065 -0.5848
| 18> C 1.9773 0.0576 0.3293
| 19> C 3.4542 -0.1029 0.5775
| 20> C 4.0625 -1.0926 -0.4260
| 21> C 5.5429 -1.3900 -0.1415
| 22> C 6.4581 -0.2018 -0.4717
| 23> C 7.9276 -0.5773 -0.3035
| 24> C 1.0585 -0.7768 0.9706
| 25> C -0.3174 -0.6621 0.7247
| 26> O -1.1767 -1.5184 1.4077
| 27> H -5.8603 0.2236 -2.5300
| 28> H -5.1779 1.1441 -1.0646
| 29> H -4.1024 -1.5828 -3.4600
| 30> H -3.5437 -2.6756 -2.1462
| 31> H -5.3044 -2.4011 -2.3838
| 32> H -2.6808 -1.5964 -0.4045
| 33> H -5.1286 -0.5456 0.8852
| 34> H -3.9214 -1.6854 1.5028
| 35> H -4.3216 0.4496 2.8607
| 36> H -2.6142 0.0915 2.5102
| 37> H -3.0672 3.6871 2.1777
| 38> H -4.3751 2.7658 3.0025
| 39> H -4.6657 3.4524 1.3616
| 40> H -2.6408 2.7459 -0.3017
| 41> H -2.3149 0.7835 -1.6073
| 42> H 0.3802 2.7349 -2.2154
| 43> H 2.2226 1.6485 -1.0963
| 44> H 3.6241 -0.4658 1.6151
| 45> H 3.9502 0.8869 0.4881
| 46> H 3.9486 -0.7012 -1.4610
| 47> H 3.5024 -2.0519 -0.3662
| 48> H 5.8437 -2.2587 -0.7676
| 49> H 5.6709 -1.6829 0.9239
| 50> H 6.2895 0.1242 -1.5211
| 51> H 6.2358 0.6509 0.2038
| 52> H 8.5651 0.3009 -0.5387
| 53> H 8.1964 -1.4054 -0.9936
| 54> H 8.1279 -0.8918 0.7430
| 55> H 1.4144 -1.5248 1.6690
| 56> H -0.8377 -2.2067 2.0698
| 57> *
| 58>
| 59>                          ****END OF INPUT****

CARTESIAN COORDINATES (ANGSTROEM)
---------------------------------
  C     -5.153100    0.270500   -1.707200
  C     -4.281300   -0.729800   -1.490900
  C     -4.305500   -1.917100   -2.420500
  C     -3.277000   -0.665100   -0.337000
  C     -4.034800   -0.683800    1.033800
  C     -3.573900    0.383000    2.041300
  C     -3.393500    1.719400    1.374200
  C     -3.906700    2.977700    2.018800
  C     -2.773100    1.783800    0.186800
  C     -2.288400    0.540200   -0.521300
  C     -0.801200    0.302200   -0.204500
  C      0.146700    1.141800   -0.845200
  O     -0.275800    2.121100   -1.746400
  C      1.515500    1.006500   -0.584800
  C      1.977300    0.057600    0.329300
  C      3.454200   -0.102900    0.577500
  C      4.062500   -1.092600   -0.426000
  C      5.542900   -1.390000   -0.141500
  C      6.458100   -0.201800   -0.471700
  C      7.927600   -0.577300   -0.303500
  C      1.058500   -0.776800    0.970600
  C     -0.317400   -0.662100    0.724700
  O     -1.176700   -1.518400    1.407700
  H     -5.860300    0.223600   -2.530000
  H     -5.177900    1.144100   -1.064600
  H     -4.102400   -1.582800   -3.460000
  H     -3.543700   -2.675600   -2.146200
  H     -5.304400   -2.401100   -2.383800
  H     -2.680800   -1.596400   -0.404500
  H     -5.128600   -0.545600    0.885200
  H     -3.921400   -1.685400    1.502800
  H     -4.321600    0.449600    2.860700
  H     -2.614200    0.091500    2.510200
  H     -3.067200    3.687100    2.177700
  H     -4.375100    2.765800    3.002500
  H     -4.665700    3.452400    1.361600
  H     -2.640800    2.745900   -0.301700
  H     -2.314900    0.783500   -1.607300
  H      0.380200    2.734900   -2.215400
  H      2.222600    1.648500   -1.096300
  H      3.624100   -0.465800    1.615100
  H      3.950200    0.886900    0.488100
  H      3.948600   -0.701200   -1.461000
  H      3.502400   -2.051900   -0.366200
  H      5.843700   -2.258700   -0.767600
  H      5.670900   -1.682900    0.923900
  H      6.289500    0.124200   -1.521100
  H      6.235800    0.650900    0.203800
  H      8.565100    0.300900   -0.538700
  H      8.196400   -1.405400   -0.993600
  H      8.127900   -0.891800    0.743000
  H      1.414400   -1.524800    1.669000
  H     -0.837700   -2.206700    2.069800

 Total Charge           Charge          ....    0
 Multiplicity           Mult            ....    1
 Number of Electrons    NEL             ....  172
 Basis Dimension        Dim             ....  382

ORBITAL ENERGIES
----------------

  NO   OCC          E(Eh)            E(eV)
   0   2.0000     -19.161177      -521.4021
   1   2.0000     -19.159035      -521.3438
   2   2.0000     -10.241583      -278.6876
   3   2.0000     -10.239132      -278.6209
   4   2.0000     -10.181441      -277.0511
   5   2.0000     -10.180348      -277.0214
   6   2.0000     -10.175721      -276.8954
   7   2.0000     -10.171816      -276.7892
   8   2.0000     -10.171465      -276.7796
   9   2.0000     -10.170023      -276.7404
  10   2.0000     -10.170016      -276.7402
  11   2.0000     -10.164740      -276.5966
  12   2.0000     -10.164422      -276.5880
  13   2.0000     -10.164138      -276.5803
  14   2.0000     -10.163584      -276.5652
  15   2.0000     -10.163410      -276.5604
  16   2.0000     -10.158546      -276.4281
  17   2.0000     -10.157467      -276.3987
  18   2.0000     -10.156814      -276.3810
  19   2.0000     -10.154696      -276.3233
  20   2.0000     -10.153970      -276.3036
  21   2.0000     -10.141816      -275.9729
  22   2.0000     -10.135147      -275.7914
  23   2.0000      -1.029043       -28.0017
  24   2.0000      -1.024028       -27.8652
  25   2.0000      -0.842040       -22.9131
  26   2.0000      -0.820933       -22.3387
  27   2.0000      -0.798317       -21.7233
  28   2.0000      -0.776843       -21.1390
  29   2.0000      -0.768456       -20.9108
  30   2.0000      -0.736704       -20.0467
  31   2.0000      -0.722102       -19.6494
  32   2.0000      -0.721912       -19.6442
  33   2.0000      -0.702248       -19.1091
  34   2.0000      -0.664273       -18.0758
  35   2.0000      -0.659360       -17.9421
  36   2.0000      -0.652600       -17.7582
  37   2.0000      -0.622807       -16.9474
  38   2.0000      -0.609260       -16.5788
  39   2.0000      -0.593361       -16.1462
  40   2.0000      -0.576269       -15.6811
  41   2.0000      -0.563392       -15.3307
  42   2.0000      -0.561627       -15.2826
  43   2.0000      -0.538716       -14.6592
  44   2.0000      -0.505616       -13.7585
  45   2.0000      -0.494604       -13.4589
  46   2.0000      -0.478391       -13.0177
  47   2.0000      -0.468650       -12.7526
  48   2.0000      -0.462001       -12.5717
  49   2.0000      -0.459659       -12.5080
  50   2.0000      -0.447006       -12.1636
  51   2.0000      -0.438217       -11.9245
  52   2.0000      -0.431006       -11.7283
  53   2.0000      -0.426523       -11.6063
  54   2.0000      -0.415811       -11.3148
  55   2.0000      -0.407391       -11.0857
  56   2.0000      -0.403517       -10.9803
  57   2.0000      -0.400025       -10.8852
  58   2.0000      -0.396406       -10.7867
  59   2.0000      -0.393832       -10.7167
  60   2.0000      -0.388067       -10.5598
  61   2.0000      -0.385301       -10.4846
  62   2.0000      -0.377469       -10.2714
  63   2.0000      -0.374165       -10.1816
  64   2.0000      -0.367932       -10.0120
  65   2.0000      -0.364401        -9.9158
  66   2.0000      -0.357916        -9.7394
  67   2.0000      -0.354757        -9.6534
  68   2.0000      -0.350489        -9.5373
  69   2.0000      -0.344783        -9.3820
  70   2.0000      -0.343164        -9.3380
  71   2.0000      -0.336085        -9.1453
  72   2.0000      -0.332894        -9.0585
  73   2.0000      -0.329906        -8.9772
  74   2.0000      -0.324100        -8.8192
  75   2.0000      -0.323368        -8.7993
  76   2.0000      -0.311983        -8.4895
  77   2.0000      -0.303946        -8.2708
  78   2.0000      -0.296275        -8.0621
  79   2.0000      -0.291158        -7.9228
  80   2.0000      -0.285275        -7.7627
  81   2.0000      -0.274199        -7.4613
  82   2.0000      -0.222150        -6.0450
  83   2.0000      -0.206975        -5.6321
  84   2.0000      -0.205355        -5.5880
  85   2.0000      -0.196698        -5.3524
  86   0.0000       0.011760         0.3200
  87   0.0000       0.024927         0.6783
  88   0.0000       0.032632         0.8880
  89   0.0000       0.043975         1.1966
  90   0.0000       0.049295         1.3414

MULLIKEN ATOMIC CHARGES
-----------------------
   0 C :   -0.379288
   1 C :    0.173289
   2 C :   -0.510394
   3 C :   -0.127077
   4 C :   -0.249831
   5 C :   -0.327212
   6 C :    0.160755
   7 C :   -0.510293
   8 C :   -0.144103
   9 C :   -0.197051
  10 C :    0.062288
  11 C :    0.345213
  12 O :   -0.678222
  13 C :   -0.262109
  14 C :    0.187221
  15 C :   -0.352611
  16 C :   -0.241495
  17 C :   -0.239537
  18 C :   -0.242464
  19 C :   -0.431005
  20 C :   -0.267167
  21 C :    0.336608
  22 O :   -0.677649
  23 H :    0.117702
  24 H :    0.135828
  25 H :    0.158194
  26 H :    0.141758
  27 H :    0.156861
  28 H :    0.129988
  29 H :    0.136251
  30 H :    0.118157
  31 H :    0.116847
  32 H :    0.155923
  33 H :    0.154963
  34 H :    0.138103
  35 H :    0.156102
  36 H :    0.117404
  37 H :    0.152439
  38 H :    0.416337
  39 H :    0.100409
  40 H :    0.133051
  41 H :    0.140249
  42 H :    0.131099
  43 H :    0.130147
  44 H :    0.124362
  45 H :    0.122817
  46 H :    0.126084
  47 H :    0.132090
  48 H :    0.136561
  49 H :    0.138374
  50 H :    0.138113
  51 H :    0.099299
  52 H :    0.416624
Sum of atomic charges:   -0.0000000

LOEWDIN ATOMIC CHARGES
----------------------
   0 C :   -0.301757
   1 C :   -0.016937
   2 C :   -0.358023
   3 C :   -0.110425
   4 C :   -0.211890
   5 C :   -0.232400
   6 C :   -0.039413
   7 C :   -0.355887
   8 C :   -0.149333
   9 C :   -0.105266
  10 C :   -0.060776
  11 C :    0.092266
  12 O :   -0.348848
  13 C :   -0.199116
  14 C :   -0.007031
  15 C :   -0.220242
  16 C :   -0.222069
  17 C :   -0.229120
  18 C :   -0.232983
  19 C :   -0.357315
  20 C :   -0.199749
  21 C :    0.083779
  22 O :   -0.337668
  23 H :    0.118844
  24 H :    0.128469
  25 H :    0.135131
  26 H :    0.122508
  27 H :    0.134378
  28 H :    0.125536
  29 H :    0.121154
  30 H :    0.115005
  31 H :    0.114646
  32 H :    0.132084
  33 H :    0.133085
  34 H :    0.122023
  35 H :    0.133388
  36 H :    0.124507
  37 H :    0.142132
  38 H :    0.335849
  39 H :    0.121713
  40 H :    0.121317
  41 H :    0.123263
  42 H :    0.118530
  43 H :    0.118874
  44 H :    0.116131
  45 H :    0.114183
  46 H :    0.114793
  47 H :    0.115830
  48 H :    0.120688
  49 H :    0.119836
  50 H :    0.120124
  51 H :    0.120936
  52 H :    0.335245

  Mayer bond orders larger than 0.100000
B(  0-C ,  1-C ) :   1.9277 B(  0-C , 23-H ) :   0.9379 B(  0-C , 24-H ) :   0.9222
B(  1-C ,  2-C ) :   1.0003 B(  1-C ,  3-C ) :   1.0011 B(  2-C , 25-H ) :   0.9430
B(  2-C , 26-H ) :   0.9460 B(  2-C , 27-H ) :   0.9438 B(  3-C ,  4-C ) :   0.9719
B(  3-C ,  9-C ) :   0.9627 B(  3-C , 28-H ) :   0.9174 B(  4-C ,  5-C ) :   0.9982
B(  4-C , 29-H ) :   0.9386 B(  4-C , 30-H ) :   0.9396 B(  5-C ,  6-C ) :   1.0239
B(  5-C , 31-H ) :   0.9349 B(  5-C , 32-H ) :   0.9131 B(  6-C ,  7-C ) :   0.9913
B(  6-C ,  8-C ) :   1.8823 B(  7-C , 33-H ) :   0.9450 B(  7-C , 34-H ) :   0.9487
B(  7-C , 35-H ) :   0.9435 B(  8-C ,  9-C ) :   0.9888 B(  8-C , 36-H ) :   0.9266
B(  9-C , 10-C ) :   0.9470 B(  9-C , 37-H ) :   0.9055 B( 10-C , 11-C ) :   1.3645
B( 10-C , 21-C ) :   1.3828 B( 11-C , 12-O ) :   0.8851 B( 11-C , 13-C ) :   1.3555
B( 12-O , 38-H ) :   0.7660 B( 13-C , 14-C ) :   1.4243 B( 13-C , 39-H ) :   0.9191
B( 14-C , 15-C ) :   0.9722 B( 14-C , 20-C ) :   1.4303 B( 15-C , 16-C ) :   0.9960
B( 15-C , 40-H ) :   0.9340 B( 15-C , 41-H ) :   0.9303 B( 16-C , 17-C ) :   0.9967
B( 16-C , 42-H ) :   0.9371 B( 16-C , 43-H ) :   0.9405 B( 17-C , 18-C ) :   1.0142
B( 17-C , 44-H ) :   0.9408 B( 17-C , 45-H ) :   0.9379 B( 18-C , 19-C ) :   1.0161
B( 18-C , 46-H ) :   0.9429 B( 18-C , 47-H ) :   0.9403 B( 19-C , 48-H ) :   0.9529
B( 19-C , 49-H ) :   0.9522 B( 19-C , 50-H ) :   0.9526 B( 20-C , 21-C ) :   1.3519
B( 20-C , 51-H ) :   0.9187 B( 21-C , 22-O ) :   0.8537 B( 22-O , 52-H ) :   0.7646

FINAL SINGLE POINT ENERGY      -968.025491191949

DIPOLE MOMENT
-------------

Method             : SCF
Type of density    : Electron Density
Multiplicity       :   1
Irrep              :   0
Energy             :  -968.0254911919488450 Eh
Relativity type    :
Basis              : AO
                                X                 Y                 Z
Electronic contribution:    -13.665658336       3.821244054       0.225029608
Nuclear contribution   :     14.764089440      -4.027842263      -0.023507823
                        -----------------------------------------
Total Dipole Moment    :      1.098431104      -0.206598209       0.201521785
                        -----------------------------------------
Magnitude (a.u.)       :      1.135713318
Magnitude (Debye)      :      2.886753840

Rotational constants in cm-1:             0.017050             0.003429             0.003337
Rotational constants in MHz :           511.147276           102.800079           100.042293

                             ****ORCA TERMINATED NORMALLY****
TOTAL RUN TIME: 0 days 0 hours 5 minutes 45 seconds 31 msec
