                         Program Version 6.0.0  -   RELEASE  -
|  1> ! B3LYP 6-31G* SP
|  2>
|  3> * xyz 0 1
|  4> C 5.2576 1.5864 0.1235
|  5> C 4.7011 0.1676 0.0629
|  6> N 3.2382 0.1764 0.0567
|  7> C 2.4867 -1.0453 0.0034
|  8> O 3.0922 -2.1507 -0.0392
|  9> C 1.0103 -1.0241 -0.0023
| 10> S 0.0422 0.3527 0.0498
| 11> C -1.4069 -0.5103 0.0080
| 12> C -2.7662 0.0774 0.0260
| 13> C -3.8980 -0.7584 -0.0133
| 14> C -5.1844 -0.2106 0.0035
| 15> C -5.3559 1.1741 0.0594
| 16> C -4.2411 2.0141 0.0988
| 17> C -2.9521 1.4719 0.0823
| 18> N -1.1699 -1.8415 -0.0455
| 19> C 0.1601 -2.1287 -0.0513
| 20> O 0.6219 -3.4400 -0.1030
| 21> H 6.3674 1.5524 0.1270
| 22> H 4.9118 2.0931 1.0495
| 23> H 4.9199 2.1673 -0.7611
| 24> H 5.0720 -0.3281 -0.8602
| 25> H 5.0639 -0.4021 0.9456
| 26> H 2.7303 1.0890 0.0918
| 27> H -3.7901 -1.8349 -0.0569
| 28> H -6.0492 -0.8609 -0.0270
| 29> H -6.3526 1.5961 0.0723
| 30> H -4.3753 3.0873 0.1422
| 31> H -2.1063 2.1461 0.1137
| 32> H -0.0275 -4.2164 -0.1377
| 33> *
| 34>
| 35>                          ****END OF INPUT****

CARTESIAN COORDINATES (ANGSTROEM)
---------------------------------
  C      5.257600    1.586400    0.123500
  C      4.701100    0.167600    0.062900
  N      3.238200    0.176400    0.056700
  C      2.486700   -1.045300    0.003400
  O      3.092200   -2.150700   -0.039200
  C      1.010300   -1.024100   -0.002300
  S      0.042200    0.352700    0.049800
  C     -1.406900   -0.510300    0.008000
  C     -2.766200    0.077400    0.026000
  C     -3.898000   -0.758400   -0.013300
  C     -5.184400   -0.210600    0.003500
  C     -5.355900    1.174100    0.059400
  C     -4.241100    2.014100    0.098800
  C     -2.952100    1.471900    0.082300
  N     -1.169900   -1.841500   -0.045500
  C      0.160100   -2.128700   -0.051300
  O      0.621900   -3.440000   -0.103000
  H      6.367400    1.552400    0.127000
  H      4.911800    2.093100    1.049500
  H      4.919900    2.167300   -0.761100
  H      5.072000   -0.328100   -0.860200
  H      5.063900   -0.402100    0.945600
  H      2.730300    1.089000    0.091800
  H     -3.790100   -1.834900   -0.056900
  H     -6.049200   -0.860900   -0.027000
  H     -6.352600    1.596100    0.072300
  H     -4.375300    3.087300    0.142200
  H     -2.106300    2.146100    0.113700
  H     -0.027500   -4.216400   -0.137700

 Total Charge           Charge          ....    0
 Multiplicity           Mult            ....    1
 Number of Electrons    NEL             ....  130
 Basis Dimension        Dim             ....  266

ORBITAL ENERGIES
----------------

  NO   OCC          E(Eh)            E(eV)
   0   2.0000     -88.905505     -2419.2418
   1   2.0000     -19.169061      -521.6167
   2   2.0000     -19.095537      -519.6160
   3   2.0000     -14.345260      -390.3544
   4   2.0000     -14.336664      -390.1205
   5   2.0000     -10.286410      -279.9075
   6   2.0000     -10.285975      -279.8956
   7   2.0000     -10.263302      -279.2786
   8   2.0000     -10.215628      -277.9814
   9   2.0000     -10.214816      -277.9593
  10   2.0000     -10.210538      -277.8429
  11   2.0000     -10.199018      -277.5294
  12   2.0000     -10.194374      -277.4030
  13   2.0000     -10.193612      -277.3823
  14   2.0000     -10.193385      -277.3761
  15   2.0000     -10.192276      -277.3459
  16   2.0000     -10.180446      -277.0240
  17   2.0000      -7.983079      -217.2306
  18   2.0000      -5.945931      -161.7970
  19   2.0000      -5.942065      -161.6918
  20   2.0000      -5.940164      -161.6401
  21   2.0000      -1.040332       -28.3089
  22   2.0000      -0.996555       -27.1177
  23   2.0000      -0.962773       -26.1984
  24   2.0000      -0.892214       -24.2784
  25   2.0000      -0.863985       -23.5102
  26   2.0000      -0.818619       -22.2758
  27   2.0000      -0.784598       -21.3500
  28   2.0000      -0.753851       -20.5133
  29   2.0000      -0.747456       -20.3393
  30   2.0000      -0.726901       -19.7800
  31   2.0000      -0.648470       -17.6458
  32   2.0000      -0.631697       -17.1894
  33   2.0000      -0.616591       -16.7783
  34   2.0000      -0.597267       -16.2525
  35   2.0000      -0.578403       -15.7391
  36   2.0000      -0.560068       -15.2402
  37   2.0000      -0.525954       -14.3119
  38   2.0000      -0.522270       -14.2117
  39   2.0000      -0.494559       -13.4576
  40   2.0000      -0.474379       -12.9085
  41   2.0000      -0.461164       -12.5489
  42   2.0000      -0.457091       -12.4381
  43   2.0000      -0.447154       -12.1677
  44   2.0000      -0.442023       -12.0281
  45   2.0000      -0.436170       -11.8688
  46   2.0000      -0.428876       -11.6703
  47   2.0000      -0.394562       -10.7366
  48   2.0000      -0.387423       -10.5423
  49   2.0000      -0.384301       -10.4574
  50   2.0000      -0.379195       -10.3184
  51   2.0000      -0.376795       -10.2531
  52   2.0000      -0.364046        -9.9062
  53   2.0000      -0.358029        -9.7425
  54   2.0000      -0.355995        -9.6871
  55   2.0000      -0.349382        -9.5072
  56   2.0000      -0.347457        -9.4548
  57   2.0000      -0.344664        -9.3788
  58   2.0000      -0.288786        -7.8583
  59   2.0000      -0.281563        -7.6617
  60   2.0000      -0.265317        -7.2196
  61   2.0000      -0.258147        -7.0245
  62   2.0000      -0.234980        -6.3941
  63   2.0000      -0.234704        -6.3866
  64   2.0000      -0.214262        -5.8304
  65   0.0000      -0.065598        -1.7850
  66   0.0000      -0.010556        -0.2872
  67   0.0000       0.003711         0.1010
  68   0.0000       0.015322         0.4169
  69   0.0000       0.045304         1.2328

MULLIKEN ATOMIC CHARGES
-----------------------
   0 C :   -0.474774
   1 C :   -0.063989
   2 N :   -0.644547
   3 C :    0.572196
   4 O :   -0.474526
   5 C :   -0.273706
   6 S :    0.257625
   7 C :   -0.018644
   8 C :    0.142091
   9 C :   -0.152125
  10 C :   -0.127704
  11 C :   -0.117231
  12 C :   -0.132815
  13 C :   -0.188369
  14 N :   -0.426434
  15 C :    0.505933
  16 O :   -0.615424
  17 H :    0.158866
  18 H :    0.148185
  19 H :    0.148166
  20 H :    0.158895
  21 H :    0.158891
  22 H :    0.323454
  23 H :    0.159883
  24 H :    0.137716
  25 H :    0.135005
  26 H :    0.136418
  27 H :    0.145569
  28 H :    0.421396
Sum of atomic charges:    0.0000000

LOEWDIN ATOMIC CHARGES
----------------------
   0 C :   -0.366082
   1 C :   -0.148647
   2 N :   -0.258452
   3 C :    0.137373
   4 O :   -0.280067
   5 C :   -0.271808
   6 S :    0.385852
   7 C :   -0.108370
   8 C :   -0.029905
   9 C :   -0.103832
  10 C :   -0.124684
  11 C :   -0.120087
  12 C :   -0.125822
  13 C :   -0.122566
  14 N :   -0.183244
  15 C :    0.111002
  16 O :   -0.311720
  17 H :    0.135604
  18 H :    0.124221
  19 H :    0.124211
  20 H :    0.127968
  21 H :    0.127966
  22 H :    0.244946
  23 H :    0.148801
  24 H :    0.136183
  25 H :    0.134693
  26 H :    0.135515
  27 H :    0.138732
  28 H :    0.342218

  Mayer bond orders larger than 0.100000
B(  0-C ,  1-C ) :   1.0077 B(  0-C , 17-H ) :   0.9491 B(  0-C , 18-H ) :   0.9475
B(  0-C , 19-H ) :   0.9475 B(  1-C ,  2-N ) :   0.9234 B(  1-C , 20-H ) :   0.9320
B(  1-C , 21-H ) :   0.9320 B(  2-N ,  3-C ) :   1.0440 B(  2-N , 22-H ) :   0.8180
B(  3-C ,  4-O ) :   1.8128 B(  3-C ,  5-C ) :   0.9881 B(  5-C ,  6-S ) :   1.0666
B(  5-C ,  7-C ) :   0.1209 B(  5-C , 15-C ) :   1.4261 B(  6-S ,  7-C ) :   1.1564
B(  7-C ,  8-C ) :   1.0220 B(  7-C , 14-N ) :   1.4462 B(  8-C ,  9-C ) :   1.4051
B(  8-C , 13-C ) :   1.3913 B(  9-C , 10-C ) :   1.4378 B(  9-C , 23-H ) :   0.9125
B( 10-C , 11-C ) :   1.4421 B( 10-C , 24-H ) :   0.9289 B( 11-C , 12-C ) :   1.4458
B( 11-C , 25-H ) :   0.9293 B( 12-C , 13-C ) :   1.4505 B( 12-C , 26-H ) :   0.9287
B( 13-C , 27-H ) :   0.9166 B( 14-N , 15-C ) :   1.2852 B( 15-C , 16-O ) :   1.0210
B( 16-O , 28-H ) :   0.7562

FINAL SINGLE POINT ENERGY     -1122.131352007737

DIPOLE MOMENT
-------------

Method             : SCF
Type of density    : Electron Density
Multiplicity       :   1
Irrep              :   0
Energy             : -1122.1313520077369503 Eh
Relativity type    :
Basis              : AO
                                X                 Y                 Z
Electronic contribution:     -9.391244152      -8.120338041      -0.374105266
Nuclear contribution   :      8.316162716       9.493104236       0.425623611
                        -----------------------------------------
Total Dipole Moment    :     -1.075081436       1.372766195       0.051518345
                        -----------------------------------------
Magnitude (a.u.)       :      1.744402838
Magnitude (Debye)      :      4.433919645

Rotational constants in cm-1:             0.031752             0.006541             0.005435
Rotational constants in MHz :           951.899128           196.088394           162.940555

                             ****ORCA TERMINATED NORMALLY****
TOTAL RUN TIME: 0 days 0 hours 2 minutes 49 seconds 553 msec
