                         Program Version 6.0.0  -   RELEASE  -
|  1> ! B3LYP def2-TZVP SP
|  2>
|  3> * xyz 0 1
|  4> C 4.7984 -0.6933 -0.2443
|  5> C 4.3840 0.7825 -0.3046
|  6> N 2.9569 0.8849 -0.6324
|  7> C 1.9267 0.5848 0.3193
|  8> O 2.2265 0.3045 1.5123
|  9> N 0.5531 0.5930 -0.0947
| 10> C -0.5384 0.2233 0.8103
| 11> C -1.8822 0.6474 0.2440
| 12> C -2.4989 -0.0633 -0.8019
| 13> C -3.7213 0.3631 -1.3288
| 14> C -4.3593 1.5047 -0.8168
| 15> C -5.6579 1.9917 -1.4088
| 16> F -5.3879 2.9045 -2.4113
| 17> F -6.3826 0.9391 -1.9404
| 18> F -6.4334 2.6022 -0.4390
| 19> C -3.7251 2.2402 0.1972
| 20> C -2.5022 1.8143 0.7234
| 21> C -0.5225 -1.2467 1.1998
| 22> N -0.9953 -1.5498 2.4428
| 23> C -1.0621 -2.8205 2.9156
| 24> C -0.6467 -3.8821 2.1179
| 25> C -0.1670 -3.6225 0.8363
| 26> C -0.1000 -2.3102 0.3542
| 27> Br 0.5592 -2.0990 -1.4391
| 28> C 5.2297 1.5550 -1.3322
| 29> F 5.0780 1.0109 -2.5966
| 30> F 6.5669 1.5083 -0.9787
| 31> F 4.8300 2.8793 -1.3616
| 32> H 4.6046 -1.1942 -1.2172
| 33> H 5.8765 -0.7859 0.0037
| 34> H 4.2215 -1.2195 0.5458
| 35> H 4.5628 1.2454 0.6916
| 36> H 2.6672 1.1855 -1.5909
| 37> H 0.3327 0.8811 -1.0756
| 38> H -0.3789 0.7950 1.7525
| 39> H -2.0411 -0.9482 -1.2161
| 40> H -4.1665 -0.2013 -2.1379
| 41> H -4.1748 3.1471 0.5828
| 42> H -2.0386 2.4003 1.5085
| 43> H -1.4418 -3.0049 3.9113
| 44> H -0.7002 -4.8981 2.4873
| 45> H 0.1502 -4.4486 0.2122
| 46> *
| 47>
| 48>                          ****END OF INPUT****

CARTESIAN COORDINATES (ANGSTROEM)
---------------------------------
  C      4.798400   -0.693300   -0.244300
  C      4.384000    0.782500   -0.304600
  N      2.956900    0.884900   -0.632400
  C      1.926700    0.584800    0.319300
  O      2.226500    0.304500    1.512300
  N      0.553100    0.593000   -0.094700
  C     -0.538400    0.223300    0.810300
  C     -1.882200    0.647400    0.244000
  C     -2.498900   -0.063300   -0.801900
  C     -3.721300    0.363100   -1.328800
  C     -4.359300    1.504700   -0.816800
  C     -5.657900    1.991700   -1.408800
  F     -5.387900    2.904500   -2.411300
  F     -6.382600    0.939100   -1.940400
  F     -6.433400    2.602200   -0.439000
  C     -3.725100    2.240200    0.197200
  C     -2.502200    1.814300    0.723400
  C     -0.522500   -1.246700    1.199800
  N     -0.995300   -1.549800    2.442800
  C     -1.062100   -2.820500    2.915600
  C     -0.646700   -3.882100    2.117900
  C     -0.167000   -3.622500    0.836300
  C     -0.100000   -2.310200    0.354200
  Br     0.559200   -2.099000   -1.439100
  C      5.229700    1.555000   -1.332200
  F      5.078000    1.010900   -2.596600
  F      6.566900    1.508300   -0.978700
  F      4.830000    2.879300   -1.361600
  H      4.604600   -1.194200   -1.217200
  H      5.876500   -0.785900    0.003700
  H      4.221500   -1.219500    0.545800
  H      4.562800    1.245400    0.691600
  H      2.667200    1.185500   -1.590900
  H      0.332700    0.881100   -1.075600
  H     -0.378900    0.795000    1.752500
  H     -2.041100   -0.948200   -1.216100
  H     -4.166500   -0.201300   -2.137900
  H     -4.174800    3.147100    0.582800
  H     -2.038600    2.400300    1.508500
  H     -1.441800   -3.004900    3.911300
  H     -0.700200   -4.898100    2.487300
  H      0.150200   -4.448600    0.212200

 Total Charge           Charge          ....    0
 Multiplicity           Mult            ....    1
 Number of Electrons    NEL             ....  234
 Basis Dimension        Dim             ....  969

ORBITAL ENERGIES
----------------

  NO   OCC          E(Eh)            E(eV)
   0   2.0000    -482.874353    -13139.6791
   1   2.0000     -62.521373     -1701.2930
   2   2.0000     -56.337012     -1533.0080
   3   2.0000     -56.334348     -1532.9355
   4   2.0000     -56.334330     -1532.9351
   5   2.0000     -24.730167      -672.9420
   6   2.0000     -24.727725      -672.8756
   7   2.0000     -24.725104      -672.8043
   8   2.0000     -24.720304      -672.6737
   9   2.0000     -24.719744      -672.6584
  10   2.0000     -24.719074      -672.6402
  11   2.0000     -19.096698      -519.6476
  12   2.0000     -14.361283      -390.7904
  13   2.0000     -14.357818      -390.6961
  14   2.0000     -14.333007      -390.0210
  15   2.0000     -10.442673      -284.1596
  16   2.0000     -10.437802      -284.0270
  17   2.0000     -10.321778      -280.8699
  18   2.0000     -10.254313      -279.0340
  19   2.0000     -10.253438      -279.0102
  20   2.0000     -10.247760      -278.8557
  21   2.0000     -10.246891      -278.8321
  22   2.0000     -10.227803      -278.3127
  23   2.0000     -10.218972      -278.0724
  24   2.0000     -10.216546      -278.0063
  25   2.0000     -10.213048      -277.9112
  26   2.0000     -10.206151      -277.7235
  27   2.0000     -10.205985      -277.7190
  28   2.0000     -10.202167      -277.6151
  29   2.0000     -10.201051      -277.5847
  30   2.0000     -10.200281      -277.5638
  31   2.0000     -10.179613      -277.0013
  32   2.0000      -8.711978      -237.0650
  33   2.0000      -6.541538      -178.0043
  34   2.0000      -6.530709      -177.7096
  35   2.0000      -6.529970      -177.6895
  36   2.0000      -2.656160       -72.2778
  37   2.0000      -2.653238       -72.1983
  38   2.0000      -2.652680       -72.1831
  39   2.0000      -2.643743       -71.9399
  40   2.0000      -2.643724       -71.9394
  41   2.0000      -1.304859       -35.5070
  42   2.0000      -1.297931       -35.3185
  43   2.0000      -1.232476       -33.5374
  44   2.0000      -1.229234       -33.4491
  45   2.0000      -1.223642       -33.2970
  46   2.0000      -1.223367       -33.2895
  47   2.0000      -1.035883       -28.1878
  48   2.0000      -0.956678       -26.0325
  49   2.0000      -0.930830       -25.3292
  50   2.0000      -0.923893       -25.1404
  51   2.0000      -0.885122       -24.0854
  52   2.0000      -0.846101       -23.0236
  53   2.0000      -0.819766       -22.3070
  54   2.0000      -0.800047       -21.7704
  55   2.0000      -0.793223       -21.5847
  56   2.0000      -0.773834       -21.0571
  57   2.0000      -0.764739       -20.8096
  58   2.0000      -0.730985       -19.8911
  59   2.0000      -0.714422       -19.4404
  60   2.0000      -0.692958       -18.8563
  61   2.0000      -0.653026       -17.7697
  62   2.0000      -0.648099       -17.6357
  63   2.0000      -0.637927       -17.3589
  64   2.0000      -0.635414       -17.2905
  65   2.0000      -0.617438       -16.8013
  66   2.0000      -0.605403       -16.4739
  67   2.0000      -0.596528       -16.2324
  68   2.0000      -0.591490       -16.0953
  69   2.0000      -0.589690       -16.0463
  70   2.0000      -0.585265       -15.9259
  71   2.0000      -0.577733       -15.7209
  72   2.0000      -0.577330       -15.7099
  73   2.0000      -0.550558       -14.9814
  74   2.0000      -0.532649       -14.4941
  75   2.0000      -0.520704       -14.1691
  76   2.0000      -0.502380       -13.6705
  77   2.0000      -0.495958       -13.4957
  78   2.0000      -0.490416       -13.3449
  79   2.0000      -0.482037       -13.1169
  80   2.0000      -0.480711       -13.0808
  81   2.0000      -0.477799       -13.0016
  82   2.0000      -0.473458       -12.8835
  83   2.0000      -0.469347       -12.7716
  84   2.0000      -0.468934       -12.7604
  85   2.0000      -0.456327       -12.4173
  86   2.0000      -0.452118       -12.3028
  87   2.0000      -0.451697       -12.2913
  88   2.0000      -0.447079       -12.1656
  89   2.0000      -0.444399       -12.0927
  90   2.0000      -0.442428       -12.0391
  91   2.0000      -0.436489       -11.8775
  92   2.0000      -0.430498       -11.7144
  93   2.0000      -0.429742       -11.6939
  94   2.0000      -0.429643       -11.6912
  95   2.0000      -0.423111       -11.5134
  96   2.0000      -0.421501       -11.4696
  97   2.0000      -0.419606       -11.4180
  98   2.0000      -0.411976       -11.2104
  99   2.0000      -0.403382       -10.9766
 100   2.0000      -0.395149       -10.7526
 101   2.0000      -0.389903       -10.6098
 102   2.0000      -0.388044       -10.5592
 103   2.0000      -0.385417       -10.4877
 104   2.0000      -0.374245       -10.1837
 105   2.0000      -0.370952       -10.0941
 106   2.0000      -0.368115       -10.0169
 107   2.0000      -0.341072        -9.2811
 108   2.0000      -0.317880        -8.6500
 109   2.0000      -0.300712        -8.1828
 110   2.0000      -0.286757        -7.8031
 111   2.0000      -0.282761        -7.6943
 112   2.0000      -0.276339        -7.5196
 113   2.0000      -0.273827        -7.4512
 114   2.0000      -0.272513        -7.4155
 115   2.0000      -0.262052        -7.1308
 116   2.0000      -0.254507        -6.9255
 117   0.0000      -0.059320        -1.6142
 118   0.0000      -0.055255        -1.5036
 119   0.0000      -0.040793        -1.1100
 120   0.0000      -0.035693        -0.9713
 121   0.0000      -0.023570        -0.6414

MULLIKEN ATOMIC CHARGES
-----------------------
   0 C :   -0.382413
   1 C :    0.077975
   2 N :   -0.363865
   3 C :    0.412238
   4 O :   -0.439046
   5 N :   -0.367066
   6 C :    0.210572
   7 C :    0.093005
   8 C :   -0.160358
   9 C :   -0.182883
  10 C :    0.054671
  11 C :    0.515051
  12 F :   -0.180981
  13 F :   -0.186450
  14 F :   -0.185624
  15 C :   -0.157367
  16 C :   -0.195105
  17 C :    0.204274
  18 N :   -0.250711
  19 C :   -0.050636
  20 C :   -0.088218
  21 C :   -0.157077
  22 C :   -0.038776
  23 Br:   -0.091034
  24 C :    0.506489
  25 F :   -0.189673
  26 F :   -0.179086
  27 F :   -0.179731
  28 H :    0.109726
  29 H :    0.120479
  30 H :    0.152860
  31 H :    0.118465
  32 H :    0.214959
  33 H :    0.218808
  34 H :    0.091813
  35 H :    0.146892
  36 H :    0.134727
  37 H :    0.133374
  38 H :    0.122470
  39 H :    0.130387
  40 H :    0.119187
  41 H :    0.137676
Sum of atomic charges:    0.0000000

LOEWDIN ATOMIC CHARGES
----------------------
   0 C :   -0.277866
   1 C :   -0.277743
   2 N :    0.091171
   3 C :   -0.445490
   4 O :    0.001082
   5 N :    0.093044
   6 C :   -0.204030
   7 C :   -0.101626
   8 C :   -0.096057
   9 C :   -0.085973
  10 C :   -0.123500
  11 C :   -0.513907
  12 F :    0.155559
  13 F :    0.155468
  14 F :    0.156274
  15 C :   -0.083767
  16 C :   -0.086810
  17 C :   -0.168536
  18 N :    0.166907
  19 C :   -0.182323
  20 C :   -0.143381
  21 C :   -0.126280
  22 C :   -0.331835
  23 Br:    0.345733
  24 C :   -0.531826
  25 F :    0.150484
  26 F :    0.158941
  27 F :    0.152173
  28 H :    0.125305
  29 H :    0.127988
  30 H :    0.136739
  31 H :    0.171444
  32 H :    0.189099
  33 H :    0.184762
  34 H :    0.178531
  35 H :    0.147684
  36 H :    0.152835
  37 H :    0.153575
  38 H :    0.151859
  39 H :    0.138401
  40 H :    0.146387
  41 H :    0.149504

  Mayer bond orders larger than 0.100000
B(  0-C ,  1-C ) :   0.9586 B(  0-C , 28-H ) :   0.9637 B(  0-C , 29-H ) :   0.9660
B(  0-C , 30-H ) :   0.9667 B(  1-C ,  2-N ) :   0.8955 B(  1-C , 24-C ) :   0.9735
B(  1-C , 31-H ) :   0.9459 B(  2-N ,  3-C ) :   1.1483 B(  2-N , 32-H ) :   0.9041
B(  3-C ,  4-O ) :   1.8560 B(  3-C ,  5-N ) :   1.1548 B(  5-N ,  6-C ) :   0.9464
B(  5-N , 33-H ) :   0.9004 B(  6-C ,  7-C ) :   0.8780 B(  6-C , 17-C ) :   0.9241
B(  6-C , 34-H ) :   0.9541 B(  7-C ,  8-C ) :   1.3535 B(  7-C , 16-C ) :   1.3890
B(  8-C ,  9-C ) :   1.4293 B(  8-C , 35-H ) :   0.9438 B(  9-C , 10-C ) :   1.3601
B(  9-C , 36-H ) :   0.9619 B( 10-C , 11-C ) :   1.0070 B( 10-C , 15-C ) :   1.3563
B( 11-C , 12-F ) :   1.1263 B( 11-C , 13-F ) :   1.1111 B( 11-C , 14-F ) :   1.1121
B( 15-C , 16-C ) :   1.4236 B( 15-C , 37-H ) :   0.9624 B( 16-C , 38-H ) :   0.9642
B( 17-C , 18-N ) :   1.4266 B( 17-C , 22-C ) :   1.2814 B( 18-N , 19-C ) :   1.5088
B( 19-C , 20-C ) :   1.3820 B( 19-C , 39-H ) :   0.9750 B( 20-C , 21-C ) :   1.4159
B( 20-C , 40-H ) :   0.9526 B( 21-C , 22-C ) :   1.4449 B( 21-C , 41-H ) :   0.9514
B( 22-C , 23-Br) :   1.0672 B( 24-C , 25-F ) :   1.0859 B( 24-C , 26-F ) :   1.1111
B( 24-C , 27-F ) :   1.1140

FINAL SINGLE POINT ENERGY     -4068.694393305730

DIPOLE MOMENT
-------------

Method             : SCF
Type of density    : Electron Density
Multiplicity       :   1
Irrep              :   0
Energy             : -4068.6943933057295908 Eh
Relativity type    :
Basis              : AO
                                X                 Y                 Z
Electronic contribution:     -3.239948649      -3.069146962     -26.086381872
Nuclear contribution   :      3.316613388       1.975831108      25.856507853
                        -----------------------------------------
Total Dipole Moment    :      0.076664740      -1.093315854      -0.229874019
                        -----------------------------------------
Magnitude (a.u.)       :      1.119847804
Magnitude (Debye)      :      2.846426908

Rotational constants in cm-1:             0.006470             0.002406             0.002038
Rotational constants in MHz :           193.951762            72.123952            61.102703

                             ****ORCA TERMINATED NORMALLY****
TOTAL RUN TIME: 0 days 0 hours 14 minutes 15 seconds 449 msec
