                         Program Version 6.0.0  -   RELEASE  -
|  1> ! B3LYP 6-31G* SP
|  2>
|  3> * xyz 0 1
|  4> C 0.0675 -2.9853 1.5211
|  5> C -0.7833 -1.7159 1.7021
|  6> C -2.2768 -1.9271 1.4786
|  7> C -3.1849 -1.0568 2.1147
|  8> C -4.5574 -1.1514 1.8604
|  9> C -5.0423 -2.1159 0.9716
| 10> F -6.3725 -2.2010 0.7211
| 11> C -4.1516 -2.9739 0.3263
| 12> C -2.7780 -2.8821 0.5709
| 13> N -0.2624 -0.6221 0.8498
| 14> C -0.5699 -0.5936 -0.5965
| 15> C -1.9027 0.0710 -0.8772
| 16> C -2.7304 -0.4348 -1.8972
| 17> C -3.9774 0.1412 -2.1482
| 18> C -4.4094 1.2349 -1.3931
| 19> C -3.5905 1.7743 -0.3849
| 20> C -4.0625 2.9168 0.4319
| 21> O -3.3080 3.4390 1.2975
| 22> O -5.3490 3.4225 0.2564
| 23> C -2.3282 1.1984 -0.1477
| 24> C 0.5677 0.4113 1.4359
| 25> O 0.4589 0.7008 2.6625
| 26> C 1.5398 1.1620 0.6278
| 27> C 1.2761 2.4889 0.2609
| 28> C 2.2020 3.1978 -0.5049
| 29> C 3.4043 2.5879 -0.8975
| 30> C 3.6842 1.2590 -0.5324
| 31> C 4.9915 0.6415 -0.8755
| 32> C 5.0707 -0.7033 -1.2898
| 33> C 6.3170 -1.2945 -1.5532
| 34> C 7.4917 -0.5529 -1.4092
| 35> C 7.4217 0.7861 -1.0028
| 36> C 6.1819 1.3810 -0.7464
| 37> C 2.7354 0.5445 0.2233
| 38> H -0.3499 -3.8174 2.1279
| 39> H 1.1092 -2.7889 1.8598
| 40> H 0.1160 -3.3042 0.4606
| 41> H -0.6687 -1.4481 2.7778
| 42> H -2.8258 -0.2857 2.7906
| 43> H -5.2453 -0.4685 2.3427
| 44> H -4.5238 -3.7110 -0.3731
| 45> H -2.1156 -3.5457 0.0333
| 46> H 0.2195 -0.0686 -1.1735
| 47> H -0.5789 -1.6340 -0.9903
| 48> H -2.4184 -1.2902 -2.4869
| 49> H -4.6133 -0.2660 -2.9257
| 50> H -5.3823 1.6589 -1.5996
| 51> H -5.6798 4.1999 0.8168
| 52> H -1.6975 1.6041 0.6348
| 53> H 0.3532 2.9751 0.5659
| 54> H 1.9929 4.2252 -0.7869
| 55> H 4.1092 3.1561 -1.4918
| 56> H 4.1723 -1.2949 -1.4157
| 57> H 6.3748 -2.3314 -1.8669
| 58> H 8.4497 -1.0129 -1.6066
| 59> H 8.3329 1.3592 -0.8847
| 60> H 6.1523 2.4130 -0.4073
| 61> H 2.9439 -0.4724 0.5422
| 62> *
| 63>
| 64>                          ****END OF INPUT****

CARTESIAN COORDINATES (ANGSTROEM)
---------------------------------
  C      0.067500   -2.985300    1.521100
  C     -0.783300   -1.715900    1.702100
  C     -2.276800   -1.927100    1.478600
  C     -3.184900   -1.056800    2.114700
  C     -4.557400   -1.151400    1.860400
  C     -5.042300   -2.115900    0.971600
  F     -6.372500   -2.201000    0.721100
  C     -4.151600   -2.973900    0.326300
  C     -2.778000   -2.882100    0.570900
  N     -0.262400   -0.622100    0.849800
  C     -0.569900   -0.593600   -0.596500
  C     -1.902700    0.071000   -0.877200
  C     -2.730400   -0.434800   -1.897200
  C     -3.977400    0.141200   -2.148200
  C     -4.409400    1.234900   -1.393100
  C     -3.590500    1.774300   -0.384900
  C     -4.062500    2.916800    0.431900
  O     -3.308000    3.439000    1.297500
  O     -5.349000    3.422500    0.256400
  C     -2.328200    1.198400   -0.147700
  C      0.567700    0.411300    1.435900
  O      0.458900    0.700800    2.662500
  C      1.539800    1.162000    0.627800
  C      1.276100    2.488900    0.260900
  C      2.202000    3.197800   -0.504900
  C      3.404300    2.587900   -0.897500
  C      3.684200    1.259000   -0.532400
  C      4.991500    0.641500   -0.875500
  C      5.070700   -0.703300   -1.289800
  C      6.317000   -1.294500   -1.553200
  C      7.491700   -0.552900   -1.409200
  C      7.421700    0.786100   -1.002800
  C      6.181900    1.381000   -0.746400
  C      2.735400    0.544500    0.223300
  H     -0.349900   -3.817400    2.127900
  H      1.109200   -2.788900    1.859800
  H      0.116000   -3.304200    0.460600
  H     -0.668700   -1.448100    2.777800
  H     -2.825800   -0.285700    2.790600
  H     -5.245300   -0.468500    2.342700
  H     -4.523800   -3.711000   -0.373100
  H     -2.115600   -3.545700    0.033300
  H      0.219500   -0.068600   -1.173500
  H     -0.578900   -1.634000   -0.990300
  H     -2.418400   -1.290200   -2.486900
  H     -4.613300   -0.266000   -2.925700
  H     -5.382300    1.658900   -1.599600
  H     -5.679800    4.199900    0.816800
  H     -1.697500    1.604100    0.634800
  H      0.353200    2.975100    0.565900
  H      1.992900    4.225200   -0.786900
  H      4.109200    3.156100   -1.491800
  H      4.172300   -1.294900   -1.415700
  H      6.374800   -2.331400   -1.866900
  H      8.449700   -1.012900   -1.606600
  H      8.332900    1.359200   -0.884700
  H      6.152300    2.413000   -0.407300
  H      2.943900   -0.472400    0.542200

 Total Charge           Charge          ....    0
 Multiplicity           Mult            ....    1
 Number of Electrons    NEL             ....  238
 Basis Dimension        Dim             ....  524

ORBITAL ENERGIES
----------------

  NO   OCC          E(Eh)            E(eV)
   0   2.0000     -24.695406      -671.9961
   1   2.0000     -19.181438      -521.9535
   2   2.0000     -19.120735      -520.3017
   3   2.0000     -19.111937      -520.0623
   4   2.0000     -14.357495      -390.6873
   5   2.0000     -10.317973      -280.7663
   6   2.0000     -10.286913      -279.9211
   7   2.0000     -10.266127      -279.3555
   8   2.0000     -10.229435      -278.3571
   9   2.0000     -10.226413      -278.2748
  10   2.0000     -10.205700      -277.7112
  11   2.0000     -10.200355      -277.5658
  12   2.0000     -10.199649      -277.5466
  13   2.0000     -10.199222      -277.5349
  14   2.0000     -10.195883      -277.4441
  15   2.0000     -10.194537      -277.4074
  16   2.0000     -10.192444      -277.3505
  17   2.0000     -10.191906      -277.3359
  18   2.0000     -10.191584      -277.3271
  19   2.0000     -10.191520      -277.3254
  20   2.0000     -10.190649      -277.3017
  21   2.0000     -10.189900      -277.2813
  22   2.0000     -10.188686      -277.2483
  23   2.0000     -10.188267      -277.2368
  24   2.0000     -10.187965      -277.2286
  25   2.0000     -10.187754      -277.2229
  26   2.0000     -10.187568      -277.2178
  27   2.0000     -10.186734      -277.1951
  28   2.0000     -10.185751      -277.1684
  29   2.0000     -10.185203      -277.1535
  30   2.0000     -10.184747      -277.1411
  31   2.0000     -10.184325      -277.1296
  32   2.0000     -10.183281      -277.1012
  33   2.0000     -10.179175      -276.9894
  34   2.0000      -1.208681       -32.8899
  35   2.0000      -1.065025       -28.9808
  36   2.0000      -1.008840       -27.4519
  37   2.0000      -0.978576       -26.6284
  38   2.0000      -0.922671       -25.1072
  39   2.0000      -0.867909       -23.6170
  40   2.0000      -0.860484       -23.4150
  41   2.0000      -0.855008       -23.2659
  42   2.0000      -0.844889       -22.9906
  43   2.0000      -0.790292       -21.5049
  44   2.0000      -0.780123       -21.2282
  45   2.0000      -0.770596       -20.9690
  46   2.0000      -0.759019       -20.6540
  47   2.0000      -0.752922       -20.4881
  48   2.0000      -0.750920       -20.4336
  49   2.0000      -0.742350       -20.2004
  50   2.0000      -0.722018       -19.6471
  51   2.0000      -0.720160       -19.5965
  52   2.0000      -0.690321       -18.7846
  53   2.0000      -0.657473       -17.8908
  54   2.0000      -0.652550       -17.7568
  55   2.0000      -0.626780       -17.0556
  56   2.0000      -0.625146       -17.0111
  57   2.0000      -0.615865       -16.7585
  58   2.0000      -0.602622       -16.3982
  59   2.0000      -0.597933       -16.2706
  60   2.0000      -0.590493       -16.0681
  61   2.0000      -0.587805       -15.9950
  62   2.0000      -0.574387       -15.6299
  63   2.0000      -0.547967       -14.9109
  64   2.0000      -0.536187       -14.5904
  65   2.0000      -0.531828       -14.4718
  66   2.0000      -0.518563       -14.1108
  67   2.0000      -0.502194       -13.6654
  68   2.0000      -0.495102       -13.4724
  69   2.0000      -0.490139       -13.3374
  70   2.0000      -0.488215       -13.2850
  71   2.0000      -0.480909       -13.0862
  72   2.0000      -0.467720       -12.7273
  73   2.0000      -0.466262       -12.6876
  74   2.0000      -0.456832       -12.4310
  75   2.0000      -0.452197       -12.3049
  76   2.0000      -0.450527       -12.2595
  77   2.0000      -0.448132       -12.1943
  78   2.0000      -0.445241       -12.1156
  79   2.0000      -0.439751       -11.9662
  80   2.0000      -0.436316       -11.8728
  81   2.0000      -0.434145       -11.8137
  82   2.0000      -0.430652       -11.7186
  83   2.0000      -0.424237       -11.5441
  84   2.0000      -0.423515       -11.5244
  85   2.0000      -0.420327       -11.4377
  86   2.0000      -0.419065       -11.4034
  87   2.0000      -0.411165       -11.1884
  88   2.0000      -0.407696       -11.0940
  89   2.0000      -0.400180       -10.8895
  90   2.0000      -0.394315       -10.7299
  91   2.0000      -0.385003       -10.4765
  92   2.0000      -0.380266       -10.3476
  93   2.0000      -0.375954       -10.2302
  94   2.0000      -0.369951       -10.0669
  95   2.0000      -0.366539        -9.9740
  96   2.0000      -0.366030        -9.9602
  97   2.0000      -0.360434        -9.8079
  98   2.0000      -0.357357        -9.7242
  99   2.0000      -0.356494        -9.7007
 100   2.0000      -0.351385        -9.5617
 101   2.0000      -0.344266        -9.3679
 102   2.0000      -0.342327        -9.3152
 103   2.0000      -0.340985        -9.2787
 104   2.0000      -0.339347        -9.2341
 105   2.0000      -0.332469        -9.0469
 106   2.0000      -0.331849        -9.0301
 107   2.0000      -0.301875        -8.2144
 108   2.0000      -0.277466        -7.5502
 109   2.0000      -0.265824        -7.2334
 110   2.0000      -0.263707        -7.1758
 111   2.0000      -0.258214        -7.0264
 112   2.0000      -0.255652        -6.9566
 113   2.0000      -0.249447        -6.7878
 114   2.0000      -0.245090        -6.6692
 115   2.0000      -0.240489        -6.5440
 116   2.0000      -0.230447        -6.2708
 117   2.0000      -0.227038        -6.1780
 118   2.0000      -0.225619        -6.1394
 119   0.0000      -0.050945        -1.3863
 120   0.0000      -0.028632        -0.7791
 121   0.0000      -0.020255        -0.5512
 122   0.0000      -0.017535        -0.4771
 123   0.0000      -0.004532        -0.1233

MULLIKEN ATOMIC CHARGES
-----------------------
   0 C :   -0.447182
   1 C :   -0.041010
   2 C :    0.119793
   3 C :   -0.154718
   4 C :   -0.205991
   5 C :    0.414213
   6 F :   -0.320151
   7 C :   -0.209786
   8 C :   -0.161370
   9 N :   -0.404616
  10 C :   -0.253956
  11 C :    0.169061
  12 C :   -0.157200
  13 C :   -0.125774
  14 C :   -0.161584
  15 C :    0.089181
  16 C :    0.516572
  17 O :   -0.455687
  18 O :   -0.626278
  19 C :   -0.209690
  20 C :    0.424675
  21 O :   -0.464523
  22 C :    0.082958
  23 C :   -0.156546
  24 C :   -0.133748
  25 C :   -0.166416
  26 C :    0.077923
  27 C :    0.078935
  28 C :   -0.169256
  29 C :   -0.131627
  30 C :   -0.121410
  31 C :   -0.132041
  32 C :   -0.164260
  33 C :   -0.198807
  34 H :    0.154705
  35 H :    0.154477
  36 H :    0.138149
  37 H :    0.183654
  38 H :    0.163827
  39 H :    0.147183
  40 H :    0.138343
  41 H :    0.128319
  42 H :    0.187270
  43 H :    0.148637
  44 H :    0.126382
  45 H :    0.135190
  46 H :    0.154719
  47 H :    0.427595
  48 H :    0.179497
  49 H :    0.164174
  50 H :    0.138938
  51 H :    0.136036
  52 H :    0.126868
  53 H :    0.129152
  54 H :    0.129400
  55 H :    0.131078
  56 H :    0.134939
  57 H :    0.141783
Sum of atomic charges:    0.0000000

LOEWDIN ATOMIC CHARGES
----------------------
   0 C :   -0.359367
   1 C :   -0.050763
   2 C :   -0.035368
   3 C :   -0.108412
   4 C :   -0.152116
   5 C :    0.117502
   6 F :   -0.105817
   7 C :   -0.158886
   8 C :   -0.130340
   9 N :   -0.098901
  10 C :   -0.150773
  11 C :   -0.024464
  12 C :   -0.111009
  13 C :   -0.127987
  14 C :   -0.106699
  15 C :   -0.056817
  16 C :    0.178577
  17 O :   -0.273451
  18 O :   -0.339029
  19 C :   -0.092309
  20 C :    0.142035
  21 O :   -0.271167
  22 C :   -0.038211
  23 C :   -0.117932
  24 C :   -0.122245
  25 C :   -0.124760
  26 C :   -0.010967
  27 C :   -0.014142
  28 C :   -0.129799
  29 C :   -0.127037
  30 C :   -0.130358
  31 C :   -0.126078
  32 C :   -0.126102
  33 C :   -0.121770
  34 H :    0.132235
  35 H :    0.130500
  36 H :    0.117855
  37 H :    0.153459
  38 H :    0.147571
  39 H :    0.144202
  40 H :    0.139962
  41 H :    0.132182
  42 H :    0.151188
  43 H :    0.125411
  44 H :    0.130773
  45 H :    0.134985
  46 H :    0.145612
  47 H :    0.345277
  48 H :    0.153887
  49 H :    0.146476
  50 H :    0.136738
  51 H :    0.135926
  52 H :    0.131304
  53 H :    0.131550
  54 H :    0.132136
  55 H :    0.132732
  56 H :    0.134730
  57 H :    0.138272

  Mayer bond orders larger than 0.100000
B(  0-C ,  1-C ) :   0.9899 B(  0-C , 34-H ) :   0.9405 B(  0-C , 35-H ) :   0.9446
B(  0-C , 36-H ) :   0.9387 B(  1-C ,  2-C ) :   0.9792 B(  1-C ,  9-N ) :   0.9145
B(  1-C , 37-H ) :   0.9034 B(  2-C ,  3-C ) :   1.4182 B(  2-C ,  8-C ) :   1.4282
B(  3-C ,  4-C ) :   1.4246 B(  3-C , 38-H ) :   0.9169 B(  4-C ,  5-C ) :   1.3858
B(  4-C , 39-H ) :   0.9203 B(  5-C ,  6-F ) :   0.9160 B(  5-C ,  7-C ) :   1.3996
B(  7-C ,  8-C ) :   1.4114 B(  7-C , 40-H ) :   0.9217 B(  8-C , 41-H ) :   0.9216
B(  9-N , 10-C ) :   0.9654 B(  9-N , 20-C ) :   1.0552 B( 10-C , 11-C ) :   0.9411
B( 10-C , 42-H ) :   0.9050 B( 10-C , 43-H ) :   0.9220 B( 11-C , 12-C ) :   1.4149
B( 11-C , 19-C ) :   1.4039 B( 12-C , 13-C ) :   1.4372 B( 12-C , 44-H ) :   0.9245
B( 13-C , 14-C ) :   1.4324 B( 13-C , 45-H ) :   0.9289 B( 14-C , 15-C ) :   1.3824
B( 14-C , 46-H ) :   0.9182 B( 15-C , 16-C ) :   1.0106 B( 15-C , 19-C ) :   1.3890
B( 16-C , 17-O ) :   1.8507 B( 16-C , 18-O ) :   1.0171 B( 18-O , 47-H ) :   0.7458
B( 19-C , 48-H ) :   0.8910 B( 20-C , 21-O ) :   1.8088 B( 20-C , 22-C ) :   0.9284
B( 22-C , 23-C ) :   1.4166 B( 22-C , 33-C ) :   1.3941 B( 23-C , 24-C ) :   1.4374
B( 23-C , 49-H ) :   0.9156 B( 24-C , 25-C ) :   1.4285 B( 24-C , 50-H ) :   0.9276
B( 25-C , 26-C ) :   1.4121 B( 25-C , 51-H ) :   0.9216 B( 26-C , 27-C ) :   1.0011
B( 26-C , 33-C ) :   1.3898 B( 27-C , 28-C ) :   1.4100 B( 27-C , 32-C ) :   1.4105
B( 28-C , 29-C ) :   1.4335 B( 28-C , 52-H ) :   0.9234 B( 29-C , 30-C ) :   1.4552
B( 29-C , 53-H ) :   0.9298 B( 30-C , 31-C ) :   1.4464 B( 30-C , 54-H ) :   0.9301
B( 31-C , 32-C ) :   1.4424 B( 31-C , 55-H ) :   0.9294 B( 32-C , 56-H ) :   0.9210
B( 33-C , 57-H ) :   0.9158

FINAL SINGLE POINT ENERGY     -1498.891753440986

DIPOLE MOMENT
-------------

Method             : SCF
Type of density    : Electron Density
Multiplicity       :   1
Irrep              :   0
Energy             : -1498.8917534409861219 Eh
Relativity type    :
Basis              : AO
                                X                 Y                 Z
Electronic contribution:    -21.278093581       6.781462371       4.569445807
Nuclear contribution   :     21.528351157      -7.494489091      -6.196975629
                        -----------------------------------------
Total Dipole Moment    :      0.250257576      -0.713026720      -1.627529822
                        -----------------------------------------
Magnitude (a.u.)       :      1.794404993
Magnitude (Debye)      :      4.561015023

Rotational constants in cm-1:             0.007587             0.002134             0.001883
Rotational constants in MHz :           227.459488            63.976747            56.449322

                             ****ORCA TERMINATED NORMALLY****
TOTAL RUN TIME: 0 days 0 hours 6 minutes 39 seconds 998 msec
