                         Program Version 6.0.0  -   RELEASE  -
|  1> ! B3LYP 6-31G* SP
|  2>
|  3> * xyz 0 1
|  4> C 5.8293 -1.0203 1.0549
|  5> C 5.4323 -0.5715 -0.3453
|  6> N 4.2643 0.2974 -0.2818
|  7> N 4.3173 1.6092 -0.1314
|  8> N 3.0830 2.0788 -0.0527
|  9> C 2.2868 0.9948 -0.1526
| 10> C 0.8137 1.0114 -0.1092
| 11> S -0.1345 -0.3750 -0.2155
| 12> C -1.5951 0.4547 -0.0915
| 13> C -2.9442 -0.1562 -0.1103
| 14> C -3.1074 -1.5481 -0.2401
| 15> C -4.3863 -2.1132 -0.2565
| 16> C -5.5174 -1.3002 -0.1441
| 17> O -6.7849 -1.8777 -0.1621
| 18> C -5.3655 0.0859 -0.0145
| 19> C -4.0884 0.6546 0.0023
| 20> N -1.3791 1.7842 0.0308
| 21> C -0.0567 2.1039 0.0221
| 22> O 0.3430 3.4343 0.1373
| 23> N 3.0142 -0.1316 -0.2892
| 24> H 6.7195 -1.6814 0.9970
| 25> H 6.0773 -0.1380 1.6824
| 26> H 4.9951 -1.5817 1.5267
| 27> H 6.2794 -0.0263 -0.8149
| 28> H 5.2022 -1.4620 -0.9694
| 29> H -2.2509 -2.2034 -0.3290
| 30> H -4.4983 -3.1854 -0.3569
| 31> H -7.6242 -1.3154 -0.0826
| 32> H -6.2360 0.7235 0.0731
| 33> H -3.9976 1.7289 0.1035
| 34> H 1.3092 3.7258 0.1317
| 35> *
| 36>
| 37>                          ****END OF INPUT****

CARTESIAN COORDINATES (ANGSTROEM)
---------------------------------
  C      5.829300   -1.020300    1.054900
  C      5.432300   -0.571500   -0.345300
  N      4.264300    0.297400   -0.281800
  N      4.317300    1.609200   -0.131400
  N      3.083000    2.078800   -0.052700
  C      2.286800    0.994800   -0.152600
  C      0.813700    1.011400   -0.109200
  S     -0.134500   -0.375000   -0.215500
  C     -1.595100    0.454700   -0.091500
  C     -2.944200   -0.156200   -0.110300
  C     -3.107400   -1.548100   -0.240100
  C     -4.386300   -2.113200   -0.256500
  C     -5.517400   -1.300200   -0.144100
  O     -6.784900   -1.877700   -0.162100
  C     -5.365500    0.085900   -0.014500
  C     -4.088400    0.654600    0.002300
  N     -1.379100    1.784200    0.030800
  C     -0.056700    2.103900    0.022100
  O      0.343000    3.434300    0.137300
  N      3.014200   -0.131600   -0.289200
  H      6.719500   -1.681400    0.997000
  H      6.077300   -0.138000    1.682400
  H      4.995100   -1.581700    1.526700
  H      6.279400   -0.026300   -0.814900
  H      5.202200   -1.462000   -0.969400
  H     -2.250900   -2.203400   -0.329000
  H     -4.498300   -3.185400   -0.356900
  H     -7.624200   -1.315400   -0.082600
  H     -6.236000    0.723500    0.073100
  H     -3.997600    1.728900    0.103500
  H      1.309200    3.725800    0.131700

 Total Charge           Charge          ....    0
 Multiplicity           Mult            ....    1
 Number of Electrons    NEL             ....  150
 Basis Dimension        Dim             ....  306

ORBITAL ENERGIES
----------------

  NO   OCC          E(Eh)            E(eV)
   0   2.0000     -88.894364     -2418.9386
   1   2.0000     -19.173095      -521.7265
   2   2.0000     -19.162043      -521.4257
   3   2.0000     -14.463245      -393.5649
   4   2.0000     -14.402956      -391.9244
   5   2.0000     -14.370796      -391.0492
   6   2.0000     -14.367138      -390.9497
   7   2.0000     -14.325115      -389.8062
   8   2.0000     -10.281128      -279.7637
   9   2.0000     -10.259807      -279.1835
  10   2.0000     -10.255718      -279.0723
  11   2.0000     -10.254043      -279.0267
  12   2.0000     -10.252030      -278.9719
  13   2.0000     -10.214899      -277.9615
  14   2.0000     -10.202469      -277.6233
  15   2.0000     -10.197243      -277.4811
  16   2.0000     -10.195644      -277.4376
  17   2.0000     -10.190030      -277.2848
  18   2.0000     -10.187431      -277.2141
  19   2.0000     -10.186766      -277.1960
  20   2.0000      -7.971402      -216.9129
  21   2.0000      -5.934308      -161.4807
  22   2.0000      -5.930425      -161.3751
  23   2.0000      -5.928434      -161.3209
  24   2.0000      -1.150860       -31.3165
  25   2.0000      -1.037630       -28.2354
  26   2.0000      -1.031768       -28.0758
  27   2.0000      -0.954697       -25.9786
  28   2.0000      -0.953945       -25.9582
  29   2.0000      -0.899636       -24.4803
  30   2.0000      -0.856498       -23.3065
  31   2.0000      -0.812949       -22.1215
  32   2.0000      -0.793095       -21.5812
  33   2.0000      -0.772765       -21.0280
  34   2.0000      -0.751693       -20.4546
  35   2.0000      -0.720903       -19.6168
  36   2.0000      -0.690060       -18.7775
  37   2.0000      -0.666400       -18.1337
  38   2.0000      -0.628982       -17.1155
  39   2.0000      -0.620456       -16.8835
  40   2.0000      -0.614238       -16.7143
  41   2.0000      -0.591364       -16.0918
  42   2.0000      -0.561308       -15.2740
  43   2.0000      -0.550503       -14.9800
  44   2.0000      -0.549658       -14.9569
  45   2.0000      -0.516391       -14.0517
  46   2.0000      -0.500491       -13.6190
  47   2.0000      -0.482231       -13.1222
  48   2.0000      -0.479645       -13.0518
  49   2.0000      -0.466630       -12.6977
  50   2.0000      -0.453097       -12.3294
  51   2.0000      -0.439421       -11.9572
  52   2.0000      -0.433816       -11.8047
  53   2.0000      -0.425259       -11.5719
  54   2.0000      -0.416757       -11.3405
  55   2.0000      -0.403581       -10.9820
  56   2.0000      -0.402276       -10.9465
  57   2.0000      -0.398086       -10.8325
  58   2.0000      -0.388471       -10.5708
  59   2.0000      -0.380543       -10.3551
  60   2.0000      -0.373548       -10.1648
  61   2.0000      -0.367614       -10.0033
  62   2.0000      -0.358582        -9.7575
  63   2.0000      -0.337959        -9.1963
  64   2.0000      -0.333505        -9.0751
  65   2.0000      -0.333190        -9.0666
  66   2.0000      -0.318363        -8.6631
  67   2.0000      -0.312163        -8.4944
  68   2.0000      -0.303824        -8.2675
  69   2.0000      -0.295769        -8.0483
  70   2.0000      -0.265853        -7.2342
  71   2.0000      -0.265411        -7.2222
  72   2.0000      -0.255428        -6.9505
  73   2.0000      -0.241116        -6.5611
  74   2.0000      -0.197454        -5.3730
  75   0.0000      -0.053103        -1.4450
  76   0.0000      -0.023929        -0.6512
  77   0.0000      -0.006928        -0.1885
  78   0.0000       0.013990         0.3807
  79   0.0000       0.038486         1.0473

MULLIKEN ATOMIC CHARGES
-----------------------
   0 C :   -0.446012
   1 C :   -0.146097
   2 N :   -0.031531
   3 N :   -0.055050
   4 N :   -0.366774
   5 C :    0.431915
   6 C :   -0.249399
   7 S :    0.274488
   8 C :   -0.011779
   9 C :    0.130463
  10 C :   -0.185797
  11 C :   -0.174678
  12 C :    0.396255
  13 O :   -0.669759
  14 C :   -0.202924
  15 C :   -0.151773
  16 N :   -0.410343
  17 C :    0.496164
  18 O :   -0.656930
  19 N :   -0.318976
  20 H :    0.159187
  21 H :    0.174359
  22 H :    0.175180
  23 H :    0.189970
  24 H :    0.190094
  25 H :    0.152474
  26 H :    0.145426
  27 H :    0.417528
  28 H :    0.126737
  29 H :    0.169891
  30 H :    0.447692
Sum of atomic charges:   -0.0000000

LOEWDIN ATOMIC CHARGES
----------------------
   0 C :   -0.362231
   1 C :   -0.152752
   2 N :    0.100055
   3 N :   -0.072637
   4 N :   -0.144088
   5 C :   -0.000869
   6 C :   -0.271990
   7 S :    0.406475
   8 C :   -0.111388
   9 C :   -0.048146
  10 C :   -0.112002
  11 C :   -0.150022
  12 C :    0.091290
  13 O :   -0.343412
  14 C :   -0.169470
  15 C :   -0.093946
  16 N :   -0.167271
  17 C :    0.103582
  18 O :   -0.336871
  19 N :   -0.140070
  20 H :    0.136000
  21 H :    0.139134
  22 H :    0.139420
  23 H :    0.150886
  24 H :    0.151229
  25 H :    0.143154
  26 H :    0.144402
  27 H :    0.336290
  28 H :    0.132563
  29 H :    0.153847
  30 H :    0.348838

  Mayer bond orders larger than 0.100000
B(  0-C ,  1-C ) :   1.0034 B(  0-C , 20-H ) :   0.9419 B(  0-C , 21-H ) :   0.9438
B(  0-C , 22-H ) :   0.9434 B(  1-C ,  2-N ) :   0.8971 B(  1-C , 23-H ) :   0.9265
B(  1-C , 24-H ) :   0.9260 B(  2-N ,  3-N ) :   1.2529 B(  2-N , 19-N ) :   1.2222
B(  3-N ,  4-N ) :   1.4196 B(  3-N , 19-N ) :   0.1307 B(  4-N ,  5-C ) :   1.2754
B(  5-C ,  6-C ) :   1.0566 B(  5-C , 19-N ) :   1.3686 B(  6-C ,  7-S ) :   1.0706
B(  6-C ,  8-C ) :   0.1183 B(  6-C , 17-C ) :   1.3853 B(  7-S ,  8-C ) :   1.1458
B(  8-C ,  9-C ) :   1.0295 B(  8-C , 16-N ) :   1.4340 B(  9-C , 10-C ) :   1.3814
B(  9-C , 15-C ) :   1.3986 B( 10-C , 11-C ) :   1.4554 B( 10-C , 25-H ) :   0.9155
B( 11-C , 12-C ) :   1.3932 B( 11-C , 26-H ) :   0.9192 B( 12-C , 13-O ) :   0.9142
B( 12-C , 14-C ) :   1.3650 B( 13-O , 27-H ) :   0.7666 B( 14-C , 15-C ) :   1.4373
B( 14-C , 28-H ) :   0.9254 B( 15-C , 29-H ) :   0.9084 B( 16-N , 17-C ) :   1.3143
B( 17-C , 18-O ) :   1.0157 B( 18-O , 30-H ) :   0.7153

FINAL SINGLE POINT ENERGY     -1285.645800694357

DIPOLE MOMENT
-------------

Method             : SCF
Type of density    : Electron Density
Multiplicity       :   1
Irrep              :   0
Energy             : -1285.6458006943566943 Eh
Relativity type    :
Basis              : AO
                                X                 Y                 Z
Electronic contribution:     -7.585578569       6.312663270      -2.580229992
Nuclear contribution   :      8.005672965      -7.502559676       2.560983502
                        -----------------------------------------
Total Dipole Moment    :      0.420094396      -1.189896406      -0.019246490
                        -----------------------------------------
Magnitude (a.u.)       :      1.262023449
Magnitude (Debye)      :      3.207808680

Rotational constants in cm-1:             0.029766             0.004032             0.003592
Rotational constants in MHz :           892.360783           120.870323           107.686449

                             ****ORCA TERMINATED NORMALLY****
TOTAL RUN TIME: 0 days 0 hours 2 minutes 21 seconds 112 msec
