                         Program Version 6.0.0  -   RELEASE  -
|  1> ! B3LYP 6-31G* SP
|  2>
|  3> * xyz 0 1
|  4> N -1.8938 -1.8100 4.0825
|  5> C -1.1756 -0.8291 3.3330
|  6> O -0.9414 0.2943 3.8541
|  7> C -0.6567 -1.1606 1.9520
|  8> C -1.7428 -1.7003 1.0354
|  9> C -1.4412 -2.7456 0.1434
| 10> C -2.4091 -3.2199 -0.7466
| 11> C -3.6856 -2.6538 -0.7607
| 12> C -3.9962 -1.6103 0.1137
| 13> C -3.0319 -1.1314 1.0050
| 14> N 0.0367 -0.0093 1.3360
| 15> C -0.7255 1.0547 0.7221
| 16> O -1.5087 1.7429 1.4310
| 17> C -0.5899 1.3671 -0.7161
| 18> C -0.3418 0.3495 -1.6521
| 19> C -0.1905 0.6563 -3.0071
| 20> C -0.2990 1.9794 -3.4416
| 21> C -0.5684 2.9959 -2.5221
| 22> C -0.7198 2.6925 -1.1655
| 23> C 1.4938 0.1451 1.5488
| 24> C 1.8693 1.5477 2.0905
| 25> C 2.5099 2.3225 0.9230
| 26> C 2.7782 1.2735 -0.0891
| 27> C 3.4738 1.4269 -1.2906
| 28> C 3.6281 0.3110 -2.1279
| 29> C 3.0921 -0.9343 -1.7529
| 30> C 2.3906 -1.0648 -0.5448
| 31> C 2.2326 0.0636 0.2646
| 32> H -2.2487 -1.5865 5.0387
| 33> H -2.0645 -2.7623 3.6898
| 34> H 0.0791 -1.9809 2.1069
| 35> H -0.4524 -3.1867 0.1284
| 36> H -2.1671 -4.0237 -1.4297
| 37> H -4.4329 -3.0211 -1.4520
| 38> H -4.9843 -1.1687 0.0982
| 39> H -3.2913 -0.3157 1.6672
| 40> H -0.2653 -0.6813 -1.3380
| 41> H 0.0113 -0.1324 -3.7202
| 42> H -0.1796 2.2162 -4.4909
| 43> H -0.6567 4.0204 -2.8599
| 44> H -0.9164 3.4944 -0.4649
| 45> H 1.8831 -0.6322 2.2431
| 46> H 2.6198 1.4346 2.9039
| 47> H 0.9990 2.0962 2.5097
| 48> H 1.7989 3.0699 0.5107
| 49> H 3.4527 2.8191 1.2381
| 50> H 3.8878 2.3868 -1.5711
| 51> H 4.1630 0.4086 -3.0634
| 52> H 3.2145 -1.7922 -2.4008
| 53> H 1.9624 -2.0162 -0.2565
| 54> *
| 55>
| 56>                          ****END OF INPUT****

CARTESIAN COORDINATES (ANGSTROEM)
---------------------------------
  N     -1.893800   -1.810000    4.082500
  C     -1.175600   -0.829100    3.333000
  O     -0.941400    0.294300    3.854100
  C     -0.656700   -1.160600    1.952000
  C     -1.742800   -1.700300    1.035400
  C     -1.441200   -2.745600    0.143400
  C     -2.409100   -3.219900   -0.746600
  C     -3.685600   -2.653800   -0.760700
  C     -3.996200   -1.610300    0.113700
  C     -3.031900   -1.131400    1.005000
  N      0.036700   -0.009300    1.336000
  C     -0.725500    1.054700    0.722100
  O     -1.508700    1.742900    1.431000
  C     -0.589900    1.367100   -0.716100
  C     -0.341800    0.349500   -1.652100
  C     -0.190500    0.656300   -3.007100
  C     -0.299000    1.979400   -3.441600
  C     -0.568400    2.995900   -2.522100
  C     -0.719800    2.692500   -1.165500
  C      1.493800    0.145100    1.548800
  C      1.869300    1.547700    2.090500
  C      2.509900    2.322500    0.923000
  C      2.778200    1.273500   -0.089100
  C      3.473800    1.426900   -1.290600
  C      3.628100    0.311000   -2.127900
  C      3.092100   -0.934300   -1.752900
  C      2.390600   -1.064800   -0.544800
  C      2.232600    0.063600    0.264600
  H     -2.248700   -1.586500    5.038700
  H     -2.064500   -2.762300    3.689800
  H      0.079100   -1.980900    2.106900
  H     -0.452400   -3.186700    0.128400
  H     -2.167100   -4.023700   -1.429700
  H     -4.432900   -3.021100   -1.452000
  H     -4.984300   -1.168700    0.098200
  H     -3.291300   -0.315700    1.667200
  H     -0.265300   -0.681300   -1.338000
  H      0.011300   -0.132400   -3.720200
  H     -0.179600    2.216200   -4.490900
  H     -0.656700    4.020400   -2.859900
  H     -0.916400    3.494400   -0.464900
  H      1.883100   -0.632200    2.243100
  H      2.619800    1.434600    2.903900
  H      0.999000    2.096200    2.509700
  H      1.798900    3.069900    0.510700
  H      3.452700    2.819100    1.238100
  H      3.887800    2.386800   -1.571100
  H      4.163000    0.408600   -3.063400
  H      3.214500   -1.792200   -2.400800
  H      1.962400   -2.016200   -0.256500

 Total Charge           Charge          ....    0
 Multiplicity           Mult            ....    1
 Number of Electrons    NEL             ....  196
 Basis Dimension        Dim             ....  436

ORBITAL ENERGIES
----------------

  NO   OCC          E(Eh)            E(eV)
   0   2.0000     -19.114290      -520.1263
   1   2.0000     -19.096308      -519.6370
   2   2.0000     -14.344280      -390.3277
   3   2.0000     -14.324153      -389.7800
   4   2.0000     -10.281557      -279.7754
   5   2.0000     -10.276506      -279.6379
   6   2.0000     -10.234602      -278.4977
   7   2.0000     -10.212517      -277.8967
   8   2.0000     -10.197933      -277.4999
   9   2.0000     -10.189337      -277.2659
  10   2.0000     -10.187100      -277.2051
  11   2.0000     -10.186889      -277.1993
  12   2.0000     -10.185281      -277.1556
  13   2.0000     -10.184180      -277.1256
  14   2.0000     -10.183171      -277.0982
  15   2.0000     -10.183002      -277.0936
  16   2.0000     -10.181512      -277.0530
  17   2.0000     -10.180192      -277.0171
  18   2.0000     -10.179311      -276.9931
  19   2.0000     -10.178530      -276.9719
  20   2.0000     -10.176261      -276.9102
  21   2.0000     -10.175889      -276.9000
  22   2.0000     -10.175490      -276.8892
  23   2.0000     -10.172034      -276.7951
  24   2.0000     -10.169489      -276.7259
  25   2.0000     -10.166689      -276.6497
  26   2.0000     -10.165896      -276.6281
  27   2.0000     -10.160718      -276.4872
  28   2.0000      -1.009310       -27.4647
  29   2.0000      -0.993232       -27.0272
  30   2.0000      -0.910572       -24.7779
  31   2.0000      -0.870357       -23.6836
  32   2.0000      -0.859903       -23.3992
  33   2.0000      -0.848793       -23.0968
  34   2.0000      -0.847445       -23.0602
  35   2.0000      -0.798369       -21.7247
  36   2.0000      -0.770728       -20.9726
  37   2.0000      -0.752990       -20.4899
  38   2.0000      -0.746293       -20.3077
  39   2.0000      -0.742028       -20.1916
  40   2.0000      -0.739030       -20.1100
  41   2.0000      -0.705461       -19.1966
  42   2.0000      -0.699366       -19.0307
  43   2.0000      -0.678016       -18.4498
  44   2.0000      -0.626066       -17.0361
  45   2.0000      -0.610037       -16.6000
  46   2.0000      -0.600971       -16.3533
  47   2.0000      -0.600009       -16.3271
  48   2.0000      -0.596859       -16.2414
  49   2.0000      -0.580458       -15.7951
  50   2.0000      -0.565821       -15.3968
  51   2.0000      -0.562747       -15.3131
  52   2.0000      -0.536362       -14.5952
  53   2.0000      -0.520727       -14.1697
  54   2.0000      -0.517249       -14.0751
  55   2.0000      -0.504366       -13.7245
  56   2.0000      -0.487942       -13.2776
  57   2.0000      -0.485846       -13.2206
  58   2.0000      -0.473280       -12.8786
  59   2.0000      -0.466989       -12.7074
  60   2.0000      -0.455994       -12.4082
  61   2.0000      -0.450315       -12.2537
  62   2.0000      -0.447467       -12.1762
  63   2.0000      -0.443024       -12.0553
  64   2.0000      -0.436143       -11.8681
  65   2.0000      -0.430696       -11.7198
  66   2.0000      -0.429015       -11.6741
  67   2.0000      -0.422850       -11.5063
  68   2.0000      -0.418379       -11.3847
  69   2.0000      -0.415460       -11.3053
  70   2.0000      -0.407743       -11.0953
  71   2.0000      -0.400853       -10.9078
  72   2.0000      -0.397345       -10.8123
  73   2.0000      -0.381561       -10.3828
  74   2.0000      -0.372893       -10.1469
  75   2.0000      -0.366609        -9.9759
  76   2.0000      -0.360850        -9.8192
  77   2.0000      -0.358101        -9.7444
  78   2.0000      -0.351066        -9.5530
  79   2.0000      -0.347861        -9.4658
  80   2.0000      -0.344466        -9.3734
  81   2.0000      -0.340464        -9.2645
  82   2.0000      -0.339512        -9.2386
  83   2.0000      -0.333288        -9.0692
  84   2.0000      -0.332044        -9.0354
  85   2.0000      -0.325762        -8.8644
  86   2.0000      -0.323085        -8.7916
  87   2.0000      -0.322069        -8.7639
  88   2.0000      -0.261040        -7.1033
  89   2.0000      -0.254542        -6.9265
  90   2.0000      -0.251219        -6.8360
  91   2.0000      -0.247951        -6.7471
  92   2.0000      -0.245151        -6.6709
  93   2.0000      -0.239165        -6.5080
  94   2.0000      -0.233486        -6.3535
  95   2.0000      -0.227231        -6.1833
  96   2.0000      -0.226005        -6.1499
  97   2.0000      -0.202083        -5.4990
  98   0.0000      -0.046044        -1.2529
  99   0.0000      -0.012926        -0.3517
 100   0.0000      -0.004513        -0.1228
 101   0.0000       0.000760         0.0207
 102   0.0000       0.005137         0.1398

MULLIKEN ATOMIC CHARGES
-----------------------
   0 N :   -0.767853
   1 C :    0.569813
   2 O :   -0.457694
   3 C :   -0.142343
   4 C :    0.121675
   5 C :   -0.190514
   6 C :   -0.127622
   7 C :   -0.122211
   8 C :   -0.130852
   9 C :   -0.165375
  10 N :   -0.416316
  11 C :    0.426357
  12 O :   -0.421789
  13 C :    0.107776
  14 C :   -0.133241
  15 C :   -0.129983
  16 C :   -0.115217
  17 C :   -0.134936
  18 C :   -0.153069
  19 C :   -0.077261
  20 C :   -0.305626
  21 C :   -0.359117
  22 C :    0.137217
  23 C :   -0.175804
  24 C :   -0.128272
  25 C :   -0.133934
  26 C :   -0.188158
  27 C :    0.146241
  28 H :    0.347446
  29 H :    0.327817
  30 H :    0.153219
  31 H :    0.127201
  32 H :    0.129305
  33 H :    0.130510
  34 H :    0.137063
  35 H :    0.173079
  36 H :    0.146338
  37 H :    0.127565
  38 H :    0.129057
  39 H :    0.130679
  40 H :    0.151790
  41 H :    0.148161
  42 H :    0.138629
  43 H :    0.192985
  44 H :    0.155697
  45 H :    0.145793
  46 H :    0.121485
  47 H :    0.122067
  48 H :    0.119104
  49 H :    0.113116
Sum of atomic charges:    0.0000000

LOEWDIN ATOMIC CHARGES
----------------------
   0 N :   -0.409924
   1 C :    0.125724
   2 O :   -0.270443
   3 C :   -0.064877
   4 C :   -0.032689
   5 C :   -0.138031
   6 C :   -0.131934
   7 C :   -0.126179
   8 C :   -0.124267
   9 C :   -0.122599
  10 N :   -0.123899
  11 C :    0.159291
  12 O :   -0.222049
  13 C :   -0.052323
  14 C :   -0.095703
  15 C :   -0.128982
  16 C :   -0.114963
  17 C :   -0.134180
  18 C :   -0.101007
  19 C :   -0.042801
  20 C :   -0.233005
  21 C :   -0.231109
  22 C :   -0.018714
  23 C :   -0.128530
  24 C :   -0.127796
  25 C :   -0.136402
  26 C :   -0.131271
  27 C :   -0.033621
  28 H :    0.263019
  29 H :    0.248513
  30 H :    0.140727
  31 H :    0.128146
  32 H :    0.131856
  33 H :    0.132540
  34 H :    0.135700
  35 H :    0.151680
  36 H :    0.143361
  37 H :    0.131637
  38 H :    0.131613
  39 H :    0.132605
  40 H :    0.144558
  41 H :    0.131969
  42 H :    0.125478
  43 H :    0.149329
  44 H :    0.132152
  45 H :    0.129491
  46 H :    0.129549
  47 H :    0.128662
  48 H :    0.126995
  49 H :    0.122700

  Mayer bond orders larger than 0.100000
B(  0-N ,  1-C ) :   1.0574 B(  0-N , 28-H ) :   0.8245 B(  0-N , 29-H ) :   0.8302
B(  1-C ,  2-O ) :   1.8676 B(  1-C ,  3-C ) :   0.8797 B(  3-C ,  4-C ) :   0.9690
B(  3-C , 10-N ) :   0.9988 B(  3-C , 30-H ) :   0.9056 B(  4-C ,  5-C ) :   1.4157
B(  4-C ,  9-C ) :   1.4279 B(  5-C ,  6-C ) :   1.4387 B(  5-C , 31-H ) :   0.9229
B(  6-C ,  7-C ) :   1.4531 B(  6-C , 32-H ) :   0.9294 B(  7-C ,  8-C ) :   1.4513
B(  7-C , 33-H ) :   0.9300 B(  8-C ,  9-C ) :   1.4316 B(  8-C , 34-H ) :   0.9288
B(  9-C , 35-H ) :   0.9077 B( 10-N , 11-C ) :   0.9521 B( 10-N , 19-C ) :   0.9316
B( 11-C , 12-O ) :   1.8492 B( 11-C , 13-C ) :   0.9864 B( 13-C , 14-C ) :   1.3964
B( 13-C , 18-C ) :   1.3855 B( 14-C , 15-C ) :   1.4356 B( 14-C , 36-H ) :   0.9044
B( 15-C , 16-C ) :   1.4479 B( 15-C , 37-H ) :   0.9301 B( 16-C , 17-C ) :   1.4391
B( 16-C , 38-H ) :   0.9306 B( 17-C , 18-C ) :   1.4380 B( 17-C , 39-H ) :   0.9303
B( 18-C , 40-H ) :   0.9173 B( 19-C , 20-C ) :   0.9789 B( 19-C , 27-C ) :   0.9493
B( 19-C , 41-H ) :   0.9272 B( 20-C , 21-C ) :   0.9844 B( 20-C , 42-H ) :   0.9446
B( 20-C , 43-H ) :   0.9242 B( 21-C , 22-C ) :   0.9803 B( 21-C , 44-H ) :   0.9230
B( 21-C , 45-H ) :   0.9350 B( 22-C , 23-C ) :   1.4023 B( 22-C , 27-C ) :   1.4811
B( 23-C , 24-C ) :   1.4470 B( 23-C , 46-H ) :   0.9275 B( 24-C , 25-C ) :   1.4246
B( 24-C , 47-H ) :   0.9314 B( 25-C , 26-C ) :   1.4446 B( 25-C , 48-H ) :   0.9319
B( 26-C , 27-C ) :   1.3965 B( 26-C , 49-H ) :   0.9231

FINAL SINGLE POINT ENERGY     -1186.978844604431

DIPOLE MOMENT
-------------

Method             : SCF
Type of density    : Electron Density
Multiplicity       :   1
Irrep              :   0
Energy             : -1186.9788446044312877 Eh
Relativity type    :
Basis              : AO
                                X                 Y                 Z
Electronic contribution:     -4.286170658       0.754021307       4.222788282
Nuclear contribution   :      4.451257344      -2.332087777      -5.171425171
                        -----------------------------------------
Total Dipole Moment    :      0.165086685      -1.578066470      -0.948636889
                        -----------------------------------------
Magnitude (a.u.)       :      1.848637159
Magnitude (Debye)      :      4.698862233

Rotational constants in cm-1:             0.008776             0.005643             0.004830
Rotational constants in MHz :           263.112785           169.181584           144.797539

                             ****ORCA TERMINATED NORMALLY****
TOTAL RUN TIME: 0 days 0 hours 5 minutes 58 seconds 679 msec
