                         Program Version 6.0.0  -   RELEASE  -
|  1> ! B3LYP 6-31G* SP
|  2>
|  3> * xyz 0 1
|  4> C -2.3965 -0.2912 1.4925
|  5> C -2.6570 -1.4653 0.5785
|  6> C -1.7643 -1.7536 -0.4814
|  7> N -0.6517 -0.8964 -0.7802
|  8> C -0.9272 0.2833 -1.6143
|  9> C 0.0532 1.3987 -1.3623
| 10> C -0.0888 2.2306 -0.2195
| 11> C 0.8642 3.2247 0.0699
| 12> C 1.9308 3.3675 -0.8101
| 13> C 3.0357 4.1905 -0.8165
| 14> Cl 3.4496 5.3987 0.3820
| 15> N 3.7853 3.9097 -1.9089
| 16> N 3.1828 2.9352 -2.5824
| 17> C 2.0590 2.5965 -1.9275
| 18> C 1.1408 1.5999 -2.2457
| 19> S 0.9285 -1.6356 -0.8168
| 20> O 0.8897 -2.9647 -0.1153
| 21> O 1.3252 -1.8599 -2.2496
| 22> C 2.1170 -0.6189 -0.0041
| 23> C 1.8472 -0.1144 1.2727
| 24> C 2.7434 0.7642 1.8882
| 25> C 3.9329 1.1396 1.2383
| 26> C 4.8643 2.1038 1.8634
| 27> O 4.6268 2.5695 3.0109
| 28> O 6.0100 2.5126 1.1851
| 29> C 4.2197 0.5942 -0.0247
| 30> C 3.3204 -0.2820 -0.6387
| 31> N -1.9836 -2.8321 -1.2797
| 32> C -3.0468 -3.6548 -1.1180
| 33> C -3.9915 -3.3939 -0.1224
| 34> C -5.1127 -4.2258 0.0238
| 35> C -6.0648 -3.9541 1.0073
| 36> C -5.9096 -2.8507 1.8452
| 37> C -4.7951 -2.0178 1.7151
| 38> C -3.8099 -2.2801 0.7352
| 39> H -3.0635 0.5530 1.2138
| 40> H -2.5655 -0.5735 2.5527
| 41> H -1.3447 0.0469 1.4383
| 42> H -1.9527 0.6644 -1.4108
| 43> H -0.9051 -0.0171 -2.6843
| 44> H -0.9328 2.1077 0.4448
| 45> H 0.7752 3.8462 0.9501
| 46> H 3.5418 2.5183 -3.4708
| 47> H 1.2808 0.9811 -3.1233
| 48> H 0.9343 -0.3852 1.7839
| 49> H 2.4986 1.1594 2.8653
| 50> H 6.6511 3.1775 1.6022
| 51> H 5.1300 0.8568 -0.5475
| 52> H 3.5517 -0.6701 -1.6220
| 53> H -3.1597 -4.5062 -1.7801
| 54> H -5.2553 -5.0812 -0.6256
| 55> H -6.9296 -4.5963 1.1143
| 56> H -6.6554 -2.6400 2.6015
| 57> H -4.7261 -1.1694 2.3802
| 58> *
| 59>
| 60>                          ****END OF INPUT****

CARTESIAN COORDINATES (ANGSTROEM)
---------------------------------
  C     -2.396500   -0.291200    1.492500
  C     -2.657000   -1.465300    0.578500
  C     -1.764300   -1.753600   -0.481400
  N     -0.651700   -0.896400   -0.780200
  C     -0.927200    0.283300   -1.614300
  C      0.053200    1.398700   -1.362300
  C     -0.088800    2.230600   -0.219500
  C      0.864200    3.224700    0.069900
  C      1.930800    3.367500   -0.810100
  C      3.035700    4.190500   -0.816500
  Cl     3.449600    5.398700    0.382000
  N      3.785300    3.909700   -1.908900
  N      3.182800    2.935200   -2.582400
  C      2.059000    2.596500   -1.927500
  C      1.140800    1.599900   -2.245700
  S      0.928500   -1.635600   -0.816800
  O      0.889700   -2.964700   -0.115300
  O      1.325200   -1.859900   -2.249600
  C      2.117000   -0.618900   -0.004100
  C      1.847200   -0.114400    1.272700
  C      2.743400    0.764200    1.888200
  C      3.932900    1.139600    1.238300
  C      4.864300    2.103800    1.863400
  O      4.626800    2.569500    3.010900
  O      6.010000    2.512600    1.185100
  C      4.219700    0.594200   -0.024700
  C      3.320400   -0.282000   -0.638700
  N     -1.983600   -2.832100   -1.279700
  C     -3.046800   -3.654800   -1.118000
  C     -3.991500   -3.393900   -0.122400
  C     -5.112700   -4.225800    0.023800
  C     -6.064800   -3.954100    1.007300
  C     -5.909600   -2.850700    1.845200
  C     -4.795100   -2.017800    1.715100
  C     -3.809900   -2.280100    0.735200
  H     -3.063500    0.553000    1.213800
  H     -2.565500   -0.573500    2.552700
  H     -1.344700    0.046900    1.438300
  H     -1.952700    0.664400   -1.410800
  H     -0.905100   -0.017100   -2.684300
  H     -0.932800    2.107700    0.444800
  H      0.775200    3.846200    0.950100
  H      3.541800    2.518300   -3.470800
  H      1.280800    0.981100   -3.123300
  H      0.934300   -0.385200    1.783900
  H      2.498600    1.159400    2.865300
  H      6.651100    3.177500    1.602200
  H      5.130000    0.856800   -0.547500
  H      3.551700   -0.670100   -1.622000
  H     -3.159700   -4.506200   -1.780100
  H     -5.255300   -5.081200   -0.625600
  H     -6.929600   -4.596300    1.114300
  H     -6.655400   -2.640000    2.601500
  H     -4.726100   -1.169400    2.380200

 Total Charge           Charge          ....    0
 Multiplicity           Mult            ....    1
 Number of Electrons    NEL             ....  262
 Basis Dimension        Dim             ....  536

ORBITAL ENERGIES
----------------

  NO   OCC          E(Eh)            E(eV)
   0   2.0000    -101.540338     -2763.0531
   1   2.0000     -89.093563     -2424.3591
   2   2.0000     -19.188866      -522.1556
   3   2.0000     -19.131624      -520.5980
   4   2.0000     -19.120427      -520.2933
   5   2.0000     -19.118379      -520.2375
   6   2.0000     -14.421909      -392.4401
   7   2.0000     -14.371273      -391.0622
   8   2.0000     -14.370227      -391.0338
   9   2.0000     -14.326625      -389.8473
  10   2.0000     -10.328842      -281.0621
  11   2.0000     -10.264675      -279.3160
  12   2.0000     -10.259125      -279.1650
  13   2.0000     -10.240071      -278.6465
  14   2.0000     -10.236062      -278.5374
  15   2.0000     -10.230094      -278.3750
  16   2.0000     -10.226108      -278.2665
  17   2.0000     -10.222014      -278.1552
  18   2.0000     -10.217759      -278.0394
  19   2.0000     -10.215635      -277.9815
  20   2.0000     -10.213252      -277.9167
  21   2.0000     -10.211946      -277.8812
  22   2.0000     -10.210883      -277.8522
  23   2.0000     -10.210020      -277.8288
  24   2.0000     -10.207558      -277.7618
  25   2.0000     -10.201634      -277.6006
  26   2.0000     -10.200550      -277.5711
  27   2.0000     -10.199270      -277.5362
  28   2.0000     -10.198295      -277.5097
  29   2.0000     -10.197329      -277.4834
  30   2.0000     -10.196864      -277.4708
  31   2.0000     -10.196718      -277.4668
  32   2.0000     -10.195471      -277.4329
  33   2.0000     -10.194381      -277.4032
  34   2.0000     -10.191682      -277.3298
  35   2.0000      -9.471457      -257.7314
  36   2.0000      -8.129463      -221.2139
  37   2.0000      -7.234950      -196.8730
  38   2.0000      -7.224850      -196.5982
  39   2.0000      -7.224664      -196.5931
  40   2.0000      -6.094679      -165.8446
  41   2.0000      -6.092233      -165.7781
  42   2.0000      -6.092121      -165.7751
  43   2.0000      -1.078247       -29.3406
  44   2.0000      -1.076416       -29.2908
  45   2.0000      -1.073531       -29.2123
  46   2.0000      -0.988253       -26.8917
  47   2.0000      -0.960340       -26.1322
  48   2.0000      -0.956268       -26.0214
  49   2.0000      -0.912541       -24.8315
  50   2.0000      -0.886513       -24.1233
  51   2.0000      -0.885133       -24.0857
  52   2.0000      -0.872442       -23.7403
  53   2.0000      -0.863136       -23.4871
  54   2.0000      -0.812641       -22.1131
  55   2.0000      -0.810734       -22.0612
  56   2.0000      -0.802566       -21.8389
  57   2.0000      -0.793402       -21.5896
  58   2.0000      -0.773220       -21.0404
  59   2.0000      -0.773100       -21.0371
  60   2.0000      -0.755655       -20.5624
  61   2.0000      -0.743940       -20.2436
  62   2.0000      -0.718295       -19.5458
  63   2.0000      -0.709770       -19.3138
  64   2.0000      -0.685804       -18.6617
  65   2.0000      -0.650894       -17.7117
  66   2.0000      -0.648825       -17.6554
  67   2.0000      -0.644693       -17.5430
  68   2.0000      -0.636646       -17.3240
  69   2.0000      -0.619592       -16.8599
  70   2.0000      -0.610021       -16.5995
  71   2.0000      -0.605435       -16.4747
  72   2.0000      -0.596925       -16.2431
  73   2.0000      -0.589002       -16.0276
  74   2.0000      -0.562329       -15.3018
  75   2.0000      -0.551292       -15.0014
  76   2.0000      -0.538753       -14.6602
  77   2.0000      -0.529770       -14.4158
  78   2.0000      -0.520215       -14.1558
  79   2.0000      -0.511250       -13.9118
  80   2.0000      -0.501842       -13.6558
  81   2.0000      -0.487544       -13.2668
  82   2.0000      -0.482798       -13.1376
  83   2.0000      -0.479153       -13.0384
  84   2.0000      -0.474855       -12.9215
  85   2.0000      -0.474388       -12.9087
  86   2.0000      -0.470043       -12.7905
  87   2.0000      -0.462709       -12.5910
  88   2.0000      -0.454138       -12.3577
  89   2.0000      -0.452837       -12.3223
  90   2.0000      -0.450696       -12.2640
  91   2.0000      -0.446785       -12.1576
  92   2.0000      -0.444911       -12.1066
  93   2.0000      -0.440394       -11.9837
  94   2.0000      -0.435547       -11.8518
  95   2.0000      -0.430805       -11.7228
  96   2.0000      -0.429981       -11.7004
  97   2.0000      -0.420979       -11.4554
  98   2.0000      -0.415704       -11.3119
  99   2.0000      -0.408723       -11.1219
 100   2.0000      -0.406193       -11.0531
 101   2.0000      -0.399112       -10.8604
 102   2.0000      -0.392263       -10.6740
 103   2.0000      -0.391291       -10.6476
 104   2.0000      -0.381508       -10.3814
 105   2.0000      -0.378354       -10.2955
 106   2.0000      -0.368898       -10.0382
 107   2.0000      -0.367606       -10.0031
 108   2.0000      -0.363316        -9.8863
 109   2.0000      -0.361080        -9.8255
 110   2.0000      -0.353591        -9.6217
 111   2.0000      -0.352190        -9.5836
 112   2.0000      -0.349336        -9.5059
 113   2.0000      -0.324732        -8.8364
 114   2.0000      -0.322442        -8.7741
 115   2.0000      -0.315252        -8.5784
 116   2.0000      -0.303443        -8.2571
 117   2.0000      -0.300088        -8.1658
 118   2.0000      -0.298199        -8.1144
 119   2.0000      -0.290573        -7.9069
 120   2.0000      -0.290093        -7.8938
 121   2.0000      -0.278920        -7.5898
 122   2.0000      -0.275360        -7.4929
 123   2.0000      -0.268302        -7.3009
 124   2.0000      -0.266378        -7.2485
 125   2.0000      -0.264905        -7.2084
 126   2.0000      -0.253134        -6.8881
 127   2.0000      -0.249109        -6.7786
 128   2.0000      -0.244420        -6.6510
 129   2.0000      -0.225429        -6.1342
 130   2.0000      -0.222359        -6.0507
 131   0.0000      -0.079835        -2.1724
 132   0.0000      -0.060112        -1.6357
 133   0.0000      -0.048943        -1.3318
 134   0.0000      -0.029455        -0.8015
 135   0.0000      -0.023099        -0.6286

MULLIKEN ATOMIC CHARGES
-----------------------
   0 C :   -0.554441
   1 C :    0.092413
   2 C :    0.319547
   3 N :   -0.626318
   4 C :   -0.207722
   5 C :    0.092502
   6 C :   -0.179694
   7 C :   -0.187773
   8 C :    0.103444
   9 C :   -0.007764
  10 Cl:    0.029065
  11 N :   -0.221097
  12 N :   -0.514044
  13 C :    0.372962
  14 C :   -0.211470
  15 S :    1.206573
  16 O :   -0.525217
  17 O :   -0.549816
  18 C :   -0.110679
  19 C :   -0.139919
  20 C :   -0.137603
  21 C :    0.082331
  22 C :    0.536376
  23 O :   -0.449447
  24 O :   -0.622607
  25 C :   -0.145042
  26 C :   -0.144928
  27 N :   -0.361096
  28 C :   -0.046185
  29 C :    0.133197
  30 C :   -0.201150
  31 C :   -0.127285
  32 C :   -0.120250
  33 C :   -0.200812
  34 C :    0.125852
  35 H :    0.161180
  36 H :    0.164690
  37 H :    0.177722
  38 H :    0.171395
  39 H :    0.179589
  40 H :    0.131640
  41 H :    0.154003
  42 H :    0.359302
  43 H :    0.158203
  44 H :    0.171969
  45 H :    0.175013
  46 H :    0.434777
  47 H :    0.172883
  48 H :    0.179455
  49 H :    0.156043
  50 H :    0.141193
  51 H :    0.136185
  52 H :    0.137205
  53 H :    0.135648
Sum of atomic charges:   -0.0000000

LOEWDIN ATOMIC CHARGES
----------------------
   0 C :   -0.363538
   1 C :   -0.018171
   2 C :    0.036180
   3 N :   -0.291894
   4 C :   -0.140767
   5 C :   -0.036566
   6 C :   -0.140209
   7 C :   -0.110689
   8 C :   -0.062801
   9 C :   -0.101257
  10 Cl:    0.066602
  11 N :   -0.116963
  12 N :   -0.068519
  13 C :    0.004625
  14 C :   -0.142769
  15 S :    1.263530
  16 O :   -0.558943
  17 O :   -0.582763
  18 C :   -0.162283
  19 C :   -0.102027
  20 C :   -0.085530
  21 C :   -0.039178
  22 C :    0.180923
  23 O :   -0.263155
  24 O :   -0.331627
  25 C :   -0.100881
  26 C :   -0.101672
  27 N :   -0.113162
  28 C :   -0.054034
  29 C :   -0.028632
  30 C :   -0.110192
  31 C :   -0.127045
  32 C :   -0.117821
  33 C :   -0.126412
  34 C :   -0.006397
  35 H :    0.135926
  36 H :    0.137486
  37 H :    0.137509
  38 H :    0.142985
  39 H :    0.135931
  40 H :    0.133947
  41 H :    0.146377
  42 H :    0.279299
  43 H :    0.146353
  44 H :    0.150578
  45 H :    0.157949
  46 H :    0.350452
  47 H :    0.154957
  48 H :    0.158050
  49 H :    0.139229
  50 H :    0.138176
  51 H :    0.135527
  52 H :    0.136280
  53 H :    0.137026

  Mayer bond orders larger than 0.100000
B(  0-C ,  1-C ) :   0.9980 B(  0-C , 35-H ) :   0.9258 B(  0-C , 36-H ) :   0.9282
B(  0-C , 37-H ) :   0.9180 B(  1-C ,  2-C ) :   1.4414 B(  1-C , 28-C ) :   0.1017
B(  1-C , 34-C ) :   1.2656 B(  2-C ,  3-N ) :   0.9037 B(  2-C , 27-N ) :   1.2862
B(  3-N ,  4-C ) :   0.9030 B(  3-N , 15-S ) :   0.7849 B(  4-C ,  5-C ) :   0.9688
B(  4-C , 38-H ) :   0.9189 B(  4-C , 39-H ) :   0.9171 B(  5-C ,  6-C ) :   1.3360
B(  5-C , 14-C ) :   1.4802 B(  6-C ,  7-C ) :   1.4802 B(  6-C , 40-H ) :   0.9206
B(  7-C ,  8-C ) :   1.3321 B(  7-C , 14-C ) :   0.1041 B(  7-C , 41-H ) :   0.9168
B(  8-C ,  9-C ) :   1.2130 B(  8-C , 13-C ) :   1.3377 B(  9-C , 10-Cl) :   1.0635
B(  9-C , 11-N ) :   1.4590 B( 11-N , 12-N ) :   1.2143 B( 12-N , 13-C ) :   0.9264
B( 12-N , 42-H ) :   0.8262 B( 13-C , 14-C ) :   1.2959 B( 14-C , 43-H ) :   0.9076
B( 15-S , 16-O ) :   1.6716 B( 15-S , 17-O ) :   1.6260 B( 15-S , 18-C ) :   0.8111
B( 18-C , 19-C ) :   1.3804 B( 18-C , 26-C ) :   1.4054 B( 19-C , 20-C ) :   1.4278
B( 19-C , 44-H ) :   0.9100 B( 20-C , 21-C ) :   1.4022 B( 20-C , 45-H ) :   0.9102
B( 21-C , 22-C ) :   1.0088 B( 21-C , 25-C ) :   1.3840 B( 22-C , 23-O ) :   1.8560
B( 22-C , 24-O ) :   1.0245 B( 24-O , 46-H ) :   0.7415 B( 25-C , 26-C ) :   1.4111
B( 25-C , 47-H ) :   0.9135 B( 26-C , 48-H ) :   0.9098 B( 27-N , 28-C ) :   1.4986
B( 28-C , 29-C ) :   1.2309 B( 28-C , 49-H ) :   0.9259 B( 29-C , 30-C ) :   1.2843
B( 29-C , 34-C ) :   1.2912 B( 30-C , 31-C ) :   1.5124 B( 30-C , 33-C ) :   0.1064
B( 30-C , 50-H ) :   0.9230 B( 31-C , 32-C ) :   1.3540 B( 31-C , 51-H ) :   0.9292
B( 32-C , 33-C ) :   1.5103 B( 32-C , 52-H ) :   0.9291 B( 33-C , 34-C ) :   1.2919
B( 33-C , 53-H ) :   0.9175

FINAL SINGLE POINT ENERGY     -2341.249583290838

DIPOLE MOMENT
-------------

Method             : SCF
Type of density    : Electron Density
Multiplicity       :   1
Irrep              :   0
Energy             : -2341.2495832908380180 Eh
Relativity type    :
Basis              : AO
                                X                 Y                 Z
Electronic contribution:     25.146821691      16.090875397      -4.355220265
Nuclear contribution   :    -26.667863191     -15.307605590       4.367081094
                        -----------------------------------------
Total Dipole Moment    :     -1.521041500       0.783269807       0.011860829
                        -----------------------------------------
Magnitude (a.u.)       :      1.710911896
Magnitude (Debye)      :      4.348792435

Rotational constants in cm-1:             0.008118             0.001890             0.001858
Rotational constants in MHz :           243.365656            56.672395            55.708255

                             ****ORCA TERMINATED NORMALLY****
TOTAL RUN TIME: 0 days 0 hours 8 minutes 2 seconds 50 msec
