                         Program Version 6.0.0  -   RELEASE  -
|  1> ! B3LYP 6-31G* SP
|  2>
|  3> * xyz 0 1
|  4> C -1.2465 3.2319 -2.9535
|  5> C -1.2409 2.9354 -1.4709
|  6> C -1.3816 1.6075 -1.0055
|  7> N -1.4290 0.4988 -1.9121
|  8> C -0.1962 -0.0122 -2.5222
|  9> C 0.7920 -0.4217 -1.4585
| 10> C 0.7391 -1.7131 -0.9129
| 11> C 1.6062 -2.0836 0.1173
| 12> C 2.5354 -1.1639 0.6247
| 13> C 3.4967 -1.5752 1.7050
| 14> C 4.7019 -2.2920 1.0843
| 15> C 5.9797 -2.2461 1.9080
| 16> C 5.8512 -1.3920 0.6554
| 17> C 2.5984 0.1251 0.0741
| 18> C 1.7288 0.4988 -0.9542
| 19> F 1.8016 1.7580 -1.4548
| 20> S -2.9254 -0.3604 -2.0997
| 21> O -4.0782 0.5741 -1.8586
| 22> O -3.0368 -0.8860 -3.5037
| 23> C -2.9901 -1.6853 -0.9433
| 24> C -3.3480 -1.4349 0.3869
| 25> C -3.3457 -2.4710 1.3239
| 26> C -2.9810 -3.7759 0.9451
| 27> C -2.9672 -4.8627 1.9524
| 28> O -3.6593 -4.7533 2.9994
| 29> O -2.1916 -6.0089 1.7836
| 30> C -2.6472 -4.0253 -0.3985
| 31> C -2.6539 -2.9869 -1.3346
| 32> N -1.4373 1.3544 0.3278
| 33> C -1.3408 2.3322 1.2596
| 34> C -1.1523 3.6589 0.8663
| 35> C -1.0202 4.6708 1.8297
| 36> C -0.8196 5.9935 1.4351
| 37> C -0.7442 6.3151 0.0804
| 38> C -0.8762 5.3185 -0.8898
| 39> C -1.0911 3.9739 -0.5147
| 40> H -1.5903 2.3694 -3.5585
| 41> H -0.2238 3.5117 -3.2808
| 42> H -1.9491 4.0621 -3.1735
| 43> H -0.4199 -0.8847 -3.1733
| 44> H 0.2450 0.7637 -3.1828
| 45> H 0.0313 -2.4373 -1.2889
| 46> H 1.5550 -3.0883 0.5181
| 47> H 3.8034 -0.6860 2.3001
| 48> H 2.9926 -2.2725 2.4079
| 49> H 4.5579 -3.2146 0.4805
| 50> H 5.9344 -1.6674 2.8552
| 51> H 6.6422 -3.1287 1.7817
| 52> H 5.7286 -0.3068 0.8597
| 53> H 6.4294 -1.7726 -0.2133
| 54> H 3.3202 0.8427 0.4449
| 55> H -3.6156 -0.4347 0.7031
| 56> H -3.6119 -2.2480 2.3498
| 57> H -1.5355 -6.1155 1.0211
| 58> H -2.3965 -5.0213 -0.7365
| 59> H -2.3751 -3.1967 -2.3592
| 60> H -1.3930 2.0660 2.3079
| 61> H -1.0675 4.4373 2.8866
| 62> H -0.7160 6.7703 2.1816
| 63> H -0.5800 7.3417 -0.2201
| 64> H -0.7967 5.6135 -1.9264
| 65> *
| 66>
| 67>                          ****END OF INPUT****

CARTESIAN COORDINATES (ANGSTROEM)
---------------------------------
  C     -1.246500    3.231900   -2.953500
  C     -1.240900    2.935400   -1.470900
  C     -1.381600    1.607500   -1.005500
  N     -1.429000    0.498800   -1.912100
  C     -0.196200   -0.012200   -2.522200
  C      0.792000   -0.421700   -1.458500
  C      0.739100   -1.713100   -0.912900
  C      1.606200   -2.083600    0.117300
  C      2.535400   -1.163900    0.624700
  C      3.496700   -1.575200    1.705000
  C      4.701900   -2.292000    1.084300
  C      5.979700   -2.246100    1.908000
  C      5.851200   -1.392000    0.655400
  C      2.598400    0.125100    0.074100
  C      1.728800    0.498800   -0.954200
  F      1.801600    1.758000   -1.454800
  S     -2.925400   -0.360400   -2.099700
  O     -4.078200    0.574100   -1.858600
  O     -3.036800   -0.886000   -3.503700
  C     -2.990100   -1.685300   -0.943300
  C     -3.348000   -1.434900    0.386900
  C     -3.345700   -2.471000    1.323900
  C     -2.981000   -3.775900    0.945100
  C     -2.967200   -4.862700    1.952400
  O     -3.659300   -4.753300    2.999400
  O     -2.191600   -6.008900    1.783600
  C     -2.647200   -4.025300   -0.398500
  C     -2.653900   -2.986900   -1.334600
  N     -1.437300    1.354400    0.327800
  C     -1.340800    2.332200    1.259600
  C     -1.152300    3.658900    0.866300
  C     -1.020200    4.670800    1.829700
  C     -0.819600    5.993500    1.435100
  C     -0.744200    6.315100    0.080400
  C     -0.876200    5.318500   -0.889800
  C     -1.091100    3.973900   -0.514700
  H     -1.590300    2.369400   -3.558500
  H     -0.223800    3.511700   -3.280800
  H     -1.949100    4.062100   -3.173500
  H     -0.419900   -0.884700   -3.173300
  H      0.245000    0.763700   -3.182800
  H      0.031300   -2.437300   -1.288900
  H      1.555000   -3.088300    0.518100
  H      3.803400   -0.686000    2.300100
  H      2.992600   -2.272500    2.407900
  H      4.557900   -3.214600    0.480500
  H      5.934400   -1.667400    2.855200
  H      6.642200   -3.128700    1.781700
  H      5.728600   -0.306800    0.859700
  H      6.429400   -1.772600   -0.213300
  H      3.320200    0.842700    0.444900
  H     -3.615600   -0.434700    0.703100
  H     -3.611900   -2.248000    2.349800
  H     -1.535500   -6.115500    1.021100
  H     -2.396500   -5.021300   -0.736500
  H     -2.375100   -3.196700   -2.359200
  H     -1.393000    2.066000    2.307900
  H     -1.067500    4.437300    2.886600
  H     -0.716000    6.770300    2.181600
  H     -0.580000    7.341700   -0.220100
  H     -0.796700    5.613500   -1.926400

 Total Charge           Charge          ....    0
 Multiplicity           Mult            ....    1
 Number of Electrons    NEL             ....  264
 Basis Dimension        Dim             ....  558

ORBITAL ENERGIES
----------------

  NO   OCC          E(Eh)            E(eV)
   0   2.0000     -89.096262     -2424.4326
   1   2.0000     -24.707840      -672.3345
   2   2.0000     -19.198796      -522.4258
   3   2.0000     -19.137897      -520.7686
   4   2.0000     -19.127462      -520.4847
   5   2.0000     -19.123775      -520.3844
   6   2.0000     -14.371523      -391.0690
   7   2.0000     -14.332130      -389.9971
   8   2.0000     -10.332828      -281.1705
   9   2.0000     -10.272798      -279.5370
  10   2.0000     -10.258482      -279.1475
  11   2.0000     -10.238996      -278.6172
  12   2.0000     -10.235276      -278.5160
  13   2.0000     -10.229394      -278.3560
  14   2.0000     -10.225027      -278.2371
  15   2.0000     -10.222310      -278.1632
  16   2.0000     -10.221682      -278.1461
  17   2.0000     -10.215846      -277.9873
  18   2.0000     -10.213736      -277.9299
  19   2.0000     -10.209582      -277.8168
  20   2.0000     -10.206471      -277.7322
  21   2.0000     -10.200425      -277.5677
  22   2.0000     -10.200344      -277.5655
  23   2.0000     -10.199419      -277.5403
  24   2.0000     -10.197937      -277.5000
  25   2.0000     -10.197840      -277.4973
  26   2.0000     -10.195992      -277.4471
  27   2.0000     -10.195929      -277.4453
  28   2.0000     -10.195461      -277.4326
  29   2.0000     -10.194509      -277.4067
  30   2.0000     -10.192750      -277.3588
  31   2.0000     -10.190269      -277.2913
  32   2.0000     -10.186890      -277.1994
  33   2.0000     -10.184481      -277.1338
  34   2.0000     -10.183839      -277.1163
  35   2.0000     -10.181088      -277.0415
  36   2.0000      -8.131977      -221.2824
  37   2.0000      -6.096952      -165.9065
  38   2.0000      -6.095066      -165.8552
  39   2.0000      -6.094638      -165.8435
  40   2.0000      -1.220305       -33.2062
  41   2.0000      -1.082841       -29.4656
  42   2.0000      -1.078375       -29.3441
  43   2.0000      -0.998222       -27.1630
  44   2.0000      -0.964175       -26.2365
  45   2.0000      -0.960407       -26.1340
  46   2.0000      -0.914372       -24.8813
  47   2.0000      -0.889123       -24.1943
  48   2.0000      -0.869741       -23.6669
  49   2.0000      -0.864424       -23.5222
  50   2.0000      -0.852852       -23.2073
  51   2.0000      -0.809021       -22.0146
  52   2.0000      -0.803944       -21.8764
  53   2.0000      -0.789938       -21.4953
  54   2.0000      -0.776480       -21.1291
  55   2.0000      -0.774948       -21.0874
  56   2.0000      -0.751557       -20.4509
  57   2.0000      -0.743952       -20.2440
  58   2.0000      -0.731463       -19.9041
  59   2.0000      -0.707500       -19.2520
  60   2.0000      -0.694174       -18.8894
  61   2.0000      -0.667646       -18.1676
  62   2.0000      -0.648801       -17.6548
  63   2.0000      -0.644812       -17.5462
  64   2.0000      -0.638327       -17.3698
  65   2.0000      -0.624499       -16.9935
  66   2.0000      -0.620980       -16.8977
  67   2.0000      -0.603140       -16.4123
  68   2.0000      -0.595916       -16.2157
  69   2.0000      -0.591306       -16.0903
  70   2.0000      -0.587722       -15.9927
  71   2.0000      -0.570272       -15.5179
  72   2.0000      -0.568904       -15.4807
  73   2.0000      -0.551072       -14.9954
  74   2.0000      -0.534729       -14.5507
  75   2.0000      -0.528924       -14.3927
  76   2.0000      -0.515133       -14.0175
  77   2.0000      -0.507208       -13.8018
  78   2.0000      -0.502343       -13.6694
  79   2.0000      -0.494611       -13.4591
  80   2.0000      -0.491902       -13.3853
  81   2.0000      -0.484400       -13.1812
  82   2.0000      -0.479576       -13.0499
  83   2.0000      -0.477279       -12.9874
  84   2.0000      -0.472855       -12.8670
  85   2.0000      -0.460438       -12.5292
  86   2.0000      -0.452392       -12.3102
  87   2.0000      -0.449979       -12.2446
  88   2.0000      -0.449533       -12.2324
  89   2.0000      -0.446236       -12.1427
  90   2.0000      -0.445037       -12.1101
  91   2.0000      -0.441533       -12.0147
  92   2.0000      -0.435877       -11.8608
  93   2.0000      -0.431860       -11.7515
  94   2.0000      -0.430715       -11.7203
  95   2.0000      -0.423988       -11.5373
  96   2.0000      -0.420009       -11.4290
  97   2.0000      -0.417244       -11.3538
  98   2.0000      -0.414362       -11.2754
  99   2.0000      -0.410263       -11.1638
 100   2.0000      -0.404183       -10.9984
 101   2.0000      -0.396886       -10.7998
 102   2.0000      -0.389972       -10.6117
 103   2.0000      -0.383805       -10.4439
 104   2.0000      -0.380562       -10.3556
 105   2.0000      -0.375247       -10.2110
 106   2.0000      -0.374257       -10.1841
 107   2.0000      -0.371977       -10.1220
 108   2.0000      -0.371086       -10.0978
 109   2.0000      -0.368435       -10.0256
 110   2.0000      -0.365473        -9.9450
 111   2.0000      -0.354639        -9.6502
 112   2.0000      -0.352393        -9.5891
 113   2.0000      -0.350561        -9.5392
 114   2.0000      -0.344764        -9.3815
 115   2.0000      -0.326489        -8.8842
 116   2.0000      -0.320110        -8.7106
 117   2.0000      -0.306258        -8.3337
 118   2.0000      -0.294947        -8.0259
 119   2.0000      -0.291512        -7.9325
 120   2.0000      -0.286556        -7.7976
 121   2.0000      -0.284530        -7.7425
 122   2.0000      -0.280932        -7.6446
 123   2.0000      -0.278657        -7.5826
 124   2.0000      -0.275135        -7.4868
 125   2.0000      -0.272304        -7.4098
 126   2.0000      -0.267435        -7.2773
 127   2.0000      -0.257185        -6.9984
 128   2.0000      -0.253969        -6.9109
 129   2.0000      -0.249778        -6.7968
 130   2.0000      -0.238395        -6.4871
 131   2.0000      -0.221267        -6.0210
 132   0.0000      -0.077991        -2.1223
 133   0.0000      -0.061292        -1.6678
 134   0.0000      -0.032538        -0.8854
 135   0.0000      -0.031276        -0.8511
 136   0.0000      -0.016088        -0.4378

MULLIKEN ATOMIC CHARGES
-----------------------
   0 C :   -0.549387
   1 C :    0.115367
   2 C :    0.326363
   3 N :   -0.603969
   4 C :   -0.247678
   5 C :    0.082190
   6 C :   -0.152034
   7 C :   -0.178939
   8 C :    0.199332
   9 C :   -0.373314
  10 C :   -0.071063
  11 C :   -0.313843
  12 C :   -0.301425
  13 C :   -0.255247
  14 C :    0.377172
  15 F :   -0.321325
  16 S :    1.209854
  17 O :   -0.541510
  18 O :   -0.549060
  19 C :   -0.113284
  20 C :   -0.114232
  21 C :   -0.139472
  22 C :    0.077366
  23 C :    0.534476
  24 O :   -0.422735
  25 O :   -0.600652
  26 C :   -0.167946
  27 C :   -0.158812
  28 N :   -0.397703
  29 C :   -0.052202
  30 C :    0.138018
  31 C :   -0.203487
  32 C :   -0.126194
  33 C :   -0.120454
  34 C :   -0.196485
  35 C :    0.122566
  36 H :    0.194094
  37 H :    0.163828
  38 H :    0.167757
  39 H :    0.188195
  40 H :    0.174891
  41 H :    0.125351
  42 H :    0.118048
  43 H :    0.140278
  44 H :    0.147087
  45 H :    0.142099
  46 H :    0.147698
  47 H :    0.147166
  48 H :    0.145458
  49 H :    0.147866
  50 H :    0.135198
  51 H :    0.191171
  52 H :    0.178644
  53 H :    0.418531
  54 H :    0.134722
  55 H :    0.178649
  56 H :    0.150013
  57 H :    0.138103
  58 H :    0.136017
  59 H :    0.138080
  60 H :    0.140806
Sum of atomic charges:    0.0000000

LOEWDIN ATOMIC CHARGES
----------------------
   0 C :   -0.361459
   1 C :   -0.000261
   2 C :    0.030396
   3 N :   -0.276901
   4 C :   -0.146595
   5 C :   -0.066195
   6 C :   -0.117606
   7 C :   -0.142407
   8 C :    0.000182
   9 C :   -0.211347
  10 C :   -0.131966
  11 C :   -0.258620
  12 C :   -0.256532
  13 C :   -0.159106
  14 C :    0.116935
  15 F :   -0.104041
  16 S :    1.266060
  17 O :   -0.566507
  18 O :   -0.574229
  19 C :   -0.173075
  20 C :   -0.083463
  21 C :   -0.086706
  22 C :   -0.047591
  23 C :    0.182384
  24 O :   -0.231336
  25 O :   -0.320680
  26 C :   -0.125931
  27 C :   -0.111446
  28 N :   -0.133595
  29 C :   -0.062028
  30 C :   -0.027304
  31 C :   -0.112305
  32 C :   -0.125934
  33 C :   -0.116951
  34 C :   -0.120878
  35 C :   -0.003904
  36 H :    0.150096
  37 H :    0.138155
  38 H :    0.140439
  39 H :    0.150709
  40 H :    0.136572
  41 H :    0.132682
  42 H :    0.127950
  43 H :    0.127581
  44 H :    0.128741
  45 H :    0.130675
  46 H :    0.130798
  47 H :    0.131613
  48 H :    0.128946
  49 H :    0.132360
  50 H :    0.139479
  51 H :    0.164755
  52 H :    0.159567
  53 H :    0.334396
  54 H :    0.134498
  55 H :    0.156263
  56 H :    0.135880
  57 H :    0.136654
  58 H :    0.135484
  59 H :    0.136779
  60 H :    0.139870

  Mayer bond orders larger than 0.100000
B(  0-C ,  1-C ) :   1.0026 B(  0-C , 36-H ) :   0.9266 B(  0-C , 37-H ) :   0.9242
B(  0-C , 38-H ) :   0.9278 B(  1-C ,  2-C ) :   1.4440 B(  1-C , 29-C ) :   0.1016
B(  1-C , 35-C ) :   1.2660 B(  2-C ,  3-N ) :   0.8806 B(  2-C , 28-N ) :   1.2706
B(  3-N ,  4-C ) :   0.9230 B(  3-N , 16-S ) :   0.8112 B(  4-C ,  5-C ) :   0.9380
B(  4-C , 39-H ) :   0.9150 B(  4-C , 40-H ) :   0.9162 B(  5-C ,  6-C ) :   1.4188
B(  5-C , 14-C ) :   1.3621 B(  6-C ,  7-C ) :   1.4411 B(  6-C , 41-H ) :   0.9149
B(  7-C ,  8-C ) :   1.4249 B(  7-C , 42-H ) :   0.9256 B(  8-C ,  9-C ) :   0.9694
B(  8-C , 13-C ) :   1.4113 B(  9-C , 10-C ) :   1.0046 B(  9-C , 43-H ) :   0.9315
B(  9-C , 44-H ) :   0.9296 B( 10-C , 11-C ) :   0.9477 B( 10-C , 12-C ) :   0.9570
B( 10-C , 45-H ) :   0.9331 B( 11-C , 12-C ) :   0.9616 B( 11-C , 46-H ) :   0.9449
B( 11-C , 47-H ) :   0.9463 B( 12-C , 48-H ) :   0.9452 B( 12-C , 49-H ) :   0.9465
B( 13-C , 14-C ) :   1.3717 B( 13-C , 50-H ) :   0.9149 B( 14-C , 15-F ) :   0.9030
B( 16-S , 17-O ) :   1.6455 B( 16-S , 18-O ) :   1.6216 B( 16-S , 19-C ) :   0.8102
B( 19-C , 20-C ) :   1.3870 B( 19-C , 27-C ) :   1.3994 B( 20-C , 21-C ) :   1.4241
B( 20-C , 51-H ) :   0.9024 B( 21-C , 22-C ) :   1.3974 B( 21-C , 52-H ) :   0.9122
B( 22-C , 23-C ) :   0.9721 B( 22-C , 26-C ) :   1.3749 B( 23-C , 24-O ) :   1.8840
B( 23-C , 25-O ) :   1.0105 B( 25-O , 53-H ) :   0.7474 B( 26-C , 27-C ) :   1.4228
B( 26-C , 54-H ) :   0.9214 B( 27-C , 55-H ) :   0.9095 B( 28-N , 29-C ) :   1.4887
B( 29-C , 30-C ) :   1.2424 B( 29-C , 56-H ) :   0.9263 B( 30-C , 31-C ) :   1.2833
B( 30-C , 35-C ) :   1.2904 B( 31-C , 32-C ) :   1.5136 B( 31-C , 34-C ) :   0.1061
B( 31-C , 57-H ) :   0.9235 B( 32-C , 33-C ) :   1.3526 B( 32-C , 58-H ) :   0.9292
B( 33-C , 34-C ) :   1.5091 B( 33-C , 59-H ) :   0.9290 B( 34-C , 35-C ) :   1.2944
B( 34-C , 60-H ) :   0.9162

FINAL SINGLE POINT ENERGY     -1989.318656741236

DIPOLE MOMENT
-------------

Method             : SCF
Type of density    : Electron Density
Multiplicity       :   1
Irrep              :   0
Energy             : -1989.3186567412355998 Eh
Relativity type    :
Basis              : AO
                                X                 Y                 Z
Electronic contribution:    -27.239774547      -0.977425242      -6.324553565
Nuclear contribution   :     29.969152008       1.675982999       6.554361286
                        -----------------------------------------
Total Dipole Moment    :      2.729377461       0.698557757       0.229807720
                        -----------------------------------------
Magnitude (a.u.)       :      2.826711137
Magnitude (Debye)      :      7.184928715

Rotational constants in cm-1:             0.003515             0.002813             0.001979
Rotational constants in MHz :           105.369820            84.340193            59.340169

                             ****ORCA TERMINATED NORMALLY****
TOTAL RUN TIME: 0 days 0 hours 14 minutes 11 seconds 902 msec
