                         Program Version 6.0.0  -   RELEASE  -
|  1> ! B3LYP 6-31G* SP
|  2>
|  3> * xyz 0 1
|  4> C -3.0054 -3.4331 -1.6005
|  5> C -3.5398 -3.2984 -0.1782
|  6> O -4.2002 -2.0443 0.0001
|  7> C -3.5231 -0.8233 0.1566
|  8> N -2.1674 -0.7887 0.1180
|  9> C -1.4486 0.3495 0.2888
| 10> N -0.0200 0.2749 0.2023
| 11> C 0.7464 -0.2945 1.3146
| 12> C 1.4828 -1.5505 0.9124
| 13> C 0.8624 -2.5372 0.1262
| 14> C 1.5528 -3.7000 -0.2278
| 15> C 2.8672 -3.9133 0.2323
| 16> O 3.6141 -5.0552 -0.0996
| 17> C 3.2258 -6.0486 -1.0440
| 18> F 4.2484 -6.9694 -1.1664
| 19> F 2.9983 -5.4661 -2.2782
| 20> F 2.0853 -6.7036 -0.6127
| 21> C 3.4649 -2.9519 1.0547
| 22> C 2.7814 -1.7816 1.3939
| 23> S 0.7754 0.8230 -1.2469
| 24> O 1.4027 -0.3421 -1.9594
| 25> O -0.2362 1.4452 -2.1705
| 26> C 2.0150 2.0145 -0.8566
| 27> C 1.7568 3.3838 -0.9991
| 28> C 2.7454 4.3240 -0.6898
| 29> C 4.0067 3.9064 -0.2292
| 30> C 5.0449 4.9019 0.1164
| 31> O 6.1833 4.5272 0.5113
| 32> O 4.7745 6.2656 0.0162
| 33> C 4.2601 2.5300 -0.0907
| 34> C 3.2725 1.5933 -0.4058
| 35> C -2.1098 1.5679 0.5572
| 36> C -1.3168 2.8231 0.8487
| 37> C -3.5300 1.5796 0.5611
| 38> C -4.2668 2.7681 0.7661
| 39> C -5.6631 2.7459 0.7841
| 40> C -6.3499 1.5462 0.6079
| 41> C -5.6472 0.3623 0.3951
| 42> C -4.2402 0.3655 0.3652
| 43> H -2.5542 -4.4410 -1.7353
| 44> H -3.8323 -3.2978 -2.3294
| 45> H -2.2251 -2.6672 -1.7994
| 46> H -4.2726 -4.1113 0.0022
| 47> H -2.7128 -3.4120 0.5584
| 48> H 1.4607 0.4739 1.6819
| 49> H 0.0709 -0.5422 2.1635
| 50> H -0.1495 -2.4040 -0.2319
| 51> H 1.0515 -4.4249 -0.8540
| 52> H 4.4688 -3.1093 1.4271
| 53> H 3.2692 -1.0537 2.0307
| 54> H 0.7904 3.7268 -1.3471
| 55> H 2.5196 5.3765 -0.8120
| 56> H 5.4795 6.9551 0.2629
| 57> H 5.2206 2.1765 0.2636
| 58> H 3.4887 0.5387 -0.2987
| 59> H -1.6723 3.2853 1.7922
| 60> H -1.4342 3.5446 0.0153
| 61> H -0.2378 2.6225 0.9933
| 62> H -3.7786 3.7236 0.9056
| 63> H -6.2131 3.6622 0.9441
| 64> H -7.4317 1.5352 0.6326
| 65> H -6.2077 -0.5532 0.2603
| 66> *
| 67>
| 68>                          ****END OF INPUT****

CARTESIAN COORDINATES (ANGSTROEM)
---------------------------------
  C     -3.005400   -3.433100   -1.600500
  C     -3.539800   -3.298400   -0.178200
  O     -4.200200   -2.044300    0.000100
  C     -3.523100   -0.823300    0.156600
  N     -2.167400   -0.788700    0.118000
  C     -1.448600    0.349500    0.288800
  N     -0.020000    0.274900    0.202300
  C      0.746400   -0.294500    1.314600
  C      1.482800   -1.550500    0.912400
  C      0.862400   -2.537200    0.126200
  C      1.552800   -3.700000   -0.227800
  C      2.867200   -3.913300    0.232300
  O      3.614100   -5.055200   -0.099600
  C      3.225800   -6.048600   -1.044000
  F      4.248400   -6.969400   -1.166400
  F      2.998300   -5.466100   -2.278200
  F      2.085300   -6.703600   -0.612700
  C      3.464900   -2.951900    1.054700
  C      2.781400   -1.781600    1.393900
  S      0.775400    0.823000   -1.246900
  O      1.402700   -0.342100   -1.959400
  O     -0.236200    1.445200   -2.170500
  C      2.015000    2.014500   -0.856600
  C      1.756800    3.383800   -0.999100
  C      2.745400    4.324000   -0.689800
  C      4.006700    3.906400   -0.229200
  C      5.044900    4.901900    0.116400
  O      6.183300    4.527200    0.511300
  O      4.774500    6.265600    0.016200
  C      4.260100    2.530000   -0.090700
  C      3.272500    1.593300   -0.405800
  C     -2.109800    1.567900    0.557200
  C     -1.316800    2.823100    0.848700
  C     -3.530000    1.579600    0.561100
  C     -4.266800    2.768100    0.766100
  C     -5.663100    2.745900    0.784100
  C     -6.349900    1.546200    0.607900
  C     -5.647200    0.362300    0.395100
  C     -4.240200    0.365500    0.365200
  H     -2.554200   -4.441000   -1.735300
  H     -3.832300   -3.297800   -2.329400
  H     -2.225100   -2.667200   -1.799400
  H     -4.272600   -4.111300    0.002200
  H     -2.712800   -3.412000    0.558400
  H      1.460700    0.473900    1.681900
  H      0.070900   -0.542200    2.163500
  H     -0.149500   -2.404000   -0.231900
  H      1.051500   -4.424900   -0.854000
  H      4.468800   -3.109300    1.427100
  H      3.269200   -1.053700    2.030700
  H      0.790400    3.726800   -1.347100
  H      2.519600    5.376500   -0.812000
  H      5.479500    6.955100    0.262900
  H      5.220600    2.176500    0.263600
  H      3.488700    0.538700   -0.298700
  H     -1.672300    3.285300    1.792200
  H     -1.434200    3.544600    0.015300
  H     -0.237800    2.622500    0.993300
  H     -3.778600    3.723600    0.905600
  H     -6.213100    3.662200    0.944100
  H     -7.431700    1.535200    0.632600
  H     -6.207700   -0.553200    0.260300

 Total Charge           Charge          ....    0
 Multiplicity           Mult            ....    1
 Number of Electrons    NEL             ....  290
 Basis Dimension        Dim             ....  596

ORBITAL ENERGIES
----------------

  NO   OCC          E(Eh)            E(eV)
   0   2.0000     -89.098399     -2424.4907
   1   2.0000     -24.734047      -673.0476
   2   2.0000     -24.732394      -673.0027
   3   2.0000     -24.729662      -672.9283
   4   2.0000     -19.204407      -522.5785
   5   2.0000     -19.199606      -522.4478
   6   2.0000     -19.176942      -521.8311
   7   2.0000     -19.141317      -520.8617
   8   2.0000     -19.126273      -520.4523
   9   2.0000     -19.121977      -520.3354
  10   2.0000     -14.371480      -391.0679
  11   2.0000     -14.329708      -389.9312
  12   2.0000     -10.496150      -285.6148
  13   2.0000     -10.338840      -281.3341
  14   2.0000     -10.289258      -279.9849
  15   2.0000     -10.261661      -279.2340
  16   2.0000     -10.259447      -279.1738
  17   2.0000     -10.246191      -278.8130
  18   2.0000     -10.238735      -278.6101
  19   2.0000     -10.236728      -278.5555
  20   2.0000     -10.235955      -278.5345
  21   2.0000     -10.223633      -278.1992
  22   2.0000     -10.223263      -278.1891
  23   2.0000     -10.221233      -278.1339
  24   2.0000     -10.220825      -278.1228
  25   2.0000     -10.207357      -277.7563
  26   2.0000     -10.203377      -277.6480
  27   2.0000     -10.202325      -277.6194
  28   2.0000     -10.195830      -277.4426
  29   2.0000     -10.194248      -277.3996
  30   2.0000     -10.193663      -277.3837
  31   2.0000     -10.191956      -277.3372
  32   2.0000     -10.191296      -277.3193
  33   2.0000     -10.191208      -277.3169
  34   2.0000     -10.189345      -277.2662
  35   2.0000     -10.186167      -277.1797
  36   2.0000     -10.185960      -277.1741
  37   2.0000     -10.181828      -277.0616
  38   2.0000     -10.167348      -276.6676
  39   2.0000      -8.134008      -221.3376
  40   2.0000      -6.099142      -165.9661
  41   2.0000      -6.097085      -165.9101
  42   2.0000      -6.096520      -165.8947
  43   2.0000      -1.296316       -35.2745
  44   2.0000      -1.217662       -33.1343
  45   2.0000      -1.216121       -33.0923
  46   2.0000      -1.083228       -29.4761
  47   2.0000      -1.082530       -29.4571
  48   2.0000      -1.074657       -29.2429
  49   2.0000      -1.056452       -28.7475
  50   2.0000      -0.997647       -27.1474
  51   2.0000      -0.961279       -26.1577
  52   2.0000      -0.959933       -26.1211
  53   2.0000      -0.912085       -24.8191
  54   2.0000      -0.893602       -24.3161
  55   2.0000      -0.864005       -23.5108
  56   2.0000      -0.855602       -23.2821
  57   2.0000      -0.810714       -22.0607
  58   2.0000      -0.805972       -21.9316
  59   2.0000      -0.784049       -21.3351
  60   2.0000      -0.780057       -21.2264
  61   2.0000      -0.776185       -21.1211
  62   2.0000      -0.749718       -20.4009
  63   2.0000      -0.748381       -20.3645
  64   2.0000      -0.741388       -20.1742
  65   2.0000      -0.725704       -19.7474
  66   2.0000      -0.713391       -19.4124
  67   2.0000      -0.691137       -18.8068
  68   2.0000      -0.676026       -18.3956
  69   2.0000      -0.656559       -17.8659
  70   2.0000      -0.647431       -17.6175
  71   2.0000      -0.642465       -17.4824
  72   2.0000      -0.625802       -17.0289
  73   2.0000      -0.623129       -16.9562
  74   2.0000      -0.621975       -16.9248
  75   2.0000      -0.614281       -16.7154
  76   2.0000      -0.594226       -16.1697
  77   2.0000      -0.588350       -16.0098
  78   2.0000      -0.583197       -15.8696
  79   2.0000      -0.578623       -15.7451
  80   2.0000      -0.566827       -15.4241
  81   2.0000      -0.558328       -15.1929
  82   2.0000      -0.544731       -14.8229
  83   2.0000      -0.541042       -14.7225
  84   2.0000      -0.522646       -14.2219
  85   2.0000      -0.511380       -13.9153
  86   2.0000      -0.498848       -13.5744
  87   2.0000      -0.493035       -13.4162
  88   2.0000      -0.492644       -13.4055
  89   2.0000      -0.481217       -13.0946
  90   2.0000      -0.475422       -12.9369
  91   2.0000      -0.472318       -12.8524
  92   2.0000      -0.467700       -12.7268
  93   2.0000      -0.464180       -12.6310
  94   2.0000      -0.462232       -12.5780
  95   2.0000      -0.459608       -12.5066
  96   2.0000      -0.457322       -12.4444
  97   2.0000      -0.452358       -12.3093
  98   2.0000      -0.451503       -12.2860
  99   2.0000      -0.447924       -12.1886
 100   2.0000      -0.445181       -12.1140
 101   2.0000      -0.444740       -12.1020
 102   2.0000      -0.441083       -12.0025
 103   2.0000      -0.437541       -11.9061
 104   2.0000      -0.434636       -11.8270
 105   2.0000      -0.429090       -11.6761
 106   2.0000      -0.427916       -11.6442
 107   2.0000      -0.426585       -11.6080
 108   2.0000      -0.422424       -11.4948
 109   2.0000      -0.417124       -11.3505
 110   2.0000      -0.411963       -11.2101
 111   2.0000      -0.408765       -11.1231
 112   2.0000      -0.404813       -11.0155
 113   2.0000      -0.400949       -10.9104
 114   2.0000      -0.398142       -10.8340
 115   2.0000      -0.396936       -10.8012
 116   2.0000      -0.388884       -10.5821
 117   2.0000      -0.386214       -10.5094
 118   2.0000      -0.382339       -10.4040
 119   2.0000      -0.378838       -10.3087
 120   2.0000      -0.371445       -10.1075
 121   2.0000      -0.369369       -10.0511
 122   2.0000      -0.368154       -10.0180
 123   2.0000      -0.367011        -9.9869
 124   2.0000      -0.355086        -9.6624
 125   2.0000      -0.349734        -9.5167
 126   2.0000      -0.343518        -9.3476
 127   2.0000      -0.339366        -9.2346
 128   2.0000      -0.325084        -8.8460
 129   2.0000      -0.322639        -8.7795
 130   2.0000      -0.321231        -8.7411
 131   2.0000      -0.315525        -8.5859
 132   2.0000      -0.307009        -8.3541
 133   2.0000      -0.296091        -8.0571
 134   2.0000      -0.288904        -7.8615
 135   2.0000      -0.282131        -7.6772
 136   2.0000      -0.277766        -7.5584
 137   2.0000      -0.274218        -7.4618
 138   2.0000      -0.271069        -7.3762
 139   2.0000      -0.265963        -7.2372
 140   2.0000      -0.263426        -7.1682
 141   2.0000      -0.253002        -6.8845
 142   2.0000      -0.250218        -6.8088
 143   2.0000      -0.228312        -6.2127
 144   2.0000      -0.210964        -5.7406
 145   0.0000      -0.086809        -2.3622
 146   0.0000      -0.053885        -1.4663
 147   0.0000      -0.035278        -0.9600
 148   0.0000      -0.031532        -0.8580
 149   0.0000      -0.006043        -0.1644

MULLIKEN ATOMIC CHARGES
-----------------------
   0 C :   -0.465640
   1 C :   -0.017524
   2 O :   -0.500452
   3 C :    0.439430
   4 N :   -0.455004
   5 C :    0.320377
   6 N :   -0.625844
   7 C :   -0.228831
   8 C :    0.141302
   9 C :   -0.142534
  10 C :   -0.187429
  11 C :    0.351871
  12 O :   -0.546754
  13 C :    1.084209
  14 F :   -0.280896
  15 F :   -0.288832
  16 F :   -0.292915
  17 C :   -0.168986
  18 C :   -0.189749
  19 S :    1.219860
  20 O :   -0.522673
  21 O :   -0.548529
  22 C :   -0.136650
  23 C :   -0.144249
  24 C :   -0.147766
  25 C :    0.083656
  26 C :    0.529324
  27 O :   -0.443477
  28 O :   -0.623879
  29 C :   -0.142152
  30 C :   -0.155646
  31 C :    0.108300
  32 C :   -0.544607
  33 C :    0.135440
  34 C :   -0.205792
  35 C :   -0.116444
  36 C :   -0.127222
  37 C :   -0.183454
  38 C :    0.066359
  39 H :    0.139448
  40 H :    0.153321
  41 H :    0.190634
  42 H :    0.150418
  43 H :    0.148762
  44 H :    0.152607
  45 H :    0.191474
  46 H :    0.186290
  47 H :    0.150406
  48 H :    0.143309
  49 H :    0.126472
  50 H :    0.187626
  51 H :    0.173859
  52 H :    0.434746
  53 H :    0.181781
  54 H :    0.193682
  55 H :    0.155924
  56 H :    0.171402
  57 H :    0.156560
  58 H :    0.136625
  59 H :    0.135739
  60 H :    0.135176
  61 H :    0.157541
Sum of atomic charges:   -0.0000000

LOEWDIN ATOMIC CHARGES
----------------------
   0 C :   -0.377745
   1 C :   -0.089589
   2 O :   -0.174869
   3 C :    0.137358
   4 N :   -0.166986
   5 C :    0.037208
   6 N :   -0.283767
   7 C :   -0.145859
   8 C :   -0.045066
   9 C :   -0.100595
  10 C :   -0.152566
  11 C :    0.086644
  12 O :   -0.160701
  13 C :    0.358752
  14 F :   -0.089297
  15 F :   -0.103085
  16 F :   -0.107015
  17 C :   -0.145716
  18 C :   -0.136707
  19 S :    1.265732
  20 O :   -0.555170
  21 O :   -0.572969
  22 C :   -0.176061
  23 C :   -0.101602
  24 C :   -0.099863
  25 C :   -0.038067
  26 C :    0.180840
  27 O :   -0.259957
  28 O :   -0.335203
  29 C :   -0.086700
  30 C :   -0.109130
  31 C :   -0.028084
  32 C :   -0.360321
  33 C :    0.001326
  34 C :   -0.126835
  35 C :   -0.114541
  36 C :   -0.129750
  37 C :   -0.101753
  38 C :   -0.038857
  39 H :    0.127617
  40 H :    0.129675
  41 H :    0.143116
  42 H :    0.126846
  43 H :    0.120456
  44 H :    0.123865
  45 H :    0.154460
  46 H :    0.153702
  47 H :    0.141698
  48 H :    0.142726
  49 H :    0.130910
  50 H :    0.160464
  51 H :    0.155315
  52 H :    0.350687
  53 H :    0.160887
  54 H :    0.162412
  55 H :    0.132276
  56 H :    0.139540
  57 H :    0.133142
  58 H :    0.138276
  59 H :    0.135642
  60 H :    0.135209
  61 H :    0.147640

  Mayer bond orders larger than 0.100000
B(  0-C ,  1-C ) :   1.0104 B(  0-C , 39-H ) :   0.9417 B(  0-C , 40-H ) :   0.9471
B(  0-C , 41-H ) :   0.9328 B(  1-C ,  2-O ) :   0.8762 B(  1-C , 42-H ) :   0.9402
B(  1-C , 43-H ) :   0.9244 B(  2-O ,  3-C ) :   0.9779 B(  3-C ,  4-N ) :   1.3850
B(  3-C , 38-C ) :   1.2213 B(  4-N ,  5-C ) :   1.2783 B(  5-C ,  6-N ) :   0.8887
B(  5-C , 31-C ) :   1.4483 B(  6-N ,  7-C ) :   0.9169 B(  6-N , 19-S ) :   0.7957
B(  7-C ,  8-C ) :   0.9611 B(  7-C , 44-H ) :   0.9240 B(  7-C , 45-H ) :   0.9126
B(  8-C ,  9-C ) :   1.4316 B(  8-C , 18-C ) :   1.4248 B(  9-C , 10-C ) :   1.4400
B(  9-C , 46-H ) :   0.8885 B( 10-C , 11-C ) :   1.3815 B( 10-C , 47-H ) :   0.9109
B( 11-C , 12-O ) :   0.8210 B( 11-C , 17-C ) :   1.4295 B( 12-O , 13-C ) :   0.9937
B( 13-C , 14-F ) :   1.0057 B( 13-C , 15-F ) :   0.9753 B( 13-C , 16-F ) :   0.9645
B( 17-C , 18-C ) :   1.4256 B( 17-C , 48-H ) :   0.9190 B( 18-C , 49-H ) :   0.9234
B( 19-S , 20-O ) :   1.6625 B( 19-S , 21-O ) :   1.6151 B( 19-S , 22-C ) :   0.8094
B( 22-C , 23-C ) :   1.4004 B( 22-C , 30-C ) :   1.3766 B( 23-C , 24-C ) :   1.4130
B( 23-C , 50-H ) :   0.9061 B( 24-C , 25-C ) :   1.3835 B( 24-C , 51-H ) :   0.9147
B( 25-C , 26-C ) :   1.0077 B( 25-C , 29-C ) :   1.4029 B( 26-C , 27-O ) :   1.8624
B( 26-C , 28-O ) :   1.0249 B( 28-O , 52-H ) :   0.7415 B( 29-C , 30-C ) :   1.4207
B( 29-C , 53-H ) :   0.9093 B( 30-C , 54-H ) :   0.8984 B( 31-C , 32-C ) :   1.0008
B( 31-C , 33-C ) :   1.2532 B( 32-C , 55-H ) :   0.9294 B( 32-C , 56-H ) :   0.9230
B( 32-C , 57-H ) :   0.9312 B( 33-C , 34-C ) :   1.2965 B( 33-C , 38-C ) :   1.3001
B( 34-C , 35-C ) :   1.5041 B( 34-C , 37-C ) :   0.1048 B( 34-C , 58-H ) :   0.9167
B( 35-C , 36-C ) :   1.3587 B( 35-C , 59-H ) :   0.9296 B( 36-C , 37-C ) :   1.4952
B( 36-C , 60-H ) :   0.9299 B( 37-C , 38-C ) :   1.2967 B( 37-C , 61-H ) :   0.9162

FINAL SINGLE POINT ENERGY     -2300.068695200434

DIPOLE MOMENT
-------------

Method             : SCF
Type of density    : Electron Density
Multiplicity       :   1
Irrep              :   0
Energy             : -2300.0686952004339219 Eh
Relativity type    :
Basis              : AO
                                X                 Y                 Z
Electronic contribution:     31.087410489     -29.156502228     -10.071058981
Nuclear contribution   :    -32.130917055      31.064550985      11.936141092
                        -----------------------------------------
Total Dipole Moment    :     -1.043506566       1.908048757       1.865082111
                        -----------------------------------------
Magnitude (a.u.)       :      2.864975967
Magnitude (Debye)      :      7.282190183

Rotational constants in cm-1:             0.002563             0.002288             0.001293
Rotational constants in MHz :            76.831983            68.596229            38.772653

                             ****ORCA TERMINATED NORMALLY****
TOTAL RUN TIME: 0 days 0 hours 11 minutes 41 seconds 721 msec
