                         Program Version 6.0.0  -   RELEASE  -
|  1> ! B3LYP 6-31G* SP
|  2>
|  3> * xyz 0 1
|  4> O 2.3847 -0.3193 2.1306
|  5> C 1.8037 0.1080 1.0957
|  6> N 2.5818 0.6510 0.0153
|  7> C 3.9745 0.3601 -0.1951
|  8> C 4.7895 1.3121 -0.8244
|  9> C 6.1409 1.0454 -1.0631
| 10> C 6.6975 -0.1919 -0.6871
| 11> O 8.0474 -0.5146 -0.9015
| 12> C 9.0116 0.3393 -1.5132
| 13> F 10.2277 -0.3148 -1.5540
| 14> F 8.6260 0.6447 -2.8061
| 15> F 9.1550 1.5015 -0.7766
| 16> C 5.8783 -1.1486 -0.0773
| 17> C 4.5271 -0.8822 0.1617
| 18> N 0.3630 0.0887 1.0257
| 19> C -0.3173 0.2234 -0.2697
| 20> C -1.5905 -0.6295 -0.3067
| 21> C -2.5145 -0.3845 0.9121
| 22> C -1.6979 -0.6045 2.2046
| 23> C -0.4270 0.2525 2.2546
| 24> C -3.1624 1.0281 0.9049
| 25> C -4.1519 1.2139 -0.2650
| 26> O -4.8983 2.3911 -0.0769
| 27> C -5.0608 0.0138 -0.4449
| 28> C -6.2134 0.1116 -1.2429
| 29> C -7.0449 -0.9968 -1.4202
| 30> C -6.7282 -2.2146 -0.8153
| 31> C -5.5704 -2.3334 -0.0403
| 32> Cl -5.1771 -3.8797 0.6944
| 33> C -4.7247 -1.2279 0.1328
| 34> O -3.5555 -1.3652 0.8912
| 35> H 2.1368 1.3775 -0.5896
| 36> H 4.3770 2.2674 -1.1245
| 37> H 6.7391 1.8076 -1.5417
| 38> H 6.2904 -2.1091 0.2059
| 39> H 3.9135 -1.6560 0.6030
| 40> H -0.5575 1.2912 -0.4562
| 41> H 0.3415 -0.1261 -1.0941
| 42> H -2.1287 -0.4497 -1.2603
| 43> H -1.2888 -1.7005 -0.3146
| 44> H -1.4005 -1.6748 2.2695
| 45> H -2.3244 -0.3862 3.0969
| 46> H -0.6892 1.3238 2.3832
| 47> H 0.1567 -0.0525 3.1494
| 48> H -3.7148 1.1654 1.8610
| 49> H -2.3958 1.8284 0.8562
| 50> H -3.5698 1.3388 -1.2022
| 51> H -5.4728 2.2586 0.7230
| 52> H -6.4707 1.0468 -1.7242
| 53> H -7.9363 -0.9114 -2.0282
| 54> H -7.3795 -3.0679 -0.9558
| 55> *
| 56>
| 57>                          ****END OF INPUT****

CARTESIAN COORDINATES (ANGSTROEM)
---------------------------------
  O      2.384700   -0.319300    2.130600
  C      1.803700    0.108000    1.095700
  N      2.581800    0.651000    0.015300
  C      3.974500    0.360100   -0.195100
  C      4.789500    1.312100   -0.824400
  C      6.140900    1.045400   -1.063100
  C      6.697500   -0.191900   -0.687100
  O      8.047400   -0.514600   -0.901500
  C      9.011600    0.339300   -1.513200
  F     10.227700   -0.314800   -1.554000
  F      8.626000    0.644700   -2.806100
  F      9.155000    1.501500   -0.776600
  C      5.878300   -1.148600   -0.077300
  C      4.527100   -0.882200    0.161700
  N      0.363000    0.088700    1.025700
  C     -0.317300    0.223400   -0.269700
  C     -1.590500   -0.629500   -0.306700
  C     -2.514500   -0.384500    0.912100
  C     -1.697900   -0.604500    2.204600
  C     -0.427000    0.252500    2.254600
  C     -3.162400    1.028100    0.904900
  C     -4.151900    1.213900   -0.265000
  O     -4.898300    2.391100   -0.076900
  C     -5.060800    0.013800   -0.444900
  C     -6.213400    0.111600   -1.242900
  C     -7.044900   -0.996800   -1.420200
  C     -6.728200   -2.214600   -0.815300
  C     -5.570400   -2.333400   -0.040300
  Cl    -5.177100   -3.879700    0.694400
  C     -4.724700   -1.227900    0.132800
  O     -3.555500   -1.365200    0.891200
  H      2.136800    1.377500   -0.589600
  H      4.377000    2.267400   -1.124500
  H      6.739100    1.807600   -1.541700
  H      6.290400   -2.109100    0.205900
  H      3.913500   -1.656000    0.603000
  H     -0.557500    1.291200   -0.456200
  H      0.341500   -0.126100   -1.094100
  H     -2.128700   -0.449700   -1.260300
  H     -1.288800   -1.700500   -0.314600
  H     -1.400500   -1.674800    2.269500
  H     -2.324400   -0.386200    3.096900
  H     -0.689200    1.323800    2.383200
  H      0.156700   -0.052500    3.149400
  H     -3.714800    1.165400    1.861000
  H     -2.395800    1.828400    0.856200
  H     -3.569800    1.338800   -1.202200
  H     -5.472800    2.258600    0.723000
  H     -6.470700    1.046800   -1.724200
  H     -7.936300   -0.911400   -2.028200
  H     -7.379500   -3.067900   -0.955800

 Total Charge           Charge          ....    0
 Multiplicity           Mult            ....    1
 Number of Electrons    NEL             ....  236
 Basis Dimension        Dim             ....  478

ORBITAL ENERGIES
----------------

  NO   OCC          E(Eh)            E(eV)
   0   2.0000    -101.525141     -2762.6395
   1   2.0000     -24.736957      -673.1268
   2   2.0000     -24.735202      -673.0791
   3   2.0000     -24.734683      -673.0650
   4   2.0000     -19.206301      -522.6300
   5   2.0000     -19.175919      -521.8033
   6   2.0000     -19.153393      -521.1903
   7   2.0000     -19.105336      -519.8826
   8   2.0000     -14.374506      -391.1502
   9   2.0000     -14.362669      -390.8281
  10   2.0000     -10.499249      -285.6991
  11   2.0000     -10.321199      -280.8541
  12   2.0000     -10.263700      -279.2895
  13   2.0000     -10.263444      -279.2825
  14   2.0000     -10.259897      -279.1860
  15   2.0000     -10.251273      -278.9513
  16   2.0000     -10.247280      -278.8427
  17   2.0000     -10.236670      -278.5539
  18   2.0000     -10.235321      -278.5172
  19   2.0000     -10.225874      -278.2602
  20   2.0000     -10.200320      -277.5648
  21   2.0000     -10.199099      -277.5316
  22   2.0000     -10.197435      -277.4863
  23   2.0000     -10.196036      -277.4482
  24   2.0000     -10.195201      -277.4255
  25   2.0000     -10.194522      -277.4070
  26   2.0000     -10.193360      -277.3754
  27   2.0000     -10.192676      -277.3568
  28   2.0000     -10.192281      -277.3461
  29   2.0000     -10.190264      -277.2912
  30   2.0000     -10.189288      -277.2646
  31   2.0000      -9.456571      -257.3264
  32   2.0000      -7.219794      -196.4606
  33   2.0000      -7.210201      -196.1995
  34   2.0000      -7.209739      -196.1870
  35   2.0000      -1.300003       -35.3749
  36   2.0000      -1.220927       -33.2231
  37   2.0000      -1.220252       -33.2047
  38   2.0000      -1.076403       -29.2904
  39   2.0000      -1.063349       -28.9352
  40   2.0000      -1.034145       -28.1405
  41   2.0000      -1.022647       -27.8277
  42   2.0000      -0.931585       -25.3497
  43   2.0000      -0.920639       -25.0519
  44   2.0000      -0.886398       -24.1201
  45   2.0000      -0.850554       -23.1448
  46   2.0000      -0.837278       -22.7835
  47   2.0000      -0.820781       -22.3346
  48   2.0000      -0.780388       -21.2354
  49   2.0000      -0.775514       -21.1028
  50   2.0000      -0.762704       -20.7542
  51   2.0000      -0.753482       -20.5033
  52   2.0000      -0.736766       -20.0484
  53   2.0000      -0.732378       -19.9290
  54   2.0000      -0.699728       -19.0406
  55   2.0000      -0.668209       -18.1829
  56   2.0000      -0.657094       -17.8804
  57   2.0000      -0.647601       -17.6221
  58   2.0000      -0.637866       -17.3572
  59   2.0000      -0.625758       -17.0277
  60   2.0000      -0.610939       -16.6245
  61   2.0000      -0.603840       -16.4313
  62   2.0000      -0.592162       -16.1135
  63   2.0000      -0.589611       -16.0441
  64   2.0000      -0.583264       -15.8714
  65   2.0000      -0.567661       -15.4468
  66   2.0000      -0.551770       -15.0144
  67   2.0000      -0.547883       -14.9086
  68   2.0000      -0.532433       -14.4882
  69   2.0000      -0.519264       -14.1299
  70   2.0000      -0.514297       -13.9947
  71   2.0000      -0.493862       -13.4387
  72   2.0000      -0.485908       -13.2222
  73   2.0000      -0.481389       -13.0993
  74   2.0000      -0.474598       -12.9145
  75   2.0000      -0.467902       -12.7323
  76   2.0000      -0.465847       -12.6763
  77   2.0000      -0.465182       -12.6582
  78   2.0000      -0.462002       -12.5717
  79   2.0000      -0.460177       -12.5221
  80   2.0000      -0.455370       -12.3912
  81   2.0000      -0.450333       -12.2542
  82   2.0000      -0.445411       -12.1203
  83   2.0000      -0.441092       -12.0027
  84   2.0000      -0.439999       -11.9730
  85   2.0000      -0.432924       -11.7805
  86   2.0000      -0.424051       -11.5390
  87   2.0000      -0.422978       -11.5098
  88   2.0000      -0.418047       -11.3756
  89   2.0000      -0.413508       -11.2521
  90   2.0000      -0.412459       -11.2236
  91   2.0000      -0.408147       -11.1062
  92   2.0000      -0.402597       -10.9552
  93   2.0000      -0.399547       -10.8722
  94   2.0000      -0.397625       -10.8199
  95   2.0000      -0.390031       -10.6133
  96   2.0000      -0.385332       -10.4854
  97   2.0000      -0.380806       -10.3623
  98   2.0000      -0.373561       -10.1651
  99   2.0000      -0.369745       -10.0613
 100   2.0000      -0.365209        -9.9378
 101   2.0000      -0.360934        -9.8215
 102   2.0000      -0.353847        -9.6287
 103   2.0000      -0.351773        -9.5722
 104   2.0000      -0.351270        -9.5585
 105   2.0000      -0.346925        -9.4403
 106   2.0000      -0.328487        -8.9386
 107   2.0000      -0.315010        -8.5719
 108   2.0000      -0.308957        -8.4072
 109   2.0000      -0.306692        -8.3455
 110   2.0000      -0.290394        -7.9020
 111   2.0000      -0.280858        -7.6425
 112   2.0000      -0.262200        -7.1348
 113   2.0000      -0.250974        -6.8293
 114   2.0000      -0.245747        -6.6871
 115   2.0000      -0.237209        -6.4548
 116   2.0000      -0.227526        -6.1913
 117   2.0000      -0.212823        -5.7912
 118   0.0000      -0.020634        -0.5615
 119   0.0000      -0.009549        -0.2598
 120   0.0000      -0.007743        -0.2107
 121   0.0000      -0.003163        -0.0861
 122   0.0000       0.029374         0.7993

MULLIKEN ATOMIC CHARGES
-----------------------
   0 O :   -0.486661
   1 C :    0.672779
   2 N :   -0.721650
   3 C :    0.352618
   4 C :   -0.188159
   5 C :   -0.191088
   6 C :    0.349642
   7 O :   -0.547110
   8 C :    1.084650
   9 F :   -0.280177
  10 F :   -0.293087
  11 F :   -0.292012
  12 C :   -0.182393
  13 C :   -0.134783
  14 N :   -0.431785
  15 C :   -0.155501
  16 C :   -0.292795
  17 C :    0.326990
  18 C :   -0.295477
  19 C :   -0.140296
  20 C :   -0.327913
  21 C :    0.104525
  22 O :   -0.625000
  23 C :    0.034858
  24 C :   -0.176930
  25 C :   -0.125259
  26 C :   -0.129155
  27 C :   -0.146433
  28 Cl:   -0.004957
  29 C :    0.336658
  30 O :   -0.539580
  31 H :    0.328436
  32 H :    0.130103
  33 H :    0.151480
  34 H :    0.151697
  35 H :    0.161958
  36 H :    0.130350
  37 H :    0.164052
  38 H :    0.146879
  39 H :    0.164976
  40 H :    0.165515
  41 H :    0.146341
  42 H :    0.139203
  43 H :    0.196999
  44 H :    0.134607
  45 H :    0.152648
  46 H :    0.150362
  47 H :    0.392335
  48 H :    0.148129
  49 H :    0.135671
  50 H :    0.153745
Sum of atomic charges:   -0.0000000

LOEWDIN ATOMIC CHARGES
----------------------
   0 O :   -0.304143
   1 C :    0.161693
   2 N :   -0.225990
   3 C :    0.036777
   4 C :   -0.145007
   5 C :   -0.156721
   6 C :    0.074935
   7 O :   -0.161622
   8 C :    0.358491
   9 F :   -0.088455
  10 F :   -0.106463
  11 F :   -0.105616
  12 C :   -0.135589
  13 C :   -0.120100
  14 N :   -0.127126
  15 C :   -0.160828
  16 C :   -0.236073
  17 C :    0.072348
  18 C :   -0.226893
  19 C :   -0.146459
  20 C :   -0.245137
  21 C :   -0.013991
  22 O :   -0.381999
  23 C :   -0.077214
  24 C :   -0.120675
  25 C :   -0.141520
  26 C :   -0.126144
  27 C :   -0.111190
  28 Cl:    0.042112
  29 C :    0.077716
  30 O :   -0.161979
  31 H :    0.255526
  32 H :    0.133367
  33 H :    0.142260
  34 H :    0.147215
  35 H :    0.152045
  36 H :    0.104840
  37 H :    0.136937
  38 H :    0.129601
  39 H :    0.138725
  40 H :    0.138753
  41 H :    0.131525
  42 H :    0.111682
  43 H :    0.156714
  44 H :    0.124752
  45 H :    0.131869
  46 H :    0.127729
  47 H :    0.314007
  48 H :    0.142412
  49 H :    0.136217
  50 H :    0.146684

  Mayer bond orders larger than 0.100000
B(  0-O ,  1-C ) :   1.7967 B(  1-C ,  2-N ) :   1.0013 B(  1-C , 14-N ) :   1.0493
B(  2-N ,  3-C ) :   0.8699 B(  2-N , 31-H ) :   0.8235 B(  3-C ,  4-C ) :   1.4064
B(  3-C , 13-C ) :   1.4169 B(  4-C ,  5-C ) :   1.4402 B(  4-C , 32-H ) :   0.9231
B(  5-C ,  6-C ) :   1.3978 B(  5-C , 33-H ) :   0.9093 B(  6-C ,  7-O ) :   0.8163
B(  6-C , 12-C ) :   1.4082 B(  7-O ,  8-C ) :   0.9963 B(  8-C ,  9-F ) :   1.0069
B(  8-C , 10-F ) :   0.9665 B(  8-C , 11-F ) :   0.9678 B( 12-C , 13-C ) :   1.4466
B( 12-C , 34-H ) :   0.9181 B( 13-C , 35-H ) :   0.9094 B( 14-N , 15-C ) :   0.9527
B( 14-N , 19-C ) :   0.9358 B( 15-C , 16-C ) :   0.9815 B( 15-C , 36-H ) :   0.9171
B( 15-C , 37-H ) :   0.9257 B( 16-C , 17-C ) :   0.9826 B( 16-C , 38-H ) :   0.9232
B( 16-C , 39-H ) :   0.9247 B( 17-C , 18-C ) :   0.9941 B( 17-C , 20-C ) :   0.9535
B( 17-C , 30-O ) :   0.8219 B( 18-C , 19-C ) :   0.9819 B( 18-C , 40-H ) :   0.9240
B( 18-C , 41-H ) :   0.9265 B( 19-C , 42-H ) :   0.9239 B( 19-C , 43-H ) :   0.9135
B( 20-C , 21-C ) :   0.9785 B( 20-C , 44-H ) :   0.9266 B( 20-C , 45-H ) :   0.9196
B( 21-C , 22-O ) :   0.9348 B( 21-C , 23-C ) :   0.9635 B( 21-C , 46-H ) :   0.9132
B( 22-O , 47-H ) :   0.7805 B( 23-C , 24-C ) :   1.4145 B( 23-C , 29-C ) :   1.3460
B( 24-C , 25-C ) :   1.4303 B( 24-C , 48-H ) :   0.9188 B( 25-C , 26-C ) :   1.4420
B( 25-C , 49-H ) :   0.9287 B( 26-C , 27-C ) :   1.4274 B( 26-C , 50-H ) :   0.9227
B( 27-C , 28-Cl) :   1.0301 B( 27-C , 29-C ) :   1.3219 B( 29-C , 30-O ) :   0.9447

FINAL SINGLE POINT ENERGY     -1981.474469089543

DIPOLE MOMENT
-------------

Method             : SCF
Type of density    : Electron Density
Multiplicity       :   1
Irrep              :   0
Energy             : -1981.4744690895427084 Eh
Relativity type    :
Basis              : AO
                                X                 Y                 Z
Electronic contribution:     47.819049813     -10.281878858      -8.703161212
Nuclear contribution   :    -49.419769063      11.409861178       7.857781111
                        -----------------------------------------
Total Dipole Moment    :     -1.600719250       1.127982321      -0.845380102
                        -----------------------------------------
Magnitude (a.u.)       :      2.132912035
Magnitude (Debye)      :      5.421431545

Rotational constants in cm-1:             0.012260             0.001136             0.001113
Rotational constants in MHz :           367.560067            34.051735            33.373990

                             ****ORCA TERMINATED NORMALLY****
TOTAL RUN TIME: 0 days 0 hours 7 minutes 25 seconds 692 msec
