                         Program Version 6.0.0  -   RELEASE  -
|  1> ! B3LYP 6-31G* SP
|  2>
|  3> * xyz 0 1
|  4> C 5.1072 0.4918 -3.3687
|  5> O 4.0020 -0.3251 -3.0004
|  6> C 2.6756 0.0959 -3.1349
|  7> O 2.4063 1.2289 -3.6181
|  8> C 1.5652 -0.8103 -2.6962
|  9> C 1.6575 -1.1501 -1.1998
| 10> C 1.4834 0.0759 -0.2625
| 11> N 0.0764 0.5492 -0.1784
| 12> C -0.7855 -0.2636 0.7134
| 13> C -2.2068 0.2310 0.6462
| 14> O -2.4435 1.4632 0.7794
| 15> N -3.2872 -0.6953 0.4588
| 16> C -4.6809 -0.2642 0.3655
| 17> C -4.9132 0.4886 -0.9181
| 18> C -4.7818 -0.1673 -2.1541
| 19> C -4.9807 0.5331 -3.3487
| 20> C -5.3155 1.8898 -3.3170
| 21> F -5.5060 2.5676 -4.4750
| 22> C -5.4470 2.5495 -2.0919
| 23> C -5.2462 1.8536 -0.8955
| 24> C -0.2878 -0.2025 2.1746
| 25> C 1.1866 -0.4223 2.2032
| 26> C 2.0089 -0.2428 1.1096
| 27> N 3.3100 -0.4104 1.4423
| 28> C 3.3059 -0.6740 2.7640
| 29> C 4.4111 -0.8924 3.5865
| 30> C 4.1770 -1.1176 4.9564
| 31> C 2.8597 -1.1170 5.4689
| 32> C 1.7621 -0.8939 4.6172
| 33> C 2.0246 -0.6819 3.2653
| 34> H 5.0896 1.4391 -2.7903
| 35> H 5.0693 0.7138 -4.4559
| 36> H 6.0497 -0.0469 -3.1442
| 37> H 0.5808 -0.3617 -2.9407
| 38> H 1.6414 -1.7537 -3.2777
| 39> H 2.6492 -1.6193 -1.0176
| 40> H 0.9033 -1.9286 -0.9661
| 41> H 2.1009 0.9151 -0.6471
| 42> H -0.3455 0.5705 -1.1349
| 43> H -0.7700 -1.3239 0.3827
| 44> H -3.0831 -1.7201 0.4203
| 45> H -4.9390 0.3544 1.2541
| 46> H -5.3448 -1.1554 0.3818
| 47> H -4.5219 -1.2184 -2.1897
| 48> H -4.8765 0.0222 -4.2972
| 49> H -5.7055 3.6000 -2.0675
| 50> H -5.3503 2.3789 0.0451
| 51> H -0.7943 -0.9838 2.7804
| 52> H -0.5008 0.7931 2.6208
| 53> H 4.1391 -0.3177 0.8139
| 54> H 5.4154 -0.8731 3.1878
| 55> H 5.0115 -1.2880 5.6234
| 56> H 2.6937 -1.2888 6.5248
| 57> H 0.7505 -0.8897 5.0017
| 58> *
| 59>
| 60>                          ****END OF INPUT****

CARTESIAN COORDINATES (ANGSTROEM)
---------------------------------
  C      5.107200    0.491800   -3.368700
  O      4.002000   -0.325100   -3.000400
  C      2.675600    0.095900   -3.134900
  O      2.406300    1.228900   -3.618100
  C      1.565200   -0.810300   -2.696200
  C      1.657500   -1.150100   -1.199800
  C      1.483400    0.075900   -0.262500
  N      0.076400    0.549200   -0.178400
  C     -0.785500   -0.263600    0.713400
  C     -2.206800    0.231000    0.646200
  O     -2.443500    1.463200    0.779400
  N     -3.287200   -0.695300    0.458800
  C     -4.680900   -0.264200    0.365500
  C     -4.913200    0.488600   -0.918100
  C     -4.781800   -0.167300   -2.154100
  C     -4.980700    0.533100   -3.348700
  C     -5.315500    1.889800   -3.317000
  F     -5.506000    2.567600   -4.475000
  C     -5.447000    2.549500   -2.091900
  C     -5.246200    1.853600   -0.895500
  C     -0.287800   -0.202500    2.174600
  C      1.186600   -0.422300    2.203200
  C      2.008900   -0.242800    1.109600
  N      3.310000   -0.410400    1.442300
  C      3.305900   -0.674000    2.764000
  C      4.411100   -0.892400    3.586500
  C      4.177000   -1.117600    4.956400
  C      2.859700   -1.117000    5.468900
  C      1.762100   -0.893900    4.617200
  C      2.024600   -0.681900    3.265300
  H      5.089600    1.439100   -2.790300
  H      5.069300    0.713800   -4.455900
  H      6.049700   -0.046900   -3.144200
  H      0.580800   -0.361700   -2.940700
  H      1.641400   -1.753700   -3.277700
  H      2.649200   -1.619300   -1.017600
  H      0.903300   -1.928600   -0.966100
  H      2.100900    0.915100   -0.647100
  H     -0.345500    0.570500   -1.134900
  H     -0.770000   -1.323900    0.382700
  H     -3.083100   -1.720100    0.420300
  H     -4.939000    0.354400    1.254100
  H     -5.344800   -1.155400    0.381800
  H     -4.521900   -1.218400   -2.189700
  H     -4.876500    0.022200   -4.297200
  H     -5.705500    3.600000   -2.067500
  H     -5.350300    2.378900    0.045100
  H     -0.794300   -0.983800    2.780400
  H     -0.500800    0.793100    2.620800
  H      4.139100   -0.317700    0.813900
  H      5.415400   -0.873100    3.187800
  H      5.011500   -1.288000    5.623400
  H      2.693700   -1.288800    6.524800
  H      0.750500   -0.889700    5.001700

 Total Charge           Charge          ....    0
 Multiplicity           Mult            ....    1
 Number of Electrons    NEL             ....  216
 Basis Dimension        Dim             ....  468

ORBITAL ENERGIES
----------------

  NO   OCC          E(Eh)            E(eV)
   0   2.0000     -24.690666      -671.8672
   1   2.0000     -19.191390      -522.2243
   2   2.0000     -19.131886      -520.6051
   3   2.0000     -19.105816      -519.8957
   4   2.0000     -14.373384      -391.1197
   5   2.0000     -14.359688      -390.7470
   6   2.0000     -14.320974      -389.6935
   7   2.0000     -10.321926      -280.8739
   8   2.0000     -10.283349      -279.8242
   9   2.0000     -10.261694      -279.2349
  10   2.0000     -10.245253      -278.7875
  11   2.0000     -10.225099      -278.2391
  12   2.0000     -10.224770      -278.2301
  13   2.0000     -10.223483      -278.1951
  14   2.0000     -10.208568      -277.7893
  15   2.0000     -10.205163      -277.6966
  16   2.0000     -10.198911      -277.5265
  17   2.0000     -10.196298      -277.4554
  18   2.0000     -10.188102      -277.2324
  19   2.0000     -10.187486      -277.2156
  20   2.0000     -10.184976      -277.1473
  21   2.0000     -10.183327      -277.1024
  22   2.0000     -10.182749      -277.0867
  23   2.0000     -10.181507      -277.0529
  24   2.0000     -10.172263      -276.8013
  25   2.0000     -10.168264      -276.6925
  26   2.0000     -10.166867      -276.6545
  27   2.0000     -10.165178      -276.6086
  28   2.0000     -10.157810      -276.4081
  29   2.0000     -10.156848      -276.3819
  30   2.0000      -1.204413       -32.7737
  31   2.0000      -1.083103       -29.4727
  32   2.0000      -1.005838       -27.3702
  33   2.0000      -0.994666       -27.0662
  34   2.0000      -0.994395       -27.0589
  35   2.0000      -0.909114       -24.7382
  36   2.0000      -0.905619       -24.6431
  37   2.0000      -0.850430       -23.1414
  38   2.0000      -0.833499       -22.6807
  39   2.0000      -0.809566       -22.0294
  40   2.0000      -0.794392       -21.6165
  41   2.0000      -0.769007       -20.9258
  42   2.0000      -0.754476       -20.5303
  43   2.0000      -0.747046       -20.3282
  44   2.0000      -0.735392       -20.0110
  45   2.0000      -0.724164       -19.7055
  46   2.0000      -0.716583       -19.4992
  47   2.0000      -0.687015       -18.6946
  48   2.0000      -0.673449       -18.3255
  49   2.0000      -0.645807       -17.5733
  50   2.0000      -0.624741       -17.0001
  51   2.0000      -0.616136       -16.7659
  52   2.0000      -0.599879       -16.3235
  53   2.0000      -0.591594       -16.0981
  54   2.0000      -0.575161       -15.6509
  55   2.0000      -0.566895       -15.4260
  56   2.0000      -0.562057       -15.2943
  57   2.0000      -0.546068       -14.8593
  58   2.0000      -0.533737       -14.5237
  59   2.0000      -0.531875       -14.4730
  60   2.0000      -0.515594       -14.0300
  61   2.0000      -0.501292       -13.6409
  62   2.0000      -0.493238       -13.4217
  63   2.0000      -0.485898       -13.2220
  64   2.0000      -0.482392       -13.1265
  65   2.0000      -0.478795       -13.0287
  66   2.0000      -0.472553       -12.8588
  67   2.0000      -0.470705       -12.8085
  68   2.0000      -0.456753       -12.4289
  69   2.0000      -0.454875       -12.3778
  70   2.0000      -0.449284       -12.2256
  71   2.0000      -0.446571       -12.1518
  72   2.0000      -0.440914       -11.9979
  73   2.0000      -0.437004       -11.8915
  74   2.0000      -0.433581       -11.7983
  75   2.0000      -0.428004       -11.6466
  76   2.0000      -0.423302       -11.5186
  77   2.0000      -0.419543       -11.4163
  78   2.0000      -0.417554       -11.3622
  79   2.0000      -0.414689       -11.2843
  80   2.0000      -0.411777       -11.2050
  81   2.0000      -0.397018       -10.8034
  82   2.0000      -0.393637       -10.7114
  83   2.0000      -0.387552       -10.5458
  84   2.0000      -0.382604       -10.4112
  85   2.0000      -0.376634       -10.2487
  86   2.0000      -0.370823       -10.0906
  87   2.0000      -0.364372        -9.9151
  88   2.0000      -0.361568        -9.8388
  89   2.0000      -0.357251        -9.7213
  90   2.0000      -0.350300        -9.5322
  91   2.0000      -0.347059        -9.4440
  92   2.0000      -0.343127        -9.3369
  93   2.0000      -0.341592        -9.2952
  94   2.0000      -0.335724        -9.1355
  95   2.0000      -0.329987        -8.9794
  96   2.0000      -0.320840        -8.7305
  97   2.0000      -0.318055        -8.6547
  98   2.0000      -0.296978        -8.0812
  99   2.0000      -0.264576        -7.1995
 100   2.0000      -0.263278        -7.1642
 101   2.0000      -0.254686        -6.9303
 102   2.0000      -0.249765        -6.7965
 103   2.0000      -0.241043        -6.5591
 104   2.0000      -0.226702        -6.1689
 105   2.0000      -0.223277        -6.0757
 106   2.0000      -0.211930        -5.7669
 107   2.0000      -0.186471        -5.0741
 108   0.0000      -0.012485        -0.3397
 109   0.0000      -0.003632        -0.0988
 110   0.0000       0.001157         0.0315
 111   0.0000       0.003488         0.0949
 112   0.0000       0.011156         0.3036

MULLIKEN ATOMIC CHARGES
-----------------------
   0 C :   -0.200202
   1 O :   -0.472294
   2 C :    0.587791
   3 O :   -0.454805
   4 C :   -0.338940
   5 C :   -0.291547
   6 C :   -0.038851
   7 N :   -0.547087
   8 C :   -0.029921
   9 C :    0.549972
  10 O :   -0.471224
  11 N :   -0.604207
  12 C :   -0.221690
  13 C :    0.171730
  14 C :   -0.156843
  15 C :   -0.209937
  16 C :    0.409260
  17 F :   -0.319606
  18 C :   -0.210403
  19 C :   -0.136439
  20 C :   -0.321308
  21 C :    0.033560
  22 C :    0.259552
  23 N :   -0.698939
  24 C :    0.311949
  25 C :   -0.196853
  26 C :   -0.142416
  27 C :   -0.150317
  28 C :   -0.202136
  29 C :    0.094062
  30 H :    0.163980
  31 H :    0.169640
  32 H :    0.162651
  33 H :    0.175873
  34 H :    0.169103
  35 H :    0.148046
  36 H :    0.147029
  37 H :    0.154805
  38 H :    0.305117
  39 H :    0.099365
  40 H :    0.318346
  41 H :    0.170111
  42 H :    0.152180
  43 H :    0.117501
  44 H :    0.138795
  45 H :    0.144434
  46 H :    0.146066
  47 H :    0.134715
  48 H :    0.183589
  49 H :    0.331462
  50 H :    0.111801
  51 H :    0.117393
  52 H :    0.116188
  53 H :    0.119897
Sum of atomic charges:   -0.0000000

LOEWDIN ATOMIC CHARGES
----------------------
   0 C :   -0.201330
   1 O :   -0.191530
   2 C :    0.180147
   3 O :   -0.261236
   4 C :   -0.247030
   5 C :   -0.236617
   6 C :   -0.066702
   7 N :   -0.281331
   8 C :   -0.076140
   9 C :    0.140184
  10 O :   -0.277840
  11 N :   -0.244448
  12 C :   -0.148668
  13 C :   -0.034300
  14 C :   -0.124905
  15 C :   -0.160910
  16 C :    0.114802
  17 F :   -0.105665
  18 C :   -0.156092
  19 C :   -0.107373
  20 C :   -0.207881
  21 C :   -0.083052
  22 C :   -0.000969
  23 N :   -0.117185
  24 C :    0.010138
  25 C :   -0.156258
  26 C :   -0.145259
  27 C :   -0.146163
  28 C :   -0.137487
  29 C :   -0.042716
  30 H :    0.128065
  31 H :    0.131365
  32 H :    0.131732
  33 H :    0.145130
  34 H :    0.147766
  35 H :    0.126649
  36 H :    0.126272
  37 H :    0.132637
  38 H :    0.232171
  39 H :    0.093782
  40 H :    0.245868
  41 H :    0.136396
  42 H :    0.132567
  43 H :    0.127521
  44 H :    0.140278
  45 H :    0.143382
  46 H :    0.141921
  47 H :    0.125988
  48 H :    0.148698
  49 H :    0.266723
  50 H :    0.125164
  51 H :    0.127724
  52 H :    0.126236
  53 H :    0.129782

  Mayer bond orders larger than 0.100000
B(  0-C ,  1-O ) :   0.8815 B(  0-C , 30-H ) :   0.9358 B(  0-C , 31-H ) :   0.9359
B(  0-C , 32-H ) :   0.9434 B(  1-O ,  2-C ) :   1.0081 B(  2-C ,  3-O ) :   1.8539
B(  2-C ,  4-C ) :   0.9913 B(  4-C ,  5-C ) :   0.9763 B(  4-C , 33-H ) :   0.9217
B(  4-C , 34-H ) :   0.9166 B(  5-C ,  6-C ) :   0.9482 B(  5-C , 35-H ) :   0.9248
B(  5-C , 36-H ) :   0.9275 B(  6-C ,  7-N ) :   0.9842 B(  6-C , 22-C ) :   0.9753
B(  6-C , 37-H ) :   0.9122 B(  7-N ,  8-C ) :   0.9665 B(  7-N , 38-H ) :   0.8331
B(  8-C ,  9-C ) :   0.9241 B(  8-C , 20-C ) :   0.9759 B(  8-C , 39-H ) :   0.9054
B(  9-C , 10-O ) :   1.8447 B(  9-C , 11-N ) :   1.0492 B( 11-N , 12-C ) :   0.9359
B( 11-N , 40-H ) :   0.8315 B( 12-C , 13-C ) :   0.9577 B( 12-C , 41-H ) :   0.9244
B( 12-C , 42-H ) :   0.9341 B( 13-C , 14-C ) :   1.4190 B( 13-C , 19-C ) :   1.4489
B( 14-C , 15-C ) :   1.4287 B( 14-C , 43-H ) :   0.9279 B( 15-C , 16-C ) :   1.3901
B( 15-C , 44-H ) :   0.9218 B( 16-C , 17-F ) :   0.9164 B( 16-C , 18-C ) :   1.3963
B( 18-C , 19-C ) :   1.4157 B( 18-C , 45-H ) :   0.9208 B( 19-C , 46-H ) :   0.9194
B( 20-C , 21-C ) :   0.9974 B( 20-C , 47-H ) :   0.9210 B( 20-C , 48-H ) :   0.9078
B( 21-C , 22-C ) :   1.5526 B( 21-C , 29-C ) :   1.2643 B( 22-C , 23-N ) :   1.0265
B( 23-N , 24-C ) :   0.9966 B( 23-N , 49-H ) :   0.8359 B( 24-C , 25-C ) :   1.3586
B( 24-C , 29-C ) :   1.3064 B( 25-C , 26-C ) :   1.4702 B( 25-C , 28-C ) :   0.1020
B( 25-C , 50-H ) :   0.9239 B( 26-C , 27-C ) :   1.3875 B( 26-C , 51-H ) :   0.9324
B( 27-C , 28-C ) :   1.4616 B( 27-C , 52-H ) :   0.9323 B( 28-C , 29-C ) :   1.3500
B( 28-C , 53-H ) :   0.9254

FINAL SINGLE POINT ENERGY     -1379.818533060615

DIPOLE MOMENT
-------------

Method             : SCF
Type of density    : Electron Density
Multiplicity       :   1
Irrep              :   0
Energy             : -1379.8185330606154366 Eh
Relativity type    :
Basis              : AO
                                X                 Y                 Z
Electronic contribution:    -14.502928258       9.163316327      -7.188780909
Nuclear contribution   :     15.259370407     -11.371176710       6.936166049
                        -----------------------------------------
Total Dipole Moment    :      0.756442149      -2.207860382      -0.252614860
                        -----------------------------------------
Magnitude (a.u.)       :      2.347480876
Magnitude (Debye)      :      5.966822195

Rotational constants in cm-1:             0.006426             0.002610             0.001952
Rotational constants in MHz :           192.643625            78.246921            58.531779

                             ****ORCA TERMINATED NORMALLY****
TOTAL RUN TIME: 0 days 0 hours 7 minutes 13 seconds 71 msec
