                         Program Version 6.0.0  -   RELEASE  -
|  1> ! B3LYP 6-31G* SP
|  2>
|  3> * xyz 0 1
|  4> C -0.3960 -0.8513 -1.5977
|  5> C -0.8242 0.4945 -1.0801
|  6> C -0.9589 1.5546 -1.9877
|  7> C -1.3904 2.8177 -1.5528
|  8> C -1.4799 3.9713 -2.5202
|  9> F -1.9374 3.5315 -3.7533
| 10> F -0.2253 4.5341 -2.6767
| 11> F -2.3527 4.9407 -2.0528
| 12> C -1.6501 3.0009 -0.1876
| 13> N -1.5108 1.9665 0.6800
| 14> C -1.1064 0.7308 0.2814
| 15> N -0.9293 -0.2896 1.2717
| 16> C -2.0883 -0.7725 2.0267
| 17> C -2.2631 -2.2511 1.8150
| 18> C -1.8541 -3.1652 2.8007
| 19> C -1.9670 -4.5403 2.5730
| 20> C -2.4882 -5.0119 1.3624
| 21> C -2.8947 -4.1082 0.3757
| 22> C -2.7810 -2.7323 0.5994
| 23> S 0.6749 -0.6761 1.8243
| 24> O 0.9054 -2.1538 1.6785
| 25> O 0.8180 -0.2980 3.2705
| 26> C 1.8840 0.2001 0.8850
| 27> C 2.7313 -0.4818 0.0005
| 28> C 3.6466 0.2251 -0.7828
| 29> C 3.7271 1.6263 -0.6970
| 30> C 4.6930 2.3702 -1.5369
| 31> O 4.7564 3.6287 -1.4765
| 32> O 5.5419 1.6857 -2.4052
| 33> C 2.8835 2.3036 0.2026
| 34> C 1.9719 1.5944 0.9891
| 35> H -1.1115 -1.1926 -2.3776
| 36> H 0.6181 -0.7712 -2.0478
| 37> H -0.3699 -1.6249 -0.8032
| 38> H -0.7247 1.3943 -3.0331
| 39> H -1.9540 3.9668 0.1961
| 40> H -3.0163 -0.2554 1.6927
| 41> H -1.9576 -0.5318 3.1058
| 42> H -1.4370 -2.8135 3.7388
| 43> H -1.6450 -5.2402 3.3337
| 44> H -2.5726 -6.0768 1.1871
| 45> H -3.2936 -4.4741 -0.5636
| 46> H -3.0859 -2.0412 -0.1754
| 47> H 2.6752 -1.5571 -0.0977
| 48> H 4.2828 -0.3260 -1.4646
| 49> H 6.2096 2.1840 -2.9838
| 50> H 2.9245 3.3815 0.2957
| 51> H 1.3216 2.1336 1.6673
| 52> *
| 53>
| 54>                          ****END OF INPUT****

CARTESIAN COORDINATES (ANGSTROEM)
---------------------------------
  C     -0.396000   -0.851300   -1.597700
  C     -0.824200    0.494500   -1.080100
  C     -0.958900    1.554600   -1.987700
  C     -1.390400    2.817700   -1.552800
  C     -1.479900    3.971300   -2.520200
  F     -1.937400    3.531500   -3.753300
  F     -0.225300    4.534100   -2.676700
  F     -2.352700    4.940700   -2.052800
  C     -1.650100    3.000900   -0.187600
  N     -1.510800    1.966500    0.680000
  C     -1.106400    0.730800    0.281400
  N     -0.929300   -0.289600    1.271700
  C     -2.088300   -0.772500    2.026700
  C     -2.263100   -2.251100    1.815000
  C     -1.854100   -3.165200    2.800700
  C     -1.967000   -4.540300    2.573000
  C     -2.488200   -5.011900    1.362400
  C     -2.894700   -4.108200    0.375700
  C     -2.781000   -2.732300    0.599400
  S      0.674900   -0.676100    1.824300
  O      0.905400   -2.153800    1.678500
  O      0.818000   -0.298000    3.270500
  C      1.884000    0.200100    0.885000
  C      2.731300   -0.481800    0.000500
  C      3.646600    0.225100   -0.782800
  C      3.727100    1.626300   -0.697000
  C      4.693000    2.370200   -1.536900
  O      4.756400    3.628700   -1.476500
  O      5.541900    1.685700   -2.405200
  C      2.883500    2.303600    0.202600
  C      1.971900    1.594400    0.989100
  H     -1.111500   -1.192600   -2.377600
  H      0.618100   -0.771200   -2.047800
  H     -0.369900   -1.624900   -0.803200
  H     -0.724700    1.394300   -3.033100
  H     -1.954000    3.966800    0.196100
  H     -3.016300   -0.255400    1.692700
  H     -1.957600   -0.531800    3.105800
  H     -1.437000   -2.813500    3.738800
  H     -1.645000   -5.240200    3.333700
  H     -2.572600   -6.076800    1.187100
  H     -3.293600   -4.474100   -0.563600
  H     -3.085900   -2.041200   -0.175400
  H      2.675200   -1.557100   -0.097700
  H      4.282800   -0.326000   -1.464600
  H      6.209600    2.184000   -2.983800
  H      2.924500    3.381500    0.295700
  H      1.321600    2.133600    1.667300

 Total Charge           Charge          ....    0
 Multiplicity           Mult            ....    1
 Number of Electrons    NEL             ....  232
 Basis Dimension        Dim             ....  472

ORBITAL ENERGIES
----------------

  NO   OCC          E(Eh)            E(eV)
   0   2.0000     -89.103802     -2424.6377
   1   2.0000     -24.731870      -672.9884
   2   2.0000     -24.730721      -672.9571
   3   2.0000     -24.727361      -672.8657
   4   2.0000     -19.201545      -522.5006
   5   2.0000     -19.144100      -520.9374
   6   2.0000     -19.127373      -520.4823
   7   2.0000     -19.126339      -520.4541
   8   2.0000     -14.375566      -391.1790
   9   2.0000     -14.351964      -390.5368
  10   2.0000     -10.448345      -284.3139
  11   2.0000     -10.341492      -281.4063
  12   2.0000     -10.282403      -279.7984
  13   2.0000     -10.251587      -278.9599
  14   2.0000     -10.247686      -278.8537
  15   2.0000     -10.240134      -278.6482
  16   2.0000     -10.231939      -278.4252
  17   2.0000     -10.231235      -278.4060
  18   2.0000     -10.228057      -278.3196
  19   2.0000     -10.227942      -278.3164
  20   2.0000     -10.227657      -278.3087
  21   2.0000     -10.227107      -278.2937
  22   2.0000     -10.224337      -278.2184
  23   2.0000     -10.223866      -278.2055
  24   2.0000     -10.193808      -277.3876
  25   2.0000     -10.186522      -277.1894
  26   2.0000     -10.180557      -277.0270
  27   2.0000     -10.179580      -277.0005
  28   2.0000     -10.177685      -276.9489
  29   2.0000     -10.176379      -276.9134
  30   2.0000     -10.175953      -276.9018
  31   2.0000      -8.139890      -221.4977
  32   2.0000      -6.105114      -166.1286
  33   2.0000      -6.102975      -166.0704
  34   2.0000      -6.102171      -166.0485
  35   2.0000      -1.289867       -35.0991
  36   2.0000      -1.216046       -33.0903
  37   2.0000      -1.214362       -33.0445
  38   2.0000      -1.087978       -29.6054
  39   2.0000      -1.085619       -29.5412
  40   2.0000      -1.000287       -27.2192
  41   2.0000      -0.977702       -26.6046
  42   2.0000      -0.965283       -26.2667
  43   2.0000      -0.923881       -25.1401
  44   2.0000      -0.897782       -24.4299
  45   2.0000      -0.846995       -23.0479
  46   2.0000      -0.840491       -22.8709
  47   2.0000      -0.814405       -22.1611
  48   2.0000      -0.811893       -22.0927
  49   2.0000      -0.783804       -21.3284
  50   2.0000      -0.766639       -20.8613
  51   2.0000      -0.737652       -20.0725
  52   2.0000      -0.725307       -19.7366
  53   2.0000      -0.713966       -19.4280
  54   2.0000      -0.712413       -19.3858
  55   2.0000      -0.682902       -18.5827
  56   2.0000      -0.661418       -17.9981
  57   2.0000      -0.647150       -17.6098
  58   2.0000      -0.635844       -17.3022
  59   2.0000      -0.625456       -17.0195
  60   2.0000      -0.605594       -16.4790
  61   2.0000      -0.599756       -16.3202
  62   2.0000      -0.582509       -15.8509
  63   2.0000      -0.580947       -15.8084
  64   2.0000      -0.577555       -15.7161
  65   2.0000      -0.570776       -15.5316
  66   2.0000      -0.560726       -15.2581
  67   2.0000      -0.550059       -14.9679
  68   2.0000      -0.522916       -14.2293
  69   2.0000      -0.514336       -13.9958
  70   2.0000      -0.500362       -13.6155
  71   2.0000      -0.493436       -13.4271
  72   2.0000      -0.486393       -13.2354
  73   2.0000      -0.477146       -12.9838
  74   2.0000      -0.467683       -12.7263
  75   2.0000      -0.465474       -12.6662
  76   2.0000      -0.462235       -12.5781
  77   2.0000      -0.457730       -12.4555
  78   2.0000      -0.456977       -12.4350
  79   2.0000      -0.455128       -12.3847
  80   2.0000      -0.449919       -12.2429
  81   2.0000      -0.448268       -12.1980
  82   2.0000      -0.444022       -12.0824
  83   2.0000      -0.440347       -11.9825
  84   2.0000      -0.435603       -11.8534
  85   2.0000      -0.430690       -11.7197
  86   2.0000      -0.425410       -11.5760
  87   2.0000      -0.422234       -11.4896
  88   2.0000      -0.418927       -11.3996
  89   2.0000      -0.415537       -11.3073
  90   2.0000      -0.411428       -11.1955
  91   2.0000      -0.408543       -11.1170
  92   2.0000      -0.405986       -11.0475
  93   2.0000      -0.399720       -10.8769
  94   2.0000      -0.397519       -10.8170
  95   2.0000      -0.391063       -10.6414
  96   2.0000      -0.388634       -10.5753
  97   2.0000      -0.377233       -10.2650
  98   2.0000      -0.374088       -10.1794
  99   2.0000      -0.355250        -9.6668
 100   2.0000      -0.345139        -9.3917
 101   2.0000      -0.337849        -9.1933
 102   2.0000      -0.328007        -8.9255
 103   2.0000      -0.326072        -8.8729
 104   2.0000      -0.313285        -8.5249
 105   2.0000      -0.309621        -8.4252
 106   2.0000      -0.300217        -8.1693
 107   2.0000      -0.291367        -7.9285
 108   2.0000      -0.287812        -7.8318
 109   2.0000      -0.284662        -7.7461
 110   2.0000      -0.280071        -7.6211
 111   2.0000      -0.273745        -7.4490
 112   2.0000      -0.271540        -7.3890
 113   2.0000      -0.249072        -6.7776
 114   2.0000      -0.241155        -6.5622
 115   2.0000      -0.234417        -6.3788
 116   0.0000      -0.092654        -2.5212
 117   0.0000      -0.062229        -1.6933
 118   0.0000      -0.043736        -1.1901
 119   0.0000      -0.036607        -0.9961
 120   0.0000      -0.006906        -0.1879

MULLIKEN ATOMIC CHARGES
-----------------------
   0 C :   -0.559731
   1 C :    0.164795
   2 C :   -0.172057
   3 C :   -0.029788
   4 C :    0.901897
   5 F :   -0.304122
   6 F :   -0.292958
   7 F :   -0.302863
   8 C :   -0.022710
   9 N :   -0.372869
  10 C :    0.289244
  11 N :   -0.590116
  12 C :   -0.250702
  13 C :    0.168041
  14 C :   -0.142384
  15 C :   -0.125665
  16 C :   -0.123180
  17 C :   -0.128308
  18 C :   -0.169647
  19 S :    1.219075
  20 O :   -0.545577
  21 O :   -0.528525
  22 C :   -0.152307
  23 C :   -0.140453
  24 C :   -0.149807
  25 C :    0.084605
  26 C :    0.530449
  27 O :   -0.439806
  28 O :   -0.624075
  29 C :   -0.141869
  30 C :   -0.136646
  31 H :    0.166663
  32 H :    0.165237
  33 H :    0.213947
  34 H :    0.163930
  35 H :    0.176412
  36 H :    0.182808
  37 H :    0.186533
  38 H :    0.146131
  39 H :    0.131169
  40 H :    0.126604
  41 H :    0.124540
  42 H :    0.117160
  43 H :    0.194206
  44 H :    0.176102
  45 H :    0.436157
  46 H :    0.185149
  47 H :    0.195311
Sum of atomic charges:   -0.0000000

LOEWDIN ATOMIC CHARGES
----------------------
   0 C :   -0.368324
   1 C :   -0.024639
   2 C :   -0.087070
   3 C :   -0.080749
   4 C :    0.313540
   5 F :   -0.113940
   6 F :   -0.111048
   7 F :   -0.110505
   8 C :   -0.060350
   9 N :   -0.126856
  10 C :    0.039659
  11 N :   -0.277814
  12 C :   -0.139922
  13 C :   -0.033146
  14 C :   -0.113686
  15 C :   -0.122323
  16 C :   -0.127450
  17 C :   -0.130560
  18 C :   -0.133288
  19 S :    1.265562
  20 O :   -0.573193
  21 O :   -0.569640
  22 C :   -0.174241
  23 C :   -0.098740
  24 C :   -0.102475
  25 C :   -0.034256
  26 C :    0.180964
  27 O :   -0.256162
  28 O :   -0.335075
  29 C :   -0.085799
  30 C :   -0.096349
  31 H :    0.141075
  32 H :    0.140352
  33 H :    0.156819
  34 H :    0.149705
  35 H :    0.148316
  36 H :    0.151177
  37 H :    0.143352
  38 H :    0.139460
  39 H :    0.133128
  40 H :    0.130725
  41 H :    0.129382
  42 H :    0.125710
  43 H :    0.164697
  44 H :    0.156278
  45 H :    0.351345
  46 H :    0.162586
  47 H :    0.163770

  Mayer bond orders larger than 0.100000
B(  0-C ,  1-C ) :   0.9864 B(  0-C , 31-H ) :   0.9330 B(  0-C , 32-H ) :   0.9278
B(  0-C , 33-H ) :   0.9098 B(  1-C ,  2-C ) :   1.3931 B(  1-C , 10-C ) :   1.3795
B(  2-C ,  3-C ) :   1.4020 B(  2-C , 34-H ) :   0.9149 B(  3-C ,  4-C ) :   0.9727
B(  3-C ,  8-C ) :   1.3594 B(  4-C ,  5-F ) :   0.9490 B(  4-C ,  6-F ) :   0.9880
B(  4-C ,  7-F ) :   0.9466 B(  8-C ,  9-N ) :   1.4219 B(  8-C , 35-H ) :   0.9197
B(  9-N , 10-C ) :   1.3613 B( 10-C , 11-N ) :   0.9548 B( 11-N , 12-C ) :   0.9072
B( 11-N , 19-S ) :   0.7924 B( 12-C , 13-C ) :   0.9504 B( 12-C , 36-H ) :   0.9213
B( 12-C , 37-H ) :   0.9167 B( 13-C , 14-C ) :   1.4414 B( 13-C , 18-C ) :   1.4211
B( 14-C , 15-C ) :   1.4404 B( 14-C , 38-H ) :   0.9188 B( 15-C , 16-C ) :   1.4556
B( 15-C , 39-H ) :   0.9291 B( 16-C , 17-C ) :   1.4499 B( 16-C , 40-H ) :   0.9305
B( 17-C , 18-C ) :   1.4480 B( 17-C , 41-H ) :   0.9303 B( 18-C , 42-H ) :   0.9262
B( 19-S , 20-O ) :   1.6053 B( 19-S , 21-O ) :   1.6647 B( 19-S , 22-C ) :   0.8113
B( 22-C , 23-C ) :   1.4029 B( 22-C , 30-C ) :   1.3724 B( 23-C , 24-C ) :   1.4089
B( 23-C , 43-H ) :   0.9057 B( 24-C , 25-C ) :   1.3851 B( 24-C , 44-H ) :   0.9141
B( 25-C , 26-C ) :   1.0058 B( 25-C , 29-C ) :   1.4003 B( 26-C , 27-O ) :   1.8653
B( 26-C , 28-O ) :   1.0253 B( 28-O , 45-H ) :   0.7405 B( 29-C , 30-C ) :   1.4266
B( 29-C , 46-H ) :   0.9085 B( 30-C , 47-H ) :   0.9052

FINAL SINGLE POINT ENERGY     -1917.589054399949

DIPOLE MOMENT
-------------

Method             : SCF
Type of density    : Electron Density
Multiplicity       :   1
Irrep              :   0
Energy             : -1917.5890543999487363 Eh
Relativity type    :
Basis              : AO
                                X                 Y                 Z
Electronic contribution:      0.492438273      31.809584519     -12.150304378
Nuclear contribution   :     -0.360786244     -32.136724316      10.366136607
                        -----------------------------------------
Total Dipole Moment    :      0.131652029      -0.327139797      -1.784167771
                        -----------------------------------------
Magnitude (a.u.)       :      1.818682858
Magnitude (Debye)      :      4.622724451

Rotational constants in cm-1:             0.005799             0.003295             0.002453
Rotational constants in MHz :           173.843665            98.786419            73.534767

                             ****ORCA TERMINATED NORMALLY****
TOTAL RUN TIME: 0 days 0 hours 5 minutes 59 seconds 569 msec
