                         Program Version 6.0.0  -   RELEASE  -
|  1> ! B3LYP 6-31G* SP
|  2>
|  3> * xyz 0 1
|  4> C 7.0163 -2.9706 1.9299
|  5> O 6.9088 -1.8548 1.0519
|  6> C 5.6974 -1.2515 0.6830
|  7> C 5.7376 -0.1579 -0.1898
|  8> C 4.5580 0.4776 -0.5880
|  9> C 3.3158 0.0189 -0.1240
| 10> C 2.0476 0.7230 -0.5248
| 11> C 1.7194 1.8463 0.4661
| 12> C 0.4573 2.6131 0.0642
| 13> O -0.6785 1.7708 0.1670
| 14> C -1.2578 1.4899 -1.0987
| 15> C -2.2477 2.6011 -1.5026
| 16> N -3.3147 2.7602 -0.5146
| 17> C -4.5406 2.2135 -0.5537
| 18> C -5.2040 2.5849 0.5939
| 19> N -4.3995 3.3590 1.3520
| 20> C -3.2537 3.4436 0.6443
| 21> C -1.9571 0.1463 -1.0531
| 22> C -2.5431 -0.3318 0.1335
| 23> C -3.2187 -1.5552 0.1488
| 24> C -3.3276 -2.3209 -1.0268
| 25> O -3.9950 -3.5543 -1.0625
| 26> C -4.6244 -4.1602 0.0618
| 27> C -2.7550 -1.8402 -2.2090
| 28> C -2.0807 -0.6164 -2.2263
| 29> C 3.2719 -1.0687 0.7616
| 30> C 4.4520 -1.7041 1.1597
| 31> H 6.6058 -2.7114 2.9287
| 32> H 6.4732 -3.8424 1.5077
| 33> H 8.0861 -3.2401 2.0446
| 34> H 6.6892 0.2033 -0.5589
| 35> H 4.6130 1.3277 -1.2567
| 36> H 1.2121 -0.0100 -0.5564
| 37> H 2.1584 1.1452 -1.5479
| 38> H 2.5704 2.5613 0.5067
| 39> H 1.5780 1.4191 1.4833
| 40> H 0.6016 3.0879 -0.9348
| 41> H 0.3225 3.4496 0.7822
| 42> H -0.4768 1.4161 -1.8931
| 43> H -2.6883 2.3650 -2.4965
| 44> H -1.7043 3.5641 -1.6126
| 45> H -4.9183 1.5820 -1.3475
| 46> H -6.2124 2.3037 0.8661
| 47> H -2.3838 3.9945 0.9777
| 48> H -2.4890 0.2457 1.0478
| 49> H -3.6567 -1.8932 1.0779
| 50> H -3.8764 -4.3550 0.8591
| 51> H -5.4321 -3.5029 0.4474
| 52> H -5.0711 -5.1265 -0.2499
| 53> H -2.8371 -2.4170 -3.1216
| 54> H -1.6567 -0.2617 -3.1576
| 55> H 2.3231 -1.4239 1.1449
| 56> H 4.3853 -2.5424 1.8395
| 57> *
| 58>
| 59>                          ****END OF INPUT****

CARTESIAN COORDINATES (ANGSTROEM)
---------------------------------
  C      7.016300   -2.970600    1.929900
  O      6.908800   -1.854800    1.051900
  C      5.697400   -1.251500    0.683000
  C      5.737600   -0.157900   -0.189800
  C      4.558000    0.477600   -0.588000
  C      3.315800    0.018900   -0.124000
  C      2.047600    0.723000   -0.524800
  C      1.719400    1.846300    0.466100
  C      0.457300    2.613100    0.064200
  O     -0.678500    1.770800    0.167000
  C     -1.257800    1.489900   -1.098700
  C     -2.247700    2.601100   -1.502600
  N     -3.314700    2.760200   -0.514600
  C     -4.540600    2.213500   -0.553700
  C     -5.204000    2.584900    0.593900
  N     -4.399500    3.359000    1.352000
  C     -3.253700    3.443600    0.644300
  C     -1.957100    0.146300   -1.053100
  C     -2.543100   -0.331800    0.133500
  C     -3.218700   -1.555200    0.148800
  C     -3.327600   -2.320900   -1.026800
  O     -3.995000   -3.554300   -1.062500
  C     -4.624400   -4.160200    0.061800
  C     -2.755000   -1.840200   -2.209000
  C     -2.080700   -0.616400   -2.226300
  C      3.271900   -1.068700    0.761600
  C      4.452000   -1.704100    1.159700
  H      6.605800   -2.711400    2.928700
  H      6.473200   -3.842400    1.507700
  H      8.086100   -3.240100    2.044600
  H      6.689200    0.203300   -0.558900
  H      4.613000    1.327700   -1.256700
  H      1.212100   -0.010000   -0.556400
  H      2.158400    1.145200   -1.547900
  H      2.570400    2.561300    0.506700
  H      1.578000    1.419100    1.483300
  H      0.601600    3.087900   -0.934800
  H      0.322500    3.449600    0.782200
  H     -0.476800    1.416100   -1.893100
  H     -2.688300    2.365000   -2.496500
  H     -1.704300    3.564100   -1.612600
  H     -4.918300    1.582000   -1.347500
  H     -6.212400    2.303700    0.866100
  H     -2.383800    3.994500    0.977700
  H     -2.489000    0.245700    1.047800
  H     -3.656700   -1.893200    1.077900
  H     -3.876400   -4.355000    0.859100
  H     -5.432100   -3.502900    0.447400
  H     -5.071100   -5.126500   -0.249900
  H     -2.837100   -2.417000   -3.121600
  H     -1.656700   -0.261700   -3.157600
  H      2.323100   -1.423900    1.144900
  H      4.385300   -2.542400    1.839500

 Total Charge           Charge          ....    0
 Multiplicity           Mult            ....    1
 Number of Electrons    NEL             ....  196
 Basis Dimension        Dim             ....  430

ORBITAL ENERGIES
----------------

  NO   OCC          E(Eh)            E(eV)
   0   2.0000     -19.163321      -521.4605
   1   2.0000     -19.158759      -521.3363
   2   2.0000     -19.155422      -521.2455
   3   2.0000     -14.380005      -391.2998
   4   2.0000     -14.287864      -388.7926
   5   2.0000     -10.248688      -278.8810
   6   2.0000     -10.245254      -278.7875
   7   2.0000     -10.239261      -278.6245
   8   2.0000     -10.236120      -278.5390
   9   2.0000     -10.235590      -278.5246
  10   2.0000     -10.233606      -278.4706
  11   2.0000     -10.231918      -278.4246
  12   2.0000     -10.209283      -277.8087
  13   2.0000     -10.187847      -277.2254
  14   2.0000     -10.185848      -277.1710
  15   2.0000     -10.182325      -277.0751
  16   2.0000     -10.181242      -277.0457
  17   2.0000     -10.180707      -277.0311
  18   2.0000     -10.179495      -276.9981
  19   2.0000     -10.178989      -276.9844
  20   2.0000     -10.178792      -276.9790
  21   2.0000     -10.178229      -276.9637
  22   2.0000     -10.178019      -276.9580
  23   2.0000     -10.177351      -276.9398
  24   2.0000     -10.176404      -276.9140
  25   2.0000     -10.174894      -276.8729
  26   2.0000     -10.167281      -276.6658
  27   2.0000      -1.047347       -28.4998
  28   2.0000      -1.041088       -28.3295
  29   2.0000      -1.036736       -28.2110
  30   2.0000      -1.009255       -27.4632
  31   2.0000      -0.873405       -23.7666
  32   2.0000      -0.850395       -23.1404
  33   2.0000      -0.847222       -23.0541
  34   2.0000      -0.797939       -21.7130
  35   2.0000      -0.779146       -21.2016
  36   2.0000      -0.746540       -20.3144
  37   2.0000      -0.744787       -20.2667
  38   2.0000      -0.739787       -20.1306
  39   2.0000      -0.736638       -20.0449
  40   2.0000      -0.718288       -19.5456
  41   2.0000      -0.701050       -19.0765
  42   2.0000      -0.689760       -18.7693
  43   2.0000      -0.661318       -17.9954
  44   2.0000      -0.633870       -17.2485
  45   2.0000      -0.611523       -16.6404
  46   2.0000      -0.604921       -16.4607
  47   2.0000      -0.591045       -16.0831
  48   2.0000      -0.583545       -15.8791
  49   2.0000      -0.576705       -15.6929
  50   2.0000      -0.567065       -15.4306
  51   2.0000      -0.555648       -15.1199
  52   2.0000      -0.530168       -14.4266
  53   2.0000      -0.525123       -14.2893
  54   2.0000      -0.520876       -14.1738
  55   2.0000      -0.503349       -13.6968
  56   2.0000      -0.495579       -13.4854
  57   2.0000      -0.476948       -12.9784
  58   2.0000      -0.476110       -12.9556
  59   2.0000      -0.464519       -12.6402
  60   2.0000      -0.458473       -12.4757
  61   2.0000      -0.457494       -12.4490
  62   2.0000      -0.455356       -12.3909
  63   2.0000      -0.448277       -12.1982
  64   2.0000      -0.442344       -12.0368
  65   2.0000      -0.439100       -11.9485
  66   2.0000      -0.429388       -11.6842
  67   2.0000      -0.428248       -11.6532
  68   2.0000      -0.423289       -11.5183
  69   2.0000      -0.417685       -11.3658
  70   2.0000      -0.414536       -11.2801
  71   2.0000      -0.411856       -11.2072
  72   2.0000      -0.407108       -11.0780
  73   2.0000      -0.400380       -10.8949
  74   2.0000      -0.398733       -10.8501
  75   2.0000      -0.390268       -10.6197
  76   2.0000      -0.385127       -10.4798
  77   2.0000      -0.375455       -10.2167
  78   2.0000      -0.368662       -10.0318
  79   2.0000      -0.359782        -9.7902
  80   2.0000      -0.357757        -9.7351
  81   2.0000      -0.354783        -9.6541
  82   2.0000      -0.340197        -9.2572
  83   2.0000      -0.336913        -9.1679
  84   2.0000      -0.334011        -9.0889
  85   2.0000      -0.327316        -8.9067
  86   2.0000      -0.312009        -8.4902
  87   2.0000      -0.308708        -8.4004
  88   2.0000      -0.307740        -8.3740
  89   2.0000      -0.300450        -8.1757
  90   2.0000      -0.270691        -7.3659
  91   2.0000      -0.254075        -6.9137
  92   2.0000      -0.246531        -6.7084
  93   2.0000      -0.244197        -6.6449
  94   2.0000      -0.244025        -6.6403
  95   2.0000      -0.217016        -5.9053
  96   2.0000      -0.207124        -5.6361
  97   2.0000      -0.200706        -5.4615
  98   0.0000      -0.001567        -0.0426
  99   0.0000       0.003121         0.0849
 100   0.0000       0.006777         0.1844
 101   0.0000       0.016786         0.4568
 102   0.0000       0.041831         1.1383

MULLIKEN ATOMIC CHARGES
-----------------------
   0 C :   -0.192617
   1 O :   -0.514536
   2 C :    0.368562
   3 C :   -0.175122
   4 C :   -0.169417
   5 C :    0.159098
   6 C :   -0.359196
   7 C :   -0.245900
   8 C :   -0.035458
   9 O :   -0.474442
  10 C :    0.084320
  11 C :   -0.179467
  12 N :   -0.295844
  13 C :   -0.016011
  14 C :   -0.050185
  15 N :   -0.392501
  16 C :    0.136804
  17 C :    0.101650
  18 C :   -0.152128
  19 C :   -0.209965
  20 C :    0.372261
  21 O :   -0.513588
  22 C :   -0.194869
  23 C :   -0.175788
  24 C :   -0.178430
  25 C :   -0.172112
  26 C :   -0.206537
  27 H :    0.144626
  28 H :    0.144737
  29 H :    0.166615
  30 H :    0.133780
  31 H :    0.120791
  32 H :    0.158146
  33 H :    0.125406
  34 H :    0.131224
  35 H :    0.151618
  36 H :    0.122237
  37 H :    0.136466
  38 H :    0.127758
  39 H :    0.165306
  40 H :    0.160321
  41 H :    0.143623
  42 H :    0.123130
  43 H :    0.145146
  44 H :    0.164553
  45 H :    0.135797
  46 H :    0.146600
  47 H :    0.148153
  48 H :    0.168044
  49 H :    0.136999
  50 H :    0.122353
  51 H :    0.129580
  52 H :    0.128407
Sum of atomic charges:    0.0000000

LOEWDIN ATOMIC CHARGES
----------------------
   0 C :   -0.198954
   1 O :   -0.197276
   2 C :    0.084294
   3 C :   -0.148219
   4 C :   -0.130590
   5 C :   -0.032641
   6 C :   -0.226868
   7 C :   -0.232846
   8 C :   -0.100807
   9 O :   -0.216948
  10 C :   -0.006141
  11 C :   -0.153970
  12 N :    0.037869
  13 C :   -0.159674
  14 C :   -0.149123
  15 N :   -0.177448
  16 C :   -0.094601
  17 C :   -0.051161
  18 C :   -0.107725
  19 C :   -0.171982
  20 C :    0.089271
  21 O :   -0.195363
  22 C :   -0.199220
  23 C :   -0.150841
  24 C :   -0.132709
  25 C :   -0.128642
  26 C :   -0.173191
  27 H :    0.114866
  28 H :    0.114953
  29 H :    0.133980
  30 H :    0.138631
  31 H :    0.129362
  32 H :    0.132234
  33 H :    0.116209
  34 H :    0.122996
  35 H :    0.130415
  36 H :    0.106188
  37 H :    0.114095
  38 H :    0.115934
  39 H :    0.139713
  40 H :    0.132376
  41 H :    0.135512
  42 H :    0.126189
  43 H :    0.133178
  44 H :    0.148946
  45 H :    0.136875
  46 H :    0.116087
  47 H :    0.116788
  48 H :    0.134819
  49 H :    0.140363
  50 H :    0.128987
  51 H :    0.132482
  52 H :    0.133327

  Mayer bond orders larger than 0.100000
B(  0-C ,  1-O ) :   0.9243 B(  0-C , 27-H ) :   0.9306 B(  0-C , 28-H ) :   0.9306
B(  0-C , 29-H ) :   0.9457 B(  1-O ,  2-C ) :   0.9148 B(  2-C ,  3-C ) :   1.4003
B(  2-C , 26-C ) :   1.3709 B(  3-C ,  4-C ) :   1.4422 B(  3-C , 30-H ) :   0.9202
B(  4-C ,  5-C ) :   1.4240 B(  4-C , 31-H ) :   0.9262 B(  5-C ,  6-C ) :   0.9826
B(  5-C , 25-C ) :   1.4401 B(  6-C ,  7-C ) :   0.9943 B(  6-C , 32-H ) :   0.9224
B(  6-C , 33-H ) :   0.9338 B(  7-C ,  8-C ) :   0.9931 B(  7-C , 34-H ) :   0.9301
B(  7-C , 35-H ) :   0.9341 B(  8-C ,  9-O ) :   0.9141 B(  8-C , 36-H ) :   0.9164
B(  8-C , 37-H ) :   0.9338 B(  9-O , 10-C ) :   0.9074 B( 10-C , 11-C ) :   0.9303
B( 10-C , 17-C ) :   0.9876 B( 10-C , 38-H ) :   0.9030 B( 11-C , 12-N ) :   0.9489
B( 11-C , 39-H ) :   0.9258 B( 11-C , 40-H ) :   0.9229 B( 12-N , 13-C ) :   1.1745
B( 12-N , 16-C ) :   1.1974 B( 13-C , 14-C ) :   1.5484 B( 13-C , 41-H ) :   0.9278
B( 14-C , 15-N ) :   1.3548 B( 14-C , 42-H ) :   0.9421 B( 15-N , 16-C ) :   1.5408
B( 16-C , 43-H ) :   0.9323 B( 17-C , 18-C ) :   1.4332 B( 17-C , 24-C ) :   1.4062
B( 18-C , 19-C ) :   1.4193 B( 18-C , 44-H ) :   0.9132 B( 19-C , 20-C ) :   1.3651
B( 19-C , 45-H ) :   0.9188 B( 20-C , 21-O ) :   0.9200 B( 20-C , 23-C ) :   1.4001
B( 21-O , 22-C ) :   0.9207 B( 22-C , 46-H ) :   0.9308 B( 22-C , 47-H ) :   0.9305
B( 22-C , 48-H ) :   0.9453 B( 23-C , 24-C ) :   1.4441 B( 23-C , 49-H ) :   0.9198
B( 24-C , 50-H ) :   0.9251 B( 25-C , 26-C ) :   1.4221 B( 25-C , 51-H ) :   0.9244
B( 26-C , 52-H ) :   0.9191

FINAL SINGLE POINT ENERGY     -1188.366945064365

DIPOLE MOMENT
-------------

Method             : SCF
Type of density    : Electron Density
Multiplicity       :   1
Irrep              :   0
Energy             : -1188.3669450643651544 Eh
Relativity type    :
Basis              : AO
                                X                 Y                 Z
Electronic contribution:     -6.695997579       3.410019746      -2.304066780
Nuclear contribution   :      7.472943803      -4.317501173       1.560805382
                        -----------------------------------------
Total Dipole Moment    :      0.776946224      -0.907481427      -0.743261398
                        -----------------------------------------
Magnitude (a.u.)       :      1.406984535
Magnitude (Debye)      :      3.576270478

Rotational constants in cm-1:             0.008478             0.002712             0.002236
Rotational constants in MHz :           254.157584            81.316170            67.045021

                             ****ORCA TERMINATED NORMALLY****
TOTAL RUN TIME: 0 days 0 hours 4 minutes 11 seconds 202 msec
