                         Program Version 6.0.0  -   RELEASE  -
|  1> ! B3LYP 6-31G* SP
|  2>
|  3> * xyz 0 1
|  4> C -2.8430 -3.8832 -1.4176
|  5> C -2.2735 -2.5916 -1.9941
|  6> C -3.1439 -1.4206 -1.6383
|  7> S -4.4477 -0.9173 -2.5804
|  8> C -4.9035 0.3414 -1.5617
|  9> C -4.0541 0.3976 -0.4718
| 10> C -3.0616 -0.6199 -0.4850
| 11> C -1.9929 -0.8104 0.5686
| 12> C -0.7745 0.0182 0.2708
| 13> O -0.9124 1.1962 -0.1603
| 14> N 0.5324 -0.5081 0.5600
| 15> C 1.7680 0.1321 0.2080
| 16> N 2.9651 -0.3240 0.6317
| 17> C 4.0040 0.4211 0.1574
| 18> C 5.4118 0.1033 0.5173
| 19> C 5.6801 -0.8078 1.5539
| 20> C 6.9955 -1.1130 1.9149
| 21> C 8.0776 -0.5077 1.2532
| 22> C 9.5028 -0.8541 1.6163
| 23> F 10.2649 0.2982 1.6993
| 24> F 10.0343 -1.6784 0.6411
| 25> F 9.5715 -1.5046 2.8365
| 26> C 7.8143 0.3795 0.1942
| 27> F 8.8337 0.9448 -0.5019
| 28> C 6.4972 0.6847 -0.1651
| 29> C 3.6201 1.4886 -0.6622
| 30> S 1.9439 1.4785 -0.7861
| 31> C -4.2506 1.4247 0.4626
| 32> O -3.4720 1.5491 1.4471
| 33> N -5.2878 2.3106 0.2865
| 34> C -5.4819 3.4067 1.2532
| 35> C -6.0948 2.2314 -0.8292
| 36> O -6.9959 3.0990 -1.0121
| 37> N -5.9237 1.2249 -1.7491
| 38> C -6.7650 1.1372 -2.9534
| 39> H -2.1937 -4.7363 -1.7048
| 40> H -3.8645 -4.0654 -1.8163
| 41> H -2.8903 -3.8282 -0.3092
| 42> H -1.2388 -2.4342 -1.6230
| 43> H -2.2181 -2.6831 -3.0999
| 44> H -1.7086 -1.8816 0.6218
| 45> H -2.3761 -0.5676 1.5789
| 46> H 0.5955 -1.4143 1.0777
| 47> H 4.8715 -1.2844 2.0943
| 48> H 7.1617 -1.8247 2.7133
| 49> H 6.3393 1.3634 -0.9906
| 50> H 4.2657 2.2175 -1.1310
| 51> H -6.5512 3.7014 1.3200
| 52> H -4.8787 4.2869 0.9442
| 53> H -5.1804 3.0989 2.2779
| 54> H -7.0277 0.0797 -3.1691
| 55> H -7.7248 1.6818 -2.8293
| 56> H -6.2190 1.5632 -3.8214
| 57> *
| 58>
| 59>                          ****END OF INPUT****

CARTESIAN COORDINATES (ANGSTROEM)
---------------------------------
  C     -2.843000   -3.883200   -1.417600
  C     -2.273500   -2.591600   -1.994100
  C     -3.143900   -1.420600   -1.638300
  S     -4.447700   -0.917300   -2.580400
  C     -4.903500    0.341400   -1.561700
  C     -4.054100    0.397600   -0.471800
  C     -3.061600   -0.619900   -0.485000
  C     -1.992900   -0.810400    0.568600
  C     -0.774500    0.018200    0.270800
  O     -0.912400    1.196200   -0.160300
  N      0.532400   -0.508100    0.560000
  C      1.768000    0.132100    0.208000
  N      2.965100   -0.324000    0.631700
  C      4.004000    0.421100    0.157400
  C      5.411800    0.103300    0.517300
  C      5.680100   -0.807800    1.553900
  C      6.995500   -1.113000    1.914900
  C      8.077600   -0.507700    1.253200
  C      9.502800   -0.854100    1.616300
  F     10.264900    0.298200    1.699300
  F     10.034300   -1.678400    0.641100
  F      9.571500   -1.504600    2.836500
  C      7.814300    0.379500    0.194200
  F      8.833700    0.944800   -0.501900
  C      6.497200    0.684700   -0.165100
  C      3.620100    1.488600   -0.662200
  S      1.943900    1.478500   -0.786100
  C     -4.250600    1.424700    0.462600
  O     -3.472000    1.549100    1.447100
  N     -5.287800    2.310600    0.286500
  C     -5.481900    3.406700    1.253200
  C     -6.094800    2.231400   -0.829200
  O     -6.995900    3.099000   -1.012100
  N     -5.923700    1.224900   -1.749100
  C     -6.765000    1.137200   -2.953400
  H     -2.193700   -4.736300   -1.704800
  H     -3.864500   -4.065400   -1.816300
  H     -2.890300   -3.828200   -0.309200
  H     -1.238800   -2.434200   -1.623000
  H     -2.218100   -2.683100   -3.099900
  H     -1.708600   -1.881600    0.621800
  H     -2.376100   -0.567600    1.578900
  H      0.595500   -1.414300    1.077700
  H      4.871500   -1.284400    2.094300
  H      7.161700   -1.824700    2.713300
  H      6.339300    1.363400   -0.990600
  H      4.265700    2.217500   -1.131000
  H     -6.551200    3.701400    1.320000
  H     -4.878700    4.286900    0.944200
  H     -5.180400    3.098900    2.277900
  H     -7.027700    0.079700   -3.169100
  H     -7.724800    1.681800   -2.829300
  H     -6.219000    1.563200   -3.821400

 Total Charge           Charge          ....    0
 Multiplicity           Mult            ....    1
 Number of Electrons    NEL             ....  270
 Basis Dimension        Dim             ....  534

ORBITAL ENERGIES
----------------

  NO   OCC          E(Eh)            E(eV)
   0   2.0000     -88.914039     -2419.4740
   1   2.0000     -88.907597     -2419.2987
   2   2.0000     -24.717479      -672.5968
   3   2.0000     -24.709990      -672.3930
   4   2.0000     -24.709552      -672.3811
   5   2.0000     -24.709323      -672.3749
   6   2.0000     -19.132468      -520.6209
   7   2.0000     -19.112443      -520.0760
   8   2.0000     -19.106259      -519.9077
   9   2.0000     -14.412607      -392.1870
  10   2.0000     -14.399687      -391.8354
  11   2.0000     -14.394073      -391.6826
  12   2.0000     -14.336567      -390.1178
  13   2.0000     -10.432312      -283.8777
  14   2.0000     -10.328803      -281.0610
  15   2.0000     -10.313330      -280.6400
  16   2.0000     -10.294803      -280.1358
  17   2.0000     -10.287976      -279.9501
  18   2.0000     -10.286486      -279.9095
  19   2.0000     -10.270600      -279.4772
  20   2.0000     -10.241401      -278.6827
  21   2.0000     -10.232153      -278.4310
  22   2.0000     -10.225781      -278.2576
  23   2.0000     -10.216770      -278.0125
  24   2.0000     -10.216630      -278.0086
  25   2.0000     -10.215394      -277.9750
  26   2.0000     -10.215171      -277.9689
  27   2.0000     -10.213289      -277.9177
  28   2.0000     -10.212926      -277.9078
  29   2.0000     -10.211743      -277.8757
  30   2.0000     -10.204815      -277.6871
  31   2.0000     -10.201783      -277.6046
  32   2.0000     -10.199109      -277.5319
  33   2.0000     -10.192001      -277.3384
  34   2.0000     -10.191811      -277.3333
  35   2.0000      -7.991207      -217.4518
  36   2.0000      -7.983644      -217.2460
  37   2.0000      -5.954447      -162.0287
  38   2.0000      -5.950294      -161.9157
  39   2.0000      -5.947872      -161.8498
  40   2.0000      -5.946768      -161.8198
  41   2.0000      -5.942486      -161.7033
  42   2.0000      -5.940675      -161.6540
  43   2.0000      -1.273707       -34.6593
  44   2.0000      -1.221831       -33.2477
  45   2.0000      -1.199912       -32.6513
  46   2.0000      -1.196015       -32.5452
  47   2.0000      -1.068943       -29.0874
  48   2.0000      -1.032843       -28.1051
  49   2.0000      -1.016946       -27.6725
  50   2.0000      -0.982597       -26.7378
  51   2.0000      -0.981615       -26.7111
  52   2.0000      -0.936457       -25.4823
  53   2.0000      -0.920060       -25.0361
  54   2.0000      -0.908414       -24.7192
  55   2.0000      -0.874410       -23.7939
  56   2.0000      -0.815101       -22.1800
  57   2.0000      -0.811015       -22.0689
  58   2.0000      -0.804872       -21.9017
  59   2.0000      -0.798002       -21.7147
  60   2.0000      -0.775026       -21.0895
  61   2.0000      -0.757940       -20.6246
  62   2.0000      -0.745854       -20.2957
  63   2.0000      -0.733957       -19.9720
  64   2.0000      -0.722776       -19.6677
  65   2.0000      -0.705959       -19.2101
  66   2.0000      -0.687338       -18.7034
  67   2.0000      -0.658685       -17.9237
  68   2.0000      -0.643021       -17.4975
  69   2.0000      -0.638566       -17.3763
  70   2.0000      -0.632609       -17.2142
  71   2.0000      -0.622513       -16.9394
  72   2.0000      -0.615331       -16.7440
  73   2.0000      -0.586562       -15.9612
  74   2.0000      -0.574426       -15.6309
  75   2.0000      -0.570499       -15.5241
  76   2.0000      -0.564364       -15.3571
  77   2.0000      -0.563142       -15.3239
  78   2.0000      -0.560616       -15.2551
  79   2.0000      -0.555779       -15.1235
  80   2.0000      -0.529129       -14.3983
  81   2.0000      -0.518101       -14.0982
  82   2.0000      -0.516848       -14.0642
  83   2.0000      -0.508098       -13.8261
  84   2.0000      -0.501091       -13.6354
  85   2.0000      -0.494159       -13.4467
  86   2.0000      -0.491439       -13.3727
  87   2.0000      -0.473734       -12.8909
  88   2.0000      -0.471418       -12.8279
  89   2.0000      -0.466709       -12.6998
  90   2.0000      -0.462577       -12.5874
  91   2.0000      -0.461447       -12.5566
  92   2.0000      -0.456737       -12.4284
  93   2.0000      -0.452700       -12.3186
  94   2.0000      -0.443007       -12.0548
  95   2.0000      -0.442229       -12.0337
  96   2.0000      -0.440888       -11.9972
  97   2.0000      -0.439783       -11.9671
  98   2.0000      -0.435420       -11.8484
  99   2.0000      -0.428738       -11.6666
 100   2.0000      -0.422389       -11.4938
 101   2.0000      -0.420835       -11.4515
 102   2.0000      -0.418377       -11.3846
 103   2.0000      -0.411587       -11.1999
 104   2.0000      -0.408589       -11.1183
 105   2.0000      -0.408135       -11.1059
 106   2.0000      -0.407232       -11.0813
 107   2.0000      -0.401705       -10.9309
 108   2.0000      -0.396160       -10.7801
 109   2.0000      -0.393614       -10.7108
 110   2.0000      -0.390572       -10.6280
 111   2.0000      -0.386196       -10.5089
 112   2.0000      -0.383457       -10.4344
 113   2.0000      -0.380893       -10.3646
 114   2.0000      -0.376479       -10.2445
 115   2.0000      -0.372651       -10.1404
 116   2.0000      -0.368992       -10.0408
 117   2.0000      -0.366133        -9.9630
 118   2.0000      -0.365596        -9.9484
 119   2.0000      -0.364357        -9.9147
 120   2.0000      -0.348619        -9.4864
 121   2.0000      -0.346806        -9.4371
 122   2.0000      -0.316911        -8.6236
 123   2.0000      -0.310261        -8.4426
 124   2.0000      -0.298276        -8.1165
 125   2.0000      -0.281235        -7.6528
 126   2.0000      -0.274114        -7.4590
 127   2.0000      -0.269904        -7.3445
 128   2.0000      -0.266080        -7.2404
 129   2.0000      -0.264480        -7.1969
 130   2.0000      -0.259200        -7.0532
 131   2.0000      -0.252783        -6.8786
 132   2.0000      -0.244555        -6.6547
 133   2.0000      -0.219024        -5.9599
 134   2.0000      -0.215416        -5.8618
 135   0.0000      -0.048478        -1.3192
 136   0.0000      -0.034855        -0.9484
 137   0.0000      -0.030578        -0.8321
 138   0.0000      -0.017944        -0.4883
 139   0.0000      -0.010333        -0.2812

MULLIKEN ATOMIC CHARGES
-----------------------
   0 C :   -0.429338
   1 C :   -0.316915
   2 C :   -0.169016
   3 S :    0.257188
   4 C :    0.027198
   5 C :    0.056627
   6 C :    0.138072
   7 C :   -0.455031
   8 C :    0.591749
   9 O :   -0.442310
  10 N :   -0.653065
  11 C :    0.262470
  12 N :   -0.436962
  13 C :    0.211569
  14 C :    0.146190
  15 C :   -0.173851
  16 C :   -0.153888
  17 C :   -0.113725
  18 C :    0.914916
  19 F :   -0.300656
  20 F :   -0.297369
  21 F :   -0.306232
  22 C :    0.386295
  23 F :   -0.303085
  24 C :   -0.269904
  25 C :   -0.401208
  26 S :    0.327533
  27 C :    0.526936
  28 O :   -0.501408
  29 N :   -0.477460
  30 C :   -0.312656
  31 C :    0.678914
  32 O :   -0.507356
  33 N :   -0.456938
  34 C :   -0.340469
  35 H :    0.149370
  36 H :    0.155261
  37 H :    0.152176
  38 H :    0.159005
  39 H :    0.158035
  40 H :    0.141358
  41 H :    0.227341
  42 H :    0.353439
  43 H :    0.158198
  44 H :    0.160154
  45 H :    0.145344
  46 H :    0.185398
  47 H :    0.191402
  48 H :    0.181225
  49 H :    0.192747
  50 H :    0.178461
  51 H :    0.218586
  52 H :    0.185685
Sum of atomic charges:   -0.0000000

LOEWDIN ATOMIC CHARGES
----------------------
   0 C :   -0.353506
   1 C :   -0.228723
   2 C :   -0.198836
   3 S :    0.397123
   4 C :   -0.119634
   5 C :   -0.098061
   6 C :   -0.013440
   7 C :   -0.247189
   8 C :    0.159026
   9 O :   -0.247186
  10 N :   -0.204801
  11 C :   -0.077530
  12 N :   -0.187332
  13 C :   -0.009880
  14 C :    0.002493
  15 C :   -0.124123
  16 C :   -0.106680
  17 C :   -0.101521
  18 C :    0.313785
  19 F :   -0.112094
  20 F :   -0.113543
  21 F :   -0.112414
  22 C :    0.134087
  23 F :   -0.094362
  24 C :   -0.153173
  25 C :   -0.345087
  26 S :    0.435454
  27 C :    0.117645
  28 O :   -0.293603
  29 N :   -0.025949
  30 C :   -0.258518
  31 C :    0.142209
  32 O :   -0.317396
  33 N :   -0.024838
  34 C :   -0.263667
  35 H :    0.126494
  36 H :    0.129458
  37 H :    0.124882
  38 H :    0.135565
  39 H :    0.136665
  40 H :    0.127519
  41 H :    0.179465
  42 H :    0.273870
  43 H :    0.148957
  44 H :    0.148096
  45 H :    0.145272
  46 H :    0.162443
  47 H :    0.150506
  48 H :    0.142257
  49 H :    0.151591
  50 H :    0.140620
  51 H :    0.166193
  52 H :    0.141410

  Mayer bond orders larger than 0.100000
B(  0-C ,  1-C ) :   1.0005 B(  0-C , 35-H ) :   0.9448 B(  0-C , 36-H ) :   0.9484
B(  0-C , 37-H ) :   0.9477 B(  1-C ,  2-C ) :   0.9889 B(  1-C , 38-H ) :   0.9285
B(  1-C , 39-H ) :   0.9317 B(  2-C ,  3-S ) :   1.0569 B(  2-C ,  6-C ) :   1.5662
B(  3-S ,  4-C ) :   1.1346 B(  4-C ,  5-C ) :   1.3657 B(  4-C , 33-N ) :   0.9828
B(  5-C ,  6-C ) :   1.2893 B(  5-C , 27-C ) :   1.0843 B(  6-C ,  7-C ) :   0.9979
B(  7-C ,  8-C ) :   0.9487 B(  7-C , 40-H ) :   0.9175 B(  7-C , 41-H ) :   0.8764
B(  8-C ,  9-O ) :   1.8394 B(  8-C , 10-N ) :   1.0010 B( 10-N , 11-C ) :   0.9484
B( 10-N , 42-H ) :   0.8102 B( 11-C , 12-N ) :   1.4807 B( 11-C , 25-C ) :   0.1050
B( 11-C , 26-S ) :   1.1839 B( 12-N , 13-C ) :   1.2896 B( 13-C , 14-C ) :   1.0590
B( 13-C , 25-C ) :   1.5145 B( 14-C , 15-C ) :   1.3988 B( 14-C , 24-C ) :   1.3667
B( 15-C , 16-C ) :   1.4158 B( 15-C , 43-H ) :   0.9116 B( 16-C , 17-C ) :   1.4013
B( 16-C , 44-H ) :   0.9192 B( 17-C , 18-C ) :   0.9660 B( 17-C , 22-C ) :   1.3206
B( 18-C , 19-F ) :   0.9607 B( 18-C , 20-F ) :   0.9841 B( 18-C , 21-F ) :   0.9459
B( 22-C , 23-F ) :   0.9460 B( 22-C , 24-C ) :   1.3838 B( 24-C , 45-H ) :   0.9100
B( 25-C , 26-S ) :   1.1137 B( 25-C , 46-H ) :   0.9005 B( 27-C , 28-O ) :   1.7529
B( 27-C , 29-N ) :   0.9789 B( 29-N , 30-C ) :   0.9182 B( 29-N , 31-C ) :   1.0457
B( 30-C , 47-H ) :   0.9268 B( 30-C , 48-H ) :   0.9398 B( 30-C , 49-H ) :   0.9247
B( 31-C , 32-O ) :   1.7868 B( 31-C , 33-N ) :   1.0395 B( 33-N , 34-C ) :   0.9305
B( 34-C , 50-H ) :   0.9250 B( 34-C , 51-H ) :   0.9175 B( 34-C , 52-H ) :   0.9316

FINAL SINGLE POINT ENERGY     -2488.580508223970

DIPOLE MOMENT
-------------

Method             : SCF
Type of density    : Electron Density
Multiplicity       :   1
Irrep              :   0
Energy             : -2488.5805082239703552 Eh
Relativity type    :
Basis              : AO
                                X                 Y                 Z
Electronic contribution:     75.334008901       5.247342696       9.347205712
Nuclear contribution   :    -77.425031232      -6.944064359     -10.284929067
                        -----------------------------------------
Total Dipole Moment    :     -2.091022330      -1.696721663      -0.937723355
                        -----------------------------------------
Magnitude (a.u.)       :      2.851414364
Magnitude (Debye)      :      7.247719328

Rotational constants in cm-1:             0.009543             0.000923             0.000892
Rotational constants in MHz :           286.092768            27.681286            26.729875

                             ****ORCA TERMINATED NORMALLY****
TOTAL RUN TIME: 0 days 0 hours 9 minutes 13 seconds 907 msec
