                         Program Version 6.0.0  -   RELEASE  -
|  1> ! B3LYP 6-31G* SP
|  2>
|  3> * xyz 0 1
|  4> O 2.2243 1.3426 -1.2233
|  5> C 1.7019 0.3895 -0.5820
|  6> N 2.3364 -0.0873 0.6176
|  7> C 3.7269 0.1200 0.9218
|  8> C 4.1315 0.2227 2.2603
|  9> C 5.4799 0.4009 2.5832
| 10> C 6.4545 0.4468 1.5720
| 11> C 7.9029 0.6861 1.9179
| 12> F 8.1415 2.0469 1.9608
| 13> F 8.2078 0.1358 3.1508
| 14> F 8.7339 0.1120 0.9712
| 15> C 6.0483 0.3497 0.2303
| 16> C 4.6995 0.1722 -0.0918
| 17> N 0.4608 -0.1900 -1.0409
| 18> C 0.0714 -1.5288 -0.5690
| 19> C -1.1963 -2.0353 -1.2689
| 20> C -2.2878 -0.9473 -1.2567
| 21> C -3.5727 -1.5035 -1.9223
| 22> C -4.7552 -0.5348 -1.7644
| 23> C -4.9004 -0.0563 -0.3434
| 24> C -6.1160 0.4907 0.0936
| 25> C -6.2440 0.9640 1.4025
| 26> F -7.4229 1.4864 1.8211
| 27> C -5.1575 0.9025 2.2796
| 28> C -3.9363 0.3728 1.8494
| 29> Cl -2.5770 0.3137 2.9604
| 30> C -3.8006 -0.0976 0.5358
| 31> O -2.5750 -0.6254 0.1105
| 32> C -1.7872 0.3379 -1.9878
| 33> C -0.2598 0.4205 -2.1692
| 34> H 1.7379 -0.5150 1.3581
| 35> H 3.3975 0.1788 3.0552
| 36> H 5.7606 0.5023 3.6241
| 37> H 6.7748 0.4045 -0.5709
| 38> H 4.4225 0.0580 -1.1314
| 39> H -0.1264 -1.4929 0.5236
| 40> H 0.9002 -2.2470 -0.7519
| 41> H -0.9538 -2.3220 -2.3164
| 42> H -1.5554 -2.9469 -0.7424
| 43> H -3.3976 -1.7037 -3.0023
| 44> H -3.8495 -2.4694 -1.4438
| 45> H -5.6848 -1.0533 -2.0853
| 46> H -4.6139 0.3463 -2.4257
| 47> H -6.9624 0.5490 -0.5799
| 48> H -5.2632 1.2705 3.2920
| 49> H -2.2387 0.4180 -3.0010
| 50> H -2.1270 1.2359 -1.4263
| 51> H 0.0160 1.4903 -2.2917
| 52> H 0.0307 -0.1076 -3.1035
| 53> *
| 54>
| 55>                          ****END OF INPUT****

CARTESIAN COORDINATES (ANGSTROEM)
---------------------------------
  O      2.224300    1.342600   -1.223300
  C      1.701900    0.389500   -0.582000
  N      2.336400   -0.087300    0.617600
  C      3.726900    0.120000    0.921800
  C      4.131500    0.222700    2.260300
  C      5.479900    0.400900    2.583200
  C      6.454500    0.446800    1.572000
  C      7.902900    0.686100    1.917900
  F      8.141500    2.046900    1.960800
  F      8.207800    0.135800    3.150800
  F      8.733900    0.112000    0.971200
  C      6.048300    0.349700    0.230300
  C      4.699500    0.172200   -0.091800
  N      0.460800   -0.190000   -1.040900
  C      0.071400   -1.528800   -0.569000
  C     -1.196300   -2.035300   -1.268900
  C     -2.287800   -0.947300   -1.256700
  C     -3.572700   -1.503500   -1.922300
  C     -4.755200   -0.534800   -1.764400
  C     -4.900400   -0.056300   -0.343400
  C     -6.116000    0.490700    0.093600
  C     -6.244000    0.964000    1.402500
  F     -7.422900    1.486400    1.821100
  C     -5.157500    0.902500    2.279600
  C     -3.936300    0.372800    1.849400
  Cl    -2.577000    0.313700    2.960400
  C     -3.800600   -0.097600    0.535800
  O     -2.575000   -0.625400    0.110500
  C     -1.787200    0.337900   -1.987800
  C     -0.259800    0.420500   -2.169200
  H      1.737900   -0.515000    1.358100
  H      3.397500    0.178800    3.055200
  H      5.760600    0.502300    3.624100
  H      6.774800    0.404500   -0.570900
  H      4.422500    0.058000   -1.131400
  H     -0.126400   -1.492900    0.523600
  H      0.900200   -2.247000   -0.751900
  H     -0.953800   -2.322000   -2.316400
  H     -1.555400   -2.946900   -0.742400
  H     -3.397600   -1.703700   -3.002300
  H     -3.849500   -2.469400   -1.443800
  H     -5.684800   -1.053300   -2.085300
  H     -4.613900    0.346300   -2.425700
  H     -6.962400    0.549000   -0.579900
  H     -5.263200    1.270500    3.292000
  H     -2.238700    0.418000   -3.001000
  H     -2.127000    1.235900   -1.426300
  H      0.016000    1.490300   -2.291700
  H      0.030700   -0.107600   -3.103500

 Total Charge           Charge          ....    0
 Multiplicity           Mult            ....    1
 Number of Electrons    NEL             ....  228
 Basis Dimension        Dim             ....  462

ORBITAL ENERGIES
----------------

  NO   OCC          E(Eh)            E(eV)
   0   2.0000    -101.535406     -2762.9189
   1   2.0000     -24.708910      -672.3636
   2   2.0000     -24.708722      -672.3585
   3   2.0000     -24.706688      -672.3032
   4   2.0000     -24.703731      -672.2227
   5   2.0000     -19.179380      -521.8975
   6   2.0000     -19.102458      -519.8043
   7   2.0000     -14.371503      -391.0685
   8   2.0000     -14.359540      -390.7429
   9   2.0000     -10.422641      -283.6145
  10   2.0000     -10.317967      -280.7662
  11   2.0000     -10.278037      -279.6796
  12   2.0000     -10.267459      -279.3918
  13   2.0000     -10.266009      -279.3523
  14   2.0000     -10.258199      -279.1398
  15   2.0000     -10.240430      -278.6563
  16   2.0000     -10.229760      -278.3659
  17   2.0000     -10.223452      -278.1943
  18   2.0000     -10.212990      -277.9096
  19   2.0000     -10.206348      -277.7288
  20   2.0000     -10.206066      -277.7212
  21   2.0000     -10.206034      -277.7203
  22   2.0000     -10.201541      -277.5980
  23   2.0000     -10.200813      -277.5782
  24   2.0000     -10.198813      -277.5238
  25   2.0000     -10.196128      -277.4507
  26   2.0000     -10.195306      -277.4284
  27   2.0000     -10.192444      -277.3505
  28   2.0000     -10.191191      -277.3164
  29   2.0000     -10.185223      -277.1540
  30   2.0000      -9.466703      -257.6021
  31   2.0000      -7.229980      -196.7377
  32   2.0000      -7.220297      -196.4743
  33   2.0000      -7.219891      -196.4632
  34   2.0000      -1.268208       -34.5097
  35   2.0000      -1.219312       -33.1792
  36   2.0000      -1.194276       -32.4979
  37   2.0000      -1.192051       -32.4374
  38   2.0000      -1.066483       -29.0205
  39   2.0000      -1.019470       -27.7412
  40   2.0000      -0.926221       -25.2038
  41   2.0000      -0.918638       -24.9974
  42   2.0000      -0.895437       -24.3661
  43   2.0000      -0.852739       -23.2042
  44   2.0000      -0.851160       -23.1612
  45   2.0000      -0.826984       -22.5034
  46   2.0000      -0.795840       -21.6559
  47   2.0000      -0.775180       -21.0937
  48   2.0000      -0.766117       -20.8471
  49   2.0000      -0.751465       -20.4484
  50   2.0000      -0.743074       -20.2201
  51   2.0000      -0.740454       -20.1488
  52   2.0000      -0.688195       -18.7267
  53   2.0000      -0.673725       -18.3330
  54   2.0000      -0.656342       -17.8600
  55   2.0000      -0.650765       -17.7082
  56   2.0000      -0.626221       -17.0403
  57   2.0000      -0.619053       -16.8453
  58   2.0000      -0.616322       -16.7710
  59   2.0000      -0.599062       -16.3013
  60   2.0000      -0.576660       -15.6917
  61   2.0000      -0.561927       -15.2908
  62   2.0000      -0.558867       -15.2076
  63   2.0000      -0.555440       -15.1143
  64   2.0000      -0.550266       -14.9735
  65   2.0000      -0.542100       -14.7513
  66   2.0000      -0.535180       -14.5630
  67   2.0000      -0.523521       -14.2457
  68   2.0000      -0.516799       -14.0628
  69   2.0000      -0.504172       -13.7192
  70   2.0000      -0.482950       -13.1417
  71   2.0000      -0.479570       -13.0498
  72   2.0000      -0.469835       -12.7849
  73   2.0000      -0.463687       -12.6176
  74   2.0000      -0.458849       -12.4859
  75   2.0000      -0.456750       -12.4288
  76   2.0000      -0.454617       -12.3708
  77   2.0000      -0.452305       -12.3079
  78   2.0000      -0.439172       -11.9505
  79   2.0000      -0.438561       -11.9338
  80   2.0000      -0.437312       -11.8999
  81   2.0000      -0.434878       -11.8336
  82   2.0000      -0.428915       -11.6714
  83   2.0000      -0.425830       -11.5874
  84   2.0000      -0.419699       -11.4206
  85   2.0000      -0.414662       -11.2835
  86   2.0000      -0.413260       -11.2454
  87   2.0000      -0.410028       -11.1574
  88   2.0000      -0.406710       -11.0671
  89   2.0000      -0.403553       -10.9812
  90   2.0000      -0.396829       -10.7983
  91   2.0000      -0.394984       -10.7481
  92   2.0000      -0.390327       -10.6213
  93   2.0000      -0.387117       -10.5340
  94   2.0000      -0.386813       -10.5257
  95   2.0000      -0.378072       -10.2879
  96   2.0000      -0.373893       -10.1742
  97   2.0000      -0.372484       -10.1358
  98   2.0000      -0.361273        -9.8307
  99   2.0000      -0.353889        -9.6298
 100   2.0000      -0.353026        -9.6063
 101   2.0000      -0.349887        -9.5209
 102   2.0000      -0.344445        -9.3728
 103   2.0000      -0.327252        -8.9050
 104   2.0000      -0.318538        -8.6679
 105   2.0000      -0.314779        -8.5656
 106   2.0000      -0.307911        -8.3787
 107   2.0000      -0.298926        -8.1342
 108   2.0000      -0.260529        -7.0894
 109   2.0000      -0.254703        -6.9308
 110   2.0000      -0.248876        -6.7723
 111   2.0000      -0.230592        -6.2747
 112   2.0000      -0.226763        -6.1705
 113   2.0000      -0.221173        -6.0184
 114   0.0000      -0.026389        -0.7181
 115   0.0000      -0.018305        -0.4981
 116   0.0000      -0.005783        -0.1574
 117   0.0000      -0.001342        -0.0365
 118   0.0000       0.017746         0.4829

MULLIKEN ATOMIC CHARGES
-----------------------
   0 O :   -0.492274
   1 C :    0.686850
   2 N :   -0.726779
   3 C :    0.361876
   4 C :   -0.188459
   5 C :   -0.162357
   6 C :   -0.018531
   7 C :    0.890247
   8 F :   -0.297819
   9 F :   -0.308490
  10 F :   -0.307910
  11 C :   -0.172112
  12 C :   -0.139057
  13 N :   -0.446515
  14 C :   -0.121357
  15 C :   -0.322186
  16 C :    0.350139
  17 C :   -0.304404
  18 C :   -0.349662
  19 C :    0.129878
  20 C :   -0.272425
  21 C :    0.423442
  22 F :   -0.317932
  23 C :   -0.217584
  24 C :   -0.128330
  25 Cl:   -0.001418
  26 C :    0.325327
  27 O :   -0.543122
  28 C :   -0.309423
  29 C :   -0.125026
  30 H :    0.334244
  31 H :    0.132166
  32 H :    0.150300
  33 H :    0.152573
  34 H :    0.156526
  35 H :    0.158603
  36 H :    0.148483
  37 H :    0.153079
  38 H :    0.157618
  39 H :    0.141146
  40 H :    0.147473
  41 H :    0.158750
  42 H :    0.165584
  43 H :    0.145178
  44 H :    0.167396
  45 H :    0.139441
  46 H :    0.166718
  47 H :    0.190913
  48 H :    0.139217
Sum of atomic charges:   -0.0000000

LOEWDIN ATOMIC CHARGES
----------------------
   0 O :   -0.308745
   1 C :    0.165168
   2 N :   -0.225244
   3 C :    0.056913
   4 C :   -0.150879
   5 C :   -0.109695
   6 C :   -0.084555
   7 C :    0.308252
   8 F :   -0.115752
   9 F :   -0.116566
  10 F :   -0.115968
  11 C :   -0.108936
  12 C :   -0.127809
  13 N :   -0.126286
  14 C :   -0.154195
  15 C :   -0.226819
  16 C :    0.080154
  17 C :   -0.229526
  18 C :   -0.223193
  19 C :   -0.040625
  20 C :   -0.155990
  21 C :    0.109097
  22 F :   -0.102763
  23 C :   -0.160312
  24 C :   -0.102380
  25 Cl:    0.045682
  26 C :    0.066611
  27 O :   -0.169623
  28 C :   -0.240467
  29 C :   -0.145050
  30 H :    0.258348
  31 H :    0.134164
  32 H :    0.143269
  33 H :    0.144301
  34 H :    0.148901
  35 H :    0.124069
  36 H :    0.121403
  37 H :    0.133080
  38 H :    0.138715
  39 H :    0.128421
  40 H :    0.126940
  41 H :    0.137615
  42 H :    0.135754
  43 H :    0.144661
  44 H :    0.157274
  45 H :    0.126784
  46 H :    0.138429
  47 H :    0.154682
  48 H :    0.112689

  Mayer bond orders larger than 0.100000
B(  0-O ,  1-C ) :   1.7892 B(  1-C ,  2-N ) :   0.9870 B(  1-C , 13-N ) :   1.0678
B(  2-N ,  3-C ) :   0.8897 B(  2-N , 30-H ) :   0.8174 B(  3-C ,  4-C ) :   1.3990
B(  3-C , 12-C ) :   1.4111 B(  4-C ,  5-C ) :   1.4412 B(  4-C , 31-H ) :   0.9234
B(  5-C ,  6-C ) :   1.4114 B(  5-C , 32-H ) :   0.9198 B(  6-C ,  7-C ) :   0.9845
B(  6-C , 11-C ) :   1.3960 B(  7-C ,  8-F ) :   0.9857 B(  7-C ,  9-F ) :   0.9454
B(  7-C , 10-F ) :   0.9457 B( 11-C , 12-C ) :   1.4414 B( 11-C , 33-H ) :   0.9201
B( 12-C , 34-H ) :   0.9111 B( 13-N , 14-C ) :   0.9347 B( 13-N , 29-C ) :   0.9404
B( 14-C , 15-C ) :   1.0048 B( 14-C , 35-H ) :   0.9171 B( 14-C , 36-H ) :   0.9250
B( 15-C , 16-C ) :   0.9994 B( 15-C , 37-H ) :   0.9262 B( 15-C , 38-H ) :   0.9273
B( 16-C , 17-C ) :   0.9886 B( 16-C , 27-O ) :   0.8290 B( 16-C , 28-C ) :   0.9520
B( 17-C , 18-C ) :   0.9955 B( 17-C , 39-H ) :   0.9289 B( 17-C , 40-H ) :   0.9312
B( 18-C , 19-C ) :   0.9816 B( 18-C , 41-H ) :   0.9317 B( 18-C , 42-H ) :   0.9182
B( 19-C , 20-C ) :   1.3862 B( 19-C , 26-C ) :   1.3637 B( 20-C , 21-C ) :   1.3811
B( 20-C , 43-H ) :   0.9182 B( 21-C , 22-F ) :   0.9069 B( 21-C , 23-C ) :   1.3875
B( 23-C , 24-C ) :   1.3977 B( 23-C , 44-H ) :   0.9133 B( 24-C , 25-Cl) :   1.0304
B( 24-C , 26-C ) :   1.3249 B( 26-C , 27-O ) :   0.9406 B( 28-C , 29-C ) :   0.9871
B( 28-C , 45-H ) :   0.9261 B( 28-C , 46-H ) :   0.9312 B( 29-C , 47-H ) :   0.9195
B( 29-C , 48-H ) :   0.9337

FINAL SINGLE POINT ENERGY     -1930.316241331575

DIPOLE MOMENT
-------------

Method             : SCF
Type of density    : Electron Density
Multiplicity       :   1
Irrep              :   0
Energy             : -1930.3162413315749291 Eh
Relativity type    :
Basis              : AO
                                X                 Y                 Z
Electronic contribution:     29.825554160      12.453721962      30.088630812
Nuclear contribution   :    -32.094896361     -14.026912965     -31.130455716
                        -----------------------------------------
Total Dipole Moment    :     -2.269342201      -1.573191003      -1.041824903
                        -----------------------------------------
Magnitude (a.u.)       :      2.951312096
Magnitude (Debye)      :      7.501639183

Rotational constants in cm-1:             0.011388             0.001503             0.001384
Rotational constants in MHz :           341.411612            45.047941            41.500038

                             ****ORCA TERMINATED NORMALLY****
TOTAL RUN TIME: 0 days 0 hours 7 minutes 10 seconds 508 msec
