                         Program Version 6.0.0  -   RELEASE  -
|  1> ! B3LYP 6-31G* SP
|  2>
|  3> * xyz 0 1
|  4> N -5.2541 0.3732 -0.4670
|  5> C -4.7005 -0.3864 0.6586
|  6> C -4.2595 -1.7844 0.1802
|  7> C -3.1162 -1.7146 -0.8558
|  8> C -2.1777 -0.5083 -0.6499
|  9> C -2.1208 -0.0992 0.8307
| 10> N -1.0336 0.8746 1.0985
| 11> C 0.1619 0.4055 1.7553
| 12> O 0.6612 1.0714 2.7042
| 13> C 0.8273 -0.8404 1.3344
| 14> C 0.9810 -1.8864 2.2569
| 15> C 1.6332 -3.0637 1.8840
| 16> C 2.1494 -3.1977 0.5946
| 17> C 2.0224 -2.1527 -0.3248
| 18> C 1.3669 -0.9601 0.0395
| 19> O 1.2447 0.1238 -0.8460
| 20> C 1.9910 0.2979 -2.0500
| 21> C 3.4439 0.5294 -1.7343
| 22> C 3.8121 1.5504 -0.8441
| 23> C 5.1575 1.7597 -0.5292
| 24> C 6.1449 0.9569 -1.1053
| 25> C 5.7880 -0.0479 -2.0091
| 26> C 4.4430 -0.2622 -2.3256
| 27> C -1.2780 2.3266 1.0905
| 28> C -0.1896 3.1414 0.4033
| 29> C -1.5246 2.9292 -0.2867
| 30> C -3.5178 0.3895 1.3080
| 31> H -5.6566 1.2672 -0.1015
| 32> H -6.0603 -0.1600 -0.8688
| 33> H -5.4996 -0.5162 1.4230
| 34> H -3.9201 -2.3720 1.0618
| 35> H -5.1237 -2.3293 -0.2565
| 36> H -3.5480 -1.6610 -1.8793
| 37> H -2.5248 -2.6545 -0.7954
| 38> H -2.5580 0.3388 -1.2554
| 39> H -1.1699 -0.7675 -1.0267
| 40> H -1.9060 -1.0249 1.4127
| 41> H 0.5870 -1.7933 3.2619
| 42> H 1.7405 -3.8724 2.5965
| 43> H 2.6542 -4.1119 0.3082
| 44> H 2.4372 -2.2840 -1.3130
| 45> H 1.5991 1.1922 -2.5787
| 46> H 1.8401 -0.5703 -2.7261
| 47> H 3.0572 2.1789 -0.3919
| 48> H 5.4340 2.5398 0.1685
| 49> H 7.1863 1.1166 -0.8574
| 50> H 6.5548 -0.6658 -2.4567
| 51> H 4.1824 -1.0499 -3.0197
| 52> H -1.7453 2.7988 1.9825
| 53> H -0.0544 4.1632 0.8160
| 54> H 0.6441 2.5649 -0.0483
| 55> H -1.4214 2.2703 -1.1715
| 56> H -2.1622 3.8371 -0.2912
| 57> H -3.5657 0.2713 2.4111
| 58> H -3.6569 1.4682 1.1029
| 59> *
| 60>
| 61>                          ****END OF INPUT****

CARTESIAN COORDINATES (ANGSTROEM)
---------------------------------
  N     -5.254100    0.373200   -0.467000
  C     -4.700500   -0.386400    0.658600
  C     -4.259500   -1.784400    0.180200
  C     -3.116200   -1.714600   -0.855800
  C     -2.177700   -0.508300   -0.649900
  C     -2.120800   -0.099200    0.830700
  N     -1.033600    0.874600    1.098500
  C      0.161900    0.405500    1.755300
  O      0.661200    1.071400    2.704200
  C      0.827300   -0.840400    1.334400
  C      0.981000   -1.886400    2.256900
  C      1.633200   -3.063700    1.884000
  C      2.149400   -3.197700    0.594600
  C      2.022400   -2.152700   -0.324800
  C      1.366900   -0.960100    0.039500
  O      1.244700    0.123800   -0.846000
  C      1.991000    0.297900   -2.050000
  C      3.443900    0.529400   -1.734300
  C      3.812100    1.550400   -0.844100
  C      5.157500    1.759700   -0.529200
  C      6.144900    0.956900   -1.105300
  C      5.788000   -0.047900   -2.009100
  C      4.443000   -0.262200   -2.325600
  C     -1.278000    2.326600    1.090500
  C     -0.189600    3.141400    0.403300
  C     -1.524600    2.929200   -0.286700
  C     -3.517800    0.389500    1.308000
  H     -5.656600    1.267200   -0.101500
  H     -6.060300   -0.160000   -0.868800
  H     -5.499600   -0.516200    1.423000
  H     -3.920100   -2.372000    1.061800
  H     -5.123700   -2.329300   -0.256500
  H     -3.548000   -1.661000   -1.879300
  H     -2.524800   -2.654500   -0.795400
  H     -2.558000    0.338800   -1.255400
  H     -1.169900   -0.767500   -1.026700
  H     -1.906000   -1.024900    1.412700
  H      0.587000   -1.793300    3.261900
  H      1.740500   -3.872400    2.596500
  H      2.654200   -4.111900    0.308200
  H      2.437200   -2.284000   -1.313000
  H      1.599100    1.192200   -2.578700
  H      1.840100   -0.570300   -2.726100
  H      3.057200    2.178900   -0.391900
  H      5.434000    2.539800    0.168500
  H      7.186300    1.116600   -0.857400
  H      6.554800   -0.665800   -2.456700
  H      4.182400   -1.049900   -3.019700
  H     -1.745300    2.798800    1.982500
  H     -0.054400    4.163200    0.816000
  H      0.644100    2.564900   -0.048300
  H     -1.421400    2.270300   -1.171500
  H     -2.162200    3.837100   -0.291200
  H     -3.565700    0.271300    2.411100
  H     -3.656900    1.468200    1.102900

 Total Charge           Charge          ....    0
 Multiplicity           Mult            ....    1
 Number of Electrons    NEL             ....  196
 Basis Dimension        Dim             ....  434

ORBITAL ENERGIES
----------------

  NO   OCC          E(Eh)            E(eV)
   0   2.0000     -19.168408      -521.5989
   1   2.0000     -19.097697      -519.6748
   2   2.0000     -14.330101      -389.9419
   3   2.0000     -14.302703      -389.1963
   4   2.0000     -10.270240      -279.4674
   5   2.0000     -10.251621      -278.9608
   6   2.0000     -10.244328      -278.7623
   7   2.0000     -10.209300      -277.8092
   8   2.0000     -10.207261      -277.7537
   9   2.0000     -10.202796      -277.6322
  10   2.0000     -10.190500      -277.2976
  11   2.0000     -10.189924      -277.2819
  12   2.0000     -10.185459      -277.1604
  13   2.0000     -10.184657      -277.1386
  14   2.0000     -10.183837      -277.1163
  15   2.0000     -10.182643      -277.0838
  16   2.0000     -10.181596      -277.0553
  17   2.0000     -10.180473      -277.0248
  18   2.0000     -10.180090      -277.0143
  19   2.0000     -10.179697      -277.0036
  20   2.0000     -10.176109      -276.9060
  21   2.0000     -10.172430      -276.8059
  22   2.0000     -10.170205      -276.7453
  23   2.0000     -10.169662      -276.7306
  24   2.0000     -10.168262      -276.6925
  25   2.0000     -10.162201      -276.5276
  26   2.0000     -10.151548      -276.2377
  27   2.0000      -1.048425       -28.5291
  28   2.0000      -0.994141       -27.0519
  29   2.0000      -0.902994       -24.5717
  30   2.0000      -0.876486       -23.8504
  31   2.0000      -0.854516       -23.2526
  32   2.0000      -0.846983       -23.0476
  33   2.0000      -0.823190       -22.4001
  34   2.0000      -0.783625       -21.3235
  35   2.0000      -0.774914       -21.0865
  36   2.0000      -0.753351       -20.4997
  37   2.0000      -0.741869       -20.1873
  38   2.0000      -0.737347       -20.0642
  39   2.0000      -0.720222       -19.5982
  40   2.0000      -0.704182       -19.1618
  41   2.0000      -0.682583       -18.5740
  42   2.0000      -0.637826       -17.3561
  43   2.0000      -0.611820       -16.6485
  44   2.0000      -0.606611       -16.5067
  45   2.0000      -0.602642       -16.3987
  46   2.0000      -0.590732       -16.0746
  47   2.0000      -0.583719       -15.8838
  48   2.0000      -0.576544       -15.6886
  49   2.0000      -0.571315       -15.5463
  50   2.0000      -0.539206       -14.6725
  51   2.0000      -0.521719       -14.1967
  52   2.0000      -0.515389       -14.0244
  53   2.0000      -0.507877       -13.8200
  54   2.0000      -0.494493       -13.4558
  55   2.0000      -0.487023       -13.2526
  56   2.0000      -0.480450       -13.0737
  57   2.0000      -0.479338       -13.0434
  58   2.0000      -0.470057       -12.7909
  59   2.0000      -0.467620       -12.7246
  60   2.0000      -0.458086       -12.4652
  61   2.0000      -0.449638       -12.2353
  62   2.0000      -0.443510       -12.0685
  63   2.0000      -0.433646       -11.8001
  64   2.0000      -0.430085       -11.7032
  65   2.0000      -0.422020       -11.4838
  66   2.0000      -0.419732       -11.4215
  67   2.0000      -0.418061       -11.3760
  68   2.0000      -0.414916       -11.2904
  69   2.0000      -0.405235       -11.0270
  70   2.0000      -0.390549       -10.6274
  71   2.0000      -0.387672       -10.5491
  72   2.0000      -0.382116       -10.3979
  73   2.0000      -0.373669       -10.1680
  74   2.0000      -0.367635       -10.0039
  75   2.0000      -0.362800        -9.8723
  76   2.0000      -0.361638        -9.8407
  77   2.0000      -0.357403        -9.7254
  78   2.0000      -0.355589        -9.6761
  79   2.0000      -0.350337        -9.5332
  80   2.0000      -0.347744        -9.4626
  81   2.0000      -0.341562        -9.2944
  82   2.0000      -0.338524        -9.2117
  83   2.0000      -0.332485        -9.0474
  84   2.0000      -0.314873        -8.5681
  85   2.0000      -0.311003        -8.4628
  86   2.0000      -0.305451        -8.3118
  87   2.0000      -0.301942        -8.2163
  88   2.0000      -0.295310        -8.0358
  89   2.0000      -0.282364        -7.6835
  90   2.0000      -0.270319        -7.3557
  91   2.0000      -0.254688        -6.9304
  92   2.0000      -0.247072        -6.7232
  93   2.0000      -0.242563        -6.6005
  94   2.0000      -0.231911        -6.3106
  95   2.0000      -0.224455        -6.1077
  96   2.0000      -0.218817        -5.9543
  97   2.0000      -0.203242        -5.5305
  98   0.0000      -0.018965        -0.5161
  99   0.0000      -0.006156        -0.1675
 100   0.0000       0.000756         0.0206
 101   0.0000       0.008223         0.2238
 102   0.0000       0.033762         0.9187

MULLIKEN ATOMIC CHARGES
-----------------------
   0 N :   -0.709895
   1 C :    0.037159
   2 C :   -0.270801
   3 C :   -0.255062
   4 C :   -0.263225
   5 C :    0.034349
   6 N :   -0.433736
   7 C :    0.427134
   8 O :   -0.457347
   9 C :    0.042705
  10 C :   -0.147857
  11 C :   -0.135792
  12 C :   -0.118874
  13 C :   -0.190811
  14 C :    0.353535
  15 O :   -0.525135
  16 C :   -0.114692
  17 C :    0.123553
  18 C :   -0.159594
  19 C :   -0.125370
  20 C :   -0.123120
  21 C :   -0.125558
  22 C :   -0.174663
  23 C :    0.044728
  24 C :   -0.328334
  25 C :   -0.310856
  26 C :   -0.276110
  27 H :    0.288224
  28 H :    0.285869
  29 H :    0.099858
  30 H :    0.131474
  31 H :    0.121490
  32 H :    0.133224
  33 H :    0.125239
  34 H :    0.154164
  35 H :    0.141500
  36 H :    0.129402
  37 H :    0.147532
  38 H :    0.127524
  39 H :    0.131811
  40 H :    0.133088
  41 H :    0.168367
  42 H :    0.139895
  43 H :    0.152222
  44 H :    0.135281
  45 H :    0.129382
  46 H :    0.127725
  47 H :    0.121416
  48 H :    0.147402
  49 H :    0.143716
  50 H :    0.180095
  51 H :    0.166737
  52 H :    0.140716
  53 H :    0.132306
  54 H :    0.148011
Sum of atomic charges:    0.0000000

LOEWDIN ATOMIC CHARGES
----------------------
   0 N :   -0.470977
   1 C :   -0.074436
   2 C :   -0.232450
   3 C :   -0.230462
   4 C :   -0.243827
   5 C :   -0.047832
   6 N :   -0.104515
   7 C :    0.149689
   8 O :   -0.263847
   9 C :   -0.060815
  10 C :   -0.102141
  11 C :   -0.145884
  12 C :   -0.117057
  13 C :   -0.165147
  14 C :    0.098368
  15 O :   -0.180186
  16 C :   -0.083694
  17 C :   -0.042785
  18 C :   -0.119491
  19 C :   -0.122352
  20 C :   -0.127112
  21 C :   -0.128294
  22 C :   -0.135623
  23 C :   -0.066425
  24 C :   -0.253014
  25 C :   -0.261894
  26 C :   -0.229781
  27 H :    0.219180
  28 H :    0.218413
  29 H :    0.094160
  30 H :    0.118375
  31 H :    0.116049
  32 H :    0.121267
  33 H :    0.115306
  34 H :    0.128613
  35 H :    0.125420
  36 H :    0.119835
  37 H :    0.143597
  38 H :    0.131904
  39 H :    0.133590
  40 H :    0.135679
  41 H :    0.139057
  42 H :    0.115287
  43 H :    0.139887
  44 H :    0.134722
  45 H :    0.131988
  46 H :    0.131149
  47 H :    0.127304
  48 H :    0.125858
  49 H :    0.130716
  50 H :    0.140899
  51 H :    0.142902
  52 H :    0.128678
  53 H :    0.121142
  54 H :    0.131008

  Mayer bond orders larger than 0.100000
B(  0-N ,  1-C ) :   0.9726 B(  0-N , 27-H ) :   0.8621 B(  0-N , 28-H ) :   0.8616
B(  1-C ,  2-C ) :   1.0073 B(  1-C , 26-C ) :   0.9687 B(  1-C , 29-H ) :   0.9370
B(  2-C ,  3-C ) :   0.9965 B(  2-C , 30-H ) :   0.9410 B(  2-C , 31-H ) :   0.9406
B(  3-C ,  4-C ) :   0.9882 B(  3-C , 32-H ) :   0.9464 B(  3-C , 33-H ) :   0.9463
B(  4-C ,  5-C ) :   0.9941 B(  4-C , 34-H ) :   0.9263 B(  4-C , 35-H ) :   0.9289
B(  5-C ,  6-N ) :   0.9177 B(  5-C , 26-C ) :   1.0021 B(  5-C , 36-H ) :   0.9243
B(  6-N ,  7-C ) :   1.0498 B(  6-N , 23-C ) :   0.9753 B(  7-C ,  8-O ) :   1.8524
B(  7-C ,  9-C ) :   0.9187 B(  9-C , 10-C ) :   1.4220 B(  9-C , 14-C ) :   1.3768
B( 10-C , 11-C ) :   1.4363 B( 10-C , 37-H ) :   0.9220 B( 11-C , 12-C ) :   1.4468
B( 11-C , 38-H ) :   0.9295 B( 12-C , 13-C ) :   1.4458 B( 12-C , 39-H ) :   0.9297
B( 13-C , 14-C ) :   1.3625 B( 13-C , 40-H ) :   0.9149 B( 14-C , 15-O ) :   0.8811
B( 15-O , 16-C ) :   0.9022 B( 16-C , 17-C ) :   0.9643 B( 16-C , 41-H ) :   0.9250
B( 16-C , 42-H ) :   0.9219 B( 17-C , 18-C ) :   1.4245 B( 17-C , 22-C ) :   1.4356
B( 18-C , 19-C ) :   1.4510 B( 18-C , 43-H ) :   0.9151 B( 19-C , 20-C ) :   1.4455
B( 19-C , 44-H ) :   0.9290 B( 20-C , 21-C ) :   1.4602 B( 20-C , 45-H ) :   0.9303
B( 21-C , 22-C ) :   1.4379 B( 21-C , 46-H ) :   0.9297 B( 22-C , 47-H ) :   0.9242
B( 23-C , 24-C ) :   0.9501 B( 23-C , 25-C ) :   0.9356 B( 23-C , 48-H ) :   0.9190
B( 24-C , 25-C ) :   0.9612 B( 24-C , 49-H ) :   0.9453 B( 24-C , 50-H ) :   0.9242
B( 25-C , 51-H ) :   0.9330 B( 25-C , 52-H ) :   0.9431 B( 26-C , 53-H ) :   0.9375
B( 26-C , 54-H ) :   0.9225

FINAL SINGLE POINT ENERGY     -1152.437695310711

DIPOLE MOMENT
-------------

Method             : SCF
Type of density    : Electron Density
Multiplicity       :   1
Irrep              :   0
Energy             : -1152.4376953107114332 Eh
Relativity type    :
Basis              : AO
                                X                 Y                 Z
Electronic contribution:     21.021177386      -0.446284978       5.343655851
Nuclear contribution   :    -21.574356701      -0.197152162      -6.313350616
                        -----------------------------------------
Total Dipole Moment    :     -0.553179315      -0.643437139      -0.969694765
                        -----------------------------------------
Magnitude (a.u.)       :      1.288536629
Magnitude (Debye)      :      3.275199826

Rotational constants in cm-1:             0.010908             0.003915             0.003573
Rotational constants in MHz :           327.002522           117.381348           107.107061

                             ****ORCA TERMINATED NORMALLY****
TOTAL RUN TIME: 0 days 0 hours 5 minutes 23 seconds 413 msec
