                         Program Version 6.0.0  -   RELEASE  -
|  1> ! B3LYP 6-31G* SP
|  2>
|  3> * xyz 0 1
|  4> N 8.6296 -0.5511 0.1291
|  5> C 7.5188 -0.8649 0.0461
|  6> C 6.1371 -1.2554 -0.0569
|  7> C 5.7981 -2.6085 -0.1733
|  8> C 4.4576 -2.9862 -0.2825
|  9> C 3.4509 -2.0166 -0.2680
| 10> C 3.7786 -0.6547 -0.1312
| 11> N 2.7631 0.3637 -0.1366
| 12> C 1.4307 0.1608 0.3653
| 13> O 1.2225 -0.7429 1.2214
| 14> N 0.3381 1.0054 -0.0660
| 15> C 0.5466 1.9244 -1.2008
| 16> C -0.7643 2.3414 -1.8694
| 17> C -1.7528 2.8117 -0.8494
| 18> C -2.6426 3.8547 -1.1528
| 19> C -3.5807 4.2757 -0.2077
| 20> C -3.6439 3.6525 1.0396
| 21> C -2.7739 2.6023 1.3423
| 22> C -1.8239 2.1693 0.3995
| 23> C -0.9167 0.9988 0.7226
| 24> C -1.6727 -0.3077 0.5511
| 25> C -2.4069 -0.8314 1.6286
| 26> C -3.1322 -2.0173 1.4870
| 27> C -3.1269 -2.7145 0.2679
| 28> C -3.9483 -3.9681 0.1014
| 29> F -5.2240 -3.6254 -0.3058
| 30> F -4.0273 -4.6623 1.2964
| 31> F -3.3813 -4.8023 -0.8465
| 32> C -2.4190 -2.1771 -0.8195
| 33> C -1.6947 -0.9904 -0.6784
| 34> C 5.1294 -0.2817 -0.0432
| 35> H 6.5693 -3.3695 -0.1869
| 36> H 4.1984 -4.0320 -0.3865
| 37> H 2.4222 -2.3304 -0.3861
| 38> H 3.0402 1.3277 -0.4282
| 39> H 1.0818 2.8296 -0.8401
| 40> H 1.1725 1.4330 -1.9775
| 41> H -1.1992 1.4895 -2.4309
| 42> H -0.5448 3.1492 -2.6015
| 43> H -2.6091 4.3422 -2.1192
| 44> H -4.2609 5.0840 -0.4434
| 45> H -4.3721 3.9793 1.7708
| 46> H -2.8428 2.1249 2.3113
| 47> H -0.6278 1.1051 1.7935
| 48> H -2.4214 -0.3194 2.5825
| 49> H -3.6997 -2.3882 2.3313
| 50> H -2.4251 -2.6750 -1.7811
| 51> H -1.1428 -0.6188 -1.5290
| 52> H 5.3926 0.7661 0.0449
| 53> *
| 54>
| 55>                          ****END OF INPUT****

CARTESIAN COORDINATES (ANGSTROEM)
---------------------------------
  N      8.629600   -0.551100    0.129100
  C      7.518800   -0.864900    0.046100
  C      6.137100   -1.255400   -0.056900
  C      5.798100   -2.608500   -0.173300
  C      4.457600   -2.986200   -0.282500
  C      3.450900   -2.016600   -0.268000
  C      3.778600   -0.654700   -0.131200
  N      2.763100    0.363700   -0.136600
  C      1.430700    0.160800    0.365300
  O      1.222500   -0.742900    1.221400
  N      0.338100    1.005400   -0.066000
  C      0.546600    1.924400   -1.200800
  C     -0.764300    2.341400   -1.869400
  C     -1.752800    2.811700   -0.849400
  C     -2.642600    3.854700   -1.152800
  C     -3.580700    4.275700   -0.207700
  C     -3.643900    3.652500    1.039600
  C     -2.773900    2.602300    1.342300
  C     -1.823900    2.169300    0.399500
  C     -0.916700    0.998800    0.722600
  C     -1.672700   -0.307700    0.551100
  C     -2.406900   -0.831400    1.628600
  C     -3.132200   -2.017300    1.487000
  C     -3.126900   -2.714500    0.267900
  C     -3.948300   -3.968100    0.101400
  F     -5.224000   -3.625400   -0.305800
  F     -4.027300   -4.662300    1.296400
  F     -3.381300   -4.802300   -0.846500
  C     -2.419000   -2.177100   -0.819500
  C     -1.694700   -0.990400   -0.678400
  C      5.129400   -0.281700   -0.043200
  H      6.569300   -3.369500   -0.186900
  H      4.198400   -4.032000   -0.386500
  H      2.422200   -2.330400   -0.386100
  H      3.040200    1.327700   -0.428200
  H      1.081800    2.829600   -0.840100
  H      1.172500    1.433000   -1.977500
  H     -1.199200    1.489500   -2.430900
  H     -0.544800    3.149200   -2.601500
  H     -2.609100    4.342200   -2.119200
  H     -4.260900    5.084000   -0.443400
  H     -4.372100    3.979300    1.770800
  H     -2.842800    2.124900    2.311300
  H     -0.627800    1.105100    1.793500
  H     -2.421400   -0.319400    2.582500
  H     -3.699700   -2.388200    2.331300
  H     -2.425100   -2.675000   -1.781100
  H     -1.142800   -0.618800   -1.529000
  H      5.392600    0.766100    0.044900

 Total Charge           Charge          ....    0
 Multiplicity           Mult            ....    1
 Number of Electrons    NEL             ....  218
 Basis Dimension        Dim             ....  470

ORBITAL ENERGIES
----------------

  NO   OCC          E(Eh)            E(eV)
   0   2.0000     -24.714137      -672.5059
   1   2.0000     -24.713545      -672.4898
   2   2.0000     -24.710236      -672.3997
   3   2.0000     -19.115620      -520.1625
   4   2.0000     -14.383402      -391.3923
   5   2.0000     -14.373969      -391.1356
   6   2.0000     -14.329602      -389.9283
   7   2.0000     -10.428608      -283.7769
   8   2.0000     -10.329205      -281.0720
   9   2.0000     -10.253255      -279.0053
  10   2.0000     -10.246240      -278.8144
  11   2.0000     -10.240978      -278.6712
  12   2.0000     -10.232731      -278.4468
  13   2.0000     -10.219548      -278.0880
  14   2.0000     -10.210176      -277.8330
  15   2.0000     -10.207955      -277.7726
  16   2.0000     -10.207448      -277.7588
  17   2.0000     -10.206381      -277.7298
  18   2.0000     -10.206250      -277.7262
  19   2.0000     -10.204191      -277.6701
  20   2.0000     -10.202848      -277.6336
  21   2.0000     -10.201471      -277.5961
  22   2.0000     -10.200607      -277.5726
  23   2.0000     -10.198411      -277.5129
  24   2.0000     -10.198060      -277.5033
  25   2.0000     -10.196114      -277.4504
  26   2.0000     -10.193745      -277.3859
  27   2.0000     -10.193206      -277.3712
  28   2.0000     -10.193103      -277.3684
  29   2.0000     -10.192991      -277.3654
  30   2.0000     -10.192531      -277.3529
  31   2.0000      -1.273729       -34.6599
  32   2.0000      -1.199330       -32.6354
  33   2.0000      -1.198046       -32.6005
  34   2.0000      -1.032011       -28.0824
  35   2.0000      -0.941584       -25.6218
  36   2.0000      -0.932151       -25.3651
  37   2.0000      -0.902610       -24.5613
  38   2.0000      -0.870648       -23.6915
  39   2.0000      -0.865444       -23.5499
  40   2.0000      -0.861934       -23.4544
  41   2.0000      -0.811440       -22.0804
  42   2.0000      -0.795674       -21.6514
  43   2.0000      -0.777344       -21.1526
  44   2.0000      -0.766090       -20.8464
  45   2.0000      -0.758316       -20.6348
  46   2.0000      -0.755370       -20.5547
  47   2.0000      -0.743627       -20.2351
  48   2.0000      -0.703220       -19.1356
  49   2.0000      -0.672394       -18.2968
  50   2.0000      -0.655961       -17.8496
  51   2.0000      -0.654278       -17.8038
  52   2.0000      -0.634049       -17.2534
  53   2.0000      -0.624623       -16.9968
  54   2.0000      -0.615581       -16.7508
  55   2.0000      -0.604696       -16.4546
  56   2.0000      -0.600057       -16.3284
  57   2.0000      -0.565774       -15.3955
  58   2.0000      -0.564646       -15.3648
  59   2.0000      -0.561507       -15.2794
  60   2.0000      -0.556713       -15.1489
  61   2.0000      -0.555986       -15.1292
  62   2.0000      -0.540779       -14.7153
  63   2.0000      -0.519865       -14.1463
  64   2.0000      -0.508943       -13.8490
  65   2.0000      -0.503356       -13.6970
  66   2.0000      -0.485337       -13.2067
  67   2.0000      -0.484299       -13.1784
  68   2.0000      -0.477188       -12.9849
  69   2.0000      -0.472625       -12.8608
  70   2.0000      -0.467245       -12.7144
  71   2.0000      -0.459934       -12.5154
  72   2.0000      -0.449985       -12.2447
  73   2.0000      -0.446795       -12.1579
  74   2.0000      -0.442825       -12.0499
  75   2.0000      -0.441979       -12.0269
  76   2.0000      -0.436425       -11.8757
  77   2.0000      -0.432737       -11.7754
  78   2.0000      -0.428020       -11.6470
  79   2.0000      -0.422357       -11.4929
  80   2.0000      -0.419189       -11.4067
  81   2.0000      -0.415094       -11.2953
  82   2.0000      -0.413295       -11.2463
  83   2.0000      -0.405842       -11.0435
  84   2.0000      -0.404227       -10.9996
  85   2.0000      -0.394616       -10.7380
  86   2.0000      -0.392584       -10.6827
  87   2.0000      -0.390121       -10.6157
  88   2.0000      -0.386119       -10.5068
  89   2.0000      -0.384155       -10.4534
  90   2.0000      -0.378985       -10.3127
  91   2.0000      -0.368172       -10.0185
  92   2.0000      -0.361959        -9.8494
  93   2.0000      -0.354834        -9.6555
  94   2.0000      -0.353465        -9.6183
  95   2.0000      -0.352257        -9.5854
  96   2.0000      -0.348360        -9.4794
  97   2.0000      -0.344489        -9.3740
  98   2.0000      -0.342673        -9.3246
  99   2.0000      -0.328215        -8.9312
 100   2.0000      -0.307312        -8.3624
 101   2.0000      -0.275125        -7.4865
 102   2.0000      -0.265119        -7.2143
 103   2.0000      -0.260032        -7.0758
 104   2.0000      -0.257575        -7.0090
 105   2.0000      -0.253801        -6.9063
 106   2.0000      -0.245331        -6.6758
 107   2.0000      -0.243401        -6.6233
 108   2.0000      -0.231539        -6.3005
 109   0.0000      -0.044737        -1.2174
 110   0.0000      -0.031016        -0.8440
 111   0.0000      -0.022495        -0.6121
 112   0.0000      -0.018492        -0.5032
 113   0.0000      -0.008184        -0.2227

MULLIKEN ATOMIC CHARGES
-----------------------
   0 N :   -0.307458
   1 C :    0.079177
   2 C :    0.121819
   3 C :   -0.139083
   4 C :   -0.141297
   5 C :   -0.128863
   6 C :    0.357519
   7 N :   -0.734052
   8 C :    0.699535
   9 O :   -0.484315
  10 N :   -0.469333
  11 C :   -0.140298
  12 C :   -0.367476
  13 C :    0.122683
  14 C :   -0.186277
  15 C :   -0.121477
  16 C :   -0.127120
  17 C :   -0.173365
  18 C :    0.112026
  19 C :   -0.124916
  20 C :    0.222858
  21 C :   -0.170664
  22 C :   -0.159429
  23 C :   -0.014441
  24 C :    0.892533
  25 F :   -0.298245
  26 F :   -0.306222
  27 F :   -0.307030
  28 C :   -0.159367
  29 C :   -0.171502
  30 C :   -0.202688
  31 H :    0.153435
  32 H :    0.149595
  33 H :    0.165092
  34 H :    0.334197
  35 H :    0.141672
  36 H :    0.156311
  37 H :    0.169183
  38 H :    0.155043
  39 H :    0.127384
  40 H :    0.132660
  41 H :    0.134562
  42 H :    0.130619
  43 H :    0.171301
  44 H :    0.132666
  45 H :    0.150643
  46 H :    0.147582
  47 H :    0.127872
  48 H :    0.146952
Sum of atomic charges:   -0.0000000

LOEWDIN ATOMIC CHARGES
----------------------
   0 N :   -0.098167
   1 C :   -0.005894
   2 C :   -0.050624
   3 C :   -0.113809
   4 C :   -0.117466
   5 C :   -0.112733
   6 C :    0.050039
   7 N :   -0.225800
   8 C :    0.166229
   9 O :   -0.298431
  10 N :   -0.115673
  11 C :   -0.155148
  12 C :   -0.227340
  13 C :   -0.025951
  14 C :   -0.130233
  15 C :   -0.125013
  16 C :   -0.126802
  17 C :   -0.123849
  18 C :   -0.018976
  19 C :   -0.033782
  20 C :    0.011865
  21 C :   -0.124545
  22 C :   -0.108015
  23 C :   -0.073888
  24 C :    0.309258
  25 F :   -0.115657
  26 F :   -0.114465
  27 F :   -0.115060
  28 C :   -0.110793
  29 C :   -0.129321
  30 C :   -0.127325
  31 H :    0.145813
  32 H :    0.143033
  33 H :    0.152363
  34 H :    0.258663
  35 H :    0.113144
  36 H :    0.129463
  37 H :    0.137435
  38 H :    0.136865
  39 H :    0.131763
  40 H :    0.133914
  41 H :    0.135028
  42 H :    0.132617
  43 H :    0.145089
  44 H :    0.133359
  45 H :    0.142924
  46 H :    0.141303
  47 H :    0.131760
  48 H :    0.142834

  Mayer bond orders larger than 0.100000
B(  0-N ,  1-C ) :   3.0247 B(  1-C ,  2-C ) :   0.9781 B(  2-C ,  3-C ) :   1.4087
B(  2-C , 30-C ) :   1.3981 B(  3-C ,  4-C ) :   1.4247 B(  3-C , 31-H ) :   0.9234
B(  4-C ,  5-C ) :   1.4462 B(  4-C , 32-H ) :   0.9257 B(  5-C ,  6-C ) :   1.4073
B(  5-C , 33-H ) :   0.9090 B(  6-C ,  7-N ) :   0.8795 B(  6-C , 30-C ) :   1.3889
B(  7-N ,  8-C ) :   0.9863 B(  7-N , 34-H ) :   0.8184 B(  8-C ,  9-O ) :   1.7818
B(  8-C , 10-N ) :   1.0556 B( 10-N , 11-C ) :   0.9384 B( 10-N , 19-C ) :   0.9046
B( 11-C , 12-C ) :   0.9983 B( 11-C , 35-H ) :   0.9222 B( 11-C , 36-H ) :   0.9229
B( 12-C , 13-C ) :   0.9874 B( 12-C , 37-H ) :   0.9123 B( 12-C , 38-H ) :   0.9299
B( 13-C , 14-C ) :   1.4133 B( 13-C , 18-C ) :   1.4437 B( 14-C , 15-C ) :   1.4470
B( 14-C , 39-H ) :   0.9245 B( 15-C , 16-C ) :   1.4410 B( 15-C , 40-H ) :   0.9289
B( 16-C , 17-C ) :   1.4472 B( 16-C , 41-H ) :   0.9288 B( 17-C , 18-C ) :   1.4007
B( 17-C , 42-H ) :   0.9213 B( 18-C , 19-C ) :   0.9551 B( 19-C , 20-C ) :   0.9291
B( 19-C , 43-H ) :   0.9110 B( 20-C , 21-C ) :   1.4134 B( 20-C , 29-C ) :   1.4215
B( 21-C , 22-C ) :   1.4291 B( 21-C , 44-H ) :   0.9220 B( 22-C , 23-C ) :   1.4110
B( 22-C , 45-H ) :   0.9198 B( 23-C , 24-C ) :   0.9812 B( 23-C , 28-C ) :   1.4104
B( 24-C , 25-F ) :   0.9848 B( 24-C , 26-F ) :   0.9478 B( 24-C , 27-F ) :   0.9466
B( 28-C , 29-C ) :   1.4296 B( 28-C , 46-H ) :   0.9206 B( 29-C , 47-H ) :   0.9161
B( 30-C , 48-H ) :   0.9178

FINAL SINGLE POINT ENERGY     -1463.561924574300

DIPOLE MOMENT
-------------

Method             : SCF
Type of density    : Electron Density
Multiplicity       :   1
Irrep              :   0
Energy             : -1463.5619245743000647 Eh
Relativity type    :
Basis              : AO
                                X                 Y                 Z
Electronic contribution:    -12.315402457     -28.982564736       3.800919141
Nuclear contribution   :     10.833295397      30.788898837      -4.783869409
                        -----------------------------------------
Total Dipole Moment    :     -1.482107060       1.806334102      -0.982950268
                        -----------------------------------------
Magnitude (a.u.)       :      2.534891606
Magnitude (Debye)      :      6.443182415

Rotational constants in cm-1:             0.005499             0.002643             0.001915
Rotational constants in MHz :           164.863891            79.224658            57.409066

                             ****ORCA TERMINATED NORMALLY****
TOTAL RUN TIME: 0 days 0 hours 5 minutes 31 seconds 868 msec
