                         Program Version 6.0.0  -   RELEASE  -
|  1> ! B3LYP 6-31G* SP
|  2>
|  3> * xyz 0 1
|  4> C 1.4618 -2.7199 -3.7717
|  5> C 1.8884 -2.6474 -2.3219
|  6> C 1.6344 -1.4853 -1.5546
|  7> N 0.8878 -0.3843 -2.0902
|  8> C -0.5598 -0.5019 -2.2906
|  9> C -1.3031 -0.0212 -1.0741
| 10> C -2.0307 1.1915 -1.1087
| 11> C -2.6835 1.6595 0.0427
| 12> C -2.6035 0.8945 1.2101
| 13> C -1.9201 -0.2683 1.2435
| 14> C -1.2559 -0.7656 0.1226
| 15> C -2.0172 -0.8462 2.5931
| 16> O -2.8213 0.0338 3.3693
| 17> C -3.1953 1.1400 2.5510
| 18> C -2.6316 2.4281 3.1626
| 19> C -4.7255 1.2052 2.4625
| 20> S 1.6690 1.1558 -2.2821
| 21> O 1.4058 1.6651 -3.6717
| 22> O 3.1544 1.0011 -2.1086
| 23> C 1.0718 2.2998 -1.0826
| 24> C 0.3992 3.4633 -1.4785
| 25> C -0.0972 4.3511 -0.5196
| 26> C 0.0794 4.0919 0.8513
| 27> C -0.4345 5.0342 1.8693
| 28> O -1.1027 6.0459 1.5233
| 29> O -0.1838 4.8128 3.2210
| 30> C 0.7575 2.9244 1.2415
| 31> C 1.2489 2.0362 0.2809
| 32> N 2.0950 -1.3983 -0.2794
| 33> C 2.7752 -2.4038 0.3208
| 34> C 3.0152 -3.5960 -0.3659
| 35> C 3.6970 -4.6496 0.2624
| 36> C 3.9281 -5.8428 -0.4224
| 37> C 3.4797 -5.9946 -1.7341
| 38> C 2.8019 -4.9528 -2.3731
| 39> C 2.5635 -3.7322 -1.7027
| 40> H 2.3150 -3.0445 -4.4034
| 41> H 0.6238 -3.4401 -3.8789
| 42> H 1.1378 -1.7380 -4.1714
| 43> H -0.8565 0.0776 -3.1912
| 44> H -0.8388 -1.5599 -2.4869
| 45> H -2.0775 1.7783 -2.0173
| 46> H -3.2315 2.5923 0.0247
| 47> H -0.7164 -1.7023 0.1803
| 48> H -1.0068 -0.9280 3.0463
| 49> H -2.4952 -1.8473 2.5468
| 50> H -3.0489 2.5846 4.1801
| 51> H -2.8868 3.3085 2.5344
| 52> H -1.5267 2.3565 3.2494
| 53> H -5.1255 0.2683 2.0179
| 54> H -5.1630 1.3232 3.4769
| 55> H -5.0482 2.0639 1.8351
| 56> H 0.2463 3.6812 -2.5273
| 57> H -0.6172 5.2407 -0.8521
| 58> H -0.5364 5.4485 3.9264
| 59> H 0.9069 2.6945 2.2888
| 60> H 1.7644 1.1416 0.6022
| 61> H 3.1146 -2.2739 1.3410
| 62> H 4.0480 -4.5507 1.2828
| 63> H 4.4526 -6.6537 0.0664
| 64> H 3.6558 -6.9250 -2.2585
| 65> H 2.4621 -5.1204 -3.3858
| 66> *
| 67>
| 68>                          ****END OF INPUT****

CARTESIAN COORDINATES (ANGSTROEM)
---------------------------------
  C      1.461800   -2.719900   -3.771700
  C      1.888400   -2.647400   -2.321900
  C      1.634400   -1.485300   -1.554600
  N      0.887800   -0.384300   -2.090200
  C     -0.559800   -0.501900   -2.290600
  C     -1.303100   -0.021200   -1.074100
  C     -2.030700    1.191500   -1.108700
  C     -2.683500    1.659500    0.042700
  C     -2.603500    0.894500    1.210100
  C     -1.920100   -0.268300    1.243500
  C     -1.255900   -0.765600    0.122600
  C     -2.017200   -0.846200    2.593100
  O     -2.821300    0.033800    3.369300
  C     -3.195300    1.140000    2.551000
  C     -2.631600    2.428100    3.162600
  C     -4.725500    1.205200    2.462500
  S      1.669000    1.155800   -2.282100
  O      1.405800    1.665100   -3.671700
  O      3.154400    1.001100   -2.108600
  C      1.071800    2.299800   -1.082600
  C      0.399200    3.463300   -1.478500
  C     -0.097200    4.351100   -0.519600
  C      0.079400    4.091900    0.851300
  C     -0.434500    5.034200    1.869300
  O     -1.102700    6.045900    1.523300
  O     -0.183800    4.812800    3.221000
  C      0.757500    2.924400    1.241500
  C      1.248900    2.036200    0.280900
  N      2.095000   -1.398300   -0.279400
  C      2.775200   -2.403800    0.320800
  C      3.015200   -3.596000   -0.365900
  C      3.697000   -4.649600    0.262400
  C      3.928100   -5.842800   -0.422400
  C      3.479700   -5.994600   -1.734100
  C      2.801900   -4.952800   -2.373100
  C      2.563500   -3.732200   -1.702700
  H      2.315000   -3.044500   -4.403400
  H      0.623800   -3.440100   -3.878900
  H      1.137800   -1.738000   -4.171400
  H     -0.856500    0.077600   -3.191200
  H     -0.838800   -1.559900   -2.486900
  H     -2.077500    1.778300   -2.017300
  H     -3.231500    2.592300    0.024700
  H     -0.716400   -1.702300    0.180300
  H     -1.006800   -0.928000    3.046300
  H     -2.495200   -1.847300    2.546800
  H     -3.048900    2.584600    4.180100
  H     -2.886800    3.308500    2.534400
  H     -1.526700    2.356500    3.249400
  H     -5.125500    0.268300    2.017900
  H     -5.163000    1.323200    3.476900
  H     -5.048200    2.063900    1.835100
  H      0.246300    3.681200   -2.527300
  H     -0.617200    5.240700   -0.852100
  H     -0.536400    5.448500    3.926400
  H      0.906900    2.694500    2.288800
  H      1.764400    1.141600    0.602200
  H      3.114600   -2.273900    1.341000
  H      4.048000   -4.550700    1.282800
  H      4.452600   -6.653700    0.066400
  H      3.655800   -6.925000   -2.258500
  H      2.462100   -5.120400   -3.385800

 Total Charge           Charge          ....    0
 Multiplicity           Mult            ....    1
 Number of Electrons    NEL             ....  264
 Basis Dimension        Dim             ....  560

ORBITAL ENERGIES
----------------

  NO   OCC          E(Eh)            E(eV)
   0   2.0000     -89.094361     -2424.3808
   1   2.0000     -19.193675      -522.2864
   2   2.0000     -19.136977      -520.7436
   3   2.0000     -19.134505      -520.6764
   4   2.0000     -19.123621      -520.3802
   5   2.0000     -19.120104      -520.2845
   6   2.0000     -14.372195      -391.0873
   7   2.0000     -14.335762      -390.0959
   8   2.0000     -10.331469      -281.1336
   9   2.0000     -10.263501      -279.2841
  10   2.0000     -10.235593      -278.5246
  11   2.0000     -10.234665      -278.4994
  12   2.0000     -10.234153      -278.4855
  13   2.0000     -10.228420      -278.3295
  14   2.0000     -10.225701      -278.2555
  15   2.0000     -10.225001      -278.2364
  16   2.0000     -10.212498      -277.8962
  17   2.0000     -10.211701      -277.8745
  18   2.0000     -10.210109      -277.8312
  19   2.0000     -10.209673      -277.8193
  20   2.0000     -10.209502      -277.8147
  21   2.0000     -10.209033      -277.8019
  22   2.0000     -10.202644      -277.6281
  23   2.0000     -10.200346      -277.5655
  24   2.0000     -10.200306      -277.5644
  25   2.0000     -10.198200      -277.5071
  26   2.0000     -10.197720      -277.4941
  27   2.0000     -10.196806      -277.4692
  28   2.0000     -10.189571      -277.2723
  29   2.0000     -10.188924      -277.2547
  30   2.0000     -10.188136      -277.2333
  31   2.0000     -10.185765      -277.1687
  32   2.0000     -10.182334      -277.0754
  33   2.0000     -10.179377      -276.9949
  34   2.0000     -10.167508      -276.6719
  35   2.0000     -10.166685      -276.6496
  36   2.0000      -8.129956      -221.2273
  37   2.0000      -6.095168      -165.8579
  38   2.0000      -6.092861      -165.7952
  39   2.0000      -6.092584      -165.7876
  40   2.0000      -1.079778       -29.3823
  41   2.0000      -1.077914       -29.3315
  42   2.0000      -1.040377       -28.3101
  43   2.0000      -0.991930       -26.9918
  44   2.0000      -0.965191       -26.2642
  45   2.0000      -0.957456       -26.0537
  46   2.0000      -0.916909       -24.9504
  47   2.0000      -0.882567       -24.0159
  48   2.0000      -0.868016       -23.6199
  49   2.0000      -0.863118       -23.4866
  50   2.0000      -0.811564       -22.0838
  51   2.0000      -0.800396       -21.7799
  52   2.0000      -0.797243       -21.6941
  53   2.0000      -0.784574       -21.3493
  54   2.0000      -0.775380       -21.0992
  55   2.0000      -0.768547       -20.9132
  56   2.0000      -0.749931       -20.4067
  57   2.0000      -0.743602       -20.2344
  58   2.0000      -0.711905       -19.3719
  59   2.0000      -0.709159       -19.2972
  60   2.0000      -0.683882       -18.6094
  61   2.0000      -0.682143       -18.5621
  62   2.0000      -0.669817       -18.2267
  63   2.0000      -0.654035       -17.7972
  64   2.0000      -0.647505       -17.6195
  65   2.0000      -0.630393       -17.1539
  66   2.0000      -0.625856       -17.0304
  67   2.0000      -0.615275       -16.7425
  68   2.0000      -0.599463       -16.3122
  69   2.0000      -0.592109       -16.1121
  70   2.0000      -0.579197       -15.7608
  71   2.0000      -0.561272       -15.2730
  72   2.0000      -0.557171       -15.1614
  73   2.0000      -0.538451       -14.6520
  74   2.0000      -0.533398       -14.5145
  75   2.0000      -0.516753       -14.0616
  76   2.0000      -0.505416       -13.7531
  77   2.0000      -0.500210       -13.6114
  78   2.0000      -0.488543       -13.2939
  79   2.0000      -0.486269       -13.2320
  80   2.0000      -0.483007       -13.1433
  81   2.0000      -0.473927       -12.8962
  82   2.0000      -0.471231       -12.8228
  83   2.0000      -0.467020       -12.7083
  84   2.0000      -0.457824       -12.4580
  85   2.0000      -0.455984       -12.4080
  86   2.0000      -0.452392       -12.3102
  87   2.0000      -0.450383       -12.2555
  88   2.0000      -0.443810       -12.0767
  89   2.0000      -0.440851       -11.9962
  90   2.0000      -0.439448       -11.9580
  91   2.0000      -0.436448       -11.8764
  92   2.0000      -0.433289       -11.7904
  93   2.0000      -0.432053       -11.7568
  94   2.0000      -0.420830       -11.4514
  95   2.0000      -0.416796       -11.3416
  96   2.0000      -0.410856       -11.1800
  97   2.0000      -0.408477       -11.1152
  98   2.0000      -0.407887       -11.0992
  99   2.0000      -0.401694       -10.9306
 100   2.0000      -0.400051       -10.8859
 101   2.0000      -0.391156       -10.6439
 102   2.0000      -0.389307       -10.5936
 103   2.0000      -0.384595       -10.4654
 104   2.0000      -0.381686       -10.3862
 105   2.0000      -0.379808       -10.3351
 106   2.0000      -0.374806       -10.1990
 107   2.0000      -0.371410       -10.1066
 108   2.0000      -0.361979        -9.8499
 109   2.0000      -0.357427        -9.7261
 110   2.0000      -0.354399        -9.6437
 111   2.0000      -0.351312        -9.5597
 112   2.0000      -0.348953        -9.4955
 113   2.0000      -0.347009        -9.4426
 114   2.0000      -0.336416        -9.1544
 115   2.0000      -0.323161        -8.7936
 116   2.0000      -0.316873        -8.6226
 117   2.0000      -0.314836        -8.5671
 118   2.0000      -0.302991        -8.2448
 119   2.0000      -0.296518        -8.0687
 120   2.0000      -0.294710        -8.0195
 121   2.0000      -0.281080        -7.6486
 122   2.0000      -0.275940        -7.5087
 123   2.0000      -0.272318        -7.4101
 124   2.0000      -0.270295        -7.3551
 125   2.0000      -0.269323        -7.3286
 126   2.0000      -0.260359        -7.0847
 127   2.0000      -0.257484        -7.0065
 128   2.0000      -0.251810        -6.8521
 129   2.0000      -0.244539        -6.6542
 130   2.0000      -0.230468        -6.2714
 131   2.0000      -0.220638        -6.0039
 132   0.0000      -0.077515        -2.1093
 133   0.0000      -0.064067        -1.7433
 134   0.0000      -0.031829        -0.8661
 135   0.0000      -0.025103        -0.6831
 136   0.0000      -0.014053        -0.3824

MULLIKEN ATOMIC CHARGES
-----------------------
   0 C :   -0.548600
   1 C :    0.093654
   2 C :    0.345468
   3 N :   -0.609521
   4 C :   -0.267283
   5 C :    0.154874
   6 C :   -0.182762
   7 C :   -0.196177
   8 C :    0.115203
   9 C :    0.071836
  10 C :   -0.214006
  11 C :   -0.070559
  12 O :   -0.518381
  13 C :    0.274472
  14 C :   -0.450867
  15 C :   -0.439270
  16 S :    1.203160
  17 O :   -0.543311
  18 O :   -0.531319
  19 C :   -0.128517
  20 C :   -0.150320
  21 C :   -0.141465
  22 C :    0.086968
  23 C :    0.533187
  24 O :   -0.450492
  25 O :   -0.624230
  26 C :   -0.148886
  27 C :   -0.130865
  28 N :   -0.395553
  29 C :   -0.047950
  30 C :    0.132832
  31 C :   -0.202352
  32 C :   -0.127328
  33 C :   -0.119578
  34 C :   -0.199378
  35 C :    0.124923
  36 H :    0.170894
  37 H :    0.156247
  38 H :    0.196524
  39 H :    0.184085
  40 H :    0.177169
  41 H :    0.133268
  42 H :    0.134764
  43 H :    0.132093
  44 H :    0.140707
  45 H :    0.140952
  46 H :    0.144657
  47 H :    0.140040
  48 H :    0.150715
  49 H :    0.145291
  50 H :    0.148889
  51 H :    0.136329
  52 H :    0.185322
  53 H :    0.175564
  54 H :    0.433427
  55 H :    0.170287
  56 H :    0.197440
  57 H :    0.152202
  58 H :    0.139561
  59 H :    0.136956
  60 H :    0.138908
  61 H :    0.140105
Sum of atomic charges:   -0.0000000

LOEWDIN ATOMIC CHARGES
----------------------
   0 C :   -0.362235
   1 C :   -0.015119
   2 C :    0.036147
   3 N :   -0.277468
   4 C :   -0.150544
   5 C :   -0.038917
   6 C :   -0.131952
   7 C :   -0.126176
   8 C :   -0.018613
   9 C :   -0.038290
  10 C :   -0.124946
  11 C :   -0.082684
  12 O :   -0.224636
  13 C :    0.066021
  14 C :   -0.354233
  15 C :   -0.350524
  16 S :    1.268804
  17 O :   -0.575404
  18 O :   -0.562683
  19 C :   -0.170649
  20 C :   -0.104707
  21 C :   -0.090565
  22 C :   -0.039834
  23 C :    0.179490
  24 O :   -0.264029
  25 O :   -0.332243
  26 C :   -0.099337
  27 C :   -0.094568
  28 N :   -0.133169
  29 C :   -0.059494
  30 C :   -0.030359
  31 C :   -0.111015
  32 C :   -0.127009
  33 C :   -0.115748
  34 C :   -0.124297
  35 C :   -0.004872
  36 H :    0.141935
  37 H :    0.134086
  38 H :    0.150687
  39 H :    0.142710
  40 H :    0.144768
  41 H :    0.133383
  42 H :    0.134461
  43 H :    0.135264
  44 H :    0.119332
  45 H :    0.119916
  46 H :    0.126481
  47 H :    0.124843
  48 H :    0.128120
  49 H :    0.127089
  50 H :    0.128427
  51 H :    0.123876
  52 H :    0.160395
  53 H :    0.157808
  54 H :    0.349264
  55 H :    0.152248
  56 H :    0.163911
  57 H :    0.137076
  58 H :    0.137319
  59 H :    0.135953
  60 H :    0.137147
  61 H :    0.139359

  Mayer bond orders larger than 0.100000
B(  0-C ,  1-C ) :   0.9988 B(  0-C , 36-H ) :   0.9281 B(  0-C , 37-H ) :   0.9270
B(  0-C , 38-H ) :   0.9261 B(  1-C ,  2-C ) :   1.4392 B(  1-C , 29-C ) :   0.1010
B(  1-C , 35-C ) :   1.2651 B(  2-C ,  3-N ) :   0.8824 B(  2-C , 28-N ) :   1.2625
B(  3-N ,  4-C ) :   0.9216 B(  3-N , 16-S ) :   0.7930 B(  4-C ,  5-C ) :   0.9466
B(  4-C , 39-H ) :   0.9191 B(  4-C , 40-H ) :   0.9196 B(  5-C ,  6-C ) :   1.4094
B(  5-C , 10-C ) :   1.4119 B(  6-C ,  7-C ) :   1.4208 B(  6-C , 41-H ) :   0.9218
B(  7-C ,  8-C ) :   1.3956 B(  7-C , 10-C ) :   0.1013 B(  7-C , 42-H ) :   0.9204
B(  8-C ,  9-C ) :   1.4932 B(  8-C , 13-C ) :   0.9822 B(  9-C , 10-C ) :   1.3804
B(  9-C , 11-C ) :   0.9735 B( 10-C , 43-H ) :   0.9160 B( 11-C , 12-O ) :   0.9453
B( 11-C , 44-H ) :   0.9162 B( 11-C , 45-H ) :   0.9177 B( 12-O , 13-C ) :   0.8594
B( 13-C , 14-C ) :   0.9817 B( 13-C , 15-C ) :   0.9853 B( 14-C , 46-H ) :   0.9431
B( 14-C , 47-H ) :   0.9351 B( 14-C , 48-H ) :   0.9391 B( 15-C , 49-H ) :   0.9471
B( 15-C , 50-H ) :   0.9428 B( 15-C , 51-H ) :   0.9384 B( 16-S , 17-O ) :   1.6367
B( 16-S , 18-O ) :   1.6639 B( 16-S , 19-C ) :   0.8131 B( 19-C , 20-C ) :   1.3885
B( 19-C , 27-C ) :   1.3935 B( 20-C , 21-C ) :   1.4132 B( 20-C , 52-H ) :   0.9086
B( 21-C , 22-C ) :   1.4027 B( 21-C , 53-H ) :   0.9108 B( 22-C , 23-C ) :   1.0097
B( 22-C , 26-C ) :   1.3769 B( 23-C , 24-O ) :   1.8567 B( 23-C , 25-O ) :   1.0103
B( 25-O , 54-H ) :   0.7419 B( 26-C , 27-C ) :   1.4234 B( 26-C , 55-H ) :   0.9146
B( 27-C , 56-H ) :   0.8882 B( 28-N , 29-C ) :   1.4886 B( 29-C , 30-C ) :   1.2382
B( 29-C , 57-H ) :   0.9256 B( 30-C , 31-C ) :   1.2839 B( 30-C , 35-C ) :   1.2891
B( 31-C , 32-C ) :   1.5138 B( 31-C , 34-C ) :   0.1062 B( 31-C , 58-H ) :   0.9233
B( 32-C , 33-C ) :   1.3524 B( 32-C , 59-H ) :   0.9291 B( 33-C , 34-C ) :   1.5092
B( 33-C , 60-H ) :   0.9288 B( 34-C , 35-C ) :   1.2937 B( 34-C , 61-H ) :   0.9164

FINAL SINGLE POINT ENERGY     -1965.344717024471

DIPOLE MOMENT
-------------

Method             : SCF
Type of density    : Electron Density
Multiplicity       :   1
Irrep              :   0
Energy             : -1965.3447170244712652 Eh
Relativity type    :
Basis              : AO
                                X                 Y                 Z
Electronic contribution:     16.767188425       9.162039516      -7.656900551
Nuclear contribution   :    -17.424966320     -11.124552162       8.587455129
                        -----------------------------------------
Total Dipole Moment    :     -0.657777895      -1.962512646       0.930554578
                        -----------------------------------------
Magnitude (a.u.)       :      2.269374246
Magnitude (Debye)      :      5.768290919

Rotational constants in cm-1:             0.005814             0.002361             0.002025
Rotational constants in MHz :           174.311027            70.781904            60.701948

                             ****ORCA TERMINATED NORMALLY****
TOTAL RUN TIME: 0 days 0 hours 13 minutes 48 seconds 973 msec
