                         Program Version 6.0.0  -   RELEASE  -
|  1> ! B3LYP 6-31G* SP
|  2>
|  3> * xyz 0 1
|  4> C 10.9256 3.3701 -2.5329
|  5> C 10.0406 3.8542 -1.3857
|  6> C 10.0091 2.8828 -0.1884
|  7> C 9.5248 1.4616 -0.5214
|  8> C 8.0895 1.4307 -1.0674
|  9> C 7.6204 0.0173 -1.2751
| 10> C 7.2700 -0.7689 -0.2432
| 11> C 6.7457 -2.1634 -0.4561
| 12> C 5.4620 -2.1401 -1.2497
| 13> C 4.2696 -1.7698 -0.7479
| 14> C 4.0390 -1.4622 0.7125
| 15> C 2.7521 -0.7111 0.9219
| 16> C 1.5537 -1.2710 0.6905
| 17> C 0.2897 -0.4930 0.9423
| 18> C -0.9195 -1.1891 0.3718
| 19> C -2.1541 -0.7818 0.6984
| 20> C -3.3802 -1.4516 0.1398
| 21> C -3.5638 -2.8519 0.7458
| 22> C -4.8119 -3.5619 0.2049
| 23> C -6.0719 -2.8801 0.6519
| 24> O -6.4001 -2.9256 1.8686
| 25> N -6.8904 -2.1756 -0.2949
| 26> C -8.0439 -1.3753 0.1083
| 27> C -7.5819 -0.0537 0.7317
| 28> C -8.7632 0.8209 1.0586
| 29> C -9.3198 0.8105 2.3466
| 30> C -10.4379 1.5959 2.6379
| 31> C -11.0194 2.3919 1.6414
| 32> O -12.1333 3.1788 1.9275
| 33> C -10.4796 2.3968 0.3490
| 34> O -11.0631 3.1877 -0.6393
| 35> C -9.3577 1.6072 0.0579
| 36> H 10.4702 2.4901 -3.0256
| 37> H 11.0158 4.1745 -3.2905
| 38> H 11.9390 3.1132 -2.1626
| 39> H 9.0131 4.0442 -1.7601
| 40> H 10.4397 4.8278 -1.0299
| 41> H 9.3503 3.3135 0.5980
| 42> H 11.0312 2.8190 0.2452
| 43> H 9.5694 0.8667 0.4151
| 44> H 10.2154 0.9820 -1.2478
| 45> H 7.3952 1.9603 -0.3791
| 46> H 8.0536 1.9454 -2.0496
| 47> H 7.5655 -0.3645 -2.2876
| 48> H 7.3499 -0.3972 0.7758
| 49> H 7.5084 -2.7522 -1.0090
| 50> H 6.5844 -2.6640 0.5234
| 51> H 5.5193 -2.4010 -2.3008
| 52> H 3.4211 -1.7557 -1.4253
| 53> H 4.8632 -0.8302 1.1040
| 54> H 4.0238 -2.4115 1.2928
| 55> H 2.8058 0.3091 1.2960
| 56> H 1.5006 -2.2925 0.3273
| 57> H 0.3661 0.5129 0.4738
| 58> H 0.1658 -0.3723 2.0392
| 59> H -0.7949 -2.0137 -0.3336
| 60> H -2.2833 0.0532 1.3905
| 61> H -3.2987 -1.5152 -0.9679
| 62> H -4.2623 -0.8194 0.3858
| 63> H -3.6251 -2.7732 1.8557
| 64> H -2.6766 -3.4781 0.5015
| 65> H -4.7684 -3.6084 -0.9065
| 66> H -4.8238 -4.6086 0.5793
| 67> H -6.6745 -2.2540 -1.3154
| 68> H -8.6675 -1.1613 -0.7882
| 69> H -8.6688 -1.9495 0.8290
| 70> H -6.9927 -0.2605 1.6527
| 71> H -6.9077 0.4788 0.0239
| 72> H -8.8851 0.1996 3.1282
| 73> H -10.8535 1.5845 3.6380
| 74> H -12.5252 3.2210 2.8612
| 75> H -10.7046 3.2072 -1.5853
| 76> H -8.9544 1.5998 -0.9476
| 77> *
| 78>
| 79>                          ****END OF INPUT****

CARTESIAN COORDINATES (ANGSTROEM)
---------------------------------
  C     10.925600    3.370100   -2.532900
  C     10.040600    3.854200   -1.385700
  C     10.009100    2.882800   -0.188400
  C      9.524800    1.461600   -0.521400
  C      8.089500    1.430700   -1.067400
  C      7.620400    0.017300   -1.275100
  C      7.270000   -0.768900   -0.243200
  C      6.745700   -2.163400   -0.456100
  C      5.462000   -2.140100   -1.249700
  C      4.269600   -1.769800   -0.747900
  C      4.039000   -1.462200    0.712500
  C      2.752100   -0.711100    0.921900
  C      1.553700   -1.271000    0.690500
  C      0.289700   -0.493000    0.942300
  C     -0.919500   -1.189100    0.371800
  C     -2.154100   -0.781800    0.698400
  C     -3.380200   -1.451600    0.139800
  C     -3.563800   -2.851900    0.745800
  C     -4.811900   -3.561900    0.204900
  C     -6.071900   -2.880100    0.651900
  O     -6.400100   -2.925600    1.868600
  N     -6.890400   -2.175600   -0.294900
  C     -8.043900   -1.375300    0.108300
  C     -7.581900   -0.053700    0.731700
  C     -8.763200    0.820900    1.058600
  C     -9.319800    0.810500    2.346600
  C    -10.437900    1.595900    2.637900
  C    -11.019400    2.391900    1.641400
  O    -12.133300    3.178800    1.927500
  C    -10.479600    2.396800    0.349000
  O    -11.063100    3.187700   -0.639300
  C     -9.357700    1.607200    0.057900
  H     10.470200    2.490100   -3.025600
  H     11.015800    4.174500   -3.290500
  H     11.939000    3.113200   -2.162600
  H      9.013100    4.044200   -1.760100
  H     10.439700    4.827800   -1.029900
  H      9.350300    3.313500    0.598000
  H     11.031200    2.819000    0.245200
  H      9.569400    0.866700    0.415100
  H     10.215400    0.982000   -1.247800
  H      7.395200    1.960300   -0.379100
  H      8.053600    1.945400   -2.049600
  H      7.565500   -0.364500   -2.287600
  H      7.349900   -0.397200    0.775800
  H      7.508400   -2.752200   -1.009000
  H      6.584400   -2.664000    0.523400
  H      5.519300   -2.401000   -2.300800
  H      3.421100   -1.755700   -1.425300
  H      4.863200   -0.830200    1.104000
  H      4.023800   -2.411500    1.292800
  H      2.805800    0.309100    1.296000
  H      1.500600   -2.292500    0.327300
  H      0.366100    0.512900    0.473800
  H      0.165800   -0.372300    2.039200
  H     -0.794900   -2.013700   -0.333600
  H     -2.283300    0.053200    1.390500
  H     -3.298700   -1.515200   -0.967900
  H     -4.262300   -0.819400    0.385800
  H     -3.625100   -2.773200    1.855700
  H     -2.676600   -3.478100    0.501500
  H     -4.768400   -3.608400   -0.906500
  H     -4.823800   -4.608600    0.579300
  H     -6.674500   -2.254000   -1.315400
  H     -8.667500   -1.161300   -0.788200
  H     -8.668800   -1.949500    0.829000
  H     -6.992700   -0.260500    1.652700
  H     -6.907700    0.478800    0.023900
  H     -8.885100    0.199600    3.128200
  H    -10.853500    1.584500    3.638000
  H    -12.525200    3.221000    2.861200
  H    -10.704600    3.207200   -1.585300
  H     -8.954400    1.599800   -0.947600

 Total Charge           Charge          ....    0
 Multiplicity           Mult            ....    1
 Number of Electrons    NEL             ....  240
 Basis Dimension        Dim             ....  530

ORBITAL ENERGIES
----------------

  NO   OCC          E(Eh)            E(eV)
   0   2.0000     -19.156782      -521.2825
   1   2.0000     -19.154708      -521.2261
   2   2.0000     -19.098939      -519.7086
   3   2.0000     -14.350400      -390.4942
   4   2.0000     -10.279646      -279.7234
   5   2.0000     -10.241473      -278.6846
   6   2.0000     -10.239118      -278.6206
   7   2.0000     -10.213197      -277.9152
   8   2.0000     -10.186704      -277.1943
   9   2.0000     -10.179888      -277.0088
  10   2.0000     -10.178045      -276.9587
  11   2.0000     -10.176234      -276.9094
  12   2.0000     -10.176004      -276.9032
  13   2.0000     -10.175804      -276.8977
  14   2.0000     -10.175532      -276.8903
  15   2.0000     -10.174774      -276.8697
  16   2.0000     -10.174670      -276.8668
  17   2.0000     -10.173593      -276.8375
  18   2.0000     -10.169970      -276.7389
  19   2.0000     -10.168953      -276.7113
  20   2.0000     -10.168639      -276.7027
  21   2.0000     -10.167688      -276.6769
  22   2.0000     -10.167594      -276.6743
  23   2.0000     -10.167551      -276.6731
  24   2.0000     -10.166915      -276.6558
  25   2.0000     -10.166877      -276.6548
  26   2.0000     -10.166681      -276.6494
  27   2.0000     -10.166045      -276.6322
  28   2.0000     -10.165528      -276.6181
  29   2.0000     -10.164560      -276.5917
  30   2.0000     -10.164462      -276.5891
  31   2.0000     -10.162704      -276.5412
  32   2.0000      -1.030206       -28.0333
  33   2.0000      -1.011596       -27.5269
  34   2.0000      -0.999542       -27.1989
  35   2.0000      -0.895594       -24.3703
  36   2.0000      -0.841328       -22.8937
  37   2.0000      -0.816040       -22.2056
  38   2.0000      -0.810851       -22.0644
  39   2.0000      -0.801090       -21.7988
  40   2.0000      -0.789859       -21.4932
  41   2.0000      -0.775249       -21.0956
  42   2.0000      -0.768149       -20.9024
  43   2.0000      -0.755100       -20.5473
  44   2.0000      -0.734637       -19.9905
  45   2.0000      -0.732794       -19.9403
  46   2.0000      -0.714832       -19.4516
  47   2.0000      -0.703852       -19.1528
  48   2.0000      -0.687259       -18.7013
  49   2.0000      -0.667805       -18.1719
  50   2.0000      -0.642978       -17.4963
  51   2.0000      -0.635440       -17.2912
  52   2.0000      -0.620926       -16.8963
  53   2.0000      -0.613084       -16.6829
  54   2.0000      -0.602798       -16.4030
  55   2.0000      -0.591889       -16.1061
  56   2.0000      -0.579532       -15.7699
  57   2.0000      -0.557443       -15.1688
  58   2.0000      -0.555704       -15.1215
  59   2.0000      -0.548214       -14.9177
  60   2.0000      -0.538950       -14.6656
  61   2.0000      -0.538224       -14.6458
  62   2.0000      -0.530621       -14.4389
  63   2.0000      -0.518777       -14.1166
  64   2.0000      -0.508252       -13.8302
  65   2.0000      -0.496815       -13.5190
  66   2.0000      -0.479238       -13.0407
  67   2.0000      -0.474627       -12.9153
  68   2.0000      -0.469528       -12.7765
  69   2.0000      -0.464009       -12.6263
  70   2.0000      -0.456210       -12.4141
  71   2.0000      -0.450767       -12.2660
  72   2.0000      -0.447703       -12.1826
  73   2.0000      -0.437231       -11.8977
  74   2.0000      -0.433807       -11.8045
  75   2.0000      -0.429761       -11.6944
  76   2.0000      -0.427931       -11.6446
  77   2.0000      -0.422984       -11.5100
  78   2.0000      -0.421736       -11.4760
  79   2.0000      -0.419264       -11.4087
  80   2.0000      -0.412322       -11.2198
  81   2.0000      -0.410049       -11.1580
  82   2.0000      -0.405420       -11.0321
  83   2.0000      -0.400171       -10.8892
  84   2.0000      -0.399098       -10.8600
  85   2.0000      -0.394671       -10.7396
  86   2.0000      -0.390223       -10.6185
  87   2.0000      -0.383644       -10.4395
  88   2.0000      -0.378341       -10.2952
  89   2.0000      -0.374855       -10.2003
  90   2.0000      -0.374710       -10.1964
  91   2.0000      -0.371137       -10.0991
  92   2.0000      -0.364059        -9.9065
  93   2.0000      -0.361684        -9.8419
  94   2.0000      -0.357369        -9.7245
  95   2.0000      -0.354997        -9.6600
  96   2.0000      -0.342500        -9.3199
  97   2.0000      -0.342055        -9.3078
  98   2.0000      -0.340881        -9.2759
  99   2.0000      -0.338987        -9.2243
 100   2.0000      -0.335561        -9.1311
 101   2.0000      -0.334891        -9.1129
 102   2.0000      -0.334143        -9.0925
 103   2.0000      -0.329752        -8.9730
 104   2.0000      -0.323494        -8.8027
 105   2.0000      -0.322101        -8.7648
 106   2.0000      -0.317503        -8.6397
 107   2.0000      -0.314991        -8.5713
 108   2.0000      -0.311257        -8.4697
 109   2.0000      -0.305086        -8.3018
 110   2.0000      -0.304521        -8.2864
 111   2.0000      -0.304318        -8.2809
 112   2.0000      -0.242931        -6.6105
 113   2.0000      -0.240460        -6.5432
 114   2.0000      -0.238077        -6.4784
 115   2.0000      -0.236601        -6.4382
 116   2.0000      -0.226574        -6.1654
 117   2.0000      -0.219800        -5.9811
 118   2.0000      -0.216122        -5.8810
 119   2.0000      -0.196244        -5.3401
 120   0.0000       0.006565         0.1786
 121   0.0000       0.008122         0.2210
 122   0.0000       0.015700         0.4272
 123   0.0000       0.017456         0.4750
 124   0.0000       0.025844         0.7033

MULLIKEN ATOMIC CHARGES
-----------------------
   0 C :   -0.435427
   1 C :   -0.243678
   2 C :   -0.247088
   3 C :   -0.242793
   4 C :   -0.297103
   5 C :   -0.094498
   6 C :   -0.090939
   7 C :   -0.342423
   8 C :   -0.102276
   9 C :   -0.090292
  10 C :   -0.340612
  11 C :   -0.125979
  12 C :   -0.094859
  13 C :   -0.329022
  14 C :   -0.096078
  15 C :   -0.113811
  16 C :   -0.307826
  17 C :   -0.244322
  18 C :   -0.336273
  19 C :    0.563798
  20 O :   -0.495575
  21 N :   -0.602125
  22 C :   -0.112552
  23 C :   -0.346427
  24 C :    0.155423
  25 C :   -0.184368
  26 C :   -0.204017
  27 C :    0.345430
  28 O :   -0.665140
  29 C :    0.349775
  30 O :   -0.665102
  31 C :   -0.255624
  32 H :    0.142232
  33 H :    0.138272
  34 H :    0.139016
  35 H :    0.131652
  36 H :    0.126088
  37 H :    0.121457
  38 H :    0.122096
  39 H :    0.129528
  40 H :    0.131718
  41 H :    0.138093
  42 H :    0.132105
  43 H :    0.117325
  44 H :    0.117822
  45 H :    0.144532
  46 H :    0.139478
  47 H :    0.117541
  48 H :    0.123960
  49 H :    0.143022
  50 H :    0.157955
  51 H :    0.119776
  52 H :    0.120004
  53 H :    0.160396
  54 H :    0.161490
  55 H :    0.116232
  56 H :    0.120708
  57 H :    0.130944
  58 H :    0.144813
  59 H :    0.163299
  60 H :    0.134716
  61 H :    0.120081
  62 H :    0.170206
  63 H :    0.317435
  64 H :    0.136686
  65 H :    0.174043
  66 H :    0.170931
  67 H :    0.131100
  68 H :    0.132257
  69 H :    0.121082
  70 H :    0.411903
  71 H :    0.411217
  72 H :    0.108592
Sum of atomic charges:   -0.0000000

LOEWDIN ATOMIC CHARGES
----------------------
   0 C :   -0.361082
   1 C :   -0.234842
   2 C :   -0.230610
   3 C :   -0.225002
   4 C :   -0.231083
   5 C :   -0.135962
   6 C :   -0.140878
   7 C :   -0.236424
   8 C :   -0.141796
   9 C :   -0.142301
  10 C :   -0.234874
  11 C :   -0.138590
  12 C :   -0.147616
  13 C :   -0.229324
  14 C :   -0.144195
  15 C :   -0.142233
  16 C :   -0.235424
  17 C :   -0.212424
  18 C :   -0.248555
  19 C :    0.141833
  20 O :   -0.305647
  21 N :   -0.246891
  22 C :   -0.152448
  23 C :   -0.228502
  24 C :   -0.030794
  25 C :   -0.147618
  26 C :   -0.164840
  27 C :    0.060131
  28 O :   -0.345773
  29 C :    0.064789
  30 O :   -0.344803
  31 C :   -0.175771
  32 H :    0.119978
  33 H :    0.122495
  34 H :    0.120872
  35 H :    0.115615
  36 H :    0.116423
  37 H :    0.113993
  38 H :    0.114854
  39 H :    0.118513
  40 H :    0.118195
  41 H :    0.124280
  42 H :    0.120931
  43 H :    0.122990
  44 H :    0.121418
  45 H :    0.131987
  46 H :    0.127620
  47 H :    0.123748
  48 H :    0.127979
  49 H :    0.131442
  50 H :    0.136958
  51 H :    0.123142
  52 H :    0.124739
  53 H :    0.138600
  54 H :    0.139131
  55 H :    0.122131
  56 H :    0.123992
  57 H :    0.120213
  58 H :    0.126060
  59 H :    0.135495
  60 H :    0.120425
  61 H :    0.114789
  62 H :    0.147492
  63 H :    0.246652
  64 H :    0.122647
  65 H :    0.138451
  66 H :    0.139308
  67 H :    0.119548
  68 H :    0.134516
  69 H :    0.130770
  70 H :    0.333173
  71 H :    0.332492
  72 H :    0.125493

  Mayer bond orders larger than 0.100000
B(  0-C ,  1-C ) :   1.0191 B(  0-C , 32-H ) :   0.9484 B(  0-C , 33-H ) :   0.9527
B(  0-C , 34-H ) :   0.9514 B(  1-C ,  2-C ) :   1.0125 B(  1-C , 35-H ) :   0.9390
B(  1-C , 36-H ) :   0.9450 B(  2-C ,  3-C ) :   1.0014 B(  2-C , 37-H ) :   0.9411
B(  2-C , 38-H ) :   0.9400 B(  3-C ,  4-C ) :   0.9997 B(  3-C , 39-H ) :   0.9387
B(  3-C , 40-H ) :   0.9362 B(  4-C ,  5-C ) :   1.0019 B(  4-C , 41-H ) :   0.9369
B(  4-C , 42-H ) :   0.9344 B(  5-C ,  6-C ) :   1.9361 B(  5-C , 43-H ) :   0.9332
B(  6-C ,  7-C ) :   0.9912 B(  6-C , 44-H ) :   0.9297 B(  7-C ,  8-C ) :   1.0046
B(  7-C , 45-H ) :   0.9338 B(  7-C , 46-H ) :   0.9312 B(  8-C ,  9-C ) :   1.9523
B(  8-C , 47-H ) :   0.9306 B(  9-C , 10-C ) :   1.0029 B(  9-C , 48-H ) :   0.9280
B( 10-C , 11-C ) :   0.9940 B( 10-C , 49-H ) :   0.9268 B( 10-C , 50-H ) :   0.9211
B( 11-C , 12-C ) :   1.9360 B( 11-C , 51-H ) :   0.9343 B( 12-C , 13-C ) :   0.9940
B( 12-C , 52-H ) :   0.9321 B( 13-C , 14-C ) :   0.9938 B( 13-C , 53-H ) :   0.9274
B( 13-C , 54-H ) :   0.9275 B( 14-C , 15-C ) :   1.9288 B( 14-C , 55-H ) :   0.9313
B( 15-C , 16-C ) :   0.9993 B( 15-C , 56-H ) :   0.9332 B( 16-C , 17-C ) :   1.0016
B( 16-C , 57-H ) :   0.9367 B( 16-C , 58-H ) :   0.9309 B( 17-C , 18-C ) :   0.9840
B( 17-C , 59-H ) :   0.9292 B( 17-C , 60-H ) :   0.9345 B( 18-C , 19-C ) :   0.9727
B( 18-C , 61-H ) :   0.9278 B( 18-C , 62-H ) :   0.9246 B( 19-C , 20-O ) :   1.8038
B( 19-C , 21-N ) :   1.0748 B( 21-N , 22-C ) :   0.9209 B( 21-N , 63-H ) :   0.8345
B( 22-C , 23-C ) :   0.9790 B( 22-C , 64-H ) :   0.9393 B( 22-C , 65-H ) :   0.9236
B( 23-C , 24-C ) :   0.9712 B( 23-C , 66-H ) :   0.9242 B( 23-C , 67-H ) :   0.9342
B( 24-C , 25-C ) :   1.4387 B( 24-C , 31-C ) :   1.4074 B( 25-C , 26-C ) :   1.4178
B( 25-C , 68-H ) :   0.9227 B( 26-C , 27-C ) :   1.3990 B( 26-C , 69-H ) :   0.9247
B( 27-C , 28-O ) :   0.9193 B( 27-C , 29-C ) :   1.3347 B( 28-O , 70-H ) :   0.7698
B( 29-C , 30-O ) :   0.9146 B( 29-C , 31-C ) :   1.3856 B( 30-O , 71-H ) :   0.7699
B( 31-C , 72-H ) :   0.9202

FINAL SINGLE POINT ENERGY     -1371.062171121265

DIPOLE MOMENT
-------------

Method             : SCF
Type of density    : Electron Density
Multiplicity       :   1
Irrep              :   0
Energy             : -1371.0621711212645550 Eh
Relativity type    :
Basis              : AO
                                X                 Y                 Z
Electronic contribution:    -93.869549723      -1.089453248      11.036552532
Nuclear contribution   :     94.381278792       1.156842163     -12.084405809
                        -----------------------------------------
Total Dipole Moment    :      0.511729069       0.067388915      -1.047853277
                        -----------------------------------------
Magnitude (a.u.)       :      1.168077222
Magnitude (Debye)      :      2.969016346

Rotational constants in cm-1:             0.006929             0.000651             0.000610
Rotational constants in MHz :           207.718030            19.520798            18.291215

                             ****ORCA TERMINATED NORMALLY****
TOTAL RUN TIME: 0 days 0 hours 8 minutes 8 seconds 452 msec
