                         Program Version 6.0.0  -   RELEASE  -
|  1> ! B3LYP 6-31G* SP
|  2>
|  3> * xyz 0 1
|  4> C -3.4802 2.9265 -0.0224
|  5> N -3.6702 1.4717 -0.1886
|  6> C -3.1234 0.6107 0.7224
|  7> O -2.4682 1.0854 1.6884
|  8> C -3.2919 -0.7889 0.5857
|  9> C -2.7124 -1.7514 1.4839
| 10> C -1.8379 -1.4002 2.6761
| 11> C -0.4606 -0.9847 2.2408
| 12> O 0.1627 -1.6912 1.4020
| 13> N 0.1584 0.1736 2.8217
| 14> C 1.4013 0.7221 2.3664
| 15> N 2.1078 0.2366 1.3236
| 16> C 3.2423 0.9551 1.0913
| 17> C 4.1675 0.5997 -0.0170
| 18> C 3.7464 -0.2973 -1.0153
| 19> C 4.5941 -0.6333 -2.0719
| 20> C 5.8780 -0.0922 -2.1427
| 21> C 6.3373 0.7781 -1.1407
| 22> C 7.7101 1.3972 -1.2325
| 23> F 7.6138 2.6259 -1.8586
| 24> F 8.5702 0.5892 -1.9564
| 25> F 8.2464 1.5754 0.0310
| 26> C 5.4692 1.1356 -0.0930
| 27> C 3.4285 2.0335 1.9642
| 28> S 2.1377 2.0686 3.0429
| 29> C -2.9119 -3.1202 1.2446
| 30> C -3.6727 -3.5554 0.1731
| 31> C -4.2512 -2.6396 -0.6923
| 32> C -4.0782 -1.2463 -0.5117
| 33> N -4.6603 -0.3419 -1.3762
| 34> C -5.5046 -0.8110 -2.4975
| 35> C -4.4567 1.0042 -1.2048
| 36> O -5.0033 1.8291 -1.9922
| 37> H -4.2758 3.3332 0.6367
| 38> H -3.5088 3.4563 -0.9984
| 39> H -2.4868 3.1577 0.4183
| 40> H -2.3259 -0.6278 3.3046
| 41> H -1.7222 -2.2728 3.3550
| 42> H -0.3312 0.6637 3.6036
| 43> H 2.7534 -0.7287 -0.9903
| 44> H 4.2517 -1.3116 -2.8429
| 45> H 6.5111 -0.3553 -2.9806
| 46> H 5.8223 1.8210 0.6642
| 47> H 4.2382 2.7490 1.9531
| 48> H -2.4697 -3.8664 1.8937
| 49> H -3.8143 -4.6164 0.0094
| 50> H -4.8302 -3.0471 -1.5080
| 51> H -5.9416 0.0136 -3.0972
| 52> H -4.8988 -1.4294 -3.1938
| 53> H -6.3592 -1.4036 -2.1066
| 54> *
| 55>
| 56>                          ****END OF INPUT****

CARTESIAN COORDINATES (ANGSTROEM)
---------------------------------
  C     -3.480200    2.926500   -0.022400
  N     -3.670200    1.471700   -0.188600
  C     -3.123400    0.610700    0.722400
  O     -2.468200    1.085400    1.688400
  C     -3.291900   -0.788900    0.585700
  C     -2.712400   -1.751400    1.483900
  C     -1.837900   -1.400200    2.676100
  C     -0.460600   -0.984700    2.240800
  O      0.162700   -1.691200    1.402000
  N      0.158400    0.173600    2.821700
  C      1.401300    0.722100    2.366400
  N      2.107800    0.236600    1.323600
  C      3.242300    0.955100    1.091300
  C      4.167500    0.599700   -0.017000
  C      3.746400   -0.297300   -1.015300
  C      4.594100   -0.633300   -2.071900
  C      5.878000   -0.092200   -2.142700
  C      6.337300    0.778100   -1.140700
  C      7.710100    1.397200   -1.232500
  F      7.613800    2.625900   -1.858600
  F      8.570200    0.589200   -1.956400
  F      8.246400    1.575400    0.031000
  C      5.469200    1.135600   -0.093000
  C      3.428500    2.033500    1.964200
  S      2.137700    2.068600    3.042900
  C     -2.911900   -3.120200    1.244600
  C     -3.672700   -3.555400    0.173100
  C     -4.251200   -2.639600   -0.692300
  C     -4.078200   -1.246300   -0.511700
  N     -4.660300   -0.341900   -1.376200
  C     -5.504600   -0.811000   -2.497500
  C     -4.456700    1.004200   -1.204800
  O     -5.003300    1.829100   -1.992200
  H     -4.275800    3.333200    0.636700
  H     -3.508800    3.456300   -0.998400
  H     -2.486800    3.157700    0.418300
  H     -2.325900   -0.627800    3.304600
  H     -1.722200   -2.272800    3.355000
  H     -0.331200    0.663700    3.603600
  H      2.753400   -0.728700   -0.990300
  H      4.251700   -1.311600   -2.842900
  H      6.511100   -0.355300   -2.980600
  H      5.822300    1.821000    0.664200
  H      4.238200    2.749000    1.953100
  H     -2.469700   -3.866400    1.893700
  H     -3.814300   -4.616400    0.009400
  H     -4.830200   -3.047100   -1.508000
  H     -5.941600    0.013600   -3.097200
  H     -4.898800   -1.429400   -3.193800
  H     -6.359200   -1.403600   -2.106600

 Total Charge           Charge          ....    0
 Multiplicity           Mult            ....    1
 Number of Electrons    NEL             ....  244
 Basis Dimension        Dim             ....  500

ORBITAL ENERGIES
----------------

  NO   OCC          E(Eh)            E(eV)
   0   2.0000     -88.902189     -2419.1515
   1   2.0000     -24.711344      -672.4299
   2   2.0000     -24.710968      -672.4196
   3   2.0000     -24.707341      -672.3209
   4   2.0000     -19.116666      -520.1909
   5   2.0000     -19.112553      -520.0790
   6   2.0000     -19.110525      -520.0238
   7   2.0000     -14.404261      -391.9599
   8   2.0000     -14.398954      -391.8155
   9   2.0000     -14.384894      -391.4329
  10   2.0000     -14.319409      -389.6509
  11   2.0000     -10.425815      -283.7009
  12   2.0000     -10.327078      -281.0141
  13   2.0000     -10.298289      -280.2307
  14   2.0000     -10.297891      -280.2199
  15   2.0000     -10.284070      -279.8438
  16   2.0000     -10.260012      -279.1891
  17   2.0000     -10.234725      -278.5010
  18   2.0000     -10.225852      -278.2596
  19   2.0000     -10.221632      -278.1447
  20   2.0000     -10.220803      -278.1222
  21   2.0000     -10.214502      -277.9507
  22   2.0000     -10.205220      -277.6982
  23   2.0000     -10.204873      -277.6887
  24   2.0000     -10.204679      -277.6834
  25   2.0000     -10.203470      -277.6505
  26   2.0000     -10.201640      -277.6007
  27   2.0000     -10.200295      -277.5641
  28   2.0000     -10.194202      -277.3983
  29   2.0000     -10.193560      -277.3809
  30   2.0000     -10.189998      -277.2839
  31   2.0000     -10.184424      -277.1323
  32   2.0000     -10.182024      -277.0670
  33   2.0000      -7.979935      -217.1451
  34   2.0000      -5.942999      -161.7172
  35   2.0000      -5.938910      -161.6060
  36   2.0000      -5.936752      -161.5472
  37   2.0000      -1.270911       -34.5832
  38   2.0000      -1.196531       -32.5593
  39   2.0000      -1.195178       -32.5224
  40   2.0000      -1.070555       -29.1313
  41   2.0000      -1.026435       -27.9307
  42   2.0000      -1.015057       -27.6211
  43   2.0000      -0.971819       -26.4445
  44   2.0000      -0.969049       -26.3692
  45   2.0000      -0.942570       -25.6486
  46   2.0000      -0.907308       -24.6891
  47   2.0000      -0.870230       -23.6802
  48   2.0000      -0.860891       -23.4260
  49   2.0000      -0.808424       -21.9983
  50   2.0000      -0.798488       -21.7280
  51   2.0000      -0.788754       -21.4631
  52   2.0000      -0.779968       -21.2240
  53   2.0000      -0.763169       -20.7669
  54   2.0000      -0.747042       -20.3280
  55   2.0000      -0.732556       -19.9338
  56   2.0000      -0.717769       -19.5315
  57   2.0000      -0.705573       -19.1996
  58   2.0000      -0.685021       -18.6404
  59   2.0000      -0.658677       -17.9235
  60   2.0000      -0.654443       -17.8083
  61   2.0000      -0.631005       -17.1705
  62   2.0000      -0.621164       -16.9027
  63   2.0000      -0.610059       -16.6006
  64   2.0000      -0.597551       -16.2602
  65   2.0000      -0.588249       -16.0071
  66   2.0000      -0.573152       -15.5963
  67   2.0000      -0.561784       -15.2869
  68   2.0000      -0.559122       -15.2145
  69   2.0000      -0.555627       -15.1194
  70   2.0000      -0.547881       -14.9086
  71   2.0000      -0.525671       -14.3042
  72   2.0000      -0.517606       -14.0848
  73   2.0000      -0.509802       -13.8724
  74   2.0000      -0.504953       -13.7405
  75   2.0000      -0.492986       -13.4148
  76   2.0000      -0.488103       -13.2820
  77   2.0000      -0.485029       -13.1983
  78   2.0000      -0.473372       -12.8811
  79   2.0000      -0.463680       -12.6174
  80   2.0000      -0.461851       -12.5676
  81   2.0000      -0.459340       -12.4993
  82   2.0000      -0.450889       -12.2693
  83   2.0000      -0.447919       -12.1885
  84   2.0000      -0.443351       -12.0642
  85   2.0000      -0.438860       -11.9420
  86   2.0000      -0.438501       -11.9322
  87   2.0000      -0.435145       -11.8409
  88   2.0000      -0.429209       -11.6794
  89   2.0000      -0.421727       -11.4758
  90   2.0000      -0.420331       -11.4378
  91   2.0000      -0.412170       -11.2157
  92   2.0000      -0.411599       -11.2002
  93   2.0000      -0.404630       -11.0105
  94   2.0000      -0.401531       -10.9262
  95   2.0000      -0.399552       -10.8724
  96   2.0000      -0.394963       -10.7475
  97   2.0000      -0.389985       -10.6120
  98   2.0000      -0.388885       -10.5821
  99   2.0000      -0.385896       -10.5008
 100   2.0000      -0.385053       -10.4778
 101   2.0000      -0.378014       -10.2863
 102   2.0000      -0.375505       -10.2180
 103   2.0000      -0.372720       -10.1422
 104   2.0000      -0.369515       -10.0550
 105   2.0000      -0.362826        -9.8730
 106   2.0000      -0.354167        -9.6374
 107   2.0000      -0.344880        -9.3847
 108   2.0000      -0.342912        -9.3311
 109   2.0000      -0.315539        -8.5862
 110   2.0000      -0.303342        -8.2543
 111   2.0000      -0.289393        -7.8748
 112   2.0000      -0.276282        -7.5180
 113   2.0000      -0.275166        -7.4876
 114   2.0000      -0.269252        -7.3267
 115   2.0000      -0.264613        -7.2005
 116   2.0000      -0.254546        -6.9265
 117   2.0000      -0.253218        -6.8904
 118   2.0000      -0.248342        -6.7577
 119   2.0000      -0.231742        -6.3060
 120   2.0000      -0.231623        -6.3028
 121   2.0000      -0.206644        -5.6231
 122   0.0000      -0.059970        -1.6319
 123   0.0000      -0.034382        -0.9356
 124   0.0000      -0.023541        -0.6406
 125   0.0000      -0.017619        -0.4794
 126   0.0000      -0.009530        -0.2593

MULLIKEN ATOMIC CHARGES
-----------------------
   0 C :   -0.314026
   1 N :   -0.464213
   2 C :    0.514230
   3 O :   -0.515767
   4 C :    0.009130
   5 C :    0.137122
   6 C :   -0.437245
   7 C :    0.585929
   8 O :   -0.437282
   9 N :   -0.644481
  10 C :    0.259140
  11 N :   -0.380481
  12 C :    0.221522
  13 C :    0.115797
  14 C :   -0.161789
  15 C :   -0.128769
  16 C :   -0.158971
  17 C :   -0.021079
  18 C :    0.894490
  19 F :   -0.298370
  20 F :   -0.307076
  21 F :   -0.306800
  22 C :   -0.215011
  23 C :   -0.398414
  24 S :    0.249447
  25 C :   -0.176912
  26 C :   -0.105319
  27 C :   -0.196385
  28 C :    0.318683
  29 N :   -0.511452
  30 C :   -0.336305
  31 C :    0.672648
  32 O :   -0.510562
  33 H :    0.175878
  34 H :    0.197997
  35 H :    0.193256
  36 H :    0.173862
  37 H :    0.175021
  38 H :    0.349093
  39 H :    0.177396
  40 H :    0.138529
  41 H :    0.146463
  42 H :    0.141491
  43 H :    0.182925
  44 H :    0.140873
  45 H :    0.145024
  46 H :    0.141273
  47 H :    0.224015
  48 H :    0.174444
  49 H :    0.171033
Sum of atomic charges:   -0.0000000

LOEWDIN ATOMIC CHARGES
----------------------
   0 C :   -0.258236
   1 N :   -0.019176
   2 C :    0.117444
   3 O :   -0.300676
   4 C :   -0.072196
   5 C :    0.047825
   6 C :   -0.241702
   7 C :    0.160809
   8 O :   -0.250546
   9 N :   -0.196540
  10 C :   -0.077312
  11 N :   -0.155203
  12 C :   -0.003415
  13 C :   -0.014031
  14 C :   -0.099491
  15 C :   -0.125279
  16 C :   -0.117258
  17 C :   -0.071649
  18 C :    0.309915
  19 F :   -0.115650
  20 F :   -0.114049
  21 F :   -0.115482
  22 C :   -0.110632
  23 C :   -0.349175
  24 S :    0.388028
  25 C :   -0.134255
  26 C :   -0.097217
  27 C :   -0.164104
  28 C :    0.053945
  29 N :   -0.026363
  30 C :   -0.265214
  31 C :    0.137147
  32 O :   -0.319452
  33 H :    0.139745
  34 H :    0.154036
  35 H :    0.151337
  36 H :    0.144752
  37 H :    0.147302
  38 H :    0.269498
  39 H :    0.156298
  40 H :    0.136991
  41 H :    0.140824
  42 H :    0.138197
  43 H :    0.160364
  44 H :    0.139300
  45 H :    0.140932
  46 H :    0.140406
  47 H :    0.167914
  48 H :    0.136333
  49 H :    0.134962

  Mayer bond orders larger than 0.100000
B(  0-C ,  1-N ) :   0.9177 B(  0-C , 33-H ) :   0.9411 B(  0-C , 34-H ) :   0.9248
B(  0-C , 35-H ) :   0.9251 B(  1-N ,  2-C ) :   1.0046 B(  1-N , 31-C ) :   1.0380
B(  2-C ,  3-O ) :   1.7263 B(  2-C ,  4-C ) :   1.0668 B(  4-C ,  5-C ) :   1.3567
B(  4-C , 28-C ) :   1.2857 B(  5-C ,  6-C ) :   0.9974 B(  5-C , 25-C ) :   1.4424
B(  6-C ,  7-C ) :   0.9364 B(  6-C , 36-H ) :   0.9032 B(  6-C , 37-H ) :   0.9119
B(  7-C ,  8-O ) :   1.9020 B(  7-C ,  9-N ) :   0.9837 B(  9-N , 10-C ) :   0.9611
B(  9-N , 38-H ) :   0.8177 B( 10-C , 11-N ) :   1.5075 B( 10-C , 23-C ) :   0.1062
B( 10-C , 24-S ) :   1.1379 B( 11-N , 12-C ) :   1.2657 B( 12-C , 13-C ) :   1.0484
B( 12-C , 23-C ) :   1.5127 B( 13-C , 14-C ) :   1.4026 B( 13-C , 22-C ) :   1.3878
B( 14-C , 15-C ) :   1.4233 B( 14-C , 39-H ) :   0.9073 B( 15-C , 16-C ) :   1.4303
B( 15-C , 40-H ) :   0.9294 B( 16-C , 17-C ) :   1.4100 B( 16-C , 41-H ) :   0.9214
B( 17-C , 18-C ) :   0.9782 B( 17-C , 22-C ) :   1.3990 B( 18-C , 19-F ) :   0.9851
B( 18-C , 20-F ) :   0.9449 B( 18-C , 21-F ) :   0.9460 B( 22-C , 42-H ) :   0.9103
B( 23-C , 24-S ) :   1.1143 B( 23-C , 43-H ) :   0.9016 B( 25-C , 26-C ) :   1.4040
B( 25-C , 44-H ) :   0.9211 B( 26-C , 27-C ) :   1.4695 B( 26-C , 45-H ) :   0.9256
B( 27-C , 28-C ) :   1.3449 B( 27-C , 46-H ) :   0.9145 B( 28-C , 29-N ) :   0.9683
B( 29-N , 30-C ) :   0.9344 B( 29-N , 31-C ) :   1.0475 B( 30-C , 47-H ) :   0.9140
B( 30-C , 48-H ) :   0.9317 B( 30-C , 49-H ) :   0.9319 B( 31-C , 32-O ) :   1.7847

FINAL SINGLE POINT ENERGY     -1990.065085094009

DIPOLE MOMENT
-------------

Method             : SCF
Type of density    : Electron Density
Multiplicity       :   1
Irrep              :   0
Energy             : -1990.0650850940085093 Eh
Relativity type    :
Basis              : AO
                                X                 Y                 Z
Electronic contribution:     49.488057569      11.491896333       1.733092228
Nuclear contribution   :    -51.762377302     -12.335350273      -1.109060528
                        -----------------------------------------
Total Dipole Moment    :     -2.274319733      -0.843453940       0.624031700
                        -----------------------------------------
Magnitude (a.u.)       :      2.504667714
Magnitude (Debye)      :      6.366359386

Rotational constants in cm-1:             0.007061             0.001540             0.001492
Rotational constants in MHz :           211.675873            46.156824            44.718443

                             ****ORCA TERMINATED NORMALLY****
TOTAL RUN TIME: 0 days 0 hours 5 minutes 25 seconds 792 msec
