                         Program Version 6.0.0  -   RELEASE  -
|  1> ! B3LYP 6-31G* SP
|  2>
|  3> * xyz 0 1
|  4> O 0.8988 -1.7573 -1.6860
|  5> C 0.4316 -1.0569 -0.7478
|  6> C -1.0364 -0.9937 -0.5950
|  7> C -1.6746 -0.0352 0.0886
|  8> C -3.1453 -0.0230 0.2350
|  9> C -3.6800 0.1394 1.5234
| 10> C -5.0628 0.1527 1.7217
| 11> C -5.9266 0.0201 0.6338
| 12> C -5.4101 -0.1125 -0.6567
| 13> C -4.0254 -0.1271 -0.8686
| 14> Cl -3.4466 -0.1839 -2.5315
| 15> N 1.3254 -0.3557 0.1365
| 16> C 2.7509 -0.3541 -0.0405
| 17> C 3.4347 -1.5781 -0.1450
| 18> C 4.8267 -1.6097 -0.2308
| 19> C 5.5547 -0.4220 -0.1995
| 20> C 4.8934 0.8024 -0.0875
| 21> C 3.4880 0.8575 -0.0122
| 22> C 2.8225 2.1829 0.0566
| 23> O 3.4708 3.1974 0.4316
| 24> O 1.4905 2.3330 -0.3203
| 25> H -1.6161 -1.7624 -1.0921
| 26> H -1.1233 0.7296 0.6163
| 27> H -3.0238 0.2403 2.3798
| 28> H -5.4649 0.2662 2.7202
| 29> H -6.9977 0.0332 0.7892
| 30> H -6.0895 -0.1887 -1.4963
| 31> H 0.9486 0.1777 0.9494
| 32> H 2.8887 -2.5128 -0.1313
| 33> H 5.3426 -2.5580 -0.3087
| 34> H 6.6350 -0.4492 -0.2622
| 35> H 5.4838 1.7103 -0.0765
| 36> H 1.0366 3.2377 -0.2816
| 37> *
| 38>
| 39>                          ****END OF INPUT****

CARTESIAN COORDINATES (ANGSTROEM)
---------------------------------
  O      0.898800   -1.757300   -1.686000
  C      0.431600   -1.056900   -0.747800
  C     -1.036400   -0.993700   -0.595000
  C     -1.674600   -0.035200    0.088600
  C     -3.145300   -0.023000    0.235000
  C     -3.680000    0.139400    1.523400
  C     -5.062800    0.152700    1.721700
  C     -5.926600    0.020100    0.633800
  C     -5.410100   -0.112500   -0.656700
  C     -4.025400   -0.127100   -0.868600
  Cl    -3.446600   -0.183900   -2.531500
  N      1.325400   -0.355700    0.136500
  C      2.750900   -0.354100   -0.040500
  C      3.434700   -1.578100   -0.145000
  C      4.826700   -1.609700   -0.230800
  C      5.554700   -0.422000   -0.199500
  C      4.893400    0.802400   -0.087500
  C      3.488000    0.857500   -0.012200
  C      2.822500    2.182900    0.056600
  O      3.470800    3.197400    0.431600
  O      1.490500    2.333000   -0.320300
  H     -1.616100   -1.762400   -1.092100
  H     -1.123300    0.729600    0.616300
  H     -3.023800    0.240300    2.379800
  H     -5.464900    0.266200    2.720200
  H     -6.997700    0.033200    0.789200
  H     -6.089500   -0.188700   -1.496300
  H      0.948600    0.177700    0.949400
  H      2.888700   -2.512800   -0.131300
  H      5.342600   -2.558000   -0.308700
  H      6.635000   -0.449200   -0.262200
  H      5.483800    1.710300   -0.076500
  H      1.036600    3.237700   -0.281600

 Total Charge           Charge          ....    0
 Multiplicity           Mult            ....    1
 Number of Electrons    NEL             ....  156
 Basis Dimension        Dim             ....  322

ORBITAL ENERGIES
----------------

  NO   OCC          E(Eh)            E(eV)
   0   2.0000    -101.531410     -2762.8101
   1   2.0000     -19.186681      -522.0961
   2   2.0000     -19.125454      -520.4301
   3   2.0000     -19.110297      -520.0176
   4   2.0000     -14.365161      -390.8959
   5   2.0000     -10.324301      -280.9385
   6   2.0000     -10.294016      -280.1144
   7   2.0000     -10.257237      -279.1136
   8   2.0000     -10.242254      -278.7059
   9   2.0000     -10.219324      -278.0819
  10   2.0000     -10.212078      -277.8848
  11   2.0000     -10.211278      -277.8630
  12   2.0000     -10.204775      -277.6860
  13   2.0000     -10.204404      -277.6759
  14   2.0000     -10.201815      -277.6055
  15   2.0000     -10.200697      -277.5751
  16   2.0000     -10.199834      -277.5516
  17   2.0000     -10.196137      -277.4510
  18   2.0000     -10.193541      -277.3803
  19   2.0000     -10.188804      -277.2515
  20   2.0000     -10.188760      -277.2503
  21   2.0000      -9.463012      -257.5017
  22   2.0000      -7.226202      -196.6350
  23   2.0000      -7.216661      -196.3753
  24   2.0000      -7.216133      -196.3610
  25   2.0000      -1.071486       -29.1566
  26   2.0000      -1.011981       -27.5374
  27   2.0000      -0.984025       -26.7767
  28   2.0000      -0.918630       -24.9972
  29   2.0000      -0.897833       -24.4313
  30   2.0000      -0.851369       -23.1669
  31   2.0000      -0.841774       -22.9058
  32   2.0000      -0.815039       -22.1783
  33   2.0000      -0.769060       -20.9272
  34   2.0000      -0.759960       -20.6796
  35   2.0000      -0.744370       -20.2553
  36   2.0000      -0.734786       -19.9946
  37   2.0000      -0.664631       -18.0855
  38   2.0000      -0.655109       -17.8264
  39   2.0000      -0.620791       -16.8926
  40   2.0000      -0.618814       -16.8388
  41   2.0000      -0.596700       -16.2370
  42   2.0000      -0.589195       -16.0328
  43   2.0000      -0.565393       -15.3851
  44   2.0000      -0.546445       -14.8695
  45   2.0000      -0.525018       -14.2865
  46   2.0000      -0.513205       -13.9650
  47   2.0000      -0.495398       -13.4805
  48   2.0000      -0.479469       -13.0470
  49   2.0000      -0.474783       -12.9195
  50   2.0000      -0.466413       -12.6918
  51   2.0000      -0.455140       -12.3850
  52   2.0000      -0.449585       -12.2338
  53   2.0000      -0.445514       -12.1231
  54   2.0000      -0.437864       -11.9149
  55   2.0000      -0.431975       -11.7546
  56   2.0000      -0.427164       -11.6237
  57   2.0000      -0.405934       -11.0460
  58   2.0000      -0.400933       -10.9099
  59   2.0000      -0.397752       -10.8234
  60   2.0000      -0.394777       -10.7424
  61   2.0000      -0.381834       -10.3902
  62   2.0000      -0.371643       -10.1129
  63   2.0000      -0.368757       -10.0344
  64   2.0000      -0.368067       -10.0156
  65   2.0000      -0.362870        -9.8742
  66   2.0000      -0.355325        -9.6689
  67   2.0000      -0.336606        -9.1595
  68   2.0000      -0.316773        -8.6198
  69   2.0000      -0.307098        -8.3566
  70   2.0000      -0.295945        -8.0531
  71   2.0000      -0.280756        -7.6398
  72   2.0000      -0.267726        -7.2852
  73   2.0000      -0.259591        -7.0638
  74   2.0000      -0.256523        -6.9803
  75   2.0000      -0.249382        -6.7860
  76   2.0000      -0.239558        -6.5187
  77   2.0000      -0.230357        -6.2683
  78   0.0000      -0.060612        -1.6493
  79   0.0000      -0.049626        -1.3504
  80   0.0000      -0.021324        -0.5802
  81   0.0000      -0.010578        -0.2878
  82   0.0000      -0.000064        -0.0017

MULLIKEN ATOMIC CHARGES
-----------------------
   0 O :   -0.479500
   1 C :    0.554358
   2 C :   -0.149593
   3 C :   -0.179366
   4 C :    0.118642
   5 C :   -0.159235
   6 C :   -0.130828
   7 C :   -0.111389
   8 C :   -0.133567
   9 C :   -0.117652
  10 Cl:    0.004105
  11 N :   -0.701367
  12 C :    0.269146
  13 C :   -0.120499
  14 C :   -0.127368
  15 C :   -0.124026
  16 C :   -0.166542
  17 C :    0.066020
  18 C :    0.496494
  19 O :   -0.450108
  20 O :   -0.618974
  21 H :    0.179040
  22 H :    0.143829
  23 H :    0.138182
  24 H :    0.138892
  25 H :    0.142754
  26 H :    0.157323
  27 H :    0.332346
  28 H :    0.156759
  29 H :    0.141790
  30 H :    0.138028
  31 H :    0.166550
  32 H :    0.425756
Sum of atomic charges:    0.0000000

LOEWDIN ATOMIC CHARGES
----------------------
   0 O :   -0.273929
   1 C :    0.143529
   2 C :   -0.131668
   3 C :   -0.106466
   4 C :   -0.029729
   5 C :   -0.119168
   6 C :   -0.125701
   7 C :   -0.121017
   8 C :   -0.128224
   9 C :   -0.082277
  10 Cl:    0.045630
  11 N :   -0.212203
  12 C :    0.053032
  13 C :   -0.114711
  14 C :   -0.108603
  15 C :   -0.133171
  16 C :   -0.090282
  17 C :   -0.067609
  18 C :    0.176042
  19 O :   -0.269696
  20 O :   -0.335872
  21 H :    0.160848
  22 H :    0.135454
  23 H :    0.137602
  24 H :    0.136644
  25 H :    0.139402
  26 H :    0.146868
  27 H :    0.255038
  28 H :    0.149363
  29 H :    0.138344
  30 H :    0.136941
  31 H :    0.153127
  32 H :    0.342462

  Mayer bond orders larger than 0.100000
B(  0-O ,  1-C ) :   1.7690 B(  1-C ,  2-C ) :   1.0560 B(  1-C , 11-N ) :   1.0189
B(  2-C ,  3-C ) :   1.7749 B(  2-C , 21-H ) :   0.9161 B(  3-C ,  4-C ) :   1.0312
B(  3-C , 22-H ) :   0.9146 B(  4-C ,  5-C ) :   1.3991 B(  4-C ,  9-C ) :   1.3713
B(  5-C ,  6-C ) :   1.4460 B(  5-C , 23-H ) :   0.9255 B(  6-C ,  7-C ) :   1.4455
B(  6-C , 24-H ) :   0.9277 B(  7-C ,  8-C ) :   1.4518 B(  7-C , 25-H ) :   0.9275
B(  8-C ,  9-C ) :   1.4042 B(  8-C , 26-H ) :   0.9222 B(  9-C , 10-Cl) :   1.0379
B( 11-N , 12-C ) :   0.8928 B( 11-N , 27-H ) :   0.8145 B( 12-C , 13-C ) :   1.4172
B( 12-C , 17-C ) :   1.3523 B( 13-C , 14-C ) :   1.4417 B( 13-C , 28-H ) :   0.9153
B( 14-C , 15-C ) :   1.4219 B( 14-C , 29-H ) :   0.9278 B( 15-C , 16-C ) :   1.4447
B( 15-C , 30-H ) :   0.9294 B( 16-C , 17-C ) :   1.3879 B( 16-C , 31-H ) :   0.9128
B( 17-C , 18-C ) :   0.9911 B( 18-C , 19-O ) :   1.8565 B( 18-C , 20-O ) :   1.0078
B( 20-O , 32-H ) :   0.7453

FINAL SINGLE POINT ENERGY     -1356.925930531439

DIPOLE MOMENT
-------------

Method             : SCF
Type of density    : Electron Density
Multiplicity       :   1
Irrep              :   0
Energy             : -1356.9259305314390076 Eh
Relativity type    :
Basis              : AO
                                X                 Y                 Z
Electronic contribution:     -5.131025888       1.465327131      -8.829288439
Nuclear contribution   :      3.952094561      -1.431163211      10.284740158
                        -----------------------------------------
Total Dipole Moment    :     -1.178931327       0.034163920       1.455451718
                        -----------------------------------------
Magnitude (a.u.)       :      1.873335515
Magnitude (Debye)      :      4.761640465

Rotational constants in cm-1:             0.020002             0.003968             0.003737
Rotational constants in MHz :           599.652961           118.963703           112.044315

                             ****ORCA TERMINATED NORMALLY****
TOTAL RUN TIME: 0 days 0 hours 4 minutes 2 seconds 27 msec
