                         Program Version 6.0.0  -   RELEASE  -
|  1> ! B3LYP 6-31G* SP
|  2>
|  3> * xyz 0 1
|  4> C -1.8011 -0.5584 -1.2706
|  5> C -2.2439 -1.2663 -0.0105
|  6> C -1.5662 -1.0594 1.2167
|  7> N -0.4984 -0.1089 1.3358
|  8> C 0.8561 -0.5938 1.6280
|  9> C 1.6107 -0.9831 0.3373
| 10> C 2.8813 -1.8061 0.6905
| 11> C 4.0717 -1.4904 -0.2216
| 12> N 4.3659 -0.0495 -0.1783
| 13> C 5.7277 0.4230 -0.2570
| 14> C 6.1333 1.5562 0.4726
| 15> C 7.4521 2.0144 0.3959
| 16> C 8.3783 1.3509 -0.4106
| 17> C 7.9867 0.2293 -1.1463
| 18> C 6.6693 -0.2344 -1.0703
| 19> C 3.2580 0.9186 -0.1418
| 20> C 1.9314 0.2581 -0.5350
| 21> S -0.9265 1.5199 1.7685
| 22> O -1.3119 1.5656 3.2209
| 23> O 0.2465 2.4369 1.5552
| 24> C -2.2768 2.0676 0.7795
| 25> C -2.0465 2.7899 -0.3980
| 26> C -3.1189 3.1772 -1.2074
| 27> C -4.4379 2.8456 -0.8509
| 28> C -5.5690 3.2481 -1.7149
| 29> O -6.7558 2.9974 -1.3695
| 30> O -5.3343 3.9092 -2.9176
| 31> C -4.6623 2.1195 0.3331
| 32> C -3.5884 1.7329 1.1399
| 33> N -1.9506 -1.7395 2.3278
| 34> C -2.9884 -2.6097 2.3292
| 35> C -3.7205 -2.8302 1.1612
| 36> C -4.8230 -3.6991 1.1716
| 37> C -5.5612 -3.9074 0.0068
| 38> C -5.1954 -3.2672 -1.1775
| 39> C -4.0988 -2.4010 -1.2014
| 40> C -3.3466 -2.1603 -0.0299
| 41> H -2.6417 0.0418 -1.6824
| 42> H -1.4851 -1.3061 -2.0276
| 43> H -0.9515 0.1287 -1.1041
| 44> H 1.4348 0.1785 2.1799
| 45> H 0.7900 -1.4768 2.3038
| 46> H 0.9414 -1.6428 -0.2580
| 47> H 2.6506 -2.8917 0.6317
| 48> H 3.2022 -1.5986 1.7366
| 49> H 3.8448 -1.7957 -1.2658
| 50> H 4.9470 -2.0760 0.1333
| 51> H 5.4353 2.0790 1.1124
| 52> H 7.7570 2.8836 0.9648
| 53> H 9.3987 1.7084 -0.4678
| 54> H 8.7050 -0.2798 -1.7759
| 55> H 6.3809 -1.0960 -1.6583
| 56> H 3.4608 1.7503 -0.8530
| 57> H 3.1714 1.3463 0.8809
| 58> H 2.0022 -0.0594 -1.5986
| 59> H 1.1207 1.0119 -0.4835
| 60> H -1.0371 3.0385 -0.7009
| 61> H -2.9135 3.7300 -2.1150
| 62> H -6.1032 4.1852 -3.5164
| 63> H -5.6653 1.8385 0.6306
| 64> H -3.7788 1.1562 2.0361
| 65> H -3.2561 -3.1069 3.2546
| 66> H -5.1212 -4.2053 2.0829
| 67> H -6.4139 -4.5742 0.0196
| 68> H -5.7692 -3.4356 -2.0797
| 69> H -3.8529 -1.9275 -2.1420
| 70> *
| 71>
| 72>                          ****END OF INPUT****

CARTESIAN COORDINATES (ANGSTROEM)
---------------------------------
  C     -1.801100   -0.558400   -1.270600
  C     -2.243900   -1.266300   -0.010500
  C     -1.566200   -1.059400    1.216700
  N     -0.498400   -0.108900    1.335800
  C      0.856100   -0.593800    1.628000
  C      1.610700   -0.983100    0.337300
  C      2.881300   -1.806100    0.690500
  C      4.071700   -1.490400   -0.221600
  N      4.365900   -0.049500   -0.178300
  C      5.727700    0.423000   -0.257000
  C      6.133300    1.556200    0.472600
  C      7.452100    2.014400    0.395900
  C      8.378300    1.350900   -0.410600
  C      7.986700    0.229300   -1.146300
  C      6.669300   -0.234400   -1.070300
  C      3.258000    0.918600   -0.141800
  C      1.931400    0.258100   -0.535000
  S     -0.926500    1.519900    1.768500
  O     -1.311900    1.565600    3.220900
  O      0.246500    2.436900    1.555200
  C     -2.276800    2.067600    0.779500
  C     -2.046500    2.789900   -0.398000
  C     -3.118900    3.177200   -1.207400
  C     -4.437900    2.845600   -0.850900
  C     -5.569000    3.248100   -1.714900
  O     -6.755800    2.997400   -1.369500
  O     -5.334300    3.909200   -2.917600
  C     -4.662300    2.119500    0.333100
  C     -3.588400    1.732900    1.139900
  N     -1.950600   -1.739500    2.327800
  C     -2.988400   -2.609700    2.329200
  C     -3.720500   -2.830200    1.161200
  C     -4.823000   -3.699100    1.171600
  C     -5.561200   -3.907400    0.006800
  C     -5.195400   -3.267200   -1.177500
  C     -4.098800   -2.401000   -1.201400
  C     -3.346600   -2.160300   -0.029900
  H     -2.641700    0.041800   -1.682400
  H     -1.485100   -1.306100   -2.027600
  H     -0.951500    0.128700   -1.104100
  H      1.434800    0.178500    2.179900
  H      0.790000   -1.476800    2.303800
  H      0.941400   -1.642800   -0.258000
  H      2.650600   -2.891700    0.631700
  H      3.202200   -1.598600    1.736600
  H      3.844800   -1.795700   -1.265800
  H      4.947000   -2.076000    0.133300
  H      5.435300    2.079000    1.112400
  H      7.757000    2.883600    0.964800
  H      9.398700    1.708400   -0.467800
  H      8.705000   -0.279800   -1.775900
  H      6.380900   -1.096000   -1.658300
  H      3.460800    1.750300   -0.853000
  H      3.171400    1.346300    0.880900
  H      2.002200   -0.059400   -1.598600
  H      1.120700    1.011900   -0.483500
  H     -1.037100    3.038500   -0.700900
  H     -2.913500    3.730000   -2.115000
  H     -6.103200    4.185200   -3.516400
  H     -5.665300    1.838500    0.630600
  H     -3.778800    1.156200    2.036100
  H     -3.256100   -3.106900    3.254600
  H     -5.121200   -4.205300    2.082900
  H     -6.413900   -4.574200    0.019600
  H     -5.769200   -3.435600   -2.079700
  H     -3.852900   -1.927500   -2.142000

 Total Charge           Charge          ....    0
 Multiplicity           Mult            ....    1
 Number of Electrons    NEL             ....  272
 Basis Dimension        Dim             ....  580

ORBITAL ENERGIES
----------------

  NO   OCC          E(Eh)            E(eV)
   0   2.0000     -89.095301     -2424.4064
   1   2.0000     -19.201090      -522.4882
   2   2.0000     -19.142657      -520.8982
   3   2.0000     -19.127058      -520.4737
   4   2.0000     -19.116382      -520.1832
   5   2.0000     -14.366992      -390.9457
   6   2.0000     -14.334809      -390.0700
   7   2.0000     -14.315877      -389.5548
   8   2.0000     -10.340183      -281.3707
   9   2.0000     -10.262678      -279.2617
  10   2.0000     -10.246429      -278.8195
  11   2.0000     -10.237300      -278.5711
  12   2.0000     -10.229860      -278.3686
  13   2.0000     -10.224744      -278.2294
  14   2.0000     -10.224064      -278.2109
  15   2.0000     -10.221698      -278.1465
  16   2.0000     -10.221106      -278.1304
  17   2.0000     -10.219037      -278.0741
  18   2.0000     -10.216959      -278.0176
  19   2.0000     -10.212953      -277.9086
  20   2.0000     -10.206297      -277.7275
  21   2.0000     -10.205766      -277.7130
  22   2.0000     -10.205411      -277.7034
  23   2.0000     -10.204194      -277.6702
  24   2.0000     -10.203726      -277.6575
  25   2.0000     -10.202545      -277.6254
  26   2.0000     -10.201777      -277.6045
  27   2.0000     -10.199356      -277.5386
  28   2.0000     -10.190601      -277.3004
  29   2.0000     -10.187126      -277.2058
  30   2.0000     -10.179194      -276.9900
  31   2.0000     -10.175029      -276.8766
  32   2.0000     -10.167253      -276.6650
  33   2.0000     -10.166363      -276.6408
  34   2.0000     -10.162969      -276.5485
  35   2.0000     -10.161673      -276.5132
  36   2.0000     -10.159396      -276.4512
  37   2.0000      -8.131599      -221.2721
  38   2.0000      -6.096458      -165.8930
  39   2.0000      -6.094804      -165.8480
  40   2.0000      -6.094072      -165.8281
  41   2.0000      -1.085696       -29.5433
  42   2.0000      -1.081136       -29.4192
  43   2.0000      -0.999717       -27.2037
  44   2.0000      -0.964827       -26.2543
  45   2.0000      -0.957892       -26.0656
  46   2.0000      -0.914922       -24.8963
  47   2.0000      -0.911164       -24.7940
  48   2.0000      -0.894443       -24.3390
  49   2.0000      -0.869784       -23.6680
  50   2.0000      -0.829454       -22.5706
  51   2.0000      -0.815103       -22.1801
  52   2.0000      -0.811428       -22.0801
  53   2.0000      -0.796151       -21.6644
  54   2.0000      -0.780643       -21.2424
  55   2.0000      -0.779891       -21.2219
  56   2.0000      -0.749988       -20.4082
  57   2.0000      -0.748734       -20.3741
  58   2.0000      -0.731416       -19.9028
  59   2.0000      -0.725132       -19.7318
  60   2.0000      -0.715704       -19.4753
  61   2.0000      -0.704663       -19.1748
  62   2.0000      -0.681605       -18.5474
  63   2.0000      -0.655367       -17.8334
  64   2.0000      -0.650553       -17.7024
  65   2.0000      -0.642254       -17.4766
  66   2.0000      -0.634210       -17.2577
  67   2.0000      -0.629096       -17.1186
  68   2.0000      -0.614113       -16.7109
  69   2.0000      -0.602172       -16.3859
  70   2.0000      -0.593552       -16.1514
  71   2.0000      -0.582721       -15.8566
  72   2.0000      -0.571887       -15.5618
  73   2.0000      -0.565047       -15.3757
  74   2.0000      -0.546001       -14.8574
  75   2.0000      -0.538468       -14.6525
  76   2.0000      -0.521944       -14.2028
  77   2.0000      -0.514003       -13.9867
  78   2.0000      -0.510417       -13.8892
  79   2.0000      -0.506451       -13.7812
  80   2.0000      -0.493632       -13.4324
  81   2.0000      -0.489672       -13.3247
  82   2.0000      -0.478515       -13.0211
  83   2.0000      -0.477527       -12.9942
  84   2.0000      -0.472003       -12.8439
  85   2.0000      -0.469525       -12.7764
  86   2.0000      -0.464504       -12.6398
  87   2.0000      -0.456747       -12.4287
  88   2.0000      -0.454038       -12.3550
  89   2.0000      -0.452148       -12.3036
  90   2.0000      -0.447875       -12.1873
  91   2.0000      -0.444174       -12.0866
  92   2.0000      -0.439539       -11.9605
  93   2.0000      -0.436734       -11.8841
  94   2.0000      -0.434969       -11.8361
  95   2.0000      -0.426760       -11.6127
  96   2.0000      -0.421042       -11.4571
  97   2.0000      -0.417451       -11.3594
  98   2.0000      -0.413652       -11.2560
  99   2.0000      -0.409112       -11.1325
 100   2.0000      -0.407461       -11.0876
 101   2.0000      -0.404597       -11.0096
 102   2.0000      -0.402690       -10.9577
 103   2.0000      -0.400557       -10.8997
 104   2.0000      -0.391881       -10.6636
 105   2.0000      -0.391002       -10.6397
 106   2.0000      -0.389165       -10.5897
 107   2.0000      -0.380568       -10.3558
 108   2.0000      -0.375898       -10.2287
 109   2.0000      -0.372910       -10.1474
 110   2.0000      -0.372326       -10.1315
 111   2.0000      -0.359728        -9.7887
 112   2.0000      -0.357379        -9.7248
 113   2.0000      -0.355339        -9.6693
 114   2.0000      -0.346514        -9.4291
 115   2.0000      -0.339628        -9.2417
 116   2.0000      -0.331690        -9.0257
 117   2.0000      -0.327728        -8.9179
 118   2.0000      -0.325432        -8.8555
 119   2.0000      -0.321616        -8.7516
 120   2.0000      -0.318865        -8.6768
 121   2.0000      -0.309529        -8.4227
 122   2.0000      -0.305407        -8.3105
 123   2.0000      -0.299742        -8.1564
 124   2.0000      -0.294891        -8.0244
 125   2.0000      -0.286942        -7.8081
 126   2.0000      -0.282453        -7.6859
 127   2.0000      -0.279339        -7.6012
 128   2.0000      -0.277634        -7.5548
 129   2.0000      -0.267831        -7.2881
 130   2.0000      -0.255620        -6.9558
 131   2.0000      -0.250085        -6.8052
 132   2.0000      -0.242660        -6.6031
 133   2.0000      -0.231776        -6.3070
 134   2.0000      -0.227518        -6.1911
 135   2.0000      -0.174112        -4.7378
 136   0.0000      -0.088497        -2.4081
 137   0.0000      -0.067140        -1.8270
 138   0.0000      -0.038930        -1.0593
 139   0.0000      -0.033428        -0.9096
 140   0.0000       0.003729         0.1015

MULLIKEN ATOMIC CHARGES
-----------------------
   0 C :   -0.550147
   1 C :    0.103907
   2 C :    0.265252
   3 N :   -0.608465
   4 C :   -0.155257
   5 C :   -0.063092
   6 C :   -0.290145
   7 C :   -0.119891
   8 N :   -0.471884
   9 C :    0.293251
  10 C :   -0.175280
  11 C :   -0.133223
  12 C :   -0.132855
  13 C :   -0.133510
  14 C :   -0.176553
  15 C :   -0.115885
  16 C :   -0.304804
  17 S :    1.210229
  18 O :   -0.525162
  19 O :   -0.561039
  20 C :   -0.140777
  21 C :   -0.142114
  22 C :   -0.150108
  23 C :    0.082246
  24 C :    0.527687
  25 O :   -0.442536
  26 O :   -0.623057
  27 C :   -0.141920
  28 C :   -0.138494
  29 N :   -0.362515
  30 C :   -0.059738
  31 C :    0.135199
  32 C :   -0.201938
  33 C :   -0.126447
  34 C :   -0.119499
  35 C :   -0.198833
  36 C :    0.121466
  37 H :    0.163692
  38 H :    0.162963
  39 H :    0.181440
  40 H :    0.189805
  41 H :    0.174969
  42 H :    0.122760
  43 H :    0.134962
  44 H :    0.145554
  45 H :    0.119796
  46 H :    0.148279
  47 H :    0.129372
  48 H :    0.123477
  49 H :    0.115242
  50 H :    0.120560
  51 H :    0.120913
  52 H :    0.139951
  53 H :    0.147455
  54 H :    0.131497
  55 H :    0.162719
  56 H :    0.186021
  57 H :    0.174054
  58 H :    0.435039
  59 H :    0.182852
  60 H :    0.193865
  61 H :    0.156914
  62 H :    0.142713
  63 H :    0.139161
  64 H :    0.140329
  65 H :    0.139576
Sum of atomic charges:    0.0000000

LOEWDIN ATOMIC CHARGES
----------------------
   0 C :   -0.364240
   1 C :   -0.014626
   2 C :    0.016084
   3 N :   -0.283303
   4 C :   -0.147212
   5 C :   -0.129356
   6 C :   -0.231785
   7 C :   -0.147722
   8 N :   -0.143028
   9 C :    0.037753
  10 C :   -0.157413
  11 C :   -0.125829
  12 C :   -0.154667
  13 C :   -0.127380
  14 C :   -0.162102
  15 C :   -0.145887
  16 C :   -0.236995
  17 S :    1.258709
  18 O :   -0.568101
  19 O :   -0.581745
  20 C :   -0.171752
  21 C :   -0.099922
  22 C :   -0.102924
  23 C :   -0.038416
  24 C :    0.179535
  25 O :   -0.259051
  26 O :   -0.334055
  27 C :   -0.087500
  28 C :   -0.096653
  29 N :   -0.120782
  30 C :   -0.059128
  31 C :   -0.030149
  32 C :   -0.110923
  33 C :   -0.124573
  34 C :   -0.115589
  35 C :   -0.123764
  36 C :   -0.008859
  37 H :    0.137501
  38 H :    0.137437
  39 H :    0.141820
  40 H :    0.148649
  41 H :    0.136958
  42 H :    0.117392
  43 H :    0.124232
  44 H :    0.124574
  45 H :    0.100234
  46 H :    0.130197
  47 H :    0.133643
  48 H :    0.129392
  49 H :    0.125664
  50 H :    0.128035
  51 H :    0.129342
  52 H :    0.122206
  53 H :    0.112568
  54 H :    0.118018
  55 H :    0.132643
  56 H :    0.159761
  57 H :    0.155257
  58 H :    0.350386
  59 H :    0.161467
  60 H :    0.164108
  61 H :    0.139237
  62 H :    0.138738
  63 H :    0.136931
  64 H :    0.137838
  65 H :    0.139123

  Mayer bond orders larger than 0.100000
B(  0-C ,  1-C ) :   1.0015 B(  0-C , 37-H ) :   0.9226 B(  0-C , 38-H ) :   0.9270
B(  0-C , 39-H ) :   0.9195 B(  1-C ,  2-C ) :   1.4289 B(  1-C , 36-C ) :   1.2586
B(  2-C ,  3-N ) :   0.9097 B(  2-C , 29-N ) :   1.2851 B(  3-N ,  4-C ) :   0.9010
B(  3-N , 17-S ) :   0.8180 B(  4-C ,  5-C ) :   0.9729 B(  4-C , 40-H ) :   0.9107
B(  4-C , 41-H ) :   0.9201 B(  5-C ,  6-C ) :   0.9787 B(  5-C , 16-C ) :   1.0022
B(  5-C , 42-H ) :   0.9333 B(  6-C ,  7-C ) :   0.9995 B(  6-C , 43-H ) :   0.9359
B(  6-C , 44-H ) :   0.9328 B(  7-C ,  8-N ) :   0.9762 B(  7-C , 45-H ) :   0.9231
B(  7-C , 46-H ) :   0.9292 B(  8-N ,  9-C ) :   0.9860 B(  8-N , 15-C ) :   0.9526
B(  9-C , 10-C ) :   1.3911 B(  9-C , 14-C ) :   1.3911 B( 10-C , 11-C ) :   1.4489
B( 10-C , 47-H ) :   0.9210 B( 11-C , 12-C ) :   1.4480 B( 11-C , 48-H ) :   0.9303
B( 12-C , 13-C ) :   1.4486 B( 12-C , 49-H ) :   0.9320 B( 13-C , 14-C ) :   1.4462
B( 13-C , 50-H ) :   0.9307 B( 14-C , 51-H ) :   0.9223 B( 15-C , 16-C ) :   1.0066
B( 15-C , 52-H ) :   0.9281 B( 15-C , 53-H ) :   0.9168 B( 16-C , 54-H ) :   0.9354
B( 16-C , 55-H ) :   0.9124 B( 17-S , 18-O ) :   1.6837 B( 17-S , 19-O ) :   1.5686
B( 17-S , 20-C ) :   0.8119 B( 20-C , 21-C ) :   1.3978 B( 20-C , 28-C ) :   1.3836
B( 21-C , 22-C ) :   1.4130 B( 21-C , 56-H ) :   0.9090 B( 22-C , 23-C ) :   1.3823
B( 22-C , 57-H ) :   0.9147 B( 23-C , 24-C ) :   1.0073 B( 23-C , 27-C ) :   1.3995
B( 24-C , 25-O ) :   1.8636 B( 24-C , 26-O ) :   1.0264 B( 26-O , 58-H ) :   0.7413
B( 27-C , 28-C ) :   1.4184 B( 27-C , 59-H ) :   0.9094 B( 28-C , 60-H ) :   0.9065
B( 29-N , 30-C ) :   1.5003 B( 30-C , 31-C ) :   1.2319 B( 30-C , 61-H ) :   0.9257
B( 31-C , 32-C ) :   1.2832 B( 31-C , 36-C ) :   1.2925 B( 32-C , 33-C ) :   1.5123
B( 32-C , 35-C ) :   0.1059 B( 32-C , 62-H ) :   0.9227 B( 33-C , 34-C ) :   1.3535
B( 33-C , 63-H ) :   0.9287 B( 34-C , 35-C ) :   1.5076 B( 34-C , 64-H ) :   0.9286
B( 35-C , 36-C ) :   1.2964 B( 35-C , 65-H ) :   0.9162

FINAL SINGLE POINT ENERGY     -1984.747861233962

DIPOLE MOMENT
-------------

Method             : SCF
Type of density    : Electron Density
Multiplicity       :   1
Irrep              :   0
Energy             : -1984.7478612339623396 Eh
Relativity type    :
Basis              : AO
                                X                 Y                 Z
Electronic contribution:    -29.837739311      11.842847201       8.760139241
Nuclear contribution   :     28.096389746     -13.322642176     -11.125854494
                        -----------------------------------------
Total Dipole Moment    :     -1.741349564      -1.479794975      -2.365715253
                        -----------------------------------------
Magnitude (a.u.)       :      3.289179249
Magnitude (Debye)      :      8.360429237

Rotational constants in cm-1:             0.005087             0.001671             0.001449
Rotational constants in MHz :           152.511643            50.098836            43.428112

                             ****ORCA TERMINATED NORMALLY****
TOTAL RUN TIME: 0 days 0 hours 11 minutes 13 seconds 114 msec
