                         Program Version 6.0.0  -   RELEASE  -
|  1> ! B3LYP 6-31G* SP
|  2>
|  3> * xyz 0 1
|  4> C -3.8092 -1.1317 1.2970
|  5> C -2.7178 -2.0009 0.7382
|  6> C -2.8499 -3.3978 0.7589
|  7> C -1.8461 -4.2073 0.2136
|  8> C -1.9443 -5.6068 0.2359
|  9> C -0.9226 -6.3874 -0.3146
| 10> C 0.1977 -5.7774 -0.8884
| 11> C 0.3017 -4.3834 -0.9168
| 12> C -0.7163 -3.5954 -0.3690
| 13> N -0.6175 -2.2418 -0.3942
| 14> C -1.5745 -1.4360 0.1395
| 15> N -1.3930 -0.0172 0.0950
| 16> C -0.5796 0.6407 1.1199
| 17> C 0.8783 0.3317 0.9099
| 18> C 1.6500 1.1184 0.0487
| 19> C 2.9848 0.7942 -0.2007
| 20> C 3.5788 -0.3441 0.3903
| 21> C 5.0366 -0.7163 0.1365
| 22> F 5.7279 -0.6002 1.3338
| 23> F 5.0935 -2.0390 -0.2680
| 24> C 5.7080 0.1146 -0.9811
| 25> C 6.4232 1.3914 -0.5605
| 26> C 7.2296 0.1604 -0.9490
| 27> C 2.7930 -1.1258 1.2731
| 28> Cl 3.4382 -2.5424 2.0993
| 29> C 1.4583 -0.7868 1.5212
| 30> S -1.8796 0.8426 -1.3325
| 31> O -0.7098 0.9662 -2.2673
| 32> O -2.9729 0.0851 -2.0328
| 33> C -2.4896 2.4375 -0.9018
| 34> C -1.6734 3.5681 -1.0287
| 35> C -2.1546 4.8286 -0.6632
| 36> C -3.4619 4.9761 -0.1652
| 37> C -3.9782 6.3080 0.2199
| 38> O -3.2464 7.3302 0.1196
| 39> O -5.2798 6.4454 0.6959
| 40> C -4.2740 3.8365 -0.0371
| 41> C -3.7890 2.5769 -0.4001
| 42> H -4.5143 -1.7201 1.9207
| 43> H -3.3788 -0.3314 1.9333
| 44> H -4.3762 -0.6697 0.4629
| 45> H -3.7297 -3.8519 1.2004
| 46> H -2.8050 -6.0941 0.6780
| 47> H -0.9988 -7.4668 -0.2960
| 48> H 0.9859 -6.3858 -1.3120
| 49> H 1.1726 -3.9186 -1.3622
| 50> H -0.9058 0.3037 2.1279
| 51> H -0.7373 1.7393 1.0933
| 52> H 1.2171 1.9857 -0.4338
| 53> H 3.5385 1.4434 -0.8635
| 54> H 5.2786 0.1075 -2.0063
| 55> H 6.4317 1.6200 0.5259
| 56> H 6.4198 2.1904 -1.3315
| 57> H 7.7287 -0.3414 -0.0929
| 58> H 7.7103 0.2394 -1.9469
| 59> H 0.8658 -1.4061 2.1846
| 60> H -0.6628 3.4759 -1.4043
| 61> H -1.5029 5.6862 -0.7700
| 62> H -5.6448 7.3527 0.9606
| 63> H -5.2839 3.9158 0.3454
| 64> H -4.4283 1.7111 -0.2888
| 65> *
| 66>
| 67>                          ****END OF INPUT****

CARTESIAN COORDINATES (ANGSTROEM)
---------------------------------
  C     -3.809200   -1.131700    1.297000
  C     -2.717800   -2.000900    0.738200
  C     -2.849900   -3.397800    0.758900
  C     -1.846100   -4.207300    0.213600
  C     -1.944300   -5.606800    0.235900
  C     -0.922600   -6.387400   -0.314600
  C      0.197700   -5.777400   -0.888400
  C      0.301700   -4.383400   -0.916800
  C     -0.716300   -3.595400   -0.369000
  N     -0.617500   -2.241800   -0.394200
  C     -1.574500   -1.436000    0.139500
  N     -1.393000   -0.017200    0.095000
  C     -0.579600    0.640700    1.119900
  C      0.878300    0.331700    0.909900
  C      1.650000    1.118400    0.048700
  C      2.984800    0.794200   -0.200700
  C      3.578800   -0.344100    0.390300
  C      5.036600   -0.716300    0.136500
  F      5.727900   -0.600200    1.333800
  F      5.093500   -2.039000   -0.268000
  C      5.708000    0.114600   -0.981100
  C      6.423200    1.391400   -0.560500
  C      7.229600    0.160400   -0.949000
  C      2.793000   -1.125800    1.273100
  Cl     3.438200   -2.542400    2.099300
  C      1.458300   -0.786800    1.521200
  S     -1.879600    0.842600   -1.332500
  O     -0.709800    0.966200   -2.267300
  O     -2.972900    0.085100   -2.032800
  C     -2.489600    2.437500   -0.901800
  C     -1.673400    3.568100   -1.028700
  C     -2.154600    4.828600   -0.663200
  C     -3.461900    4.976100   -0.165200
  C     -3.978200    6.308000    0.219900
  O     -3.246400    7.330200    0.119600
  O     -5.279800    6.445400    0.695900
  C     -4.274000    3.836500   -0.037100
  C     -3.789000    2.576900   -0.400100
  H     -4.514300   -1.720100    1.920700
  H     -3.378800   -0.331400    1.933300
  H     -4.376200   -0.669700    0.462900
  H     -3.729700   -3.851900    1.200400
  H     -2.805000   -6.094100    0.678000
  H     -0.998800   -7.466800   -0.296000
  H      0.985900   -6.385800   -1.312000
  H      1.172600   -3.918600   -1.362200
  H     -0.905800    0.303700    2.127900
  H     -0.737300    1.739300    1.093300
  H      1.217100    1.985700   -0.433800
  H      3.538500    1.443400   -0.863500
  H      5.278600    0.107500   -2.006300
  H      6.431700    1.620000    0.525900
  H      6.419800    2.190400   -1.331500
  H      7.728700   -0.341400   -0.092900
  H      7.710300    0.239400   -1.946900
  H      0.865800   -1.406100    2.184600
  H     -0.662800    3.475900   -1.404300
  H     -1.502900    5.686200   -0.770000
  H     -5.644800    7.352700    0.960600
  H     -5.283900    3.915800    0.345400
  H     -4.428300    1.711100   -0.288800

 Total Charge           Charge          ....    0
 Multiplicity           Mult            ....    1
 Number of Electrons    NEL             ....  288
 Basis Dimension        Dim             ....  586

ORBITAL ENERGIES
----------------

  NO   OCC          E(Eh)            E(eV)
   0   2.0000    -101.517241     -2762.4246
   1   2.0000     -89.100544     -2424.5491
   2   2.0000     -24.690243      -671.8557
   3   2.0000     -24.676089      -671.4705
   4   2.0000     -19.203111      -522.5432
   5   2.0000     -19.145338      -520.9711
   6   2.0000     -19.127288      -520.4800
   7   2.0000     -19.123185      -520.3683
   8   2.0000     -14.373494      -391.1226
   9   2.0000     -14.327733      -389.8774
  10   2.0000     -10.344400      -281.4854
  11   2.0000     -10.342877      -281.4440
  12   2.0000     -10.263178      -279.2753
  13   2.0000     -10.251415      -278.9552
  14   2.0000     -10.246705      -278.8270
  15   2.0000     -10.243857      -278.7495
  16   2.0000     -10.241217      -278.6777
  17   2.0000     -10.229632      -278.3624
  18   2.0000     -10.229535      -278.3598
  19   2.0000     -10.226130      -278.2672
  20   2.0000     -10.226124      -278.2670
  21   2.0000     -10.217521      -278.0329
  22   2.0000     -10.207180      -277.7515
  23   2.0000     -10.205807      -277.7141
  24   2.0000     -10.200250      -277.5629
  25   2.0000     -10.199775      -277.5500
  26   2.0000     -10.198165      -277.5062
  27   2.0000     -10.195296      -277.4281
  28   2.0000     -10.194907      -277.4175
  29   2.0000     -10.193968      -277.3920
  30   2.0000     -10.189949      -277.2826
  31   2.0000     -10.188828      -277.2521
  32   2.0000     -10.188494      -277.2430
  33   2.0000     -10.188193      -277.2348
  34   2.0000     -10.187897      -277.2268
  35   2.0000     -10.186953      -277.2011
  36   2.0000     -10.184369      -277.1308
  37   2.0000     -10.182941      -277.0919
  38   2.0000      -9.449126      -257.1238
  39   2.0000      -8.136420      -221.4033
  40   2.0000      -7.212363      -196.2584
  41   2.0000      -7.202751      -195.9968
  42   2.0000      -7.202159      -195.9807
  43   2.0000      -6.101454      -166.0290
  44   2.0000      -6.099494      -165.9757
  45   2.0000      -6.098981      -165.9617
  46   2.0000      -1.223654       -33.2973
  47   2.0000      -1.169328       -31.8190
  48   2.0000      -1.087710       -29.5981
  49   2.0000      -1.085018       -29.5248
  50   2.0000      -1.002065       -27.2676
  51   2.0000      -0.965212       -26.2647
  52   2.0000      -0.962531       -26.1918
  53   2.0000      -0.918791       -25.0016
  54   2.0000      -0.899302       -24.4712
  55   2.0000      -0.883739       -24.0478
  56   2.0000      -0.856535       -23.3075
  57   2.0000      -0.846304       -23.0291
  58   2.0000      -0.832413       -22.6511
  59   2.0000      -0.818887       -22.2831
  60   2.0000      -0.814420       -22.1615
  61   2.0000      -0.786921       -21.4132
  62   2.0000      -0.785479       -21.3740
  63   2.0000      -0.765944       -20.8424
  64   2.0000      -0.744468       -20.2580
  65   2.0000      -0.734375       -19.9834
  66   2.0000      -0.729154       -19.8413
  67   2.0000      -0.711023       -19.3479
  68   2.0000      -0.693864       -18.8810
  69   2.0000      -0.671877       -18.2827
  70   2.0000      -0.666823       -18.1452
  71   2.0000      -0.646801       -17.6004
  72   2.0000      -0.628894       -17.1131
  73   2.0000      -0.622161       -16.9298
  74   2.0000      -0.613732       -16.7005
  75   2.0000      -0.603994       -16.4355
  76   2.0000      -0.601083       -16.3563
  77   2.0000      -0.592804       -16.1310
  78   2.0000      -0.584193       -15.8967
  79   2.0000      -0.576054       -15.6752
  80   2.0000      -0.564425       -15.3588
  81   2.0000      -0.544905       -14.8276
  82   2.0000      -0.535718       -14.5776
  83   2.0000      -0.532460       -14.4890
  84   2.0000      -0.522817       -14.2266
  85   2.0000      -0.517674       -14.0866
  86   2.0000      -0.516206       -14.0467
  87   2.0000      -0.500064       -13.6074
  88   2.0000      -0.499141       -13.5823
  89   2.0000      -0.487568       -13.2674
  90   2.0000      -0.483170       -13.1477
  91   2.0000      -0.479172       -13.0389
  92   2.0000      -0.474815       -12.9204
  93   2.0000      -0.468127       -12.7384
  94   2.0000      -0.464396       -12.6369
  95   2.0000      -0.458888       -12.4870
  96   2.0000      -0.457014       -12.4360
  97   2.0000      -0.449834       -12.2406
  98   2.0000      -0.448417       -12.2021
  99   2.0000      -0.447623       -12.1804
 100   2.0000      -0.436566       -11.8796
 101   2.0000      -0.433075       -11.7846
 102   2.0000      -0.429004       -11.6738
 103   2.0000      -0.427440       -11.6312
 104   2.0000      -0.422224       -11.4893
 105   2.0000      -0.418189       -11.3795
 106   2.0000      -0.416330       -11.3289
 107   2.0000      -0.409523       -11.1437
 108   2.0000      -0.408454       -11.1146
 109   2.0000      -0.403977       -10.9928
 110   2.0000      -0.402835       -10.9617
 111   2.0000      -0.400187       -10.8896
 112   2.0000      -0.397971       -10.8293
 113   2.0000      -0.392716       -10.6863
 114   2.0000      -0.389330       -10.5942
 115   2.0000      -0.383629       -10.4391
 116   2.0000      -0.376369       -10.2415
 117   2.0000      -0.373477       -10.1628
 118   2.0000      -0.371287       -10.1032
 119   2.0000      -0.365576        -9.9478
 120   2.0000      -0.359318        -9.7775
 121   2.0000      -0.356289        -9.6951
 122   2.0000      -0.351522        -9.5654
 123   2.0000      -0.339287        -9.2325
 124   2.0000      -0.333482        -9.0745
 125   2.0000      -0.327889        -8.9223
 126   2.0000      -0.326262        -8.8780
 127   2.0000      -0.318886        -8.6773
 128   2.0000      -0.311140        -8.4665
 129   2.0000      -0.303333        -8.2541
 130   2.0000      -0.299790        -8.1577
 131   2.0000      -0.297822        -8.1041
 132   2.0000      -0.291461        -7.9311
 133   2.0000      -0.290353        -7.9009
 134   2.0000      -0.285542        -7.7700
 135   2.0000      -0.283723        -7.7205
 136   2.0000      -0.282072        -7.6756
 137   2.0000      -0.278276        -7.5723
 138   2.0000      -0.261486        -7.1154
 139   2.0000      -0.254324        -6.9205
 140   2.0000      -0.249632        -6.7928
 141   2.0000      -0.240287        -6.5386
 142   2.0000      -0.237837        -6.4719
 143   2.0000      -0.223127        -6.0716
 144   0.0000      -0.093456        -2.5431
 145   0.0000      -0.061576        -1.6756
 146   0.0000      -0.040061        -1.0901
 147   0.0000      -0.024681        -0.6716
 148   0.0000      -0.021772        -0.5925

MULLIKEN ATOMIC CHARGES
-----------------------
   0 C :   -0.538648
   1 C :    0.163486
   2 C :   -0.215034
   3 C :    0.181173
   4 C :   -0.207469
   5 C :   -0.125538
   6 C :   -0.131923
   7 C :   -0.139794
   8 C :    0.202650
   9 N :   -0.417168
  10 C :    0.324391
  11 N :   -0.602842
  12 C :   -0.282785
  13 C :    0.224157
  14 C :   -0.152998
  15 C :   -0.160353
  16 C :    0.061821
  17 C :    0.674809
  18 F :   -0.332705
  19 F :   -0.331875
  20 C :   -0.203630
  21 C :   -0.311506
  22 C :   -0.318676
  23 C :   -0.114774
  24 Cl:    0.001770
  25 C :   -0.159174
  26 S :    1.215965
  27 O :   -0.527436
  28 O :   -0.549582
  29 C :   -0.147321
  30 C :   -0.150335
  31 C :   -0.138047
  32 C :    0.083659
  33 C :    0.530312
  34 O :   -0.441215
  35 O :   -0.623223
  36 C :   -0.146712
  37 C :   -0.136938
  38 H :    0.153468
  39 H :    0.153506
  40 H :    0.187796
  41 H :    0.137507
  42 H :    0.131873
  43 H :    0.134735
  44 H :    0.139365
  45 H :    0.157726
  46 H :    0.166719
  47 H :    0.168903
  48 H :    0.133115
  49 H :    0.150324
  50 H :    0.168741
  51 H :    0.168985
  52 H :    0.148957
  53 H :    0.171305
  54 H :    0.152359
  55 H :    0.147091
  56 H :    0.193100
  57 H :    0.183741
  58 H :    0.436359
  59 H :    0.175768
  60 H :    0.182064
Sum of atomic charges:   -0.0000000

LOEWDIN ATOMIC CHARGES
----------------------
   0 C :   -0.355460
   1 C :   -0.025331
   2 C :   -0.100160
   3 C :   -0.020549
   4 C :   -0.124531
   5 C :   -0.121323
   6 C :   -0.122541
   7 C :   -0.105759
   8 C :    0.013788
   9 N :   -0.098926
  10 C :    0.045113
  11 N :   -0.281186
  12 C :   -0.146999
  13 C :   -0.017975
  14 C :   -0.119018
  15 C :   -0.113732
  16 C :   -0.054023
  17 C :    0.238939
  18 F :   -0.129460
  19 F :   -0.129875
  20 C :   -0.166023
  21 C :   -0.257145
  22 C :   -0.248073
  23 C :   -0.067388
  24 Cl:    0.039195
  25 C :   -0.124570
  26 S :    1.262433
  27 O :   -0.565427
  28 O :   -0.573310
  29 C :   -0.176478
  30 C :   -0.107120
  31 C :   -0.085400
  32 C :   -0.035752
  33 C :    0.180421
  34 O :   -0.257362
  35 O :   -0.333756
  36 C :   -0.098405
  37 C :   -0.098643
  38 H :    0.130888
  39 H :    0.131275
  40 H :    0.145520
  41 H :    0.137396
  42 H :    0.132987
  43 H :    0.134868
  44 H :    0.137657
  45 H :    0.150516
  46 H :    0.133180
  47 H :    0.139227
  48 H :    0.133544
  49 H :    0.146152
  50 H :    0.146464
  51 H :    0.141597
  52 H :    0.132327
  53 H :    0.143321
  54 H :    0.134967
  55 H :    0.142347
  56 H :    0.160684
  57 H :    0.161969
  58 H :    0.351358
  59 H :    0.156168
  60 H :    0.157401

  Mayer bond orders larger than 0.100000
B(  0-C ,  1-C ) :   0.9909 B(  0-C , 38-H ) :   0.9430 B(  0-C , 39-H ) :   0.9349
B(  0-C , 40-H ) :   0.9169 B(  1-C ,  2-C ) :   1.4831 B(  1-C , 10-C ) :   1.3040
B(  2-C ,  3-C ) :   1.2933 B(  2-C , 41-H ) :   0.9163 B(  3-C ,  4-C ) :   1.2834
B(  3-C ,  8-C ) :   1.2440 B(  4-C ,  5-C ) :   1.5134 B(  4-C ,  7-C ) :   0.1077
B(  4-C , 42-H ) :   0.9251 B(  5-C ,  6-C ) :   1.3453 B(  5-C , 43-H ) :   0.9299
B(  6-C ,  7-C ) :   1.5176 B(  6-C , 44-H ) :   0.9290 B(  7-C ,  8-C ) :   1.3011
B(  7-C , 45-H ) :   0.9148 B(  8-C ,  9-N ) :   1.2455 B(  9-N , 10-C ) :   1.4447
B( 10-C , 11-N ) :   0.8968 B( 11-N , 12-C ) :   0.9482 B( 11-N , 26-S ) :   0.8097
B( 12-C , 13-C ) :   0.9296 B( 12-C , 46-H ) :   0.9231 B( 12-C , 47-H ) :   0.9221
B( 13-C , 14-C ) :   1.4336 B( 13-C , 25-C ) :   1.4233 B( 14-C , 15-C ) :   1.4218
B( 14-C , 48-H ) :   0.9158 B( 15-C , 16-C ) :   1.4228 B( 15-C , 49-H ) :   0.9115
B( 16-C , 17-C ) :   0.9633 B( 16-C , 23-C ) :   1.3615 B( 17-C , 18-F ) :   0.8714
B( 17-C , 19-F ) :   0.8796 B( 17-C , 20-C ) :   1.0101 B( 20-C , 21-C ) :   0.9224
B( 20-C , 22-C ) :   0.9404 B( 20-C , 50-H ) :   0.9222 B( 21-C , 22-C ) :   0.9628
B( 21-C , 51-H ) :   0.9366 B( 21-C , 52-H ) :   0.9430 B( 22-C , 53-H ) :   0.9356
B( 22-C , 54-H ) :   0.9440 B( 23-C , 24-Cl) :   1.0420 B( 23-C , 25-C ) :   1.3992
B( 25-C , 55-H ) :   0.9163 B( 26-S , 27-O ) :   1.6559 B( 26-S , 28-O ) :   1.6144
B( 26-S , 29-C ) :   0.8088 B( 29-C , 30-C ) :   1.3830 B( 29-C , 37-C ) :   1.3935
B( 30-C , 31-C ) :   1.4146 B( 30-C , 56-H ) :   0.9046 B( 31-C , 32-C ) :   1.4054
B( 31-C , 57-H ) :   0.9087 B( 32-C , 33-C ) :   1.0063 B( 32-C , 36-C ) :   1.3820
B( 33-C , 34-O ) :   1.8645 B( 33-C , 35-O ) :   1.0271 B( 35-O , 58-H ) :   0.7404
B( 36-C , 37-C ) :   1.4227 B( 36-C , 59-H ) :   0.9140 B( 37-C , 60-H ) :   0.9077

FINAL SINGLE POINT ENERGY     -2548.056363637654

DIPOLE MOMENT
-------------

Method             : SCF
Type of density    : Electron Density
Multiplicity       :   1
Irrep              :   0
Energy             : -2548.0563636376537033 Eh
Relativity type    :
Basis              : AO
                                X                 Y                 Z
Electronic contribution:     12.166440222      -4.872525527       4.065626160
Nuclear contribution   :    -13.855968585       5.715850778      -2.605772418
                        -----------------------------------------
Total Dipole Moment    :     -1.689528363       0.843325252       1.459853742
                        -----------------------------------------
Magnitude (a.u.)       :      2.386813046
Magnitude (Debye)      :      6.066796626

Rotational constants in cm-1:             0.003514             0.001895             0.001352
Rotational constants in MHz :           105.341386            56.816613            40.537824

                             ****ORCA TERMINATED NORMALLY****
TOTAL RUN TIME: 0 days 0 hours 10 minutes 31 seconds 706 msec
