                         Program Version 6.0.0  -   RELEASE  -
|  1> ! B3LYP 6-31G* SP
|  2>
|  3> * xyz 0 1
|  4> C 0.2770 -1.5638 2.2458
|  5> C 0.2184 -1.0238 0.8063
|  6> C 1.5334 -0.4437 0.2948
|  7> C 2.5403 0.0430 1.1556
|  8> C 3.7343 0.5550 0.6380
|  9> F 4.6840 1.0330 1.4796
| 10> C 3.9558 0.5621 -0.7406
| 11> F 5.1137 1.0611 -1.2401
| 12> C 2.9905 0.0395 -1.6028
| 13> F 3.2095 0.0281 -2.9410
| 14> C 1.7940 -0.4687 -1.0891
| 15> N -0.9812 -0.1604 0.6022
| 16> C -2.2572 -0.8393 0.6182
| 17> O -3.1139 -0.5212 1.4880
| 18> C -2.5826 -1.9023 -0.3611
| 19> C -3.5292 -2.8930 -0.0428
| 20> C -3.8440 -3.8936 -0.9678
| 21> C -3.2248 -3.9103 -2.2198
| 22> C -2.2931 -2.9237 -2.5507
| 23> C -1.9757 -1.9218 -1.6288
| 24> C -1.0416 1.3274 0.6619
| 25> C -1.1622 1.8508 2.0836
| 26> N -0.0923 1.7821 3.0243
| 27> O -2.2597 2.3464 2.4579
| 28> C -0.0520 2.0345 -0.2565
| 29> C 0.9521 2.9129 0.2060
| 30> C 1.8146 3.5442 -0.6958
| 31> C 1.6739 3.3345 -2.0678
| 32> C 0.6616 2.5015 -2.5440
| 33> C -0.1993 1.8627 -1.6477
| 34> H -0.6249 -2.1763 2.4584
| 35> H 1.1659 -2.2177 2.3754
| 36> H 0.3155 -0.7515 2.9926
| 37> H 0.0774 -1.9431 0.1959
| 38> H 2.4289 0.0074 2.2284
| 39> H 1.0633 -0.8736 -1.7758
| 40> H -4.0166 -2.9001 0.9243
| 41> H -4.5683 -4.6565 -0.7132
| 42> H -3.4700 -4.6849 -2.9348
| 43> H -1.8200 -2.9318 -3.5241
| 44> H -1.2685 -1.1566 -1.9120
| 45> H -2.0156 1.6174 0.1998
| 46> H -0.2394 2.1022 4.0072
| 47> H 0.8572 1.4688 2.7474
| 48> H 1.0767 3.1372 1.2515
| 49> H 2.5894 4.2049 -0.3289
| 50> H 2.3430 3.8255 -2.7624
| 51> H 0.5443 2.3480 -3.6089
| 52> H -0.9827 1.2273 -2.0394
| 53> *
| 54>
| 55>                          ****END OF INPUT****

CARTESIAN COORDINATES (ANGSTROEM)
---------------------------------
  C      0.277000   -1.563800    2.245800
  C      0.218400   -1.023800    0.806300
  C      1.533400   -0.443700    0.294800
  C      2.540300    0.043000    1.155600
  C      3.734300    0.555000    0.638000
  F      4.684000    1.033000    1.479600
  C      3.955800    0.562100   -0.740600
  F      5.113700    1.061100   -1.240100
  C      2.990500    0.039500   -1.602800
  F      3.209500    0.028100   -2.941000
  C      1.794000   -0.468700   -1.089100
  N     -0.981200   -0.160400    0.602200
  C     -2.257200   -0.839300    0.618200
  O     -3.113900   -0.521200    1.488000
  C     -2.582600   -1.902300   -0.361100
  C     -3.529200   -2.893000   -0.042800
  C     -3.844000   -3.893600   -0.967800
  C     -3.224800   -3.910300   -2.219800
  C     -2.293100   -2.923700   -2.550700
  C     -1.975700   -1.921800   -1.628800
  C     -1.041600    1.327400    0.661900
  C     -1.162200    1.850800    2.083600
  N     -0.092300    1.782100    3.024300
  O     -2.259700    2.346400    2.457900
  C     -0.052000    2.034500   -0.256500
  C      0.952100    2.912900    0.206000
  C      1.814600    3.544200   -0.695800
  C      1.673900    3.334500   -2.067800
  C      0.661600    2.501500   -2.544000
  C     -0.199300    1.862700   -1.647700
  H     -0.624900   -2.176300    2.458400
  H      1.165900   -2.217700    2.375400
  H      0.315500   -0.751500    2.992600
  H      0.077400   -1.943100    0.195900
  H      2.428900    0.007400    2.228400
  H      1.063300   -0.873600   -1.775800
  H     -4.016600   -2.900100    0.924300
  H     -4.568300   -4.656500   -0.713200
  H     -3.470000   -4.684900   -2.934800
  H     -1.820000   -2.931800   -3.524100
  H     -1.268500   -1.156600   -1.912000
  H     -2.015600    1.617400    0.199800
  H     -0.239400    2.102200    4.007200
  H      0.857200    1.468800    2.747400
  H      1.076700    3.137200    1.251500
  H      2.589400    4.204900   -0.328900
  H      2.343000    3.825500   -2.762400
  H      0.544300    2.348000   -3.608900
  H     -0.982700    1.227300   -2.039400

 Total Charge           Charge          ....    0
 Multiplicity           Mult            ....    1
 Number of Electrons    NEL             ....  214
 Basis Dimension        Dim             ....  458

ORBITAL ENERGIES
----------------

  NO   OCC          E(Eh)            E(eV)
   0   2.0000     -24.721020      -672.6932
   1   2.0000     -24.720216      -672.6713
   2   2.0000     -24.717775      -672.6049
   3   2.0000     -19.123907      -520.3880
   4   2.0000     -19.101930      -519.7899
   5   2.0000     -14.354264      -390.5994
   6   2.0000     -14.352907      -390.5625
   7   2.0000     -10.294471      -280.1268
   8   2.0000     -10.294270      -280.1213
   9   2.0000     -10.294213      -280.1198
  10   2.0000     -10.291957      -280.0584
  11   2.0000     -10.286839      -279.9191
  12   2.0000     -10.245508      -278.7944
  13   2.0000     -10.241125      -278.6752
  14   2.0000     -10.223351      -278.1915
  15   2.0000     -10.211563      -277.8707
  16   2.0000     -10.209182      -277.8060
  17   2.0000     -10.207737      -277.7666
  18   2.0000     -10.205441      -277.7042
  19   2.0000     -10.202043      -277.6117
  20   2.0000     -10.199648      -277.5465
  21   2.0000     -10.197988      -277.5014
  22   2.0000     -10.197814      -277.4966
  23   2.0000     -10.195883      -277.4441
  24   2.0000     -10.190201      -277.2895
  25   2.0000     -10.189757      -277.2774
  26   2.0000     -10.188903      -277.2541
  27   2.0000     -10.188838      -277.2524
  28   2.0000     -10.187231      -277.2086
  29   2.0000     -10.180930      -277.0372
  30   2.0000      -1.239862       -33.7384
  31   2.0000      -1.232190       -33.5296
  32   2.0000      -1.222134       -33.2560
  33   2.0000      -1.020974       -27.7821
  34   2.0000      -1.001048       -27.2399
  35   2.0000      -0.925802       -25.1923
  36   2.0000      -0.884105       -24.0577
  37   2.0000      -0.877305       -23.8727
  38   2.0000      -0.865843       -23.5608
  39   2.0000      -0.858039       -23.3484
  40   2.0000      -0.803929       -21.8760
  41   2.0000      -0.780655       -21.2427
  42   2.0000      -0.772350       -21.0167
  43   2.0000      -0.765237       -20.8232
  44   2.0000      -0.757235       -20.6054
  45   2.0000      -0.750099       -20.4112
  46   2.0000      -0.738863       -20.1055
  47   2.0000      -0.701596       -19.0914
  48   2.0000      -0.665602       -18.1119
  49   2.0000      -0.649081       -17.6624
  50   2.0000      -0.639866       -17.4116
  51   2.0000      -0.618188       -16.8218
  52   2.0000      -0.616339       -16.7714
  53   2.0000      -0.610479       -16.6120
  54   2.0000      -0.599662       -16.3176
  55   2.0000      -0.577742       -15.7211
  56   2.0000      -0.570072       -15.5125
  57   2.0000      -0.558734       -15.2039
  58   2.0000      -0.548075       -14.9139
  59   2.0000      -0.543632       -14.7930
  60   2.0000      -0.531553       -14.4643
  61   2.0000      -0.526163       -14.3176
  62   2.0000      -0.520086       -14.1523
  63   2.0000      -0.509115       -13.8537
  64   2.0000      -0.497574       -13.5397
  65   2.0000      -0.494156       -13.4467
  66   2.0000      -0.492500       -13.4016
  67   2.0000      -0.474250       -12.9050
  68   2.0000      -0.469728       -12.7820
  69   2.0000      -0.467134       -12.7114
  70   2.0000      -0.461920       -12.5695
  71   2.0000      -0.457465       -12.4482
  72   2.0000      -0.450985       -12.2719
  73   2.0000      -0.448775       -12.2118
  74   2.0000      -0.446608       -12.1528
  75   2.0000      -0.435158       -11.8413
  76   2.0000      -0.434054       -11.8112
  77   2.0000      -0.432712       -11.7747
  78   2.0000      -0.426351       -11.6016
  79   2.0000      -0.425372       -11.5750
  80   2.0000      -0.414487       -11.2788
  81   2.0000      -0.408408       -11.1134
  82   2.0000      -0.402603       -10.9554
  83   2.0000      -0.398613       -10.8468
  84   2.0000      -0.387649       -10.5485
  85   2.0000      -0.385200       -10.4818
  86   2.0000      -0.380391       -10.3510
  87   2.0000      -0.374922       -10.2021
  88   2.0000      -0.372531       -10.1371
  89   2.0000      -0.367163        -9.9910
  90   2.0000      -0.365995        -9.9592
  91   2.0000      -0.362206        -9.8561
  92   2.0000      -0.355888        -9.6842
  93   2.0000      -0.354964        -9.6591
  94   2.0000      -0.349173        -9.5015
  95   2.0000      -0.341071        -9.2810
  96   2.0000      -0.337830        -9.1928
  97   2.0000      -0.276084        -7.5126
  98   2.0000      -0.271948        -7.4001
  99   2.0000      -0.266067        -7.2401
 100   2.0000      -0.263757        -7.1772
 101   2.0000      -0.257950        -7.0192
 102   2.0000      -0.253474        -6.8974
 103   2.0000      -0.248367        -6.7584
 104   2.0000      -0.246014        -6.6944
 105   2.0000      -0.235561        -6.4100
 106   2.0000      -0.220660        -6.0045
 107   0.0000      -0.058005        -1.5784
 108   0.0000      -0.036032        -0.9805
 109   0.0000      -0.029347        -0.7986
 110   0.0000      -0.015294        -0.4162
 111   0.0000      -0.006619        -0.1801

MULLIKEN ATOMIC CHARGES
-----------------------
   0 C :   -0.452773
   1 C :   -0.054688
   2 C :    0.161662
   3 C :   -0.286667
   4 C :    0.360631
   5 F :   -0.306478
   6 C :    0.277090
   7 F :   -0.299791
   8 C :    0.375933
   9 F :   -0.307839
  10 C :   -0.249461
  11 N :   -0.441144
  12 C :    0.433214
  13 O :   -0.422068
  14 C :    0.088141
  15 C :   -0.148513
  16 C :   -0.131053
  17 C :   -0.114899
  18 C :   -0.133246
  19 C :   -0.175098
  20 C :   -0.154455
  21 C :    0.589042
  22 N :   -0.774762
  23 O :   -0.462200
  24 C :    0.132992
  25 C :   -0.175474
  26 C :   -0.132555
  27 C :   -0.123984
  28 C :   -0.126420
  29 C :   -0.170592
  30 H :    0.163932
  31 H :    0.145228
  32 H :    0.157023
  33 H :    0.162593
  34 H :    0.150129
  35 H :    0.155067
  36 H :    0.162726
  37 H :    0.140843
  38 H :    0.138920
  39 H :    0.135568
  40 H :    0.148968
  41 H :    0.208377
  42 H :    0.351031
  43 H :    0.329601
  44 H :    0.136425
  45 H :    0.136052
  46 H :    0.134545
  47 H :    0.133647
  48 H :    0.134778
Sum of atomic charges:    0.0000000

LOEWDIN ATOMIC CHARGES
----------------------
   0 C :   -0.371974
   1 C :   -0.051483
   2 C :   -0.012221
   3 C :   -0.175557
   4 C :    0.098705
   5 F :   -0.091359
   6 C :    0.069672
   7 F :   -0.087168
   8 C :    0.106404
   9 F :   -0.088812
  10 C :   -0.143645
  11 N :   -0.128546
  12 C :    0.145064
  13 O :   -0.230416
  14 C :   -0.054914
  15 C :   -0.092620
  16 C :   -0.126216
  17 C :   -0.111963
  18 C :   -0.130380
  19 C :   -0.122474
  20 C :   -0.061949
  21 C :    0.141155
  22 N :   -0.405367
  23 O :   -0.270583
  24 C :   -0.020982
  25 C :   -0.137098
  26 C :   -0.126695
  27 C :   -0.127889
  28 C :   -0.128173
  29 C :   -0.128308
  30 H :    0.137381
  31 H :    0.126920
  32 H :    0.129116
  33 H :    0.139526
  34 H :    0.145087
  35 H :    0.147504
  36 H :    0.150601
  37 H :    0.137451
  38 H :    0.136253
  39 H :    0.134898
  40 H :    0.134453
  41 H :    0.171325
  42 H :    0.265114
  43 H :    0.240241
  44 H :    0.135822
  45 H :    0.134829
  46 H :    0.134500
  47 H :    0.134013
  48 H :    0.130758

  Mayer bond orders larger than 0.100000
B(  0-C ,  1-C ) :   0.9962 B(  0-C , 30-H ) :   0.9377 B(  0-C , 31-H ) :   0.9370
B(  0-C , 32-H ) :   0.9253 B(  1-C ,  2-C ) :   0.9794 B(  1-C , 11-N ) :   0.9363
B(  1-C , 33-H ) :   0.9076 B(  2-C ,  3-C ) :   1.4011 B(  2-C , 10-C ) :   1.3953
B(  3-C ,  4-C ) :   1.3667 B(  3-C , 34-H ) :   0.9037 B(  4-C ,  5-F ) :   0.9212
B(  4-C ,  6-C ) :   1.2992 B(  6-C ,  7-F ) :   0.9426 B(  6-C ,  8-C ) :   1.2861
B(  8-C ,  9-F ) :   0.9168 B(  8-C , 10-C ) :   1.3845 B( 10-C , 35-H ) :   0.9063
B( 11-N , 12-C ) :   0.9754 B( 11-N , 20-C ) :   0.9479 B( 12-C , 13-O ) :   1.8589
B( 12-C , 14-C ) :   0.9847 B( 14-C , 15-C ) :   1.3957 B( 14-C , 19-C ) :   1.3903
B( 15-C , 16-C ) :   1.4362 B( 15-C , 36-H ) :   0.9148 B( 16-C , 17-C ) :   1.4392
B( 16-C , 37-H ) :   0.9288 B( 17-C , 18-C ) :   1.4494 B( 17-C , 38-H ) :   0.9290
B( 18-C , 19-C ) :   1.4357 B( 18-C , 39-H ) :   0.9293 B( 19-C , 40-H ) :   0.9056
B( 20-C , 21-C ) :   0.8987 B( 20-C , 24-C ) :   0.9440 B( 20-C , 41-H ) :   0.9025
B( 21-C , 22-N ) :   1.0521 B( 21-C , 23-O ) :   1.8600 B( 22-N , 42-H ) :   0.8233
B( 22-N , 43-H ) :   0.8053 B( 24-C , 25-C ) :   1.4378 B( 24-C , 29-C ) :   1.4031
B( 25-C , 26-C ) :   1.4281 B( 25-C , 44-H ) :   0.9081 B( 26-C , 27-C ) :   1.4603
B( 26-C , 45-H ) :   0.9283 B( 27-C , 28-C ) :   1.4420 B( 27-C , 46-H ) :   0.9290
B( 28-C , 29-C ) :   1.4489 B( 28-C , 47-H ) :   0.9288 B( 29-C , 48-H ) :   0.9191

FINAL SINGLE POINT ENERGY     -1446.481134383940

DIPOLE MOMENT
-------------

Method             : SCF
Type of density    : Electron Density
Multiplicity       :   1
Irrep              :   0
Energy             : -1446.4811343839401161 Eh
Relativity type    :
Basis              : AO
                                X                 Y                 Z
Electronic contribution:     24.358628053       7.417008656      -5.113032487
Nuclear contribution   :    -23.373074210      -8.693866109       4.358389629
                        -----------------------------------------
Total Dipole Moment    :      0.985553844      -1.276857453      -0.754642858
                        -----------------------------------------
Magnitude (a.u.)       :      1.780777128
Magnitude (Debye)      :      4.526375742

Rotational constants in cm-1:             0.007673             0.004013             0.003484
Rotational constants in MHz :           230.031065           120.310434           104.456403

                             ****ORCA TERMINATED NORMALLY****
TOTAL RUN TIME: 0 days 0 hours 5 minutes 32 seconds 800 msec
