                         Program Version 6.0.0  -   RELEASE  -
|  1> ! B3LYP 6-31G* SP
|  2>
|  3> * xyz 0 1
|  4> C 8.2610 -1.3064 -2.5895
|  5> C 8.6411 -0.3137 -1.4814
|  6> C 9.2336 -1.0504 -0.2717
|  7> C 7.4370 0.5516 -1.0699
|  8> O 6.3788 -0.2687 -0.5754
|  9> C 5.1381 0.2152 -0.1339
| 10> C 4.8248 1.5878 -0.1113
| 11> C 3.5765 2.0214 0.3477
| 12> C 2.6165 1.0929 0.7950
| 13> C 1.2946 1.5298 1.3149
| 14> C 0.9961 2.8375 1.7141
| 15> S -0.5861 2.8657 2.2837
| 16> C -0.8303 1.2310 1.9964
| 17> N -2.0470 0.5352 2.2983
| 18> C -2.2602 -0.8605 2.0189
| 19> O -1.3408 -1.5613 1.5100
| 20> C -3.5546 -1.5241 2.4016
| 21> C -4.7648 -0.7138 1.9641
| 22> C -5.4314 -0.0045 2.9764
| 23> C -6.5435 0.7712 2.6932
| 24> C -7.0238 0.8594 1.3945
| 25> C -6.3941 0.1706 0.3291
| 26> C -5.2407 -0.6202 0.6092
| 27> C -4.6247 -1.2769 -0.4844
| 28> O -3.6111 -2.0057 -0.3064
| 29> N -5.1181 -1.1340 -1.7526
| 30> C -4.4606 -1.8464 -2.8666
| 31> C -6.2538 -0.4057 -1.9820
| 32> O -6.7236 -0.3449 -3.1549
| 33> N -6.8873 0.2533 -0.9581
| 34> C -8.1025 1.0486 -1.2477
| 35> N 0.2699 0.6458 1.4795
| 36> C 2.9332 -0.2791 0.7528
| 37> C 4.1826 -0.7089 0.2985
| 38> H 7.8352 -0.7628 -3.4638
| 39> H 9.1637 -1.8605 -2.9341
| 40> H 7.5120 -2.0399 -2.2211
| 41> H 9.4237 0.3652 -1.8859
| 42> H 9.5338 -0.3200 0.5111
| 43> H 8.4944 -1.7572 0.1610
| 44> H 10.1379 -1.6225 -0.5777
| 45> H 7.0807 1.1298 -1.9532
| 46> H 7.7522 1.2725 -0.2808
| 47> H 5.5391 2.3282 -0.4448
| 48> H 3.3683 3.0837 0.3391
| 49> H 1.6603 3.6900 1.6970
| 50> H -2.8078 1.0790 2.7619
| 51> H -3.6165 -2.5584 2.0020
| 52> H -3.5432 -1.6579 3.5064
| 53> H -5.0843 -0.0457 4.0026
| 54> H -7.0406 1.3098 3.4910
| 55> H -7.8955 1.4801 1.2447
| 56> H -3.3548 -1.8312 -2.7512
| 57> H -4.8098 -2.9001 -2.8898
| 58> H -4.6715 -1.3716 -3.8493
| 59> H -8.9591 0.6613 -0.6533
| 60> H -7.9196 2.1172 -1.0052
| 61> H -8.4139 1.0105 -2.3131
| 62> H 2.2205 -1.0226 1.0864
| 63> H 4.4104 -1.7688 0.2851
| 64> *
| 65>
| 66>                          ****END OF INPUT****

CARTESIAN COORDINATES (ANGSTROEM)
---------------------------------
  C      8.261000   -1.306400   -2.589500
  C      8.641100   -0.313700   -1.481400
  C      9.233600   -1.050400   -0.271700
  C      7.437000    0.551600   -1.069900
  O      6.378800   -0.268700   -0.575400
  C      5.138100    0.215200   -0.133900
  C      4.824800    1.587800   -0.111300
  C      3.576500    2.021400    0.347700
  C      2.616500    1.092900    0.795000
  C      1.294600    1.529800    1.314900
  C      0.996100    2.837500    1.714100
  S     -0.586100    2.865700    2.283700
  C     -0.830300    1.231000    1.996400
  N     -2.047000    0.535200    2.298300
  C     -2.260200   -0.860500    2.018900
  O     -1.340800   -1.561300    1.510000
  C     -3.554600   -1.524100    2.401600
  C     -4.764800   -0.713800    1.964100
  C     -5.431400   -0.004500    2.976400
  C     -6.543500    0.771200    2.693200
  C     -7.023800    0.859400    1.394500
  C     -6.394100    0.170600    0.329100
  C     -5.240700   -0.620200    0.609200
  C     -4.624700   -1.276900   -0.484400
  O     -3.611100   -2.005700   -0.306400
  N     -5.118100   -1.134000   -1.752600
  C     -4.460600   -1.846400   -2.866600
  C     -6.253800   -0.405700   -1.982000
  O     -6.723600   -0.344900   -3.154900
  N     -6.887300    0.253300   -0.958100
  C     -8.102500    1.048600   -1.247700
  N      0.269900    0.645800    1.479500
  C      2.933200   -0.279100    0.752800
  C      4.182600   -0.708900    0.298500
  H      7.835200   -0.762800   -3.463800
  H      9.163700   -1.860500   -2.934100
  H      7.512000   -2.039900   -2.221100
  H      9.423700    0.365200   -1.885900
  H      9.533800   -0.320000    0.511100
  H      8.494400   -1.757200    0.161000
  H     10.137900   -1.622500   -0.577700
  H      7.080700    1.129800   -1.953200
  H      7.752200    1.272500   -0.280800
  H      5.539100    2.328200   -0.444800
  H      3.368300    3.083700    0.339100
  H      1.660300    3.690000    1.697000
  H     -2.807800    1.079000    2.761900
  H     -3.616500   -2.558400    2.002000
  H     -3.543200   -1.657900    3.506400
  H     -5.084300   -0.045700    4.002600
  H     -7.040600    1.309800    3.491000
  H     -7.895500    1.480100    1.244700
  H     -3.354800   -1.831200   -2.751200
  H     -4.809800   -2.900100   -2.889800
  H     -4.671500   -1.371600   -3.849300
  H     -8.959100    0.661300   -0.653300
  H     -7.919600    2.117200   -1.005200
  H     -8.413900    1.010500   -2.313100
  H      2.220500   -1.022600    1.086400
  H      4.410400   -1.768800    0.285100

 Total Charge           Charge          ....    0
 Multiplicity           Mult            ....    1
 Number of Electrons    NEL             ....  252
 Basis Dimension        Dim             ....  532

ORBITAL ENERGIES
----------------

  NO   OCC          E(Eh)            E(eV)
   0   2.0000     -88.894005     -2418.9289
   1   2.0000     -19.154761      -521.2276
   2   2.0000     -19.109670      -520.0006
   3   2.0000     -19.109579      -519.9981
   4   2.0000     -19.101319      -519.7733
   5   2.0000     -14.404720      -391.9724
   6   2.0000     -14.394930      -391.7060
   7   2.0000     -14.383374      -391.3915
   8   2.0000     -14.313460      -389.4891
   9   2.0000     -10.325754      -280.9781
  10   2.0000     -10.291515      -280.0464
  11   2.0000     -10.290239      -280.0116
  12   2.0000     -10.277661      -279.6694
  13   2.0000     -10.263113      -279.2735
  14   2.0000     -10.236194      -278.5410
  15   2.0000     -10.234231      -278.4876
  16   2.0000     -10.228614      -278.3347
  17   2.0000     -10.227752      -278.3113
  18   2.0000     -10.216753      -278.0120
  19   2.0000     -10.214731      -277.9570
  20   2.0000     -10.213483      -277.9230
  21   2.0000     -10.211700      -277.8745
  22   2.0000     -10.206185      -277.7244
  23   2.0000     -10.200828      -277.5787
  24   2.0000     -10.199024      -277.5296
  25   2.0000     -10.194925      -277.4180
  26   2.0000     -10.183827      -277.1160
  27   2.0000     -10.180317      -277.0205
  28   2.0000     -10.177228      -276.9365
  29   2.0000     -10.171433      -276.7788
  30   2.0000     -10.169025      -276.7132
  31   2.0000     -10.166625      -276.6479
  32   2.0000     -10.161460      -276.5074
  33   2.0000     -10.161325      -276.5037
  34   2.0000      -7.971969      -216.9283
  35   2.0000      -5.935037      -161.5006
  36   2.0000      -5.930974      -161.3900
  37   2.0000      -5.928734      -161.3290
  38   2.0000      -1.067727       -29.0543
  39   2.0000      -1.033189       -28.1145
  40   2.0000      -1.020599       -27.7719
  41   2.0000      -1.004364       -27.3301
  42   2.0000      -0.971653       -26.4400
  43   2.0000      -0.961203       -26.1557
  44   2.0000      -0.937715       -25.5165
  45   2.0000      -0.903188       -24.5770
  46   2.0000      -0.874274       -23.7902
  47   2.0000      -0.839677       -22.8488
  48   2.0000      -0.801595       -21.8125
  49   2.0000      -0.799673       -21.7602
  50   2.0000      -0.794818       -21.6281
  51   2.0000      -0.790153       -21.5012
  52   2.0000      -0.756290       -20.5797
  53   2.0000      -0.746152       -20.3038
  54   2.0000      -0.733321       -19.9547
  55   2.0000      -0.728078       -19.8120
  56   2.0000      -0.711915       -19.3722
  57   2.0000      -0.701913       -19.1000
  58   2.0000      -0.669904       -18.2290
  59   2.0000      -0.668993       -18.2042
  60   2.0000      -0.656129       -17.8542
  61   2.0000      -0.655211       -17.8292
  62   2.0000      -0.618597       -16.8329
  63   2.0000      -0.609601       -16.5881
  64   2.0000      -0.607803       -16.5392
  65   2.0000      -0.589234       -16.0339
  66   2.0000      -0.577114       -15.7041
  67   2.0000      -0.574459       -15.6318
  68   2.0000      -0.551647       -15.0111
  69   2.0000      -0.547595       -14.9008
  70   2.0000      -0.533899       -14.5281
  71   2.0000      -0.519844       -14.1457
  72   2.0000      -0.516061       -14.0427
  73   2.0000      -0.507660       -13.8141
  74   2.0000      -0.502721       -13.6797
  75   2.0000      -0.491274       -13.3682
  76   2.0000      -0.479238       -13.0407
  77   2.0000      -0.474275       -12.9057
  78   2.0000      -0.463690       -12.6176
  79   2.0000      -0.461668       -12.5626
  80   2.0000      -0.459664       -12.5081
  81   2.0000      -0.458870       -12.4865
  82   2.0000      -0.454570       -12.3695
  83   2.0000      -0.447739       -12.1836
  84   2.0000      -0.441068       -12.0021
  85   2.0000      -0.437566       -11.9068
  86   2.0000      -0.429058       -11.6753
  87   2.0000      -0.426635       -11.6093
  88   2.0000      -0.420430       -11.4405
  89   2.0000      -0.418156       -11.3786
  90   2.0000      -0.414089       -11.2679
  91   2.0000      -0.409797       -11.1511
  92   2.0000      -0.405104       -11.0234
  93   2.0000      -0.401741       -10.9319
  94   2.0000      -0.400082       -10.8868
  95   2.0000      -0.393270       -10.7014
  96   2.0000      -0.387906       -10.5555
  97   2.0000      -0.385771       -10.4974
  98   2.0000      -0.384936       -10.4747
  99   2.0000      -0.382352       -10.4043
 100   2.0000      -0.374836       -10.1998
 101   2.0000      -0.371242       -10.1020
 102   2.0000      -0.368519       -10.0279
 103   2.0000      -0.361310        -9.8317
 104   2.0000      -0.360520        -9.8102
 105   2.0000      -0.353491        -9.6190
 106   2.0000      -0.350089        -9.5264
 107   2.0000      -0.342425        -9.3179
 108   2.0000      -0.331957        -9.0330
 109   2.0000      -0.325718        -8.8632
 110   2.0000      -0.324868        -8.8401
 111   2.0000      -0.319958        -8.7065
 112   2.0000      -0.307935        -8.3793
 113   2.0000      -0.297596        -8.0980
 114   2.0000      -0.287711        -7.8290
 115   2.0000      -0.273334        -7.4378
 116   2.0000      -0.271901        -7.3988
 117   2.0000      -0.271473        -7.3872
 118   2.0000      -0.264415        -7.1951
 119   2.0000      -0.262199        -7.1348
 120   2.0000      -0.245456        -6.6792
 121   2.0000      -0.237283        -6.4568
 122   2.0000      -0.235685        -6.4133
 123   2.0000      -0.224611        -6.1120
 124   2.0000      -0.217346        -5.9143
 125   2.0000      -0.188623        -5.1327
 126   0.0000      -0.061371        -1.6700
 127   0.0000      -0.030156        -0.8206
 128   0.0000      -0.018465        -0.5025
 129   0.0000       0.001149         0.0313
 130   0.0000       0.011799         0.3211

MULLIKEN ATOMIC CHARGES
-----------------------
   0 C :   -0.434176
   1 C :   -0.087895
   2 C :   -0.435436
   3 C :   -0.008333
   4 O :   -0.525396
   5 C :    0.379059
   6 C :   -0.211937
   7 C :   -0.177561
   8 C :    0.106949
   9 C :    0.219511
  10 C :   -0.400728
  11 S :    0.229032
  12 C :    0.254333
  13 N :   -0.667661
  14 C :    0.589254
  15 O :   -0.418554
  16 C :   -0.416911
  17 C :    0.086166
  18 C :   -0.216377
  19 C :   -0.104785
  20 C :   -0.198690
  21 C :    0.319487
  22 C :    0.011186
  23 C :    0.500699
  24 O :   -0.473085
  25 N :   -0.463782
  26 C :   -0.316899
  27 C :    0.671732
  28 O :   -0.509438
  29 N :   -0.510960
  30 C :   -0.336162
  31 N :   -0.373199
  32 C :   -0.169507
  33 C :   -0.180820
  34 H :    0.133912
  35 H :    0.135636
  36 H :    0.161536
  37 H :    0.125436
  38 H :    0.133288
  39 H :    0.161091
  40 H :    0.136401
  41 H :    0.126541
  42 H :    0.125499
  43 H :    0.129524
  44 H :    0.121811
  45 H :    0.175672
  46 H :    0.338084
  47 H :    0.218895
  48 H :    0.164105
  49 H :    0.136239
  50 H :    0.144640
  51 H :    0.143126
  52 H :    0.201034
  53 H :    0.177613
  54 H :    0.197526
  55 H :    0.171545
  56 H :    0.171877
  57 H :    0.225574
  58 H :    0.176968
  59 H :    0.137311
Sum of atomic charges:   -0.0000000

LOEWDIN ATOMIC CHARGES
----------------------
   0 C :   -0.353692
   1 C :   -0.133229
   2 C :   -0.354393
   3 C :   -0.082059
   4 O :   -0.189310
   5 C :    0.090159
   6 C :   -0.175565
   7 C :   -0.120003
   8 C :   -0.036986
   9 C :    0.001549
  10 C :   -0.358084
  11 S :    0.372370
  12 C :   -0.082189
  13 N :   -0.213767
  14 C :    0.156824
  15 O :   -0.229224
  16 C :   -0.236601
  17 C :    0.026603
  18 C :   -0.164922
  19 C :   -0.102166
  20 C :   -0.165792
  21 C :    0.055252
  22 C :   -0.072217
  23 C :    0.111364
  24 O :   -0.266833
  25 N :   -0.020664
  26 C :   -0.258880
  27 C :    0.137735
  28 O :   -0.319024
  29 N :   -0.028105
  30 C :   -0.265174
  31 N :   -0.151777
  32 C :   -0.103173
  33 C :   -0.148635
  34 H :    0.119690
  35 H :    0.120580
  36 H :    0.131822
  37 H :    0.121345
  38 H :    0.119205
  39 H :    0.131577
  40 H :    0.121037
  41 H :    0.108491
  42 H :    0.107971
  43 H :    0.133539
  44 H :    0.129024
  45 H :    0.157507
  46 H :    0.261416
  47 H :    0.174495
  48 H :    0.141350
  49 H :    0.134229
  50 H :    0.140265
  51 H :    0.141209
  52 H :    0.154986
  53 H :    0.140909
  54 H :    0.154016
  55 H :    0.135157
  56 H :    0.134981
  57 H :    0.168840
  58 H :    0.156596
  59 H :    0.140371

  Mayer bond orders larger than 0.100000
B(  0-C ,  1-C ) :   1.0087 B(  0-C , 34-H ) :   0.9498 B(  0-C , 35-H ) :   0.9497
B(  0-C , 36-H ) :   0.9430 B(  1-C ,  2-C ) :   1.0094 B(  1-C ,  3-C ) :   0.9977
B(  1-C , 37-H ) :   0.9298 B(  2-C , 38-H ) :   0.9497 B(  2-C , 39-H ) :   0.9432
B(  2-C , 40-H ) :   0.9500 B(  3-C ,  4-O ) :   0.8952 B(  3-C , 41-H ) :   0.9195
B(  3-C , 42-H ) :   0.9196 B(  4-O ,  5-C ) :   0.9148 B(  5-C ,  6-C ) :   1.3616
B(  5-C , 33-C ) :   1.3907 B(  6-C ,  7-C ) :   1.4300 B(  6-C , 43-H ) :   0.9185
B(  7-C ,  8-C ) :   1.4072 B(  7-C , 44-H ) :   0.9212 B(  8-C ,  9-C ) :   1.0522
B(  8-C , 32-C ) :   1.3902 B(  9-C , 10-C ) :   1.5119 B(  9-C , 31-N ) :   1.2616
B( 10-C , 11-S ) :   1.1049 B( 10-C , 12-C ) :   0.1110 B( 10-C , 45-H ) :   0.9033
B( 11-S , 12-C ) :   1.1357 B( 12-C , 13-N ) :   0.9526 B( 12-C , 31-N ) :   1.5144
B( 13-N , 14-C ) :   0.9720 B( 13-N , 46-H ) :   0.8112 B( 14-C , 15-O ) :   1.8886
B( 14-C , 16-C ) :   0.9534 B( 16-C , 17-C ) :   0.9777 B( 16-C , 47-H ) :   0.8955
B( 16-C , 48-H ) :   0.9129 B( 17-C , 18-C ) :   1.4183 B( 17-C , 22-C ) :   1.3636
B( 18-C , 19-C ) :   1.4003 B( 18-C , 49-H ) :   0.9239 B( 19-C , 20-C ) :   1.4735
B( 19-C , 50-H ) :   0.9258 B( 20-C , 21-C ) :   1.3397 B( 20-C , 51-H ) :   0.9142
B( 21-C , 22-C ) :   1.2889 B( 21-C , 29-N ) :   0.9745 B( 22-C , 23-C ) :   1.0538
B( 23-C , 24-O ) :   1.7673 B( 23-C , 25-N ) :   0.9929 B( 25-N , 26-C ) :   0.9149
B( 25-N , 27-C ) :   1.0433 B( 26-C , 52-H ) :   0.9243 B( 26-C , 53-H ) :   0.9404
B( 26-C , 54-H ) :   0.9235 B( 27-C , 28-O ) :   1.7867 B( 27-C , 29-N ) :   1.0389
B( 29-N , 30-C ) :   0.9338 B( 30-C , 55-H ) :   0.9318 B( 30-C , 56-H ) :   0.9322
B( 30-C , 57-H ) :   0.9134 B( 32-C , 33-C ) :   1.4329 B( 32-C , 58-H ) :   0.9079
B( 33-C , 59-H ) :   0.9211

FINAL SINGLE POINT ENERGY     -1885.461002716463

DIPOLE MOMENT
-------------

Method             : SCF
Type of density    : Electron Density
Multiplicity       :   1
Irrep              :   0
Energy             : -1885.4610027164633266 Eh
Relativity type    :
Basis              : AO
                                X                 Y                 Z
Electronic contribution:    -43.635039036       7.108376144      14.821882454
Nuclear contribution   :     41.975476169      -5.245061644     -13.723220771
                        -----------------------------------------
Total Dipole Moment    :     -1.659562867       1.863314500       1.098661683
                        -----------------------------------------
Magnitude (a.u.)       :      2.726379895
Magnitude (Debye)      :      6.929906964

Rotational constants in cm-1:             0.007392             0.001257             0.001167
Rotational constants in MHz :           221.593698            37.698323            34.977153

                             ****ORCA TERMINATED NORMALLY****
TOTAL RUN TIME: 0 days 0 hours 4 minutes 54 seconds 211 msec
