                         Program Version 6.0.0  -   RELEASE  -
|  1> ! B3LYP 6-31G* SP
|  2>
|  3> * xyz 0 1
|  4> C -4.6500 3.2626 1.6386
|  5> N -4.4006 1.9793 0.9917
|  6> N -5.1229 1.5281 -0.0285
|  7> C -4.5999 0.3338 -0.3667
|  8> C -3.5479 0.0222 0.4346
|  9> C -3.4300 1.0846 1.3124
| 10> C -2.3683 1.2858 2.3585
| 11> C -1.1105 1.7975 1.7231
| 12> O -1.0881 2.9720 1.2661
| 13> N 0.0522 0.9575 1.6442
| 14> C 1.1773 1.2049 0.7892
| 15> N 2.2912 0.4441 0.8216
| 16> C 3.2120 0.8299 -0.1069
| 17> C 4.5185 0.1318 -0.2362
| 18> C 5.3502 0.3255 -1.3549
| 19> C 6.5738 -0.3422 -1.4576
| 20> C 6.9956 -1.2221 -0.4459
| 21> C 8.3148 -1.9513 -0.5393
| 22> F 8.0898 -3.3159 -0.5229
| 23> F 9.1072 -1.6114 0.5421
| 24> F 8.9972 -1.6325 -1.7008
| 25> C 6.1645 -1.4226 0.6698
| 26> F 6.5391 -2.2670 1.6644
| 27> C 4.9403 -0.7547 0.7706
| 28> C 2.8156 1.9171 -0.8941
| 29> S 1.2769 2.3857 -0.4053
| 30> C -2.8489 -1.1606 0.2422
| 31> O -1.8570 -1.4414 0.9687
| 32> N -3.2676 -2.0125 -0.7548
| 33> C -2.5351 -3.2664 -0.9997
| 34> C -4.3309 -1.6627 -1.5714
| 35> O -4.6904 -2.4397 -2.5011
| 36> N -5.0024 -0.4736 -1.3851
| 37> C -6.1548 -0.1152 -2.2229
| 38> H -5.4829 3.7931 1.1303
| 39> H -4.9271 3.0995 2.7013
| 40> H -3.7398 3.8956 1.5840
| 41> H -2.7118 2.0113 3.1246
| 42> H -2.1807 0.3275 2.8861
| 43> H 0.0785 0.0919 2.2281
| 44> H 5.0581 0.9790 -2.1643
| 45> H 7.1850 -0.1684 -2.3338
| 46> H 4.3261 -0.9282 1.6453
| 47> H 3.3862 2.4000 -1.6741
| 48> H -1.7268 -3.0863 -1.7390
| 49> H -2.0894 -3.6639 -0.0630
| 50> H -3.2114 -4.0589 -1.3843
| 51> H -7.0527 -0.6684 -1.8760
| 52> H -5.9565 -0.3692 -3.2860
| 53> H -6.3657 0.9747 -2.1827
| 54> *
| 55>
| 56>                          ****END OF INPUT****

CARTESIAN COORDINATES (ANGSTROEM)
---------------------------------
  C     -4.650000    3.262600    1.638600
  N     -4.400600    1.979300    0.991700
  N     -5.122900    1.528100   -0.028500
  C     -4.599900    0.333800   -0.366700
  C     -3.547900    0.022200    0.434600
  C     -3.430000    1.084600    1.312400
  C     -2.368300    1.285800    2.358500
  C     -1.110500    1.797500    1.723100
  O     -1.088100    2.972000    1.266100
  N      0.052200    0.957500    1.644200
  C      1.177300    1.204900    0.789200
  N      2.291200    0.444100    0.821600
  C      3.212000    0.829900   -0.106900
  C      4.518500    0.131800   -0.236200
  C      5.350200    0.325500   -1.354900
  C      6.573800   -0.342200   -1.457600
  C      6.995600   -1.222100   -0.445900
  C      8.314800   -1.951300   -0.539300
  F      8.089800   -3.315900   -0.522900
  F      9.107200   -1.611400    0.542100
  F      8.997200   -1.632500   -1.700800
  C      6.164500   -1.422600    0.669800
  F      6.539100   -2.267000    1.664400
  C      4.940300   -0.754700    0.770600
  C      2.815600    1.917100   -0.894100
  S      1.276900    2.385700   -0.405300
  C     -2.848900   -1.160600    0.242200
  O     -1.857000   -1.441400    0.968700
  N     -3.267600   -2.012500   -0.754800
  C     -2.535100   -3.266400   -0.999700
  C     -4.330900   -1.662700   -1.571400
  O     -4.690400   -2.439700   -2.501100
  N     -5.002400   -0.473600   -1.385100
  C     -6.154800   -0.115200   -2.222900
  H     -5.482900    3.793100    1.130300
  H     -4.927100    3.099500    2.701300
  H     -3.739800    3.895600    1.584000
  H     -2.711800    2.011300    3.124600
  H     -2.180700    0.327500    2.886100
  H      0.078500    0.091900    2.228100
  H      5.058100    0.979000   -2.164300
  H      7.185000   -0.168400   -2.333800
  H      4.326100   -0.928200    1.645300
  H      3.386200    2.400000   -1.674100
  H     -1.726800   -3.086300   -1.739000
  H     -2.089400   -3.663900   -0.063000
  H     -3.211400   -4.058900   -1.384300
  H     -7.052700   -0.668400   -1.876000
  H     -5.956500   -0.369200   -3.286000
  H     -6.365700    0.974700   -2.182700

 Total Charge           Charge          ....    0
 Multiplicity           Mult            ....    1
 Number of Electrons    NEL             ....  254
 Basis Dimension        Dim             ....  512

ORBITAL ENERGIES
----------------

  NO   OCC          E(Eh)            E(eV)
   0   2.0000     -88.908888     -2419.3338
   1   2.0000     -24.717621      -672.6007
   2   2.0000     -24.709170      -672.3707
   3   2.0000     -24.709014      -672.3665
   4   2.0000     -24.707302      -672.3199
   5   2.0000     -19.144520      -520.9489
   6   2.0000     -19.116327      -520.1817
   7   2.0000     -19.110829      -520.0321
   8   2.0000     -14.440473      -392.9453
   9   2.0000     -14.400267      -391.8512
  10   2.0000     -14.398495      -391.8030
  11   2.0000     -14.397538      -391.7769
  12   2.0000     -14.357112      -390.6769
  13   2.0000     -14.336017      -390.1029
  14   2.0000     -10.431794      -283.8635
  15   2.0000     -10.326887      -281.0089
  16   2.0000     -10.323945      -280.9288
  17   2.0000     -10.297814      -280.2178
  18   2.0000     -10.296002      -280.1684
  19   2.0000     -10.283798      -279.8364
  20   2.0000     -10.257950      -279.1330
  21   2.0000     -10.253805      -279.0202
  22   2.0000     -10.245698      -278.7996
  23   2.0000     -10.232901      -278.4514
  24   2.0000     -10.230227      -278.3786
  25   2.0000     -10.225495      -278.2499
  26   2.0000     -10.219824      -278.0955
  27   2.0000     -10.216571      -278.0070
  28   2.0000     -10.214587      -277.9530
  29   2.0000     -10.213636      -277.9272
  30   2.0000     -10.206413      -277.7306
  31   2.0000     -10.197669      -277.4927
  32   2.0000     -10.195712      -277.4394
  33   2.0000     -10.192262      -277.3455
  34   2.0000      -7.985205      -217.2885
  35   2.0000      -5.948318      -161.8620
  36   2.0000      -5.944058      -161.7460
  37   2.0000      -5.942200      -161.6955
  38   2.0000      -1.273528       -34.6545
  39   2.0000      -1.219588       -33.1867
  40   2.0000      -1.199832       -32.6491
  41   2.0000      -1.195572       -32.5332
  42   2.0000      -1.087567       -29.5942
  43   2.0000      -1.062300       -28.9067
  44   2.0000      -1.044798       -28.4304
  45   2.0000      -1.023000       -27.8372
  46   2.0000      -0.983533       -26.7633
  47   2.0000      -0.969573       -26.3834
  48   2.0000      -0.940482       -25.5918
  49   2.0000      -0.922073       -25.0909
  50   2.0000      -0.874246       -23.7894
  51   2.0000      -0.860286       -23.4096
  52   2.0000      -0.843633       -22.9564
  53   2.0000      -0.816197       -22.2098
  54   2.0000      -0.799310       -21.7503
  55   2.0000      -0.781299       -21.2602
  56   2.0000      -0.758633       -20.6435
  57   2.0000      -0.750208       -20.4142
  58   2.0000      -0.734735       -19.9932
  59   2.0000      -0.727608       -19.7992
  60   2.0000      -0.715206       -19.4617
  61   2.0000      -0.688818       -18.7437
  62   2.0000      -0.657491       -17.8912
  63   2.0000      -0.649918       -17.6852
  64   2.0000      -0.640183       -17.4203
  65   2.0000      -0.631914       -17.1952
  66   2.0000      -0.622851       -16.9486
  67   2.0000      -0.603033       -16.4094
  68   2.0000      -0.587762       -15.9938
  69   2.0000      -0.573760       -15.6128
  70   2.0000      -0.566618       -15.4185
  71   2.0000      -0.562985       -15.3196
  72   2.0000      -0.562941       -15.3184
  73   2.0000      -0.562413       -15.3040
  74   2.0000      -0.543821       -14.7981
  75   2.0000      -0.527385       -14.3509
  76   2.0000      -0.525668       -14.3041
  77   2.0000      -0.515022       -14.0145
  78   2.0000      -0.505274       -13.7492
  79   2.0000      -0.500387       -13.6162
  80   2.0000      -0.498664       -13.5693
  81   2.0000      -0.487176       -13.2567
  82   2.0000      -0.486192       -13.2300
  83   2.0000      -0.483416       -13.1544
  84   2.0000      -0.465168       -12.6579
  85   2.0000      -0.464847       -12.6491
  86   2.0000      -0.457650       -12.4533
  87   2.0000      -0.453619       -12.3436
  88   2.0000      -0.450324       -12.2539
  89   2.0000      -0.446493       -12.1497
  90   2.0000      -0.441007       -12.0004
  91   2.0000      -0.440332       -11.9820
  92   2.0000      -0.438942       -11.9442
  93   2.0000      -0.432495       -11.7688
  94   2.0000      -0.428325       -11.6553
  95   2.0000      -0.426087       -11.5944
  96   2.0000      -0.422049       -11.4845
  97   2.0000      -0.419355       -11.4112
  98   2.0000      -0.416084       -11.3222
  99   2.0000      -0.411046       -11.1851
 100   2.0000      -0.410443       -11.1687
 101   2.0000      -0.405279       -11.0282
 102   2.0000      -0.398556       -10.8453
 103   2.0000      -0.397860       -10.8263
 104   2.0000      -0.393311       -10.7025
 105   2.0000      -0.390838       -10.6353
 106   2.0000      -0.389258       -10.5923
 107   2.0000      -0.381475       -10.3805
 108   2.0000      -0.378816       -10.3081
 109   2.0000      -0.374318       -10.1857
 110   2.0000      -0.367670       -10.0048
 111   2.0000      -0.366143        -9.9633
 112   2.0000      -0.347969        -9.4687
 113   2.0000      -0.326817        -8.8932
 114   2.0000      -0.320756        -8.7282
 115   2.0000      -0.307248        -8.3606
 116   2.0000      -0.299900        -8.1607
 117   2.0000      -0.283560        -7.7161
 118   2.0000      -0.280331        -7.6282
 119   2.0000      -0.274676        -7.4743
 120   2.0000      -0.268050        -7.2940
 121   2.0000      -0.263025        -7.1573
 122   2.0000      -0.261860        -7.1256
 123   2.0000      -0.255403        -6.9499
 124   2.0000      -0.251994        -6.8571
 125   2.0000      -0.227753        -6.1975
 126   2.0000      -0.219455        -5.9717
 127   0.0000      -0.052939        -1.4405
 128   0.0000      -0.045804        -1.2464
 129   0.0000      -0.033139        -0.9018
 130   0.0000      -0.010990        -0.2991
 131   0.0000       0.011383         0.3097

MULLIKEN ATOMIC CHARGES
-----------------------
   0 C :   -0.342472
   1 N :   -0.246211
   2 N :   -0.343104
   3 C :    0.462296
   4 C :   -0.055189
   5 C :    0.311249
   6 C :   -0.431670
   7 C :    0.580579
   8 O :   -0.463584
   9 N :   -0.628524
  10 C :    0.263680
  11 N :   -0.429169
  12 C :    0.212700
  13 C :    0.143159
  14 C :   -0.183047
  15 C :   -0.160608
  16 C :   -0.113112
  17 C :    0.918118
  18 F :   -0.299003
  19 F :   -0.299221
  20 F :   -0.307161
  21 C :    0.391764
  22 F :   -0.301839
  23 C :   -0.258446
  24 C :   -0.400147
  25 S :    0.319934
  26 C :    0.513408
  27 O :   -0.523099
  28 N :   -0.488163
  29 C :   -0.315287
  30 C :    0.677176
  31 O :   -0.506857
  32 N :   -0.493848
  33 C :   -0.322776
  34 H :    0.202244
  35 H :    0.176618
  36 H :    0.211367
  37 H :    0.183045
  38 H :    0.192913
  39 H :    0.372757
  40 H :    0.133695
  41 H :    0.159932
  42 H :    0.171938
  43 H :    0.184419
  44 H :    0.178639
  45 H :    0.192741
  46 H :    0.195738
  47 H :    0.176457
  48 H :    0.193498
  49 H :    0.192473
Sum of atomic charges:    0.0000000

LOEWDIN ATOMIC CHARGES
----------------------
   0 C :   -0.273095
   1 N :    0.081636
   2 N :   -0.169726
   3 C :    0.028005
   4 C :   -0.119059
   5 C :    0.036250
   6 C :   -0.245297
   7 C :    0.157312
   8 O :   -0.269508
   9 N :   -0.185898
  10 C :   -0.075485
  11 N :   -0.180893
  12 C :   -0.007933
  13 C :    0.002004
  14 C :   -0.134114
  15 C :   -0.108847
  16 C :   -0.100964
  17 C :    0.313405
  18 F :   -0.112349
  19 F :   -0.112433
  20 F :   -0.112369
  21 C :    0.135023
  22 F :   -0.093231
  23 C :   -0.141651
  24 C :   -0.343715
  25 S :    0.429563
  26 C :    0.116874
  27 O :   -0.314777
  28 N :   -0.031101
  29 C :   -0.260132
  30 C :    0.145042
  31 O :   -0.313519
  32 N :   -0.025758
  33 C :   -0.258470
  34 H :    0.159353
  35 H :    0.139308
  36 H :    0.156956
  37 H :    0.155788
  38 H :    0.157689
  39 H :    0.285922
  40 H :    0.135416
  41 H :    0.148175
  42 H :    0.159763
  43 H :    0.162089
  44 H :    0.140447
  45 H :    0.151405
  46 H :    0.152863
  47 H :    0.138309
  48 H :    0.151065
  49 H :    0.150661

  Mayer bond orders larger than 0.100000
B(  0-C ,  1-N ) :   0.9236 B(  0-C , 34-H ) :   0.9327 B(  0-C , 35-H ) :   0.9330
B(  0-C , 36-H ) :   0.9159 B(  1-N ,  2-N ) :   1.1910 B(  1-N ,  4-C ) :   0.1089
B(  1-N ,  5-C ) :   1.1402 B(  2-N ,  3-C ) :   1.3850 B(  3-C ,  4-C ) :   1.2933
B(  3-C , 32-N ) :   0.9575 B(  4-C ,  5-C ) :   1.3724 B(  4-C , 26-C ) :   1.0774
B(  5-C ,  6-C ) :   1.0055 B(  6-C ,  7-C ) :   0.9412 B(  6-C , 37-H ) :   0.9081
B(  6-C , 38-H ) :   0.9036 B(  7-C ,  8-O ) :   1.8040 B(  7-C ,  9-N ) :   1.0534
B(  9-N , 10-C ) :   0.9497 B(  9-N , 39-H ) :   0.7952 B( 10-C , 11-N ) :   1.4803
B( 10-C , 24-C ) :   0.1061 B( 10-C , 25-S ) :   1.1781 B( 11-N , 12-C ) :   1.2900
B( 12-C , 13-C ) :   1.0583 B( 12-C , 24-C ) :   1.5140 B( 13-C , 14-C ) :   1.4007
B( 13-C , 23-C ) :   1.3661 B( 14-C , 15-C ) :   1.4340 B( 14-C , 40-H ) :   0.9197
B( 15-C , 16-C ) :   1.4043 B( 15-C , 41-H ) :   0.9179 B( 16-C , 17-C ) :   0.9678
B( 16-C , 21-C ) :   1.3220 B( 17-C , 18-F ) :   0.9717 B( 17-C , 19-F ) :   0.9713
B( 17-C , 20-F ) :   0.9448 B( 21-C , 22-F ) :   0.9480 B( 21-C , 23-C ) :   1.3599
B( 23-C , 42-H ) :   0.9024 B( 24-C , 25-S ) :   1.1155 B( 24-C , 43-H ) :   0.9007
B( 26-C , 27-O ) :   1.7509 B( 26-C , 28-N ) :   0.9895 B( 28-N , 29-C ) :   0.9184
B( 28-N , 30-C ) :   1.0193 B( 29-C , 44-H ) :   0.9407 B( 29-C , 45-H ) :   0.9249
B( 29-C , 46-H ) :   0.9261 B( 30-C , 31-O ) :   1.7935 B( 30-C , 32-N ) :   1.0659
B( 32-N , 33-C ) :   0.9321 B( 33-C , 47-H ) :   0.9391 B( 33-C , 48-H ) :   0.9297
B( 33-C , 49-H ) :   0.9247

FINAL SINGLE POINT ENERGY     -2122.534275155562

DIPOLE MOMENT
-------------

Method             : SCF
Type of density    : Electron Density
Multiplicity       :   1
Irrep              :   0
Energy             : -2122.5342751555617724 Eh
Relativity type    :
Basis              : AO
                                X                 Y                 Z
Electronic contribution:     63.115170803     -12.284438502       1.805323753
Nuclear contribution   :    -65.211704930      13.906025014      -1.193931482
                        -----------------------------------------
Total Dipole Moment    :     -2.096534128       1.621586512       0.611392270
                        -----------------------------------------
Magnitude (a.u.)       :      2.720073284
Magnitude (Debye)      :      6.913876834

Rotational constants in cm-1:             0.007633             0.001317             0.001216
Rotational constants in MHz :           228.820090            39.490571            36.467152

                             ****ORCA TERMINATED NORMALLY****
TOTAL RUN TIME: 0 days 0 hours 5 minutes 4 seconds 924 msec
