                         Program Version 6.0.0  -   RELEASE  -
|  1> ! B3LYP 6-31G* SP
|  2>
|  3> * xyz 0 1
|  4> N -3.4289 2.5089 -1.9063
|  5> C -2.4661 1.4554 -2.0202
|  6> O -2.7071 0.4982 -2.8006
|  7> C -1.1092 1.5579 -1.3510
|  8> C -1.1270 2.3719 -0.0693
|  9> C -2.0786 2.1289 0.9409
| 10> C -2.0322 2.8419 2.1424
| 11> C -1.0353 3.7969 2.3525
| 12> C -0.0823 4.0416 1.3616
| 13> C -0.1221 3.3292 0.1602
| 14> N -0.4908 0.2382 -1.0946
| 15> C -1.2268 -0.8105 -0.3491
| 16> C -0.5976 -2.1854 -0.4848
| 17> C -0.0587 -2.8107 0.6573
| 18> C 0.5747 -4.0506 0.5565
| 19> C 0.6650 -4.6911 -0.6793
| 20> C 0.1177 -4.0947 -1.8178
| 21> C -0.5129 -2.8488 -1.7299
| 22> Cl -1.1671 -2.1495 -3.2039
| 23> C 0.9364 0.1394 -1.2876
| 24> O 1.4185 0.3790 -2.4281
| 25> C 1.8456 -0.2407 -0.1832
| 26> C 3.0039 -0.9897 -0.4528
| 27> C 3.8417 -1.3929 0.5910
| 28> C 3.5393 -1.0399 1.9095
| 29> C 2.3992 -0.2815 2.1852
| 30> C 1.5593 0.1241 1.1444
| 31> H -3.2211 3.3855 -1.3785
| 32> H -4.3555 2.4258 -2.3813
| 33> H -0.4891 2.1035 -2.0968
| 34> H -2.8526 1.3835 0.8024
| 35> H -2.7664 2.6488 2.9138
| 36> H -1.0005 4.3458 3.2840
| 37> H 0.6922 4.7779 1.5268
| 38> H 0.6376 3.5186 -0.5883
| 39> H -2.2748 -0.8795 -0.7050
| 40> H -1.2850 -0.5216 0.7216
| 41> H -0.1084 -2.3294 1.6274
| 42> H 1.0029 -4.5125 1.4378
| 43> H 1.1617 -5.6500 -0.7560
| 44> H 0.1925 -4.6010 -2.7720
| 45> H 3.2453 -1.2829 -1.4659
| 46> H 4.7256 -1.9821 0.3807
| 47> H 4.1858 -1.3581 2.7173
| 48> H 2.1651 -0.0101 3.2073
| 49> H 0.6859 0.7124 1.3819
| 50> *
| 51>
| 52>                          ****END OF INPUT****

CARTESIAN COORDINATES (ANGSTROEM)
---------------------------------
  N     -3.428900    2.508900   -1.906300
  C     -2.466100    1.455400   -2.020200
  O     -2.707100    0.498200   -2.800600
  C     -1.109200    1.557900   -1.351000
  C     -1.127000    2.371900   -0.069300
  C     -2.078600    2.128900    0.940900
  C     -2.032200    2.841900    2.142400
  C     -1.035300    3.796900    2.352500
  C     -0.082300    4.041600    1.361600
  C     -0.122100    3.329200    0.160200
  N     -0.490800    0.238200   -1.094600
  C     -1.226800   -0.810500   -0.349100
  C     -0.597600   -2.185400   -0.484800
  C     -0.058700   -2.810700    0.657300
  C      0.574700   -4.050600    0.556500
  C      0.665000   -4.691100   -0.679300
  C      0.117700   -4.094700   -1.817800
  C     -0.512900   -2.848800   -1.729900
  Cl    -1.167100   -2.149500   -3.203900
  C      0.936400    0.139400   -1.287600
  O      1.418500    0.379000   -2.428100
  C      1.845600   -0.240700   -0.183200
  C      3.003900   -0.989700   -0.452800
  C      3.841700   -1.392900    0.591000
  C      3.539300   -1.039900    1.909500
  C      2.399200   -0.281500    2.185200
  C      1.559300    0.124100    1.144400
  H     -3.221100    3.385500   -1.378500
  H     -4.355500    2.425800   -2.381300
  H     -0.489100    2.103500   -2.096800
  H     -2.852600    1.383500    0.802400
  H     -2.766400    2.648800    2.913800
  H     -1.000500    4.345800    3.284000
  H      0.692200    4.777900    1.526800
  H      0.637600    3.518600   -0.588300
  H     -2.274800   -0.879500   -0.705000
  H     -1.285000   -0.521600    0.721600
  H     -0.108400   -2.329400    1.627400
  H      1.002900   -4.512500    1.437800
  H      1.161700   -5.650000   -0.756000
  H      0.192500   -4.601000   -2.772000
  H      3.245300   -1.282900   -1.465900
  H      4.725600   -1.982100    0.380700
  H      4.185800   -1.358100    2.717300
  H      2.165100   -0.010100    3.207300
  H      0.685900    0.712400    1.381900

 Total Charge           Charge          ....    0
 Multiplicity           Mult            ....    1
 Number of Electrons    NEL             ....  198
 Basis Dimension        Dim             ....  420

ORBITAL ENERGIES
----------------

  NO   OCC          E(Eh)            E(eV)
   0   2.0000    -101.501800     -2762.0044
   1   2.0000     -19.112652      -520.0817
   2   2.0000     -19.105000      -519.8735
   3   2.0000     -14.352280      -390.5454
   4   2.0000     -14.341150      -390.2425
   5   2.0000     -10.290007      -280.0053
   6   2.0000     -10.283033      -279.8155
   7   2.0000     -10.238012      -278.5905
   8   2.0000     -10.234350      -278.4908
   9   2.0000     -10.217198      -278.0241
  10   2.0000     -10.201815      -277.6055
  11   2.0000     -10.198266      -277.5089
  12   2.0000     -10.194351      -277.4024
  13   2.0000     -10.193881      -277.3896
  14   2.0000     -10.193324      -277.3745
  15   2.0000     -10.192948      -277.3642
  16   2.0000     -10.192446      -277.3505
  17   2.0000     -10.191936      -277.3367
  18   2.0000     -10.188525      -277.2439
  19   2.0000     -10.187442      -277.2144
  20   2.0000     -10.186065      -277.1769
  21   2.0000     -10.185390      -277.1586
  22   2.0000     -10.184870      -277.1444
  23   2.0000     -10.184708      -277.1400
  24   2.0000     -10.183919      -277.1185
  25   2.0000     -10.183363      -277.1034
  26   2.0000     -10.180055      -277.0134
  27   2.0000      -9.433159      -256.6893
  28   2.0000      -7.196481      -195.8262
  29   2.0000      -7.186856      -195.5643
  30   2.0000      -7.186124      -195.5444
  31   2.0000      -1.010832       -27.5061
  32   2.0000      -1.003550       -27.3080
  33   2.0000      -0.915257       -24.9054
  34   2.0000      -0.877731       -23.8843
  35   2.0000      -0.870610       -23.6905
  36   2.0000      -0.858342       -23.3567
  37   2.0000      -0.853076       -23.2134
  38   2.0000      -0.817048       -22.2330
  39   2.0000      -0.785904       -21.3855
  40   2.0000      -0.760201       -20.6861
  41   2.0000      -0.753913       -20.5150
  42   2.0000      -0.753534       -20.5047
  43   2.0000      -0.745226       -20.2786
  44   2.0000      -0.723407       -19.6849
  45   2.0000      -0.706840       -19.2341
  46   2.0000      -0.676065       -18.3967
  47   2.0000      -0.627850       -17.0847
  48   2.0000      -0.617069       -16.7913
  49   2.0000      -0.605894       -16.4872
  50   2.0000      -0.603622       -16.4254
  51   2.0000      -0.601249       -16.3608
  52   2.0000      -0.582787       -15.8584
  53   2.0000      -0.573139       -15.5959
  54   2.0000      -0.544297       -14.8111
  55   2.0000      -0.526716       -14.3327
  56   2.0000      -0.522618       -14.2212
  57   2.0000      -0.517705       -14.0875
  58   2.0000      -0.494873       -13.4662
  59   2.0000      -0.485213       -13.2033
  60   2.0000      -0.478758       -13.0277
  61   2.0000      -0.474647       -12.9158
  62   2.0000      -0.466000       -12.6805
  63   2.0000      -0.459918       -12.5150
  64   2.0000      -0.451042       -12.2735
  65   2.0000      -0.448962       -12.2169
  66   2.0000      -0.441876       -12.0241
  67   2.0000      -0.438135       -11.9223
  68   2.0000      -0.430533       -11.7154
  69   2.0000      -0.423021       -11.5110
  70   2.0000      -0.418438       -11.3863
  71   2.0000      -0.416067       -11.3218
  72   2.0000      -0.408541       -11.1170
  73   2.0000      -0.404391       -11.0040
  74   2.0000      -0.397907       -10.8276
  75   2.0000      -0.386110       -10.5066
  76   2.0000      -0.381418       -10.3789
  77   2.0000      -0.372731       -10.1425
  78   2.0000      -0.366894        -9.9837
  79   2.0000      -0.361283        -9.8310
  80   2.0000      -0.358758        -9.7623
  81   2.0000      -0.354108        -9.6358
  82   2.0000      -0.348279        -9.4771
  83   2.0000      -0.346757        -9.4357
  84   2.0000      -0.345295        -9.3960
  85   2.0000      -0.342636        -9.3236
  86   2.0000      -0.335120        -9.1191
  87   2.0000      -0.311080        -8.4649
  88   2.0000      -0.285137        -7.7590
  89   2.0000      -0.265479        -7.2240
  90   2.0000      -0.263526        -7.1709
  91   2.0000      -0.260130        -7.0785
  92   2.0000      -0.253880        -6.9084
  93   2.0000      -0.252023        -6.8579
  94   2.0000      -0.241210        -6.5637
  95   2.0000      -0.239913        -6.5284
  96   2.0000      -0.235153        -6.3988
  97   2.0000      -0.228945        -6.2299
  98   2.0000      -0.214628        -5.8403
  99   0.0000      -0.046481        -1.2648
 100   0.0000      -0.015208        -0.4138
 101   0.0000      -0.012676        -0.3449
 102   0.0000      -0.005466        -0.1487
 103   0.0000      -0.003332        -0.0907

MULLIKEN ATOMIC CHARGES
-----------------------
   0 N :   -0.769604
   1 C :    0.547680
   2 O :   -0.453577
   3 C :   -0.143460
   4 C :    0.134715
   5 C :   -0.177173
   6 C :   -0.133400
   7 C :   -0.127893
   8 C :   -0.124633
   9 C :   -0.190863
  10 N :   -0.404632
  11 C :   -0.208083
  12 C :    0.100425
  13 C :   -0.149589
  14 C :   -0.128310
  15 C :   -0.114967
  16 C :   -0.134764
  17 C :   -0.107584
  18 Cl:    0.031259
  19 C :    0.437314
  20 O :   -0.443740
  21 C :    0.098408
  22 C :   -0.138325
  23 C :   -0.131180
  24 C :   -0.117413
  25 C :   -0.137342
  26 C :   -0.174106
  27 H :    0.335900
  28 H :    0.349650
  29 H :    0.206876
  30 H :    0.142361
  31 H :    0.134361
  32 H :    0.132685
  33 H :    0.136391
  34 H :    0.146002
  35 H :    0.189321
  36 H :    0.132314
  37 H :    0.133685
  38 H :    0.128349
  39 H :    0.132865
  40 H :    0.150229
  41 H :    0.159243
  42 H :    0.134075
  43 H :    0.131242
  44 H :    0.130393
  45 H :    0.154893
Sum of atomic charges:    0.0000000

LOEWDIN ATOMIC CHARGES
----------------------
   0 N :   -0.404282
   1 C :    0.133138
   2 O :   -0.267145
   3 C :   -0.064973
   4 C :   -0.040255
   5 C :   -0.139742
   6 C :   -0.130192
   7 C :   -0.130659
   8 C :   -0.126380
   9 C :   -0.134508
  10 N :   -0.106528
  11 C :   -0.147680
  12 C :   -0.041874
  13 C :   -0.118656
  14 C :   -0.133032
  15 C :   -0.124766
  16 C :   -0.133827
  17 C :   -0.080914
  18 Cl:    0.062573
  19 C :    0.149295
  20 O :   -0.243863
  21 C :   -0.049061
  22 C :   -0.089900
  23 C :   -0.128484
  24 C :   -0.117716
  25 C :   -0.135006
  26 C :   -0.118614
  27 H :    0.253238
  28 H :    0.264513
  29 H :    0.170009
  30 H :    0.136476
  31 H :    0.134018
  32 H :    0.133503
  33 H :    0.135325
  34 H :    0.138435
  35 H :    0.149550
  36 H :    0.111208
  37 H :    0.135528
  38 H :    0.131917
  39 H :    0.134430
  40 H :    0.143568
  41 H :    0.149028
  42 H :    0.134243
  43 H :    0.132491
  44 H :    0.131984
  45 H :    0.143586

  Mayer bond orders larger than 0.100000
B(  0-N ,  1-C ) :   1.0712 B(  0-N , 27-H ) :   0.8194 B(  0-N , 28-H ) :   0.8235
B(  1-C ,  2-O ) :   1.8348 B(  1-C ,  3-C ) :   0.9159 B(  3-C ,  4-C ) :   0.9189
B(  3-C , 10-N ) :   0.9739 B(  3-C , 29-H ) :   0.8920 B(  4-C ,  5-C ) :   1.4023
B(  4-C ,  9-C ) :   1.4148 B(  5-C ,  6-C ) :   1.4407 B(  5-C , 30-H ) :   0.9187
B(  6-C ,  7-C ) :   1.4488 B(  6-C , 31-H ) :   0.9291 B(  7-C ,  8-C ) :   1.4537
B(  7-C , 32-H ) :   0.9297 B(  8-C ,  9-C ) :   1.4395 B(  8-C , 33-H ) :   0.9285
B(  9-C , 34-H ) :   0.9216 B( 10-N , 11-C ) :   0.9271 B( 10-N , 19-C ) :   1.0028
B( 11-C , 12-C ) :   1.0007 B( 11-C , 35-H ) :   0.8975 B( 11-C , 36-H ) :   0.9056
B( 12-C , 13-C ) :   1.4269 B( 12-C , 17-C ) :   1.3788 B( 13-C , 14-C ) :   1.4436
B( 13-C , 37-H ) :   0.9178 B( 14-C , 15-C ) :   1.4477 B( 14-C , 38-H ) :   0.9292
B( 15-C , 16-C ) :   1.4497 B( 15-C , 39-H ) :   0.9294 B( 16-C , 17-C ) :   1.3971
B( 16-C , 40-H ) :   0.9242 B( 17-C , 18-Cl) :   1.0727 B( 19-C , 20-O ) :   1.8386
B( 19-C , 21-C ) :   0.9744 B( 21-C , 22-C ) :   1.3980 B( 21-C , 26-C ) :   1.3882
B( 22-C , 23-C ) :   1.4387 B( 22-C , 41-H ) :   0.9164 B( 23-C , 24-C ) :   1.4392
B( 23-C , 42-H ) :   0.9298 B( 24-C , 25-C ) :   1.4502 B( 24-C , 43-H ) :   0.9302
B( 25-C , 26-C ) :   1.4352 B( 25-C , 44-H ) :   0.9301 B( 26-C , 45-H ) :   0.9109

FINAL SINGLE POINT ENERGY     -1569.147723809846

DIPOLE MOMENT
-------------

Method             : SCF
Type of density    : Electron Density
Multiplicity       :   1
Irrep              :   0
Energy             : -1569.1477238098455018 Eh
Relativity type    :
Basis              : AO
                                X                 Y                 Z
Electronic contribution:     -3.951150615      -6.996926163     -17.447705291
Nuclear contribution   :      3.768412291       7.802799054      19.794766284
                        -----------------------------------------
Total Dipole Moment    :     -0.182738325       0.805872891       2.347060993
                        -----------------------------------------
Magnitude (a.u.)       :      2.488276455
Magnitude (Debye)      :      6.324696116

Rotational constants in cm-1:             0.008090             0.005730             0.004091
Rotational constants in MHz :           242.522389           171.788617           122.635176

                             ****ORCA TERMINATED NORMALLY****
TOTAL RUN TIME: 0 days 0 hours 8 minutes 40 seconds 280 msec
