                         Program Version 6.0.0  -   RELEASE  -
|  1> ! B3LYP 6-31G* SP
|  2>
|  3> * xyz 0 1
|  4> C -2.3790 1.7572 0.6702
|  5> C -1.2307 2.3663 -0.1023
|  6> C -0.0826 1.5997 -0.4127
|  7> N 0.0121 0.2185 -0.0472
|  8> C 0.4772 -0.1651 1.2891
|  9> C 1.8123 -0.8552 1.2078
| 10> C 1.9371 -2.2038 1.5731
| 11> C 3.1649 -2.8600 1.4522
| 12> C 4.2872 -2.1744 0.9644
| 13> C 5.5225 -2.8281 0.8274
| 14> C 6.6332 -2.1326 0.3368
| 15> C 6.5194 -0.7871 -0.0184
| 16> C 5.2961 -0.1240 0.1182
| 17> C 4.1734 -0.8086 0.6075
| 18> C 2.9382 -0.1573 0.7397
| 19> S -0.4290 -0.9908 -1.2132
| 20> O -0.7713 -0.3340 -2.5225
| 21> O 0.7262 -1.9250 -1.4458
| 22> C -1.8308 -1.8844 -0.6370
| 23> C -3.1227 -1.4014 -0.8876
| 24> C -4.2392 -2.0974 -0.4166
| 25> C -4.0776 -3.2893 0.3145
| 26> C -5.2548 -4.0354 0.8107
| 27> O -6.4229 -3.6145 0.5782
| 28> O -5.0832 -5.2121 1.5388
| 29> C -2.7774 -3.7656 0.5664
| 30> C -1.6629 -3.0677 0.0936
| 31> N 0.9379 2.1530 -1.1172
| 32> C 0.9161 3.4397 -1.5376
| 33> C -0.1964 4.2454 -1.2794
| 34> C -0.2342 5.5697 -1.7408
| 35> C -1.3583 6.3644 -1.5049
| 36> C -2.4463 5.8484 -0.7999
| 37> C -2.4175 4.5341 -0.3283
| 38> C -1.2922 3.7087 -0.5594
| 39> H -3.2788 1.7104 0.0208
| 40> H -2.1673 0.7300 1.0257
| 41> H -2.6010 2.3745 1.5672
| 42> H 0.5773 0.7336 1.9383
| 43> H -0.2834 -0.8219 1.7633
| 44> H 1.0823 -2.7516 1.9474
| 45> H 3.2351 -3.9057 1.7357
| 46> H 5.6282 -3.8733 1.0960
| 47> H 7.5836 -2.6406 0.2305
| 48> H 7.3832 -0.2532 -0.3998
| 49> H 5.2292 0.9232 -0.1583
| 50> H 2.8497 0.8899 0.4760
| 51> H -3.2664 -0.4832 -1.4443
| 52> H -5.2271 -1.7024 -0.6253
| 53> H -5.8814 -5.7318 1.8831
| 54> H -2.6192 -4.6781 1.1281
| 55> H -0.6706 -3.4517 0.2982
| 56> H 1.7658 3.8257 -2.0888
| 57> H 0.6046 5.9897 -2.2847
| 58> H -1.3861 7.3833 -1.8680
| 59> H -3.3164 6.4672 -0.6269
| 60> H -3.2863 4.1747 0.2054
| 61> *
| 62>
| 63>                          ****END OF INPUT****

CARTESIAN COORDINATES (ANGSTROEM)
---------------------------------
  C     -2.379000    1.757200    0.670200
  C     -1.230700    2.366300   -0.102300
  C     -0.082600    1.599700   -0.412700
  N      0.012100    0.218500   -0.047200
  C      0.477200   -0.165100    1.289100
  C      1.812300   -0.855200    1.207800
  C      1.937100   -2.203800    1.573100
  C      3.164900   -2.860000    1.452200
  C      4.287200   -2.174400    0.964400
  C      5.522500   -2.828100    0.827400
  C      6.633200   -2.132600    0.336800
  C      6.519400   -0.787100   -0.018400
  C      5.296100   -0.124000    0.118200
  C      4.173400   -0.808600    0.607500
  C      2.938200   -0.157300    0.739700
  S     -0.429000   -0.990800   -1.213200
  O     -0.771300   -0.334000   -2.522500
  O      0.726200   -1.925000   -1.445800
  C     -1.830800   -1.884400   -0.637000
  C     -3.122700   -1.401400   -0.887600
  C     -4.239200   -2.097400   -0.416600
  C     -4.077600   -3.289300    0.314500
  C     -5.254800   -4.035400    0.810700
  O     -6.422900   -3.614500    0.578200
  O     -5.083200   -5.212100    1.538800
  C     -2.777400   -3.765600    0.566400
  C     -1.662900   -3.067700    0.093600
  N      0.937900    2.153000   -1.117200
  C      0.916100    3.439700   -1.537600
  C     -0.196400    4.245400   -1.279400
  C     -0.234200    5.569700   -1.740800
  C     -1.358300    6.364400   -1.504900
  C     -2.446300    5.848400   -0.799900
  C     -2.417500    4.534100   -0.328300
  C     -1.292200    3.708700   -0.559400
  H     -3.278800    1.710400    0.020800
  H     -2.167300    0.730000    1.025700
  H     -2.601000    2.374500    1.567200
  H      0.577300    0.733600    1.938300
  H     -0.283400   -0.821900    1.763300
  H      1.082300   -2.751600    1.947400
  H      3.235100   -3.905700    1.735700
  H      5.628200   -3.873300    1.096000
  H      7.583600   -2.640600    0.230500
  H      7.383200   -0.253200   -0.399800
  H      5.229200    0.923200   -0.158300
  H      2.849700    0.889900    0.476000
  H     -3.266400   -0.483200   -1.444300
  H     -5.227100   -1.702400   -0.625300
  H     -5.881400   -5.731800    1.883100
  H     -2.619200   -4.678100    1.128100
  H     -0.670600   -3.451700    0.298200
  H      1.765800    3.825700   -2.088800
  H      0.604600    5.989700   -2.284700
  H     -1.386100    7.383300   -1.868000
  H     -3.316400    6.467200   -0.626900
  H     -3.286300    4.174700    0.205400

 Total Charge           Charge          ....    0
 Multiplicity           Mult            ....    1
 Number of Electrons    NEL             ....  252
 Basis Dimension        Dim             ....  538

ORBITAL ENERGIES
----------------

  NO   OCC          E(Eh)            E(eV)
   0   2.0000     -89.092255     -2424.3235
   1   2.0000     -19.197931      -522.4023
   2   2.0000     -19.139823      -520.8211
   3   2.0000     -19.119776      -520.2756
   4   2.0000     -19.116480      -520.1859
   5   2.0000     -14.364864      -390.8878
   6   2.0000     -14.328456      -389.8971
   7   2.0000     -10.337336      -281.2932
   8   2.0000     -10.258361      -279.1442
   9   2.0000     -10.242354      -278.7086
  10   2.0000     -10.233763      -278.4748
  11   2.0000     -10.232853      -278.4501
  12   2.0000     -10.223464      -278.1946
  13   2.0000     -10.221456      -278.1400
  14   2.0000     -10.220952      -278.1263
  15   2.0000     -10.219139      -278.0769
  16   2.0000     -10.218927      -278.0711
  17   2.0000     -10.211133      -277.8590
  18   2.0000     -10.207731      -277.7665
  19   2.0000     -10.200584      -277.5720
  20   2.0000     -10.199210      -277.5346
  21   2.0000     -10.198518      -277.5158
  22   2.0000     -10.197718      -277.4940
  23   2.0000     -10.196746      -277.4676
  24   2.0000     -10.192017      -277.3389
  25   2.0000     -10.181443      -277.0512
  26   2.0000     -10.175871      -276.8995
  27   2.0000     -10.175298      -276.8839
  28   2.0000     -10.174894      -276.8729
  29   2.0000     -10.172373      -276.8043
  30   2.0000     -10.171807      -276.7889
  31   2.0000     -10.171414      -276.7782
  32   2.0000     -10.171184      -276.7720
  33   2.0000     -10.170524      -276.7540
  34   2.0000     -10.169005      -276.7127
  35   2.0000      -8.127751      -221.1673
  36   2.0000      -6.092858      -165.7951
  37   2.0000      -6.090756      -165.7379
  38   2.0000      -6.090412      -165.7285
  39   2.0000      -1.081545       -29.4303
  40   2.0000      -1.076232       -29.2858
  41   2.0000      -0.996042       -27.1037
  42   2.0000      -0.959216       -26.1016
  43   2.0000      -0.953888       -25.9566
  44   2.0000      -0.912081       -24.8190
  45   2.0000      -0.890943       -24.2438
  46   2.0000      -0.865588       -23.5538
  47   2.0000      -0.862235       -23.4626
  48   2.0000      -0.814990       -22.1770
  49   2.0000      -0.809289       -22.0219
  50   2.0000      -0.804311       -21.8864
  51   2.0000      -0.778021       -21.1710
  52   2.0000      -0.776932       -21.1414
  53   2.0000      -0.764017       -20.7900
  54   2.0000      -0.751427       -20.4474
  55   2.0000      -0.741655       -20.1814
  56   2.0000      -0.716851       -19.5065
  57   2.0000      -0.711231       -19.3536
  58   2.0000      -0.696717       -18.9586
  59   2.0000      -0.677772       -18.4431
  60   2.0000      -0.654539       -17.8109
  61   2.0000      -0.645390       -17.5619
  62   2.0000      -0.638133       -17.3645
  63   2.0000      -0.619626       -16.8609
  64   2.0000      -0.615021       -16.7356
  65   2.0000      -0.598359       -16.2822
  66   2.0000      -0.595913       -16.2156
  67   2.0000      -0.587607       -15.9896
  68   2.0000      -0.584548       -15.9064
  69   2.0000      -0.558806       -15.2059
  70   2.0000      -0.541755       -14.7419
  71   2.0000      -0.532337       -14.4856
  72   2.0000      -0.514839       -14.0095
  73   2.0000      -0.506399       -13.7798
  74   2.0000      -0.501063       -13.6346
  75   2.0000      -0.497370       -13.5341
  76   2.0000      -0.491420       -13.3722
  77   2.0000      -0.480015       -13.0619
  78   2.0000      -0.477691       -12.9986
  79   2.0000      -0.471819       -12.8389
  80   2.0000      -0.468991       -12.7619
  81   2.0000      -0.461940       -12.5700
  82   2.0000      -0.452014       -12.2999
  83   2.0000      -0.450398       -12.2559
  84   2.0000      -0.448822       -12.2131
  85   2.0000      -0.443292       -12.0626
  86   2.0000      -0.439419       -11.9572
  87   2.0000      -0.438334       -11.9277
  88   2.0000      -0.436796       -11.8858
  89   2.0000      -0.430990       -11.7278
  90   2.0000      -0.417727       -11.3669
  91   2.0000      -0.416040       -11.3210
  92   2.0000      -0.413142       -11.2422
  93   2.0000      -0.408330       -11.1112
  94   2.0000      -0.402423       -10.9505
  95   2.0000      -0.400399       -10.8954
  96   2.0000      -0.397370       -10.8130
  97   2.0000      -0.390759       -10.6331
  98   2.0000      -0.387543       -10.5456
  99   2.0000      -0.387334       -10.5399
 100   2.0000      -0.384881       -10.4732
 101   2.0000      -0.376730       -10.2514
 102   2.0000      -0.371012       -10.0957
 103   2.0000      -0.369403       -10.0520
 104   2.0000      -0.360826        -9.8186
 105   2.0000      -0.353974        -9.6321
 106   2.0000      -0.348291        -9.4775
 107   2.0000      -0.328239        -8.9319
 108   2.0000      -0.324828        -8.8390
 109   2.0000      -0.323397        -8.8001
 110   2.0000      -0.320685        -8.7263
 111   2.0000      -0.306810        -8.3487
 112   2.0000      -0.302718        -8.2374
 113   2.0000      -0.293082        -7.9752
 114   2.0000      -0.288750        -7.8573
 115   2.0000      -0.282577        -7.6893
 116   2.0000      -0.279477        -7.6050
 117   2.0000      -0.276310        -7.5188
 118   2.0000      -0.269890        -7.3441
 119   2.0000      -0.268477        -7.3056
 120   2.0000      -0.264476        -7.1968
 121   2.0000      -0.250829        -6.8254
 122   2.0000      -0.246271        -6.7014
 123   2.0000      -0.230896        -6.2830
 124   2.0000      -0.223679        -6.0866
 125   2.0000      -0.194161        -5.2834
 126   0.0000      -0.085130        -2.3165
 127   0.0000      -0.061754        -1.6804
 128   0.0000      -0.034195        -0.9305
 129   0.0000      -0.032043        -0.8719
 130   0.0000      -0.029650        -0.8068

MULLIKEN ATOMIC CHARGES
-----------------------
   0 C :   -0.545340
   1 C :    0.107070
   2 C :    0.311824
   3 N :   -0.600224
   4 C :   -0.263739
   5 C :    0.182765
   6 C :   -0.168206
   7 C :   -0.197907
   8 C :    0.164153
   9 C :   -0.201772
  10 C :   -0.130166
  11 C :   -0.132661
  12 C :   -0.195714
  13 C :    0.159108
  14 C :   -0.228424
  15 S :    1.204848
  16 O :   -0.539059
  17 O :   -0.522831
  18 C :   -0.129002
  19 C :   -0.144984
  20 C :   -0.141023
  21 C :    0.081517
  22 C :    0.529365
  23 O :   -0.445643
  24 O :   -0.624038
  25 C :   -0.147216
  26 C :   -0.153468
  27 N :   -0.365307
  28 C :   -0.050291
  29 C :    0.136770
  30 C :   -0.201884
  31 C :   -0.126983
  32 C :   -0.119292
  33 C :   -0.199999
  34 C :    0.125376
  35 H :    0.166068
  36 H :    0.169185
  37 H :    0.162196
  38 H :    0.180142
  39 H :    0.149064
  40 H :    0.107137
  41 H :    0.123374
  42 H :    0.125188
  43 H :    0.123434
  44 H :    0.123868
  45 H :    0.129411
  46 H :    0.142738
  47 H :    0.185314
  48 H :    0.179993
  49 H :    0.434531
  50 H :    0.173008
  51 H :    0.189665
  52 H :    0.155067
  53 H :    0.141346
  54 H :    0.136868
  55 H :    0.138188
  56 H :    0.136590
Sum of atomic charges:   -0.0000000

LOEWDIN ATOMIC CHARGES
----------------------
   0 C :   -0.360225
   1 C :   -0.014675
   2 C :    0.030502
   3 N :   -0.283279
   4 C :   -0.146799
   5 C :   -0.035519
   6 C :   -0.135213
   7 C :   -0.118737
   8 C :   -0.011309
   9 C :   -0.121933
  10 C :   -0.133513
  11 C :   -0.133197
  12 C :   -0.118212
  13 C :   -0.010022
  14 C :   -0.105198
  15 S :    1.267297
  16 O :   -0.568119
  17 O :   -0.555171
  18 C :   -0.176081
  19 C :   -0.102213
  20 C :   -0.087689
  21 C :   -0.039467
  22 C :    0.181658
  23 O :   -0.262126
  24 O :   -0.335420
  25 C :   -0.099716
  26 C :   -0.110410
  27 N :   -0.114760
  28 C :   -0.055976
  29 C :   -0.027383
  30 C :   -0.109966
  31 C :   -0.125670
  32 C :   -0.117119
  33 C :   -0.125219
  34 C :   -0.006267
  35 H :    0.138482
  36 H :    0.137908
  37 H :    0.136600
  38 H :    0.148204
  39 H :    0.120870
  40 H :    0.121336
  41 H :    0.129973
  42 H :    0.130454
  43 H :    0.129768
  44 H :    0.129863
  45 H :    0.132835
  46 H :    0.139562
  47 H :    0.159562
  48 H :    0.160057
  49 H :    0.349965
  50 H :    0.154748
  51 H :    0.159960
  52 H :    0.138533
  53 H :    0.138155
  54 H :    0.135879
  55 H :    0.136807
  56 H :    0.137627

  Mayer bond orders larger than 0.100000
B(  0-C ,  1-C ) :   0.9989 B(  0-C , 35-H ) :   0.9256 B(  0-C , 36-H ) :   0.9303
B(  0-C , 37-H ) :   0.9281 B(  1-C ,  2-C ) :   1.4352 B(  1-C , 28-C ) :   0.1021
B(  1-C , 34-C ) :   1.2642 B(  2-C ,  3-N ) :   0.8959 B(  2-C , 27-N ) :   1.2900
B(  3-N ,  4-C ) :   0.9218 B(  3-N , 15-S ) :   0.8050 B(  4-C ,  5-C ) :   0.9499
B(  4-C , 38-H ) :   0.9204 B(  4-C , 39-H ) :   0.9253 B(  5-C ,  6-C ) :   1.3410
B(  5-C , 14-C ) :   1.4746 B(  6-C ,  7-C ) :   1.4943 B(  6-C , 40-H ) :   0.9217
B(  7-C ,  8-C ) :   1.3011 B(  7-C , 14-C ) :   0.1040 B(  7-C , 41-H ) :   0.9244
B(  8-C ,  9-C ) :   1.2917 B(  8-C , 13-C ) :   1.3007 B(  9-C , 10-C ) :   1.5109
B(  9-C , 12-C ) :   0.1067 B(  9-C , 42-H ) :   0.9259 B( 10-C , 11-C ) :   1.3489
B( 10-C , 43-H ) :   0.9313 B( 11-C , 12-C ) :   1.5115 B( 11-C , 44-H ) :   0.9312
B( 12-C , 13-C ) :   1.2907 B( 12-C , 45-H ) :   0.9249 B( 13-C , 14-C ) :   1.2891
B( 14-C , 46-H ) :   0.9049 B( 15-S , 16-O ) :   1.6341 B( 15-S , 17-O ) :   1.6581
B( 15-S , 18-C ) :   0.8080 B( 18-C , 19-C ) :   1.3801 B( 18-C , 26-C ) :   1.3945
B( 19-C , 20-C ) :   1.4238 B( 19-C , 47-H ) :   0.9077 B( 20-C , 21-C ) :   1.3969
B( 20-C , 48-H ) :   0.9098 B( 21-C , 22-C ) :   1.0093 B( 21-C , 25-C ) :   1.3872
B( 22-C , 23-O ) :   1.8603 B( 22-C , 24-O ) :   1.0244 B( 24-O , 49-H ) :   0.7416
B( 25-C , 26-C ) :   1.4103 B( 25-C , 50-H ) :   0.9150 B( 26-C , 51-H ) :   0.9022
B( 27-N , 28-C ) :   1.4949 B( 28-C , 29-C ) :   1.2316 B( 28-C , 52-H ) :   0.9259
B( 29-C , 30-C ) :   1.2844 B( 29-C , 34-C ) :   1.2930 B( 30-C , 31-C ) :   1.5125
B( 30-C , 33-C ) :   0.1062 B( 30-C , 53-H ) :   0.9229 B( 31-C , 32-C ) :   1.3530
B( 31-C , 54-H ) :   0.9291 B( 32-C , 33-C ) :   1.5102 B( 32-C , 55-H ) :   0.9289
B( 33-C , 34-C ) :   1.2925 B( 33-C , 56-H ) :   0.9171

FINAL SINGLE POINT ENERGY     -1887.762282882159

DIPOLE MOMENT
-------------

Method             : SCF
Type of density    : Electron Density
Multiplicity       :   1
Irrep              :   0
Energy             : -1887.7622828821590701 Eh
Relativity type    :
Basis              : AO
                                X                 Y                 Z
Electronic contribution:     -5.933602436      -8.392228197      -6.213218158
Nuclear contribution   :      4.864596401       9.340964081       8.151849007
                        -----------------------------------------
Total Dipole Moment    :     -1.069006034       0.948735885       1.938630849
                        -----------------------------------------
Magnitude (a.u.)       :      2.408560410
Magnitude (Debye)      :      6.122074033

Rotational constants in cm-1:             0.003477             0.002979             0.001725
Rotational constants in MHz :           104.244500            89.295948            51.727639

                             ****ORCA TERMINATED NORMALLY****
TOTAL RUN TIME: 0 days 0 hours 7 minutes 21 seconds 402 msec
