                         Program Version 6.0.0  -   RELEASE  -
|  1> ! B3LYP 6-31G* SP
|  2>
|  3> * xyz 0 1
|  4> C -1.8701 0.8788 1.7213
|  5> C -1.5500 0.4140 0.2846
|  6> C -2.4944 -0.6798 -0.2258
|  7> C -3.8055 -0.8257 0.2819
|  8> C -4.6684 -1.7970 -0.2346
|  9> C -4.2530 -2.6197 -1.2813
| 10> C -2.9778 -2.4639 -1.8235
| 11> C -2.1112 -1.4944 -1.3117
| 12> N -0.1235 0.0053 0.1880
| 13> C 0.3092 -1.2337 0.8113
| 14> O -0.3461 -1.7056 1.7798
| 15> C 1.5006 -1.9845 0.3462
| 16> C 1.8133 -2.0818 -1.0218
| 17> C 2.9335 -2.8052 -1.4416
| 18> C 3.7448 -3.4478 -0.5038
| 19> C 3.4340 -3.3724 0.8558
| 20> C 2.3148 -2.6496 1.2802
| 21> C 0.8903 0.9429 -0.3622
| 22> C 0.7694 1.1144 -1.8614
| 23> N 1.9245 1.4418 -2.6344
| 24> O -0.3464 1.0151 -2.4375
| 25> C 0.8828 2.2680 0.3808
| 26> C 0.1172 3.3695 -0.0553
| 27> C 0.1006 4.5568 0.6826
| 28> C 0.8369 4.6586 1.8646
| 29> C 1.5892 3.5716 2.3140
| 30> C 1.6096 2.3818 1.5807
| 31> H -2.0516 0.0185 2.3980
| 32> H -1.0376 1.4772 2.1411
| 33> H -2.7713 1.5280 1.7217
| 34> H -1.7264 1.2938 -0.3670
| 35> H -4.1770 -0.1938 1.0757
| 36> H -5.6652 -1.9057 0.1731
| 37> H -4.9240 -3.3691 -1.6809
| 38> H -2.6617 -3.0898 -2.6480
| 39> H -1.1407 -1.3857 -1.7700
| 40> H 1.1899 -1.6117 -1.7676
| 41> H 3.1694 -2.8720 -2.4959
| 42> H 4.6111 -4.0082 -0.8309
| 43> H 4.0604 -3.8744 1.5818
| 44> H 2.0916 -2.5989 2.3388
| 45> H 1.9041 0.5172 -0.2018
| 46> H 1.8472 1.5722 -3.6674
| 47> H 2.8564 1.5602 -2.1786
| 48> H -0.4717 3.3153 -0.9610
| 49> H -0.4878 5.3978 0.3393
| 50> H 0.8206 5.5783 2.4349
| 51> H 2.1532 3.6488 3.2345
| 52> H 2.1867 1.5442 1.9532
| 53> *
| 54>
| 55>                          ****END OF INPUT****

CARTESIAN COORDINATES (ANGSTROEM)
---------------------------------
  C     -1.870100    0.878800    1.721300
  C     -1.550000    0.414000    0.284600
  C     -2.494400   -0.679800   -0.225800
  C     -3.805500   -0.825700    0.281900
  C     -4.668400   -1.797000   -0.234600
  C     -4.253000   -2.619700   -1.281300
  C     -2.977800   -2.463900   -1.823500
  C     -2.111200   -1.494400   -1.311700
  N     -0.123500    0.005300    0.188000
  C      0.309200   -1.233700    0.811300
  O     -0.346100   -1.705600    1.779800
  C      1.500600   -1.984500    0.346200
  C      1.813300   -2.081800   -1.021800
  C      2.933500   -2.805200   -1.441600
  C      3.744800   -3.447800   -0.503800
  C      3.434000   -3.372400    0.855800
  C      2.314800   -2.649600    1.280200
  C      0.890300    0.942900   -0.362200
  C      0.769400    1.114400   -1.861400
  N      1.924500    1.441800   -2.634400
  O     -0.346400    1.015100   -2.437500
  C      0.882800    2.268000    0.380800
  C      0.117200    3.369500   -0.055300
  C      0.100600    4.556800    0.682600
  C      0.836900    4.658600    1.864600
  C      1.589200    3.571600    2.314000
  C      1.609600    2.381800    1.580700
  H     -2.051600    0.018500    2.398000
  H     -1.037600    1.477200    2.141100
  H     -2.771300    1.528000    1.721700
  H     -1.726400    1.293800   -0.367000
  H     -4.177000   -0.193800    1.075700
  H     -5.665200   -1.905700    0.173100
  H     -4.924000   -3.369100   -1.680900
  H     -2.661700   -3.089800   -2.648000
  H     -1.140700   -1.385700   -1.770000
  H      1.189900   -1.611700   -1.767600
  H      3.169400   -2.872000   -2.495900
  H      4.611100   -4.008200   -0.830900
  H      4.060400   -3.874400    1.581800
  H      2.091600   -2.598900    2.338800
  H      1.904100    0.517200   -0.201800
  H      1.847200    1.572200   -3.667400
  H      2.856400    1.560200   -2.178600
  H     -0.471700    3.315300   -0.961000
  H     -0.487800    5.397800    0.339300
  H      0.820600    5.578300    2.434900
  H      2.153200    3.648800    3.234500
  H      2.186700    1.544200    1.953200

 Total Charge           Charge          ....    0
 Multiplicity           Mult            ....    1
 Number of Electrons    NEL             ....  190
 Basis Dimension        Dim             ....  422

ORBITAL ENERGIES
----------------

  NO   OCC          E(Eh)            E(eV)
   0   2.0000     -19.119504      -520.2681
   1   2.0000     -19.105697      -519.8925
   2   2.0000     -14.364596      -390.8805
   3   2.0000     -14.350190      -390.4885
   4   2.0000     -10.299724      -280.2697
   5   2.0000     -10.283005      -279.8148
   6   2.0000     -10.244223      -278.7595
   7   2.0000     -10.211517      -277.8695
   8   2.0000     -10.203947      -277.6635
   9   2.0000     -10.200152      -277.5602
  10   2.0000     -10.192747      -277.3587
  11   2.0000     -10.191760      -277.3319
  12   2.0000     -10.191704      -277.3304
  13   2.0000     -10.190741      -277.3042
  14   2.0000     -10.190255      -277.2909
  15   2.0000     -10.189901      -277.2813
  16   2.0000     -10.189252      -277.2636
  17   2.0000     -10.189183      -277.2618
  18   2.0000     -10.188837      -277.2523
  19   2.0000     -10.188446      -277.2417
  20   2.0000     -10.173169      -276.8260
  21   2.0000     -10.161003      -276.4950
  22   2.0000     -10.160565      -276.4830
  23   2.0000     -10.159716      -276.4599
  24   2.0000     -10.158841      -276.4361
  25   2.0000     -10.156725      -276.3785
  26   2.0000     -10.146903      -276.1113
  27   2.0000      -1.020843       -27.7785
  28   2.0000      -1.004422       -27.3317
  29   2.0000      -0.914147       -24.8752
  30   2.0000      -0.888419       -24.1751
  31   2.0000      -0.858452       -23.3597
  32   2.0000      -0.856528       -23.3073
  33   2.0000      -0.828095       -22.5336
  34   2.0000      -0.783326       -21.3154
  35   2.0000      -0.767026       -20.8718
  36   2.0000      -0.750080       -20.4107
  37   2.0000      -0.749859       -20.4047
  38   2.0000      -0.745752       -20.2930
  39   2.0000      -0.720050       -19.5936
  40   2.0000      -0.707839       -19.2613
  41   2.0000      -0.693923       -18.8826
  42   2.0000      -0.640127       -17.4187
  43   2.0000      -0.617942       -16.8151
  44   2.0000      -0.612758       -16.6740
  45   2.0000      -0.606581       -16.5059
  46   2.0000      -0.604695       -16.4546
  47   2.0000      -0.580415       -15.7939
  48   2.0000      -0.578065       -15.7300
  49   2.0000      -0.566584       -15.4175
  50   2.0000      -0.542778       -14.7697
  51   2.0000      -0.533288       -14.5115
  52   2.0000      -0.526550       -14.3282
  53   2.0000      -0.508338       -13.8326
  54   2.0000      -0.493125       -13.4186
  55   2.0000      -0.490474       -13.3465
  56   2.0000      -0.479831       -13.0569
  57   2.0000      -0.472564       -12.8591
  58   2.0000      -0.455597       -12.3974
  59   2.0000      -0.453345       -12.3361
  60   2.0000      -0.444961       -12.1080
  61   2.0000      -0.440651       -11.9907
  62   2.0000      -0.433750       -11.8029
  63   2.0000      -0.429903       -11.6983
  64   2.0000      -0.426368       -11.6021
  65   2.0000      -0.424757       -11.5582
  66   2.0000      -0.419931       -11.4269
  67   2.0000      -0.410434       -11.1685
  68   2.0000      -0.405210       -11.0263
  69   2.0000      -0.398448       -10.8423
  70   2.0000      -0.393844       -10.7170
  71   2.0000      -0.381732       -10.3875
  72   2.0000      -0.377652       -10.2764
  73   2.0000      -0.372847       -10.1457
  74   2.0000      -0.366660        -9.9773
  75   2.0000      -0.359603        -9.7853
  76   2.0000      -0.355726        -9.6798
  77   2.0000      -0.350794        -9.5456
  78   2.0000      -0.348879        -9.4935
  79   2.0000      -0.346524        -9.4294
  80   2.0000      -0.342906        -9.3310
  81   2.0000      -0.336441        -9.1550
  82   2.0000      -0.329108        -8.9555
  83   2.0000      -0.316678        -8.6172
  84   2.0000      -0.312632        -8.5072
  85   2.0000      -0.272385        -7.4120
  86   2.0000      -0.263186        -7.1616
  87   2.0000      -0.259528        -7.0621
  88   2.0000      -0.256106        -6.9690
  89   2.0000      -0.255577        -6.9546
  90   2.0000      -0.250109        -6.8058
  91   2.0000      -0.235033        -6.3956
  92   2.0000      -0.227712        -6.1964
  93   2.0000      -0.224997        -6.1225
  94   2.0000      -0.212463        -5.7814
  95   0.0000      -0.039452        -1.0735
  96   0.0000      -0.018177        -0.4946
  97   0.0000      -0.008681        -0.2362
  98   0.0000      -0.007260        -0.1976
  99   0.0000       0.006249         0.1700

MULLIKEN ATOMIC CHARGES
-----------------------
   0 C :   -0.458552
   1 C :   -0.008859
   2 C :    0.139164
   3 C :   -0.177982
   4 C :   -0.127547
   5 C :   -0.125109
   6 C :   -0.127260
   7 C :   -0.155640
   8 N :   -0.429405
   9 C :    0.459815
  10 O :   -0.459657
  11 C :    0.069663
  12 C :   -0.173473
  13 C :   -0.135218
  14 C :   -0.117821
  15 C :   -0.132746
  16 C :   -0.146582
  17 C :   -0.167534
  18 C :    0.579537
  19 N :   -0.765242
  20 O :   -0.477678
  21 C :    0.153053
  22 C :   -0.173138
  23 C :   -0.129236
  24 C :   -0.121498
  25 C :   -0.126194
  26 C :   -0.174636
  27 H :    0.180095
  28 H :    0.152377
  29 H :    0.125932
  30 H :    0.179545
  31 H :    0.121917
  32 H :    0.119600
  33 H :    0.116570
  34 H :    0.117830
  35 H :    0.134763
  36 H :    0.160475
  37 H :    0.133429
  38 H :    0.133586
  39 H :    0.136255
  40 H :    0.155816
  41 H :    0.156343
  42 H :    0.352833
  43 H :    0.337286
  44 H :    0.157692
  45 H :    0.135705
  46 H :    0.132782
  47 H :    0.134733
  48 H :    0.134210
Sum of atomic charges:    0.0000000

LOEWDIN ATOMIC CHARGES
----------------------
   0 C :   -0.368329
   1 C :   -0.043663
   2 C :   -0.008000
   3 C :   -0.133670
   4 C :   -0.131868
   5 C :   -0.135771
   6 C :   -0.131031
   7 C :   -0.125446
   8 N :   -0.088800
   9 C :    0.146612
  10 O :   -0.262437
  11 C :   -0.049648
  12 C :   -0.124259
  13 C :   -0.131676
  14 C :   -0.119097
  15 C :   -0.129036
  16 C :   -0.098011
  17 C :   -0.073446
  18 C :    0.136072
  19 N :   -0.399225
  20 O :   -0.285589
  21 C :   -0.025812
  22 C :   -0.131138
  23 C :   -0.125170
  24 C :   -0.124819
  25 C :   -0.126499
  26 C :   -0.128182
  27 H :    0.140610
  28 H :    0.131393
  29 H :    0.115120
  30 H :    0.148883
  31 H :    0.131094
  32 H :    0.127538
  33 H :    0.125915
  34 H :    0.126804
  35 H :    0.132452
  36 H :    0.142537
  37 H :    0.133653
  38 H :    0.133686
  39 H :    0.135284
  40 H :    0.147399
  41 H :    0.145008
  42 H :    0.266232
  43 H :    0.253718
  44 H :    0.143653
  45 H :    0.134906
  46 H :    0.133600
  47 H :    0.134599
  48 H :    0.133852

  Mayer bond orders larger than 0.100000
B(  0-C ,  1-C ) :   0.9860 B(  0-C , 27-H ) :   0.9323 B(  0-C , 28-H ) :   0.9387
B(  0-C , 29-H ) :   0.9394 B(  1-C ,  2-C ) :   0.9817 B(  1-C ,  8-N ) :   0.8933
B(  1-C , 30-H ) :   0.9033 B(  2-C ,  3-C ) :   1.4272 B(  2-C ,  7-C ) :   1.4281
B(  3-C ,  4-C ) :   1.4362 B(  3-C , 31-H ) :   0.9213 B(  4-C ,  5-C ) :   1.4591
B(  4-C , 32-H ) :   0.9310 B(  5-C ,  6-C ) :   1.4504 B(  5-C , 33-H ) :   0.9315
B(  6-C ,  7-C ) :   1.4405 B(  6-C , 34-H ) :   0.9316 B(  7-C , 35-H ) :   0.9080
B(  8-N ,  9-C ) :   1.0249 B(  8-N , 17-C ) :   0.9840 B(  9-C , 10-O ) :   1.8051
B(  9-C , 11-C ) :   0.9711 B( 11-C , 12-C ) :   1.3928 B( 11-C , 16-C ) :   1.4075
B( 12-C , 13-C ) :   1.4370 B( 12-C , 36-H ) :   0.9076 B( 13-C , 14-C ) :   1.4527
B( 13-C , 37-H ) :   0.9294 B( 14-C , 15-C ) :   1.4417 B( 14-C , 38-H ) :   0.9299
B( 15-C , 16-C ) :   1.4367 B( 15-C , 39-H ) :   0.9294 B( 16-C , 40-H ) :   0.9175
B( 17-C , 18-C ) :   0.8987 B( 17-C , 21-C ) :   0.9514 B( 17-C , 41-H ) :   0.8970
B( 18-C , 19-N ) :   1.0779 B( 18-C , 20-O ) :   1.8054 B( 19-N , 42-H ) :   0.8214
B( 19-N , 43-H ) :   0.8291 B( 21-C , 22-C ) :   1.4301 B( 21-C , 26-C ) :   1.4140
B( 22-C , 23-C ) :   1.4332 B( 22-C , 44-H ) :   0.9079 B( 23-C , 24-C ) :   1.4553
B( 23-C , 45-H ) :   0.9289 B( 24-C , 25-C ) :   1.4488 B( 24-C , 46-H ) :   0.9296
B( 25-C , 26-C ) :   1.4445 B( 25-C , 47-H ) :   0.9285 B( 26-C , 48-H ) :   0.9240

FINAL SINGLE POINT ENERGY     -1148.917285502442

DIPOLE MOMENT
-------------

Method             : SCF
Type of density    : Electron Density
Multiplicity       :   1
Irrep              :   0
Energy             : -1148.9172855024417004 Eh
Relativity type    :
Basis              : AO
                                X                 Y                 Z
Electronic contribution:      2.570700817      -2.910724776      -2.255736719
Nuclear contribution   :     -0.401302847       3.989076858       1.704509689
                        -----------------------------------------
Total Dipole Moment    :      2.169397970       1.078352082      -0.551227030
                        -----------------------------------------
Magnitude (a.u.)       :      2.484548652
Magnitude (Debye)      :      6.315220794

Rotational constants in cm-1:             0.006922             0.006036             0.004267
Rotational constants in MHz :           207.511321           180.964179           127.917873

                             ****ORCA TERMINATED NORMALLY****
TOTAL RUN TIME: 0 days 0 hours 7 minutes 36 seconds 233 msec
