                         Program Version 6.0.0  -   RELEASE  -
|  1> ! B3LYP 6-31G* SP
|  2>
|  3> * xyz 0 1
|  4> O 2.1841 1.9274 1.8459
|  5> C 1.7213 0.9427 1.2085
|  6> C 0.2753 0.9075 0.8985
|  7> S -0.5960 -0.4244 0.3466
|  8> C -2.0729 0.3890 0.3192
|  9> C -3.3732 -0.1887 -0.0916
| 10> C -3.4694 -1.5280 -0.5149
| 11> C -4.7031 -2.0614 -0.9005
| 12> C -5.8516 -1.2676 -0.8687
| 13> C -5.7692 0.0626 -0.4509
| 14> F -6.8848 0.8326 -0.4204
| 15> C -4.5377 0.6013 -0.0640
| 16> N -1.9213 1.6682 0.7329
| 17> C -0.6313 1.9565 1.0559
| 18> O -0.2591 3.2187 1.5075
| 19> N 2.6054 -0.1191 0.7960
| 20> C 3.9875 -0.2010 1.2748
| 21> C 4.9115 0.1630 0.1115
| 22> C 4.4790 -0.5774 -1.1639
| 23> C 2.9590 -0.4549 -1.3760
| 24> O 2.2649 -0.9340 -0.2423
| 25> H -2.5959 -2.1657 -0.5496
| 26> H -4.7685 -3.0921 -1.2246
| 27> H -6.8047 -1.6843 -1.1680
| 28> H -4.4968 1.6348 0.2564
| 29> H -0.9462 3.9560 1.6078
| 30> H 4.1699 0.4726 2.1393
| 31> H 4.1963 -1.2426 1.6015
| 32> H 5.9617 -0.0973 0.3645
| 33> H 4.8564 1.2593 -0.0667
| 34> H 4.7485 -1.6525 -1.0743
| 35> H 5.0153 -0.1557 -2.0409
| 36> H 2.6780 0.6010 -1.5936
| 37> H 2.6678 -1.0662 -2.2558
| 38> *
| 39>
| 40>                          ****END OF INPUT****

CARTESIAN COORDINATES (ANGSTROEM)
---------------------------------
  O      2.184100    1.927400    1.845900
  C      1.721300    0.942700    1.208500
  C      0.275300    0.907500    0.898500
  S     -0.596000   -0.424400    0.346600
  C     -2.072900    0.389000    0.319200
  C     -3.373200   -0.188700   -0.091600
  C     -3.469400   -1.528000   -0.514900
  C     -4.703100   -2.061400   -0.900500
  C     -5.851600   -1.267600   -0.868700
  C     -5.769200    0.062600   -0.450900
  F     -6.884800    0.832600   -0.420400
  C     -4.537700    0.601300   -0.064000
  N     -1.921300    1.668200    0.732900
  C     -0.631300    1.956500    1.055900
  O     -0.259100    3.218700    1.507500
  N      2.605400   -0.119100    0.796000
  C      3.987500   -0.201000    1.274800
  C      4.911500    0.163000    0.111500
  C      4.479000   -0.577400   -1.163900
  C      2.959000   -0.454900   -1.376000
  O      2.264900   -0.934000   -0.242300
  H     -2.595900   -2.165700   -0.549600
  H     -4.768500   -3.092100   -1.224600
  H     -6.804700   -1.684300   -1.168000
  H     -4.496800    1.634800    0.256400
  H     -0.946200    3.956000    1.607800
  H      4.169900    0.472600    2.139300
  H      4.196300   -1.242600    1.601500
  H      5.961700   -0.097300    0.364500
  H      4.856400    1.259300   -0.066700
  H      4.748500   -1.652500   -1.074300
  H      5.015300   -0.155700   -2.040900
  H      2.678000    0.601000   -1.593600
  H      2.667800   -1.066200   -2.255800

 Total Charge           Charge          ....    0
 Multiplicity           Mult            ....    1
 Number of Electrons    NEL             ....  160
 Basis Dimension        Dim             ....  324

ORBITAL ENERGIES
----------------

  NO   OCC          E(Eh)            E(eV)
   0   2.0000     -88.902285     -2419.1542
   1   2.0000     -24.702827      -672.1981
   2   2.0000     -19.199376      -522.4416
   3   2.0000     -19.171263      -521.6766
   4   2.0000     -19.105676      -519.8919
   5   2.0000     -14.395173      -391.7126
   6   2.0000     -14.335267      -390.0824
   7   2.0000     -10.295207      -280.1468
   8   2.0000     -10.287442      -279.9355
   9   2.0000     -10.276367      -279.6342
  10   2.0000     -10.260595      -279.2050
  11   2.0000     -10.236529      -278.5501
  12   2.0000     -10.220597      -278.1166
  13   2.0000     -10.217702      -278.0378
  14   2.0000     -10.216407      -278.0026
  15   2.0000     -10.201314      -277.5919
  16   2.0000     -10.198616      -277.5185
  17   2.0000     -10.197889      -277.4987
  18   2.0000     -10.197161      -277.4789
  19   2.0000     -10.187456      -277.2148
  20   2.0000     -10.182991      -277.0933
  21   2.0000      -7.978934      -217.1178
  22   2.0000      -5.941904      -161.6874
  23   2.0000      -5.937811      -161.5760
  24   2.0000      -5.936083      -161.5290
  25   2.0000      -1.216042       -33.0902
  26   2.0000      -1.121287       -30.5118
  27   2.0000      -1.041884       -28.3511
  28   2.0000      -1.000979       -27.2380
  29   2.0000      -0.961911       -26.1749
  30   2.0000      -0.869306       -23.6550
  31   2.0000      -0.860766       -23.4226
  32   2.0000      -0.818671       -22.2772
  33   2.0000      -0.802660       -21.8415
  34   2.0000      -0.787363       -21.4252
  35   2.0000      -0.756306       -20.5801
  36   2.0000      -0.733163       -19.9504
  37   2.0000      -0.702615       -19.1191
  38   2.0000      -0.664193       -18.0736
  39   2.0000      -0.647460       -17.6183
  40   2.0000      -0.632604       -17.2140
  41   2.0000      -0.618305       -16.8249
  42   2.0000      -0.588014       -16.0007
  43   2.0000      -0.584939       -15.9170
  44   2.0000      -0.552321       -15.0294
  45   2.0000      -0.535106       -14.5610
  46   2.0000      -0.527125       -14.3438
  47   2.0000      -0.510126       -13.8812
  48   2.0000      -0.508270       -13.8307
  49   2.0000      -0.502821       -13.6824
  50   2.0000      -0.476549       -12.9676
  51   2.0000      -0.471311       -12.8250
  52   2.0000      -0.460459       -12.5297
  53   2.0000      -0.459131       -12.4936
  54   2.0000      -0.452718       -12.3191
  55   2.0000      -0.441242       -12.0068
  56   2.0000      -0.438648       -11.9362
  57   2.0000      -0.434953       -11.8357
  58   2.0000      -0.413589       -11.2543
  59   2.0000      -0.404592       -11.0095
  60   2.0000      -0.401117       -10.9149
  61   2.0000      -0.397918       -10.8279
  62   2.0000      -0.387784       -10.5521
  63   2.0000      -0.380685       -10.3590
  64   2.0000      -0.373925       -10.1750
  65   2.0000      -0.371419       -10.1068
  66   2.0000      -0.359389        -9.7795
  67   2.0000      -0.351479        -9.5642
  68   2.0000      -0.348591        -9.4856
  69   2.0000      -0.346623        -9.4321
  70   2.0000      -0.345083        -9.3902
  71   2.0000      -0.329246        -8.9592
  72   2.0000      -0.294825        -8.0226
  73   2.0000      -0.287173        -7.8144
  74   2.0000      -0.277646        -7.5551
  75   2.0000      -0.264835        -7.2065
  76   2.0000      -0.253419        -6.8959
  77   2.0000      -0.245992        -6.6938
  78   2.0000      -0.224440        -6.1073
  79   2.0000      -0.216044        -5.8789
  80   0.0000      -0.067602        -1.8396
  81   0.0000      -0.011899        -0.3238
  82   0.0000      -0.001318        -0.0359
  83   0.0000       0.029591         0.8052
  84   0.0000       0.041780         1.1369

MULLIKEN ATOMIC CHARGES
-----------------------
   0 O :   -0.465599
   1 C :    0.522950
   2 C :   -0.265787
   3 S :    0.307186
   4 C :   -0.025762
   5 C :    0.155520
   6 C :   -0.196288
   7 C :   -0.121702
   8 C :   -0.200029
   9 C :    0.419219
  10 F :   -0.315891
  11 C :   -0.244463
  12 N :   -0.428448
  13 C :    0.506773
  14 O :   -0.618466
  15 N :   -0.204793
  16 C :   -0.128919
  17 C :   -0.269969
  18 C :   -0.278181
  19 C :   -0.024216
  20 O :   -0.370716
  21 H :    0.152522
  22 H :    0.145192
  23 H :    0.148639
  24 H :    0.172321
  25 H :    0.422439
  26 H :    0.193071
  27 H :    0.148375
  28 H :    0.136633
  29 H :    0.153957
  30 H :    0.142038
  31 H :    0.141089
  32 H :    0.141420
  33 H :    0.149888
Sum of atomic charges:    0.0000000

LOEWDIN ATOMIC CHARGES
----------------------
   0 O :   -0.274580
   1 C :    0.130454
   2 C :   -0.270925
   3 S :    0.417922
   4 C :   -0.115349
   5 C :   -0.021200
   6 C :   -0.131933
   7 C :   -0.117785
   8 C :   -0.150519
   9 C :    0.119356
  10 F :   -0.101123
  11 C :   -0.135732
  12 N :   -0.187139
  13 C :    0.111776
  14 O :   -0.313795
  15 N :   -0.015665
  16 C :   -0.158394
  17 C :   -0.239324
  18 C :   -0.247317
  19 C :   -0.104467
  20 O :   -0.146773
  21 H :    0.142206
  22 H :    0.140136
  23 H :    0.145192
  24 H :    0.158811
  25 H :    0.342841
  26 H :    0.156369
  27 H :    0.123329
  28 H :    0.123216
  29 H :    0.128473
  30 H :    0.123327
  31 H :    0.128393
  32 H :    0.113773
  33 H :    0.126444

  Mayer bond orders larger than 0.100000
B(  0-O ,  1-C ) :   1.8035 B(  1-C ,  2-C ) :   0.9895 B(  1-C , 15-N ) :   1.0096
B(  2-C ,  3-S ) :   1.0782 B(  2-C ,  4-C ) :   0.1173 B(  2-C , 13-C ) :   1.4092
B(  3-S ,  4-C ) :   1.1702 B(  4-C ,  5-C ) :   1.0238 B(  4-C , 12-N ) :   1.4293
B(  5-C ,  6-C ) :   1.3933 B(  5-C , 11-C ) :   1.3756 B(  6-C ,  7-C ) :   1.4474
B(  6-C , 21-H ) :   0.9155 B(  7-C ,  8-C ) :   1.4264 B(  7-C , 22-H ) :   0.9283
B(  8-C ,  9-C ) :   1.3861 B(  8-C , 23-H ) :   0.9204 B(  9-C , 10-F ) :   0.9119
B(  9-C , 11-C ) :   1.3729 B( 11-C , 24-H ) :   0.9038 B( 12-N , 13-C ) :   1.2975
B( 13-C , 14-O ) :   1.0184 B( 14-O , 25-H ) :   0.7557 B( 15-N , 16-C ) :   0.9171
B( 15-N , 20-O ) :   0.9273 B( 16-C , 17-C ) :   0.9902 B( 16-C , 26-H ) :   0.9158
B( 16-C , 27-H ) :   0.9288 B( 17-C , 18-C ) :   1.0129 B( 17-C , 28-H ) :   0.9387
B( 17-C , 29-H ) :   0.9367 B( 18-C , 19-C ) :   0.9951 B( 18-C , 30-H ) :   0.9361
B( 18-C , 31-H ) :   0.9347 B( 19-C , 20-O ) :   0.8849 B( 19-C , 32-H ) :   0.9245
B( 19-C , 33-H ) :   0.9380

FINAL SINGLE POINT ENERGY     -1373.822912195803

DIPOLE MOMENT
-------------

Method             : SCF
Type of density    : Electron Density
Multiplicity       :   1
Irrep              :   0
Energy             : -1373.8229121958033829 Eh
Relativity type    :
Basis              : AO
                                X                 Y                 Z
Electronic contribution:    -27.414822019       5.403855456       4.637370296
Nuclear contribution   :     27.692475659      -6.393834345      -5.650011579
                        -----------------------------------------
Total Dipole Moment    :      0.277653639      -0.989978889      -1.012641283
                        -----------------------------------------
Magnitude (a.u.)       :      1.443118884
Magnitude (Debye)      :      3.668116694

Rotational constants in cm-1:             0.023211             0.004233             0.003720
Rotational constants in MHz :           695.861645           126.907873           111.537272

                             ****ORCA TERMINATED NORMALLY****
TOTAL RUN TIME: 0 days 0 hours 3 minutes 54 seconds 19 msec
