                         Program Version 6.0.0  -   RELEASE  -
|  1> ! B3LYP 6-31G* SP
|  2>
|  3> * xyz 0 1
|  4> N 0.4068 -3.2173 1.5520
|  5> C 0.0444 -1.8384 1.5301
|  6> O -0.3912 -1.3012 2.5818
|  7> C 0.1582 -1.0549 0.2434
|  8> C -0.8908 -1.4902 -0.7634
|  9> C -0.5288 -1.6905 -2.1082
| 10> C -1.4905 -2.0593 -3.0543
| 11> C -2.8231 -2.2288 -2.6704
| 12> C -3.1991 -2.0208 -1.3414
| 13> C -2.2407 -1.6518 -0.3910
| 14> N 0.1257 0.4113 0.4644
| 15> C -1.1085 1.0822 0.7800
| 16> O -1.4640 1.1731 1.9848
| 17> C -1.9427 1.7000 -0.2817
| 18> C -1.5299 1.6846 -1.6278
| 19> C -2.3304 2.2561 -2.6220
| 20> C -3.5393 2.8645 -2.2807
| 21> C -3.9641 2.8859 -0.9517
| 22> C -3.1745 2.3048 0.0428
| 23> C 1.3685 1.2041 0.5376
| 24> C 2.2147 1.0940 -0.7545
| 25> C 3.5101 0.3400 -0.3935
| 26> C 3.4480 0.2039 1.0796
| 27> C 4.4279 -0.3498 1.9088
| 28> C 4.1983 -0.3886 3.2914
| 29> C 3.0021 0.1259 3.8232
| 30> F 2.7860 0.0905 5.1593
| 31> C 2.0301 0.6741 2.9729
| 32> C 2.2728 0.6903 1.5972
| 33> H 0.3431 -3.7659 2.4380
| 34> H 0.7360 -3.6932 0.6835
| 35> H 1.1532 -1.3313 -0.1659
| 36> H 0.4986 -1.5592 -2.4268
| 37> H -1.2023 -2.2142 -4.0862
| 38> H -3.5658 -2.5168 -3.4045
| 39> H -4.2352 -2.1419 -1.0474
| 40> H -2.5540 -1.4858 0.6321
| 41> H -0.5925 1.2326 -1.9193
| 42> H -2.0039 2.2389 -3.6538
| 43> H -4.1438 3.3221 -3.0477
| 44> H -4.9036 3.3574 -0.6901
| 45> H -3.5270 2.3333 1.0663
| 46> H 1.1417 2.2751 0.7415
| 47> H 2.4706 2.1133 -1.1170
| 48> H 1.6739 0.5710 -1.5699
| 49> H 3.5266 -0.6655 -0.8650
| 50> H 4.4082 0.9200 -0.6946
| 51> H 5.3482 -0.7402 1.4940
| 52> H 4.9457 -0.8133 3.9493
| 53> H 1.1059 1.0698 3.3748
| 54> *
| 55>
| 56>                          ****END OF INPUT****

CARTESIAN COORDINATES (ANGSTROEM)
---------------------------------
  N      0.406800   -3.217300    1.552000
  C      0.044400   -1.838400    1.530100
  O     -0.391200   -1.301200    2.581800
  C      0.158200   -1.054900    0.243400
  C     -0.890800   -1.490200   -0.763400
  C     -0.528800   -1.690500   -2.108200
  C     -1.490500   -2.059300   -3.054300
  C     -2.823100   -2.228800   -2.670400
  C     -3.199100   -2.020800   -1.341400
  C     -2.240700   -1.651800   -0.391000
  N      0.125700    0.411300    0.464400
  C     -1.108500    1.082200    0.780000
  O     -1.464000    1.173100    1.984800
  C     -1.942700    1.700000   -0.281700
  C     -1.529900    1.684600   -1.627800
  C     -2.330400    2.256100   -2.622000
  C     -3.539300    2.864500   -2.280700
  C     -3.964100    2.885900   -0.951700
  C     -3.174500    2.304800    0.042800
  C      1.368500    1.204100    0.537600
  C      2.214700    1.094000   -0.754500
  C      3.510100    0.340000   -0.393500
  C      3.448000    0.203900    1.079600
  C      4.427900   -0.349800    1.908800
  C      4.198300   -0.388600    3.291400
  C      3.002100    0.125900    3.823200
  F      2.786000    0.090500    5.159300
  C      2.030100    0.674100    2.972900
  C      2.272800    0.690300    1.597200
  H      0.343100   -3.765900    2.438000
  H      0.736000   -3.693200    0.683500
  H      1.153200   -1.331300   -0.165900
  H      0.498600   -1.559200   -2.426800
  H     -1.202300   -2.214200   -4.086200
  H     -3.565800   -2.516800   -3.404500
  H     -4.235200   -2.141900   -1.047400
  H     -2.554000   -1.485800    0.632100
  H     -0.592500    1.232600   -1.919300
  H     -2.003900    2.238900   -3.653800
  H     -4.143800    3.322100   -3.047700
  H     -4.903600    3.357400   -0.690100
  H     -3.527000    2.333300    1.066300
  H      1.141700    2.275100    0.741500
  H      2.470600    2.113300   -1.117000
  H      1.673900    0.571000   -1.569900
  H      3.526600   -0.665500   -0.865000
  H      4.408200    0.920000   -0.694600
  H      5.348200   -0.740200    1.494000
  H      4.945700   -0.813300    3.949300
  H      1.105900    1.069800    3.374800

 Total Charge           Charge          ....    0
 Multiplicity           Mult            ....    1
 Number of Electrons    NEL             ....  204
 Basis Dimension        Dim             ....  448

ORBITAL ENERGIES
----------------

  NO   OCC          E(Eh)            E(eV)
   0   2.0000     -24.680682      -671.5955
   1   2.0000     -19.118759      -520.2479
   2   2.0000     -19.095615      -519.6181
   3   2.0000     -14.345238      -390.3538
   4   2.0000     -14.320777      -389.6881
   5   2.0000     -10.284165      -279.8464
   6   2.0000     -10.277497      -279.6649
   7   2.0000     -10.253045      -278.9995
   8   2.0000     -10.237301      -278.5711
   9   2.0000     -10.219567      -278.0885
  10   2.0000     -10.199991      -277.5559
  11   2.0000     -10.192439      -277.3504
  12   2.0000     -10.190559      -277.2992
  13   2.0000     -10.188544      -277.2444
  14   2.0000     -10.188408      -277.2407
  15   2.0000     -10.187140      -277.2062
  16   2.0000     -10.186681      -277.1937
  17   2.0000     -10.186156      -277.1794
  18   2.0000     -10.185115      -277.1511
  19   2.0000     -10.185051      -277.1493
  20   2.0000     -10.184566      -277.1361
  21   2.0000     -10.184027      -277.1215
  22   2.0000     -10.180068      -277.0137
  23   2.0000     -10.178797      -276.9791
  24   2.0000     -10.178783      -276.9788
  25   2.0000     -10.178370      -276.9675
  26   2.0000     -10.172360      -276.8040
  27   2.0000     -10.170897      -276.7642
  28   2.0000     -10.169843      -276.7355
  29   2.0000      -1.194679       -32.5089
  30   2.0000      -1.012168       -27.5425
  31   2.0000      -0.995056       -27.0768
  32   2.0000      -0.914228       -24.8774
  33   2.0000      -0.871348       -23.7106
  34   2.0000      -0.863587       -23.4994
  35   2.0000      -0.852713       -23.2035
  36   2.0000      -0.850263       -23.1368
  37   2.0000      -0.802617       -21.8403
  38   2.0000      -0.775630       -21.1060
  39   2.0000      -0.757854       -20.6223
  40   2.0000      -0.747261       -20.3340
  41   2.0000      -0.744924       -20.2704
  42   2.0000      -0.743589       -20.2341
  43   2.0000      -0.711798       -19.3690
  44   2.0000      -0.704423       -19.1683
  45   2.0000      -0.682326       -18.5670
  46   2.0000      -0.628878       -17.1126
  47   2.0000      -0.612449       -16.6656
  48   2.0000      -0.610158       -16.6032
  49   2.0000      -0.603569       -16.4240
  50   2.0000      -0.599057       -16.3012
  51   2.0000      -0.582830       -15.8596
  52   2.0000      -0.573337       -15.6013
  53   2.0000      -0.571558       -15.5529
  54   2.0000      -0.540905       -14.7188
  55   2.0000      -0.526536       -14.3278
  56   2.0000      -0.519826       -14.1452
  57   2.0000      -0.516366       -14.0510
  58   2.0000      -0.497502       -13.5377
  59   2.0000      -0.490690       -13.3524
  60   2.0000      -0.488105       -13.2820
  61   2.0000      -0.475412       -12.9366
  62   2.0000      -0.463718       -12.6184
  63   2.0000      -0.461022       -12.5451
  64   2.0000      -0.455440       -12.3932
  65   2.0000      -0.448781       -12.2119
  66   2.0000      -0.444835       -12.1046
  67   2.0000      -0.438677       -11.9370
  68   2.0000      -0.436040       -11.8653
  69   2.0000      -0.433836       -11.8053
  70   2.0000      -0.427381       -11.6296
  71   2.0000      -0.423334       -11.5195
  72   2.0000      -0.420511       -11.4427
  73   2.0000      -0.419047       -11.4028
  74   2.0000      -0.412015       -11.2115
  75   2.0000      -0.407035       -11.0760
  76   2.0000      -0.387528       -10.5452
  77   2.0000      -0.380430       -10.3520
  78   2.0000      -0.377186       -10.2638
  79   2.0000      -0.368364       -10.0237
  80   2.0000      -0.365812        -9.9543
  81   2.0000      -0.360243        -9.8027
  82   2.0000      -0.356827        -9.7098
  83   2.0000      -0.353015        -9.6060
  84   2.0000      -0.350929        -9.5493
  85   2.0000      -0.347106        -9.4452
  86   2.0000      -0.344555        -9.3758
  87   2.0000      -0.341074        -9.2811
  88   2.0000      -0.338787        -9.2189
  89   2.0000      -0.333315        -9.0700
  90   2.0000      -0.325375        -8.8539
  91   2.0000      -0.320055        -8.7091
  92   2.0000      -0.260388        -7.0855
  93   2.0000      -0.255911        -6.9637
  94   2.0000      -0.254832        -6.9343
  95   2.0000      -0.252111        -6.8603
  96   2.0000      -0.248143        -6.7523
  97   2.0000      -0.242659        -6.6031
  98   2.0000      -0.237097        -6.4517
  99   2.0000      -0.225733        -6.1425
 100   2.0000      -0.220633        -6.0037
 101   2.0000      -0.200987        -5.4691
 102   0.0000      -0.055551        -1.5116
 103   0.0000      -0.014560        -0.3962
 104   0.0000      -0.006381        -0.1736
 105   0.0000      -0.001655        -0.0450
 106   0.0000       0.000474         0.0129

MULLIKEN ATOMIC CHARGES
-----------------------
   0 N :   -0.767668
   1 C :    0.584530
   2 O :   -0.457683
   3 C :   -0.158371
   4 C :    0.147881
   5 C :   -0.193655
   6 C :   -0.125735
   7 C :   -0.121998
   8 C :   -0.123400
   9 C :   -0.176075
  10 N :   -0.430966
  11 C :    0.427610
  12 O :   -0.398139
  13 C :    0.111571
  14 C :   -0.157304
  15 C :   -0.131477
  16 C :   -0.115848
  17 C :   -0.131001
  18 C :   -0.156970
  19 C :   -0.068002
  20 C :   -0.304454
  21 C :   -0.351846
  22 C :    0.108501
  23 C :   -0.170389
  24 C :   -0.210938
  25 C :    0.403101
  26 F :   -0.319291
  27 C :   -0.241990
  28 C :    0.136139
  29 H :    0.349871
  30 H :    0.325367
  31 H :    0.149138
  32 H :    0.123907
  33 H :    0.129082
  34 H :    0.130186
  35 H :    0.136664
  36 H :    0.169837
  37 H :    0.145566
  38 H :    0.129079
  39 H :    0.131668
  40 H :    0.134367
  41 H :    0.160129
  42 H :    0.161195
  43 H :    0.145942
  44 H :    0.147659
  45 H :    0.138411
  46 H :    0.150658
  47 H :    0.123862
  48 H :    0.135327
  49 H :    0.175949
Sum of atomic charges:   -0.0000000

LOEWDIN ATOMIC CHARGES
----------------------
   0 N :   -0.405595
   1 C :    0.129680
   2 O :   -0.266216
   3 C :   -0.063797
   4 C :   -0.023423
   5 C :   -0.139059
   6 C :   -0.129410
   7 C :   -0.126037
   8 C :   -0.120411
   9 C :   -0.124642
  10 N :   -0.138753
  11 C :    0.152057
  12 O :   -0.203161
  13 C :   -0.058183
  14 C :   -0.103953
  15 C :   -0.133131
  16 C :   -0.112491
  17 C :   -0.132168
  18 C :   -0.092755
  19 C :   -0.040724
  20 C :   -0.234657
  21 C :   -0.228270
  22 C :   -0.042479
  23 C :   -0.132952
  24 C :   -0.157584
  25 C :    0.113761
  26 F :   -0.104292
  27 C :   -0.134050
  28 C :   -0.033968
  29 H :    0.264818
  30 H :    0.246776
  31 H :    0.139933
  32 H :    0.126928
  33 H :    0.131733
  34 H :    0.132361
  35 H :    0.135445
  36 H :    0.149443
  37 H :    0.139964
  38 H :    0.131889
  39 H :    0.132914
  40 H :    0.134213
  41 H :    0.149354
  42 H :    0.139452
  43 H :    0.128066
  44 H :    0.122435
  45 H :    0.121112
  46 H :    0.130629
  47 H :    0.130689
  48 H :    0.138687
  49 H :    0.159822

  Mayer bond orders larger than 0.100000
B(  0-N ,  1-C ) :   1.0610 B(  0-N , 29-H ) :   0.8234 B(  0-N , 30-H ) :   0.8337
B(  1-C ,  2-O ) :   1.8487 B(  1-C ,  3-C ) :   0.8872 B(  3-C ,  4-C ) :   0.9620
B(  3-C , 10-N ) :   0.9916 B(  3-C , 31-H ) :   0.9002 B(  4-C ,  5-C ) :   1.4228
B(  4-C ,  9-C ) :   1.4238 B(  5-C ,  6-C ) :   1.4393 B(  5-C , 32-H ) :   0.9232
B(  6-C ,  7-C ) :   1.4529 B(  6-C , 33-H ) :   0.9293 B(  7-C ,  8-C ) :   1.4526
B(  7-C , 34-H ) :   0.9299 B(  8-C ,  9-C ) :   1.4340 B(  8-C , 35-H ) :   0.9289
B(  9-C , 36-H ) :   0.9075 B( 10-N , 11-C ) :   0.9181 B( 10-N , 19-C ) :   0.9591
B( 11-C , 12-O ) :   1.8915 B( 11-C , 13-C ) :   1.0085 B( 13-C , 14-C ) :   1.3895
B( 13-C , 18-C ) :   1.3764 B( 14-C , 15-C ) :   1.4322 B( 14-C , 37-H ) :   0.9057
B( 15-C , 16-C ) :   1.4503 B( 15-C , 38-H ) :   0.9305 B( 16-C , 17-C ) :   1.4332
B( 16-C , 39-H ) :   0.9302 B( 17-C , 18-C ) :   1.4407 B( 17-C , 40-H ) :   0.9301
B( 18-C , 41-H ) :   0.9126 B( 19-C , 20-C ) :   0.9645 B( 19-C , 28-C ) :   0.9648
B( 19-C , 42-H ) :   0.9223 B( 20-C , 21-C ) :   0.9893 B( 20-C , 43-H ) :   0.9457
B( 20-C , 44-H ) :   0.9367 B( 21-C , 22-C ) :   0.9778 B( 21-C , 45-H ) :   0.9323
B( 21-C , 46-H ) :   0.9338 B( 22-C , 23-C ) :   1.3993 B( 22-C , 28-C ) :   1.4798
B( 23-C , 24-C ) :   1.4308 B( 23-C , 27-C ) :   0.1009 B( 23-C , 47-H ) :   0.9286
B( 24-C , 25-C ) :   1.3670 B( 24-C , 48-H ) :   0.9232 B( 25-C , 26-F ) :   0.9077
B( 25-C , 27-C ) :   1.3813 B( 27-C , 28-C ) :   1.3763 B( 27-C , 49-H ) :   0.9009

FINAL SINGLE POINT ENERGY     -1286.176757788499

DIPOLE MOMENT
-------------

Method             : SCF
Type of density    : Electron Density
Multiplicity       :   1
Irrep              :   0
Energy             : -1286.1767577884986622 Eh
Relativity type    :
Basis              : AO
                                X                 Y                 Z
Electronic contribution:      2.647826976       1.295695909      20.146416747
Nuclear contribution   :     -2.324195546      -2.033332305     -22.690522390
                        -----------------------------------------
Total Dipole Moment    :      0.323631430      -0.737636396      -2.544105643
                        -----------------------------------------
Magnitude (a.u.)       :      2.668579824
Magnitude (Debye)      :      6.782990860

Rotational constants in cm-1:             0.009506             0.004094             0.003784
Rotational constants in MHz :           284.980546           122.729244           113.450984

                             ****ORCA TERMINATED NORMALLY****
TOTAL RUN TIME: 0 days 0 hours 6 minutes 16 seconds 690 msec
