                         Program Version 6.0.0  -   RELEASE  -
|  1> ! B3LYP 6-31G* SP
|  2>
|  3> * xyz 0 1
|  4> N 3.1260 -1.8018 2.5438
|  5> C 1.9408 -1.2173 2.0012
|  6> O 0.8584 -1.3252 2.6361
|  7> C 2.0083 -0.4165 0.7182
|  8> C 2.7325 -1.1590 -0.3945
|  9> C 3.5821 -0.4504 -1.2637
| 10> C 4.2201 -1.1031 -2.3225
| 11> C 4.0149 -2.4685 -2.5298
| 12> C 3.1723 -3.1845 -1.6774
| 13> C 2.5322 -2.5371 -0.6168
| 14> N 0.6740 0.0388 0.2629
| 15> C 0.5474 1.4168 -0.1594
| 16> O 1.4063 1.9096 -0.9392
| 17> C -0.5857 2.2608 0.2709
| 18> C -1.3681 2.8940 -0.7059
| 19> C -2.4932 3.6300 -0.3368
| 20> C -2.8204 3.7454 1.0129
| 21> N -2.0346 3.1626 1.9551
| 22> C -0.9281 2.4384 1.6309
| 23> N -0.1270 1.8981 2.6852
| 24> C -0.3433 -0.9587 -0.1528
| 25> C -0.4093 -1.0848 -1.6955
| 26> C -1.7686 -0.5202 -2.1456
| 27> C -2.5079 -0.3131 -0.8788
| 28> C -3.8341 0.1068 -0.7452
| 29> F -4.5896 0.3762 -1.8385
| 30> C -4.3716 0.2507 0.5424
| 31> C -3.5843 -0.0357 1.6724
| 32> Cl -4.2575 0.1519 3.2804
| 33> C -2.2545 -0.4567 1.5156
| 34> C -1.7280 -0.5631 0.2245
| 35> H 4.0472 -1.6843 2.0665
| 36> H 3.0851 -2.3444 3.4348
| 37> H 2.6185 0.4756 0.9871
| 38> H 3.7535 0.6091 -1.1226
| 39> H 4.8726 -0.5485 -2.9845
| 40> H 4.5088 -2.9716 -3.3509
| 41> H 3.0134 -4.2428 -1.8393
| 42> H 1.8852 -3.1149 0.0294
| 43> H -1.1263 2.7894 -1.7565
| 44> H -3.1107 4.1000 -1.0911
| 45> H -3.6937 4.3081 1.3138
| 46> H -0.4508 1.9738 3.6748
| 47> H 0.8202 1.5010 2.5101
| 48> H -0.1331 -1.9529 0.2940
| 49> H -0.3416 -2.1575 -1.9818
| 50> H 0.4231 -0.5451 -2.1973
| 51> H -1.6376 0.4505 -2.6697
| 52> H -2.3052 -1.2409 -2.7993
| 53> H -5.3950 0.5816 0.6633
| 54> H -1.6429 -0.6707 2.3807
| 55> *
| 56>
| 57>                          ****END OF INPUT****

CARTESIAN COORDINATES (ANGSTROEM)
---------------------------------
  N      3.126000   -1.801800    2.543800
  C      1.940800   -1.217300    2.001200
  O      0.858400   -1.325200    2.636100
  C      2.008300   -0.416500    0.718200
  C      2.732500   -1.159000   -0.394500
  C      3.582100   -0.450400   -1.263700
  C      4.220100   -1.103100   -2.322500
  C      4.014900   -2.468500   -2.529800
  C      3.172300   -3.184500   -1.677400
  C      2.532200   -2.537100   -0.616800
  N      0.674000    0.038800    0.262900
  C      0.547400    1.416800   -0.159400
  O      1.406300    1.909600   -0.939200
  C     -0.585700    2.260800    0.270900
  C     -1.368100    2.894000   -0.705900
  C     -2.493200    3.630000   -0.336800
  C     -2.820400    3.745400    1.012900
  N     -2.034600    3.162600    1.955100
  C     -0.928100    2.438400    1.630900
  N     -0.127000    1.898100    2.685200
  C     -0.343300   -0.958700   -0.152800
  C     -0.409300   -1.084800   -1.695500
  C     -1.768600   -0.520200   -2.145600
  C     -2.507900   -0.313100   -0.878800
  C     -3.834100    0.106800   -0.745200
  F     -4.589600    0.376200   -1.838500
  C     -4.371600    0.250700    0.542400
  C     -3.584300   -0.035700    1.672400
  Cl    -4.257500    0.151900    3.280400
  C     -2.254500   -0.456700    1.515600
  C     -1.728000   -0.563100    0.224500
  H      4.047200   -1.684300    2.066500
  H      3.085100   -2.344400    3.434800
  H      2.618500    0.475600    0.987100
  H      3.753500    0.609100   -1.122600
  H      4.872600   -0.548500   -2.984500
  H      4.508800   -2.971600   -3.350900
  H      3.013400   -4.242800   -1.839300
  H      1.885200   -3.114900    0.029400
  H     -1.126300    2.789400   -1.756500
  H     -3.110700    4.100000   -1.091100
  H     -3.693700    4.308100    1.313800
  H     -0.450800    1.973800    3.674800
  H      0.820200    1.501000    2.510100
  H     -0.133100   -1.952900    0.294000
  H     -0.341600   -2.157500   -1.981800
  H      0.423100   -0.545100   -2.197300
  H     -1.637600    0.450500   -2.669700
  H     -2.305200   -1.240900   -2.799300
  H     -5.395000    0.581600    0.663300
  H     -1.642900   -0.670700    2.380700

 Total Charge           Charge          ....    0
 Multiplicity           Mult            ....    1
 Number of Electrons    NEL             ....  228
 Basis Dimension        Dim             ....  478

ORBITAL ENERGIES
----------------

  NO   OCC          E(Eh)            E(eV)
   0   2.0000    -101.516998     -2762.4179
   1   2.0000     -24.698423      -672.0783
   2   2.0000     -19.127950      -520.4980
   3   2.0000     -19.125676      -520.4361
   4   2.0000     -14.366855      -390.9420
   5   2.0000     -14.346411      -390.3857
   6   2.0000     -14.337788      -390.1511
   7   2.0000     -14.313121      -389.4798
   8   2.0000     -10.306399      -280.4514
   9   2.0000     -10.294568      -280.1294
  10   2.0000     -10.264836      -279.3204
  11   2.0000     -10.262814      -279.2654
  12   2.0000     -10.248921      -278.8873
  13   2.0000     -10.238746      -278.6104
  14   2.0000     -10.224969      -278.2356
  15   2.0000     -10.214455      -277.9495
  16   2.0000     -10.201147      -277.5873
  17   2.0000     -10.195877      -277.4439
  18   2.0000     -10.192132      -277.3420
  19   2.0000     -10.191673      -277.3295
  20   2.0000     -10.189712      -277.2762
  21   2.0000     -10.189502      -277.2704
  22   2.0000     -10.188075      -277.2316
  23   2.0000     -10.187397      -277.2132
  24   2.0000     -10.186642      -277.1926
  25   2.0000     -10.184184      -277.1257
  26   2.0000     -10.182513      -277.0803
  27   2.0000     -10.179719      -277.0042
  28   2.0000     -10.178045      -276.9587
  29   2.0000     -10.173830      -276.8440
  30   2.0000     -10.173611      -276.8380
  31   2.0000      -9.448753      -257.1136
  32   2.0000      -7.211823      -196.2437
  33   2.0000      -7.202327      -195.9853
  34   2.0000      -7.202080      -195.9786
  35   2.0000      -1.210761       -32.9465
  36   2.0000      -1.028121       -27.9766
  37   2.0000      -1.020928       -27.7809
  38   2.0000      -0.936944       -25.4955
  39   2.0000      -0.924778       -25.1645
  40   2.0000      -0.892534       -24.2871
  41   2.0000      -0.882026       -24.0011
  42   2.0000      -0.864722       -23.5303
  43   2.0000      -0.858405       -23.3584
  44   2.0000      -0.847907       -23.0727
  45   2.0000      -0.798089       -21.7171
  46   2.0000      -0.795541       -21.6478
  47   2.0000      -0.775741       -21.1090
  48   2.0000      -0.750027       -20.4093
  49   2.0000      -0.748723       -20.3738
  50   2.0000      -0.745360       -20.2823
  51   2.0000      -0.719363       -19.5749
  52   2.0000      -0.704708       -19.1761
  53   2.0000      -0.686444       -18.6791
  54   2.0000      -0.648042       -17.6341
  55   2.0000      -0.616674       -16.7806
  56   2.0000      -0.615893       -16.7593
  57   2.0000      -0.613214       -16.6864
  58   2.0000      -0.604286       -16.4435
  59   2.0000      -0.592650       -16.1268
  60   2.0000      -0.583928       -15.8895
  61   2.0000      -0.578061       -15.7298
  62   2.0000      -0.548593       -14.9280
  63   2.0000      -0.534049       -14.5322
  64   2.0000      -0.532374       -14.4866
  65   2.0000      -0.524018       -14.2593
  66   2.0000      -0.513309       -13.9678
  67   2.0000      -0.511984       -13.9318
  68   2.0000      -0.497488       -13.5373
  69   2.0000      -0.493565       -13.4306
  70   2.0000      -0.489900       -13.3309
  71   2.0000      -0.477820       -13.0021
  72   2.0000      -0.473334       -12.8801
  73   2.0000      -0.467418       -12.7191
  74   2.0000      -0.456672       -12.4267
  75   2.0000      -0.453585       -12.3427
  76   2.0000      -0.450157       -12.2494
  77   2.0000      -0.443887       -12.0788
  78   2.0000      -0.437987       -11.9182
  79   2.0000      -0.434808       -11.8317
  80   2.0000      -0.430209       -11.7066
  81   2.0000      -0.423266       -11.5176
  82   2.0000      -0.420637       -11.4461
  83   2.0000      -0.415627       -11.3098
  84   2.0000      -0.408161       -11.1066
  85   2.0000      -0.400581       -10.9004
  86   2.0000      -0.394669       -10.7395
  87   2.0000      -0.392537       -10.6815
  88   2.0000      -0.387973       -10.5573
  89   2.0000      -0.379736       -10.3331
  90   2.0000      -0.370489       -10.0815
  91   2.0000      -0.368849       -10.0369
  92   2.0000      -0.364157        -9.9092
  93   2.0000      -0.356196        -9.6926
  94   2.0000      -0.353632        -9.6228
  95   2.0000      -0.351729        -9.5710
  96   2.0000      -0.348501        -9.4832
  97   2.0000      -0.343837        -9.3563
  98   2.0000      -0.341981        -9.3058
  99   2.0000      -0.339167        -9.2292
 100   2.0000      -0.308184        -8.3861
 101   2.0000      -0.305950        -8.3253
 102   2.0000      -0.300446        -8.1756
 103   2.0000      -0.280303        -7.6274
 104   2.0000      -0.275135        -7.4868
 105   2.0000      -0.266758        -7.2589
 106   2.0000      -0.260677        -7.0934
 107   2.0000      -0.253691        -6.9033
 108   2.0000      -0.249616        -6.7924
 109   2.0000      -0.240385        -6.5412
 110   2.0000      -0.235970        -6.4211
 111   2.0000      -0.225216        -6.1284
 112   2.0000      -0.220304        -5.9948
 113   2.0000      -0.205508        -5.5921
 114   0.0000      -0.046954        -1.2777
 115   0.0000      -0.014707        -0.4002
 116   0.0000      -0.009538        -0.2595
 117   0.0000      -0.008293        -0.2257
 118   0.0000      -0.005219        -0.1420

MULLIKEN ATOMIC CHARGES
-----------------------
   0 N :   -0.761925
   1 C :    0.555412
   2 O :   -0.470076
   3 C :   -0.160595
   4 C :    0.147442
   5 C :   -0.169184
   6 C :   -0.130079
   7 C :   -0.124277
   8 C :   -0.133167
   9 C :   -0.177031
  10 N :   -0.394470
  11 C :    0.374320
  12 O :   -0.442452
  13 C :    0.072166
  14 C :   -0.120788
  15 C :   -0.154576
  16 C :    0.030290
  17 N :   -0.435666
  18 C :    0.444035
  19 N :   -0.786657
  20 C :   -0.056371
  21 C :   -0.303369
  22 C :   -0.346656
  23 C :    0.031245
  24 C :    0.366956
  25 F :   -0.313798
  26 C :   -0.214900
  27 C :   -0.050069
  28 Cl:   -0.018550
  29 C :   -0.186848
  30 C :    0.115461
  31 H :    0.340930
  32 H :    0.354526
  33 H :    0.172437
  34 H :    0.151598
  35 H :    0.134717
  36 H :    0.130995
  37 H :    0.132069
  38 H :    0.137645
  39 H :    0.153927
  40 H :    0.128410
  41 H :    0.149770
  42 H :    0.346476
  43 H :    0.341014
  44 H :    0.168698
  45 H :    0.142856
  46 H :    0.174886
  47 H :    0.155307
  48 H :    0.157425
  49 H :    0.154704
  50 H :    0.185788
Sum of atomic charges:    0.0000000

LOEWDIN ATOMIC CHARGES
----------------------
   0 N :   -0.398732
   1 C :    0.132274
   2 O :   -0.285341
   3 C :   -0.069668
   4 C :   -0.034179
   5 C :   -0.122628
   6 C :   -0.127761
   7 C :   -0.127704
   8 C :   -0.130822
   9 C :   -0.136707
  10 N :   -0.109358
  11 C :    0.142715
  12 O :   -0.250116
  13 C :   -0.088959
  14 C :   -0.074967
  15 C :   -0.179129
  16 C :   -0.048609
  17 N :   -0.164188
  18 C :    0.096038
  19 N :   -0.391737
  20 C :   -0.041934
  21 C :   -0.235301
  22 C :   -0.224484
  23 C :   -0.050722
  24 C :    0.114582
  25 F :   -0.102296
  26 C :   -0.161992
  27 C :   -0.082878
  28 Cl:    0.037441
  29 C :   -0.128729
  30 C :   -0.021846
  31 H :    0.256804
  32 H :    0.267668
  33 H :    0.152829
  34 H :    0.142565
  35 H :    0.134494
  36 H :    0.132679
  37 H :    0.133096
  38 H :    0.133144
  39 H :    0.143890
  40 H :    0.134027
  41 H :    0.135738
  42 H :    0.262901
  43 H :    0.252755
  44 H :    0.142176
  45 H :    0.126364
  46 H :    0.140704
  47 H :    0.130529
  48 H :    0.135094
  49 H :    0.149972
  50 H :    0.160309

  Mayer bond orders larger than 0.100000
B(  0-N ,  1-C ) :   1.0873 B(  0-N , 31-H ) :   0.8228 B(  0-N , 32-H ) :   0.8210
B(  1-C ,  2-O ) :   1.8128 B(  1-C ,  3-C ) :   0.9067 B(  3-C ,  4-C ) :   0.9474
B(  3-C , 10-N ) :   0.9736 B(  3-C , 33-H ) :   0.9012 B(  4-C ,  5-C ) :   1.4261
B(  4-C ,  9-C ) :   1.4119 B(  5-C ,  6-C ) :   1.4386 B(  5-C , 34-H ) :   0.9137
B(  6-C ,  7-C ) :   1.4502 B(  6-C , 35-H ) :   0.9290 B(  7-C ,  8-C ) :   1.4535
B(  7-C , 36-H ) :   0.9298 B(  8-C ,  9-C ) :   1.4406 B(  8-C , 37-H ) :   0.9293
B(  9-C , 38-H ) :   0.9174 B( 10-N , 11-C ) :   1.0097 B( 10-N , 20-C ) :   0.9220
B( 11-C , 12-O ) :   1.8280 B( 11-C , 13-C ) :   0.9426 B( 13-C , 14-C ) :   1.4184
B( 13-C , 18-C ) :   1.2961 B( 14-C , 15-C ) :   1.4285 B( 14-C , 39-H ) :   0.9180
B( 15-C , 16-C ) :   1.4152 B( 15-C , 40-H ) :   0.9256 B( 16-C , 17-N ) :   1.4277
B( 16-C , 41-H ) :   0.9301 B( 17-N , 18-C ) :   1.3592 B( 18-C , 19-N ) :   1.0515
B( 19-N , 42-H ) :   0.8260 B( 19-N , 43-H ) :   0.8195 B( 20-C , 21-C ) :   0.9587
B( 20-C , 30-C ) :   0.9803 B( 20-C , 44-H ) :   0.9107 B( 21-C , 22-C ) :   0.9810
B( 21-C , 45-H ) :   0.9442 B( 21-C , 46-H ) :   0.9340 B( 22-C , 23-C ) :   0.9767
B( 22-C , 47-H ) :   0.9271 B( 22-C , 48-H ) :   0.9338 B( 23-C , 24-C ) :   1.3134
B( 23-C , 30-C ) :   1.4624 B( 24-C , 25-F ) :   0.9408 B( 24-C , 26-C ) :   1.3903
B( 26-C , 27-C ) :   1.3740 B( 26-C , 49-H ) :   0.9162 B( 27-C , 28-Cl) :   1.0109
B( 27-C , 29-C ) :   1.3895 B( 29-C , 30-C ) :   1.4181 B( 29-C , 50-H ) :   0.8956

FINAL SINGLE POINT ENERGY     -1817.073878888591

DIPOLE MOMENT
-------------

Method             : SCF
Type of density    : Electron Density
Multiplicity       :   1
Irrep              :   0
Energy             : -1817.0738788885905706 Eh
Relativity type    :
Basis              : AO
                                X                 Y                 Z
Electronic contribution:    -25.064713837       6.370111044      11.690888492
Nuclear contribution   :     26.952121831      -7.433062497     -11.919617113
                        -----------------------------------------
Total Dipole Moment    :      1.887407994      -1.062951453      -0.228728621
                        -----------------------------------------
Magnitude (a.u.)       :      2.178185371
Magnitude (Debye)      :      5.536507219

Rotational constants in cm-1:             0.007935             0.003500             0.003336
Rotational constants in MHz :           237.887553           104.919937           100.011608

                             ****ORCA TERMINATED NORMALLY****
TOTAL RUN TIME: 0 days 0 hours 10 minutes 57 seconds 343 msec
