                         Program Version 6.0.0  -   RELEASE  -
|  1> ! B3LYP 6-31G* SP
|  2>
|  3> * xyz 0 1
|  4> C -1.9381 -0.8726 2.4904
|  5> N -3.1005 -0.5403 1.6734
|  6> N -4.0721 0.2659 2.0896
|  7> C -4.9426 0.3725 1.0671
|  8> C -4.5257 -0.3561 -0.0018
|  9> C -3.3410 -0.9475 0.3991
| 10> C -2.4272 -1.8063 -0.4285
| 11> C -1.4196 -0.9584 -1.1337
| 12> O -1.7415 -0.3752 -2.2034
| 13> N -0.1154 -0.7987 -0.5539
| 14> C 0.9012 -0.1402 -1.0369
| 15> S 0.9458 0.6873 -2.5057
| 16> C 2.5520 1.1487 -2.3298
| 17> C 3.0187 0.6501 -1.1155
| 18> C 4.4097 0.8764 -0.6768
| 19> C 5.4664 0.3304 -1.4162
| 20> C 6.7817 0.5015 -0.9893
| 21> C 7.0598 1.2374 0.1652
| 22> F 8.3510 1.3403 0.5701
| 23> C 6.0134 1.8453 0.8933
| 24> C 6.2862 2.6129 2.1683
| 25> F 6.0811 1.7795 3.2509
| 26> F 7.5848 3.0906 2.2087
| 27> F 5.4363 3.6987 2.2697
| 28> C 4.6832 1.6367 0.4726
| 29> F 3.6495 2.1679 1.1791
| 30> N 2.0998 -0.0766 -0.4002
| 31> C 2.3713 -0.7769 0.8673
| 32> O 2.1453 -2.1643 0.7372
| 33> P 3.4384 -2.8759 -0.1225
| 34> O 3.3829 -2.4618 -1.5751
| 35> O 4.9299 -2.4190 0.5394
| 36> O 3.2885 -4.5584 -0.0279
| 37> C -5.2645 -0.3595 -1.1766
| 38> O -4.8594 -1.0020 -2.1848
| 39> N -6.4398 0.3563 -1.2112
| 40> C -7.2448 0.3847 -2.4436
| 41> C -6.8346 1.1047 -0.1139
| 42> O -7.8998 1.7825 -0.1671
| 43> N -6.0770 1.1234 1.0370
| 44> C -6.5104 1.8920 2.2127
| 45> H -1.8309 -1.9749 2.5667
| 46> H -2.0566 -0.4576 3.5140
| 47> H -1.0244 -0.4377 2.0366
| 48> H -1.9076 -2.5418 0.2208
| 49> H -3.0117 -2.3932 -1.1680
| 50> H 3.1214 1.7355 -3.0358
| 51> H 5.2681 -0.2507 -2.3082
| 52> H 7.5913 0.0528 -1.5511
| 53> H 3.3829 -0.5618 1.2702
| 54> H 1.6684 -0.3892 1.6353
| 55> H 4.8934 -2.7289 1.4790
| 56> H 4.0515 -4.9108 -0.5504
| 57> H -7.1089 -0.5427 -3.0396
| 58> H -8.3294 0.4493 -2.2108
| 59> H -6.9502 1.2599 -3.0602
| 60> H -5.6861 2.0209 2.9448
| 61> H -7.3521 1.3667 2.7119
| 62> H -6.8423 2.9080 1.9078
| 63> *
| 64>
| 65>                          ****END OF INPUT****

CARTESIAN COORDINATES (ANGSTROEM)
---------------------------------
  C     -1.938100   -0.872600    2.490400
  N     -3.100500   -0.540300    1.673400
  N     -4.072100    0.265900    2.089600
  C     -4.942600    0.372500    1.067100
  C     -4.525700   -0.356100   -0.001800
  C     -3.341000   -0.947500    0.399100
  C     -2.427200   -1.806300   -0.428500
  C     -1.419600   -0.958400   -1.133700
  O     -1.741500   -0.375200   -2.203400
  N     -0.115400   -0.798700   -0.553900
  C      0.901200   -0.140200   -1.036900
  S      0.945800    0.687300   -2.505700
  C      2.552000    1.148700   -2.329800
  C      3.018700    0.650100   -1.115500
  C      4.409700    0.876400   -0.676800
  C      5.466400    0.330400   -1.416200
  C      6.781700    0.501500   -0.989300
  C      7.059800    1.237400    0.165200
  F      8.351000    1.340300    0.570100
  C      6.013400    1.845300    0.893300
  C      6.286200    2.612900    2.168300
  F      6.081100    1.779500    3.250900
  F      7.584800    3.090600    2.208700
  F      5.436300    3.698700    2.269700
  C      4.683200    1.636700    0.472600
  F      3.649500    2.167900    1.179100
  N      2.099800   -0.076600   -0.400200
  C      2.371300   -0.776900    0.867300
  O      2.145300   -2.164300    0.737200
  P      3.438400   -2.875900   -0.122500
  O      3.382900   -2.461800   -1.575100
  O      4.929900   -2.419000    0.539400
  O      3.288500   -4.558400   -0.027900
  C     -5.264500   -0.359500   -1.176600
  O     -4.859400   -1.002000   -2.184800
  N     -6.439800    0.356300   -1.211200
  C     -7.244800    0.384700   -2.443600
  C     -6.834600    1.104700   -0.113900
  O     -7.899800    1.782500   -0.167100
  N     -6.077000    1.123400    1.037000
  C     -6.510400    1.892000    2.212700
  H     -1.830900   -1.974900    2.566700
  H     -2.056600   -0.457600    3.514000
  H     -1.024400   -0.437700    2.036600
  H     -1.907600   -2.541800    0.220800
  H     -3.011700   -2.393200   -1.168000
  H      3.121400    1.735500   -3.035800
  H      5.268100   -0.250700   -2.308200
  H      7.591300    0.052800   -1.551100
  H      3.382900   -0.561800    1.270200
  H      1.668400   -0.389200    1.635300
  H      4.893400   -2.728900    1.479000
  H      4.051500   -4.910800   -0.550400
  H     -7.108900   -0.542700   -3.039600
  H     -8.329400    0.449300   -2.210800
  H     -6.950200    1.259900   -3.060200
  H     -5.686100    2.020900    2.944800
  H     -7.352100    1.366700    2.711900
  H     -6.842300    2.908000    1.907800

 Total Charge           Charge          ....    0
 Multiplicity           Mult            ....    1
 Number of Electrons    NEL             ....  318
 Basis Dimension        Dim             ....  618

ORBITAL ENERGIES
----------------

  NO   OCC          E(Eh)            E(eV)
   0   2.0000     -88.899311     -2419.0732
   1   2.0000     -77.279100     -2102.8712
   2   2.0000     -24.745986      -673.3725
   3   2.0000     -24.734315      -673.0549
   4   2.0000     -24.734211      -673.0521
   5   2.0000     -24.732048      -672.9932
   6   2.0000     -24.731522      -672.9789
   7   2.0000     -19.236254      -523.4451
   8   2.0000     -19.228728      -523.2403
   9   2.0000     -19.219343      -522.9849
  10   2.0000     -19.125127      -520.4212
  11   2.0000     -19.107345      -519.9373
  12   2.0000     -19.093290      -519.5548
  13   2.0000     -19.087840      -519.4065
  14   2.0000     -14.420281      -392.3958
  15   2.0000     -14.418722      -392.3534
  16   2.0000     -14.379433      -391.2843
  17   2.0000     -14.375348      -391.1731
  18   2.0000     -14.336697      -390.1214
  19   2.0000     -14.308094      -389.3430
  20   2.0000     -10.458140      -284.5805
  21   2.0000     -10.326279      -280.9923
  22   2.0000     -10.321778      -280.8699
  23   2.0000     -10.318504      -280.7808
  24   2.0000     -10.308111      -280.4980
  25   2.0000     -10.296412      -280.1796
  26   2.0000     -10.278957      -279.7046
  27   2.0000     -10.270993      -279.4879
  28   2.0000     -10.260403      -279.1998
  29   2.0000     -10.250255      -278.9236
  30   2.0000     -10.240378      -278.6549
  31   2.0000     -10.236738      -278.5558
  32   2.0000     -10.232276      -278.4344
  33   2.0000     -10.232014      -278.4273
  34   2.0000     -10.229421      -278.3567
  35   2.0000     -10.223864      -278.2055
  36   2.0000     -10.222777      -278.1759
  37   2.0000     -10.211405      -277.8664
  38   2.0000     -10.201617      -277.6001
  39   2.0000     -10.190658      -277.3019
  40   2.0000     -10.168036      -276.6863
  41   2.0000      -7.976855      -217.0613
  42   2.0000      -6.731827      -183.1823
  43   2.0000      -5.940164      -161.6401
  44   2.0000      -5.935821      -161.5219
  45   2.0000      -5.933138      -161.4489
  46   2.0000      -4.895917      -133.2247
  47   2.0000      -4.894970      -133.1989
  48   2.0000      -4.892826      -133.1406
  49   2.0000      -1.295465       -35.2514
  50   2.0000      -1.257045       -34.2059
  51   2.0000      -1.247090       -33.9350
  52   2.0000      -1.220320       -33.2066
  53   2.0000      -1.216523       -33.1033
  54   2.0000      -1.120095       -30.4793
  55   2.0000      -1.083558       -29.4851
  56   2.0000      -1.066370       -29.0174
  57   2.0000      -1.061185       -28.8763
  58   2.0000      -1.041883       -28.3511
  59   2.0000      -1.033673       -28.1277
  60   2.0000      -1.001141       -27.2424
  61   2.0000      -0.996675       -27.1209
  62   2.0000      -0.969827       -26.3903
  63   2.0000      -0.950931       -25.8762
  64   2.0000      -0.917519       -24.9670
  65   2.0000      -0.910082       -24.7646
  66   2.0000      -0.888884       -24.1878
  67   2.0000      -0.857466       -23.3328
  68   2.0000      -0.840730       -22.8774
  69   2.0000      -0.825100       -22.4521
  70   2.0000      -0.817403       -22.2427
  71   2.0000      -0.800397       -21.7799
  72   2.0000      -0.758104       -20.6290
  73   2.0000      -0.746980       -20.3264
  74   2.0000      -0.738972       -20.1085
  75   2.0000      -0.720224       -19.5983
  76   2.0000      -0.714445       -19.4410
  77   2.0000      -0.709458       -19.3053
  78   2.0000      -0.695946       -18.9376
  79   2.0000      -0.662591       -18.0300
  80   2.0000      -0.659242       -17.9389
  81   2.0000      -0.656002       -17.8507
  82   2.0000      -0.639467       -17.4008
  83   2.0000      -0.634097       -17.2546
  84   2.0000      -0.629422       -17.1274
  85   2.0000      -0.607603       -16.5337
  86   2.0000      -0.597065       -16.2470
  87   2.0000      -0.589712       -16.0469
  88   2.0000      -0.586666       -15.9640
  89   2.0000      -0.585474       -15.9316
  90   2.0000      -0.583679       -15.8827
  91   2.0000      -0.579747       -15.7757
  92   2.0000      -0.567303       -15.4371
  93   2.0000      -0.549276       -14.9466
  94   2.0000      -0.547466       -14.8973
  95   2.0000      -0.540392       -14.7048
  96   2.0000      -0.527948       -14.3662
  97   2.0000      -0.523268       -14.2388
  98   2.0000      -0.521063       -14.1788
  99   2.0000      -0.514198       -13.9920
 100   2.0000      -0.504661       -13.7325
 101   2.0000      -0.497475       -13.5370
 102   2.0000      -0.490441       -13.3456
 103   2.0000      -0.487782       -13.2732
 104   2.0000      -0.485096       -13.2001
 105   2.0000      -0.482581       -13.1317
 106   2.0000      -0.478813       -13.0292
 107   2.0000      -0.475855       -12.9487
 108   2.0000      -0.474303       -12.9064
 109   2.0000      -0.470578       -12.8051
 110   2.0000      -0.462746       -12.5920
 111   2.0000      -0.460816       -12.5394
 112   2.0000      -0.458915       -12.4877
 113   2.0000      -0.454511       -12.3679
 114   2.0000      -0.451991       -12.2993
 115   2.0000      -0.444287       -12.0897
 116   2.0000      -0.438975       -11.9451
 117   2.0000      -0.434120       -11.8130
 118   2.0000      -0.432754       -11.7758
 119   2.0000      -0.429857       -11.6970
 120   2.0000      -0.427131       -11.6228
 121   2.0000      -0.425808       -11.5868
 122   2.0000      -0.420748       -11.4491
 123   2.0000      -0.415296       -11.3008
 124   2.0000      -0.414406       -11.2766
 125   2.0000      -0.411228       -11.1901
 126   2.0000      -0.405662       -11.0386
 127   2.0000      -0.403721       -10.9858
 128   2.0000      -0.402544       -10.9538
 129   2.0000      -0.398656       -10.8480
 130   2.0000      -0.391052       -10.6411
 131   2.0000      -0.389253       -10.5921
 132   2.0000      -0.387428       -10.5424
 133   2.0000      -0.384117       -10.4523
 134   2.0000      -0.380498       -10.3539
 135   2.0000      -0.376074       -10.2335
 136   2.0000      -0.374772       -10.1981
 137   2.0000      -0.372350       -10.1322
 138   2.0000      -0.370098       -10.0709
 139   2.0000      -0.362372        -9.8606
 140   2.0000      -0.359408        -9.7800
 141   2.0000      -0.357284        -9.7222
 142   2.0000      -0.350906        -9.5486
 143   2.0000      -0.317071        -8.6279
 144   2.0000      -0.311029        -8.4635
 145   2.0000      -0.308301        -8.3893
 146   2.0000      -0.304653        -8.2900
 147   2.0000      -0.297137        -8.0855
 148   2.0000      -0.292823        -7.9681
 149   2.0000      -0.285943        -7.7809
 150   2.0000      -0.278442        -7.5768
 151   2.0000      -0.275810        -7.5052
 152   2.0000      -0.253986        -6.9113
 153   2.0000      -0.246259        -6.7010
 154   2.0000      -0.241385        -6.5684
 155   2.0000      -0.227619        -6.1938
 156   2.0000      -0.219532        -5.9738
 157   2.0000      -0.208981        -5.6866
 158   2.0000      -0.207512        -5.6467
 159   0.0000      -0.058308        -1.5866
 160   0.0000      -0.046926        -1.2769
 161   0.0000      -0.046735        -1.2717
 162   0.0000      -0.036049        -0.9809
 163   0.0000      -0.014003        -0.3810

MULLIKEN ATOMIC CHARGES
-----------------------
   0 C :   -0.329793
   1 N :   -0.252983
   2 N :   -0.353640
   3 C :    0.450910
   4 C :   -0.044668
   5 C :    0.295178
   6 C :   -0.397401
   7 C :    0.483807
   8 O :   -0.432238
   9 N :   -0.519783
  10 C :    0.288176
  11 S :    0.331788
  12 C :   -0.381867
  13 C :    0.274246
  14 C :   -0.070793
  15 C :   -0.097932
  16 C :   -0.211417
  17 C :    0.409146
  18 F :   -0.293988
  19 C :   -0.214925
  20 C :    0.931826
  21 F :   -0.296911
  22 F :   -0.295536
  23 F :   -0.295726
  24 C :    0.369449
  25 F :   -0.295246
  26 N :   -0.377255
  27 C :    0.022398
  28 O :   -0.497826
  29 P :    1.260336
  30 O :   -0.565830
  31 O :   -0.657137
  32 O :   -0.655585
  33 C :    0.504577
  34 O :   -0.491560
  35 N :   -0.487587
  36 C :   -0.311192
  37 C :    0.675054
  38 O :   -0.514781
  39 N :   -0.493620
  40 C :   -0.319240
  41 H :    0.176791
  42 H :    0.189667
  43 H :    0.190480
  44 H :    0.155787
  45 H :    0.218806
  46 H :    0.191776
  47 H :    0.190989
  48 H :    0.166511
  49 H :    0.182284
  50 H :    0.203337
  51 H :    0.434888
  52 H :    0.455708
  53 H :    0.192498
  54 H :    0.186583
  55 H :    0.174816
  56 H :    0.189410
  57 H :    0.172524
  58 H :    0.186715
Sum of atomic charges:   -0.0000000

LOEWDIN ATOMIC CHARGES
----------------------
   0 C :   -0.270722
   1 N :    0.072132
   2 N :   -0.182081
   3 C :    0.024316
   4 C :   -0.116441
   5 C :    0.042088
   6 C :   -0.242919
   7 C :    0.137743
   8 O :   -0.246245
   9 N :   -0.274194
  10 C :   -0.053834
  11 S :    0.429460
  12 C :   -0.330139
  13 C :    0.011914
  14 C :   -0.064736
  15 C :   -0.077581
  16 C :   -0.153363
  17 C :    0.142572
  18 F :   -0.084494
  19 C :   -0.126401
  20 C :    0.316388
  21 F :   -0.112808
  22 F :   -0.104675
  23 F :   -0.106521
  24 C :    0.136126
  25 F :   -0.087516
  26 N :    0.007600
  27 C :   -0.036098
  28 O :   -0.322940
  29 P :    1.089101
  30 O :   -0.566290
  31 O :   -0.514082
  32 O :   -0.513820
  33 C :    0.116374
  34 O :   -0.290413
  35 N :   -0.034111
  36 C :   -0.259505
  37 C :    0.144070
  38 O :   -0.320506
  39 N :   -0.028479
  40 C :   -0.257839
  41 H :    0.140586
  42 H :    0.151693
  43 H :    0.143264
  44 H :    0.139545
  45 H :    0.177720
  46 H :    0.167445
  47 H :    0.164737
  48 H :    0.155341
  49 H :    0.143372
  50 H :    0.152145
  51 H :    0.344023
  52 H :    0.359163
  53 H :    0.151406
  54 H :    0.147720
  55 H :    0.138422
  56 H :    0.149074
  57 H :    0.136273
  58 H :    0.146941

  Mayer bond orders larger than 0.100000
B(  0-C ,  1-N ) :   0.9352 B(  0-C , 41-H ) :   0.9342 B(  0-C , 42-H ) :   0.9342
B(  0-C , 43-H ) :   0.9135 B(  1-N ,  2-N ) :   1.1797 B(  1-N ,  4-C ) :   0.1039
B(  1-N ,  5-C ) :   1.1298 B(  2-N ,  3-C ) :   1.3930 B(  3-C ,  4-C ) :   1.2940
B(  3-C , 39-N ) :   0.9508 B(  4-C ,  5-C ) :   1.3812 B(  4-C , 33-C ) :   1.0685
B(  5-C ,  6-C ) :   1.0174 B(  6-C ,  7-C ) :   0.9430 B(  6-C , 44-H ) :   0.9102
B(  6-C , 45-H ) :   0.8910 B(  7-C ,  8-O ) :   1.8080 B(  7-C ,  9-N ) :   1.1213
B(  8-O , 11-S ) :   0.1225 B(  9-N , 10-C ) :   1.4808 B( 10-C , 11-S ) :   1.1328
B( 10-C , 26-N ) :   1.1042 B( 11-S , 12-C ) :   1.0381 B( 12-C , 13-C ) :   1.6617
B( 12-C , 46-H ) :   0.9116 B( 13-C , 14-C ) :   0.9688 B( 13-C , 26-N ) :   1.0666
B( 14-C , 15-C ) :   1.4220 B( 14-C , 24-C ) :   1.3318 B( 15-C , 16-C ) :   1.4147
B( 15-C , 47-H ) :   0.9081 B( 16-C , 17-C ) :   1.3871 B( 16-C , 48-H ) :   0.9149
B( 17-C , 18-F ) :   0.9554 B( 17-C , 19-C ) :   1.3231 B( 19-C , 20-C ) :   0.9455
B( 19-C , 24-C ) :   1.3024 B( 20-C , 21-F ) :   0.9903 B( 20-C , 22-F ) :   0.9618
B( 20-C , 23-F ) :   0.9621 B( 24-C , 25-F ) :   0.9648 B( 26-N , 27-C ) :   0.9290
B( 27-C , 28-O ) :   0.9257 B( 27-C , 49-H ) :   0.9044 B( 27-C , 50-H ) :   0.9090
B( 28-O , 29-P ) :   0.9286 B( 29-P , 30-O ) :   1.8399 B( 29-P , 31-O ) :   0.9590
B( 29-P , 32-O ) :   1.0197 B( 31-O , 51-H ) :   0.7575 B( 32-O , 52-H ) :   0.7434
B( 33-C , 34-O ) :   1.7888 B( 33-C , 35-N ) :   0.9724 B( 35-N , 36-C ) :   0.9232
B( 35-N , 37-C ) :   1.0286 B( 36-C , 53-H ) :   0.9239 B( 36-C , 54-H ) :   0.9290
B( 36-C , 55-H ) :   0.9418 B( 37-C , 38-O ) :   1.7865 B( 37-C , 39-N ) :   1.0669
B( 39-N , 40-C ) :   0.9364 B( 40-C , 56-H ) :   0.9250 B( 40-C , 57-H ) :   0.9399
B( 40-C , 58-H ) :   0.9324

FINAL SINGLE POINT ENERGY     -2903.676496073364

DIPOLE MOMENT
-------------

Method             : SCF
Type of density    : Electron Density
Multiplicity       :   1
Irrep              :   0
Energy             : -2903.6764960733644330 Eh
Relativity type    :
Basis              : AO
                                X                 Y                 Z
Electronic contribution:     65.965052504      15.798825227       7.796614468
Nuclear contribution   :    -62.084916598     -17.230542191      -6.101409439
                        -----------------------------------------
Total Dipole Moment    :      3.880135906      -1.431716964       1.695205030
                        -----------------------------------------
Magnitude (a.u.)       :      4.469786148
Magnitude (Debye)      :     11.361293491

Rotational constants in cm-1:             0.004923             0.001091             0.001016
Rotational constants in MHz :           147.600802            32.706902            30.466606

                             ****ORCA TERMINATED NORMALLY****
TOTAL RUN TIME: 0 days 0 hours 13 minutes 30 seconds 313 msec
