                         Program Version 6.0.0  -   RELEASE  -
|  1> ! B3LYP 6-31G* SP
|  2>
|  3> * xyz 0 1
|  4> O 2.4577 -1.9295 -0.4798
|  5> C 1.9305 -0.7930 -0.3301
|  6> N 2.7538 0.3880 -0.3767
|  7> C 4.1916 0.3608 -0.3629
|  8> C 4.9000 -0.5738 0.4118
|  9> C 6.2979 -0.5632 0.4295
| 10> C 7.0137 0.3780 -0.3298
| 11> C 8.5198 0.4203 -0.2711
| 12> F 9.0367 -0.8480 -0.0703
| 13> F 9.0411 0.9175 -1.4531
| 14> F 8.9119 1.2370 0.7730
| 15> C 6.3025 1.3428 -1.0630
| 16> C 4.9048 1.3321 -1.0793
| 17> N 0.5041 -0.6950 -0.1356
| 18> C -0.2128 0.5529 -0.4412
| 19> C -1.7152 0.3005 -0.6251
| 20> C -2.3686 -0.4282 0.5887
| 21> C -2.8809 0.5835 1.6514
| 22> C -4.0773 1.4172 1.1628
| 23> C -5.1018 0.5816 0.4433
| 24> C -6.3973 1.0828 0.2413
| 25> C -7.3485 0.3197 -0.4423
| 26> C -7.0107 -0.9438 -0.9341
| 27> C -5.7190 -1.4442 -0.7490
| 28> C -4.7597 -0.6828 -0.0725
| 29> O -3.4724 -1.2015 0.1031
| 30> C -1.3706 -1.4105 1.2703
| 31> C -0.2525 -1.8660 0.3301
| 32> H 2.2988 1.3201 -0.4922
| 33> H 4.3762 -1.2921 1.0284
| 34> H 6.8195 -1.2846 1.0461
| 35> H 6.8271 2.1084 -1.6209
| 36> H 4.3751 2.0800 -1.6559
| 37> H -0.0489 1.2854 0.3781
| 38> H 0.1734 0.9848 -1.3901
| 39> H -2.2195 1.2599 -0.8558
| 40> H -1.8378 -0.3323 -1.5324
| 41> H -3.2058 0.0223 2.5562
| 42> H -2.0608 1.2678 1.9604
| 43> H -4.5490 1.9037 2.0445
| 44> H -3.7335 2.2296 0.4897
| 45> H -6.6699 2.0620 0.6153
| 46> H -8.3477 0.7081 -0.5912
| 47> H -7.7489 -1.5340 -1.4615
| 48> H -5.4607 -2.4219 -1.1356
| 49> H -1.9128 -2.3017 1.6561
| 50> H -0.8843 -0.9276 2.1479
| 51> H -0.6780 -2.4090 -0.5413
| 52> H 0.4088 -2.5640 0.8891
| 53> *
| 54>
| 55>                          ****END OF INPUT****

CARTESIAN COORDINATES (ANGSTROEM)
---------------------------------
  O      2.457700   -1.929500   -0.479800
  C      1.930500   -0.793000   -0.330100
  N      2.753800    0.388000   -0.376700
  C      4.191600    0.360800   -0.362900
  C      4.900000   -0.573800    0.411800
  C      6.297900   -0.563200    0.429500
  C      7.013700    0.378000   -0.329800
  C      8.519800    0.420300   -0.271100
  F      9.036700   -0.848000   -0.070300
  F      9.041100    0.917500   -1.453100
  F      8.911900    1.237000    0.773000
  C      6.302500    1.342800   -1.063000
  C      4.904800    1.332100   -1.079300
  N      0.504100   -0.695000   -0.135600
  C     -0.212800    0.552900   -0.441200
  C     -1.715200    0.300500   -0.625100
  C     -2.368600   -0.428200    0.588700
  C     -2.880900    0.583500    1.651400
  C     -4.077300    1.417200    1.162800
  C     -5.101800    0.581600    0.443300
  C     -6.397300    1.082800    0.241300
  C     -7.348500    0.319700   -0.442300
  C     -7.010700   -0.943800   -0.934100
  C     -5.719000   -1.444200   -0.749000
  C     -4.759700   -0.682800   -0.072500
  O     -3.472400   -1.201500    0.103100
  C     -1.370600   -1.410500    1.270300
  C     -0.252500   -1.866000    0.330100
  H      2.298800    1.320100   -0.492200
  H      4.376200   -1.292100    1.028400
  H      6.819500   -1.284600    1.046100
  H      6.827100    2.108400   -1.620900
  H      4.375100    2.080000   -1.655900
  H     -0.048900    1.285400    0.378100
  H      0.173400    0.984800   -1.390100
  H     -2.219500    1.259900   -0.855800
  H     -1.837800   -0.332300   -1.532400
  H     -3.205800    0.022300    2.556200
  H     -2.060800    1.267800    1.960400
  H     -4.549000    1.903700    2.044500
  H     -3.733500    2.229600    0.489700
  H     -6.669900    2.062000    0.615300
  H     -8.347700    0.708100   -0.591200
  H     -7.748900   -1.534000   -1.461500
  H     -5.460700   -2.421900   -1.135600
  H     -1.912800   -2.301700    1.656100
  H     -0.884300   -0.927600    2.147900
  H     -0.678000   -2.409000   -0.541300
  H      0.408800   -2.564000    0.889100

 Total Charge           Charge          ....    0
 Multiplicity           Mult            ....    1
 Number of Electrons    NEL             ....  204
 Basis Dimension        Dim             ....  434

ORBITAL ENERGIES
----------------

  NO   OCC          E(Eh)            E(eV)
   0   2.0000     -24.710688      -672.4120
   1   2.0000     -24.710139      -672.3971
   2   2.0000     -24.706736      -672.3045
   3   2.0000     -19.165352      -521.5157
   4   2.0000     -19.102881      -519.8158
   5   2.0000     -14.374069      -391.1383
   6   2.0000     -14.356313      -390.6551
   7   2.0000     -10.424995      -283.6785
   8   2.0000     -10.319170      -280.7989
   9   2.0000     -10.259646      -279.1791
  10   2.0000     -10.243675      -278.7446
  11   2.0000     -10.241597      -278.6880
  12   2.0000     -10.235814      -278.5307
  13   2.0000     -10.218142      -278.0498
  14   2.0000     -10.202030      -277.6114
  15   2.0000     -10.198305      -277.5100
  16   2.0000     -10.197621      -277.4914
  17   2.0000     -10.194306      -277.4012
  18   2.0000     -10.194103      -277.3956
  19   2.0000     -10.193036      -277.3666
  20   2.0000     -10.192743      -277.3586
  21   2.0000     -10.191764      -277.3320
  22   2.0000     -10.188075      -277.2316
  23   2.0000     -10.187324      -277.2112
  24   2.0000     -10.181811      -277.0612
  25   2.0000     -10.181606      -277.0556
  26   2.0000     -10.179510      -276.9986
  27   2.0000     -10.175488      -276.8891
  28   2.0000      -1.270248       -34.5652
  29   2.0000      -1.195861       -32.5410
  30   2.0000      -1.194619       -32.5072
  31   2.0000      -1.052028       -28.6271
  32   2.0000      -1.020072       -27.7576
  33   2.0000      -0.926604       -25.2142
  34   2.0000      -0.920471       -25.0473
  35   2.0000      -0.855204       -23.2713
  36   2.0000      -0.851037       -23.1579
  37   2.0000      -0.820711       -22.3327
  38   2.0000      -0.783631       -21.3237
  39   2.0000      -0.773254       -21.0413
  40   2.0000      -0.767758       -20.8918
  41   2.0000      -0.753645       -20.5077
  42   2.0000      -0.737674       -20.0731
  43   2.0000      -0.727108       -19.7856
  44   2.0000      -0.688044       -18.7226
  45   2.0000      -0.662339       -18.0232
  46   2.0000      -0.654029       -17.7970
  47   2.0000      -0.637675       -17.3520
  48   2.0000      -0.626216       -17.0402
  49   2.0000      -0.617867       -16.8130
  50   2.0000      -0.603637       -16.4258
  51   2.0000      -0.591829       -16.1045
  52   2.0000      -0.564672       -15.3655
  53   2.0000      -0.561259       -15.2726
  54   2.0000      -0.558657       -15.2018
  55   2.0000      -0.552486       -15.0339
  56   2.0000      -0.545233       -14.8365
  57   2.0000      -0.538636       -14.6570
  58   2.0000      -0.520932       -14.1753
  59   2.0000      -0.514213       -13.9925
  60   2.0000      -0.499437       -13.5904
  61   2.0000      -0.481509       -13.1025
  62   2.0000      -0.474033       -12.8991
  63   2.0000      -0.460009       -12.5175
  64   2.0000      -0.459155       -12.4943
  65   2.0000      -0.456420       -12.4198
  66   2.0000      -0.446784       -12.1576
  67   2.0000      -0.442133       -12.0311
  68   2.0000      -0.439823       -11.9682
  69   2.0000      -0.437271       -11.8988
  70   2.0000      -0.436069       -11.8661
  71   2.0000      -0.433553       -11.7976
  72   2.0000      -0.430208       -11.7065
  73   2.0000      -0.415798       -11.3145
  74   2.0000      -0.412428       -11.2227
  75   2.0000      -0.409504       -11.1432
  76   2.0000      -0.407520       -11.0892
  77   2.0000      -0.403080       -10.9684
  78   2.0000      -0.401112       -10.9148
  79   2.0000      -0.397377       -10.8132
  80   2.0000      -0.393267       -10.7013
  81   2.0000      -0.389199       -10.5906
  82   2.0000      -0.387828       -10.5533
  83   2.0000      -0.381165       -10.3720
  84   2.0000      -0.372982       -10.1494
  85   2.0000      -0.369887       -10.0651
  86   2.0000      -0.364397        -9.9157
  87   2.0000      -0.357036        -9.7155
  88   2.0000      -0.356154        -9.6914
  89   2.0000      -0.354851        -9.6560
  90   2.0000      -0.351323        -9.5600
  91   2.0000      -0.337994        -9.1973
  92   2.0000      -0.330146        -8.9837
  93   2.0000      -0.308345        -8.3905
  94   2.0000      -0.297034        -8.0827
  95   2.0000      -0.296046        -8.0558
  96   2.0000      -0.262232        -7.1357
  97   2.0000      -0.250682        -6.8214
  98   2.0000      -0.241654        -6.5757
  99   2.0000      -0.229752        -6.2519
 100   2.0000      -0.224737        -6.1154
 101   2.0000      -0.216239        -5.8842
 102   0.0000      -0.022258        -0.6057
 103   0.0000      -0.007714        -0.2099
 104   0.0000      -0.003285        -0.0894
 105   0.0000       0.013559         0.3689
 106   0.0000       0.036958         1.0057

MULLIKEN ATOMIC CHARGES
-----------------------
   0 O :   -0.491494
   1 C :    0.686398
   2 N :   -0.728089
   3 C :    0.351637
   4 C :   -0.128802
   5 C :   -0.173531
   6 C :   -0.014943
   7 C :    0.890855
   8 F :   -0.306247
   9 F :   -0.307727
  10 F :   -0.299238
  11 C :   -0.164495
  12 C :   -0.183569
  13 N :   -0.439882
  14 C :   -0.143290
  15 C :   -0.324816
  16 C :    0.366781
  17 C :   -0.309827
  18 C :   -0.352149
  19 C :    0.105048
  20 C :   -0.181150
  21 C :   -0.134422
  22 C :   -0.123857
  23 C :   -0.186777
  24 C :    0.318476
  25 O :   -0.556744
  26 C :   -0.317864
  27 C :   -0.124355
  28 H :    0.330315
  29 H :    0.159226
  30 H :    0.153743
  31 H :    0.150297
  32 H :    0.128910
  33 H :    0.136298
  34 H :    0.148842
  35 H :    0.152916
  36 H :    0.169708
  37 H :    0.151600
  38 H :    0.135286
  39 H :    0.152650
  40 H :    0.149908
  41 H :    0.122618
  42 H :    0.122436
  43 H :    0.129543
  44 H :    0.134824
  45 H :    0.165958
  46 H :    0.147727
  47 H :    0.155997
  48 H :    0.175272
Sum of atomic charges:    0.0000000

LOEWDIN ATOMIC CHARGES
----------------------
   0 O :   -0.308219
   1 C :    0.166364
   2 N :   -0.228797
   3 C :    0.052575
   4 C :   -0.121519
   5 C :   -0.109528
   6 C :   -0.081112
   7 C :    0.308619
   8 F :   -0.114555
   9 F :   -0.115734
  10 F :   -0.116833
  11 C :   -0.111327
  12 C :   -0.149005
  13 N :   -0.132335
  14 C :   -0.158058
  15 C :   -0.237592
  16 C :    0.082190
  17 C :   -0.232422
  18 C :   -0.226755
  19 C :   -0.058973
  20 C :   -0.127376
  21 C :   -0.146893
  22 C :   -0.126000
  23 C :   -0.151169
  24 C :    0.078942
  25 O :   -0.176236
  26 C :   -0.232586
  27 C :   -0.143315
  28 H :    0.254529
  29 H :    0.150807
  30 H :    0.144765
  31 H :    0.143174
  32 H :    0.132828
  33 H :    0.107906
  34 H :    0.124837
  35 H :    0.133632
  36 H :    0.139366
  37 H :    0.129247
  38 H :    0.124334
  39 H :    0.134490
  40 H :    0.125916
  41 H :    0.129773
  42 H :    0.129096
  43 H :    0.133189
  44 H :    0.138902
  45 H :    0.143281
  46 H :    0.128944
  47 H :    0.122558
  48 H :    0.146075

  Mayer bond orders larger than 0.100000
B(  0-O ,  1-C ) :   1.7872 B(  1-C ,  2-N ) :   0.9914 B(  1-C , 13-N ) :   1.0598
B(  2-N ,  3-C ) :   0.8785 B(  2-N , 28-H ) :   0.8171 B(  3-C ,  4-C ) :   1.4163
B(  3-C , 12-C ) :   1.4030 B(  4-C ,  5-C ) :   1.4367 B(  4-C , 29-H ) :   0.9106
B(  5-C ,  6-C ) :   1.3967 B(  5-C , 30-H ) :   0.9200 B(  6-C ,  7-C ) :   0.9834
B(  6-C , 11-C ) :   1.4121 B(  7-C ,  8-F ) :   0.9479 B(  7-C ,  9-F ) :   0.9460
B(  7-C , 10-F ) :   0.9839 B( 11-C , 12-C ) :   1.4379 B( 11-C , 31-H ) :   0.9197
B( 12-C , 32-H ) :   0.9244 B( 13-N , 14-C ) :   0.9449 B( 13-N , 27-C ) :   0.9363
B( 14-C , 15-C ) :   0.9992 B( 14-C , 33-H ) :   0.9183 B( 14-C , 34-H ) :   0.9255
B( 15-C , 16-C ) :   0.9749 B( 15-C , 35-H ) :   0.9246 B( 15-C , 36-H ) :   0.9239
B( 16-C , 17-C ) :   0.9771 B( 16-C , 25-O ) :   0.8499 B( 16-C , 26-C ) :   0.9724
B( 17-C , 18-C ) :   0.9938 B( 17-C , 37-H ) :   0.9327 B( 17-C , 38-H ) :   0.9287
B( 18-C , 19-C ) :   0.9793 B( 18-C , 39-H ) :   0.9324 B( 18-C , 40-H ) :   0.9218
B( 19-C , 20-C ) :   1.4158 B( 19-C , 24-C ) :   1.3764 B( 20-C , 21-C ) :   1.4453
B( 20-C , 41-H ) :   0.9279 B( 21-C , 22-C ) :   1.4403 B( 21-C , 42-H ) :   0.9307
B( 22-C , 23-C ) :   1.4545 B( 22-C , 43-H ) :   0.9305 B( 23-C , 24-C ) :   1.3925
B( 23-C , 44-H ) :   0.9192 B( 24-C , 25-O ) :   0.8999 B( 26-C , 27-C ) :   0.9918
B( 26-C , 45-H ) :   0.9239 B( 26-C , 46-H ) :   0.9287 B( 27-C , 47-H ) :   0.9266
B( 27-C , 48-H ) :   0.9236

FINAL SINGLE POINT ENERGY     -1371.587222750358

DIPOLE MOMENT
-------------

Method             : SCF
Type of density    : Electron Density
Multiplicity       :   1
Irrep              :   0
Energy             : -1371.5872227503584782 Eh
Relativity type    :
Basis              : AO
                                X                 Y                 Z
Electronic contribution:     65.376437950      -0.463886487      -4.701856050
Nuclear contribution   :    -67.405531432       1.979987502       5.130818113
                        -----------------------------------------
Total Dipole Moment    :     -2.029093482       1.516101014       0.428962063
                        -----------------------------------------
Magnitude (a.u.)       :      2.569005858
Magnitude (Debye)      :      6.529893951

Rotational constants in cm-1:             0.026247             0.001463             0.001439
Rotational constants in MHz :           786.850898            43.849607            43.143270

                             ****ORCA TERMINATED NORMALLY****
TOTAL RUN TIME: 0 days 0 hours 7 minutes 11 seconds 546 msec
