                         Program Version 6.0.0  -   RELEASE  -
|  1> ! B3LYP 6-31G* SP
|  2>
|  3> * xyz 0 1
|  4> C 5.3257 1.8107 0.2114
|  5> C 4.1182 0.9276 0.3172
|  6> C 4.0525 -0.0838 1.2885
|  7> C 2.9140 -0.8844 1.3893
|  8> C 1.8329 -0.6802 0.5298
|  9> C 1.8735 0.3378 -0.4358
| 10> C 0.7079 0.5944 -1.3134
| 11> O 0.8689 1.2128 -2.4012
| 12> N -0.6145 0.1406 -0.9511
| 13> C -1.4098 1.0048 -0.0431
| 14> C -1.9009 2.2646 -0.7734
| 15> C -0.6558 1.3125 1.2429
| 16> C 0.2197 2.4131 1.3531
| 17> C 0.9632 2.6120 2.5194
| 18> C 0.8491 1.7194 3.5858
| 19> C -0.0086 0.6208 3.4883
| 20> Cl -0.1278 -0.5184 4.8151
| 21> C -0.7581 0.4184 2.3253
| 22> C -1.3226 -0.7561 -1.8987
| 23> C -0.3782 -1.7129 -2.5942
| 24> N -0.3075 -1.7528 -4.0179
| 25> O 0.3491 -2.4886 -1.9185
| 26> C -2.4143 -1.5651 -1.2213
| 27> C -2.1417 -2.3293 -0.0709
| 28> C -3.1522 -3.0815 0.5345
| 29> C -4.4397 -3.0880 -0.0062
| 30> C -4.7203 -2.3389 -1.1502
| 31> C -3.7143 -1.5802 -1.7562
| 32> C 3.0284 1.1329 -0.5420
| 33> H 5.6801 1.8380 -0.8399
| 34> H 5.0606 2.8390 0.5314
| 35> H 6.1577 1.4407 0.8481
| 36> H 4.8793 -0.2504 1.9666
| 37> H 2.8687 -1.6662 2.1363
| 38> H 0.9635 -1.3141 0.6291
| 39> H -2.3376 0.4774 0.2619
| 40> H -2.4330 2.9357 -0.0654
| 41> H -1.0609 2.8214 -1.2389
| 42> H -2.6121 1.9784 -1.5778
| 43> H 0.3566 3.1025 0.5321
| 44> H 1.6376 3.4547 2.5928
| 45> H 1.4345 1.8763 4.4823
| 46> H -1.4003 -0.4515 2.2549
| 47> H -1.7834 -0.1097 -2.6764
| 48> H 0.3347 -2.4251 -4.4926
| 49> H -0.8813 -1.1053 -4.6021
| 50> H -1.1499 -2.3416 0.3583
| 51> H -2.9351 -3.6644 1.4202
| 52> H -5.2210 -3.6730 0.4594
| 53> H -5.7188 -2.3495 -1.5699
| 54> H -3.9505 -1.0051 -2.6424
| 55> H 3.0737 1.9299 -1.2744
| 56> *
| 57>
| 58>                          ****END OF INPUT****

CARTESIAN COORDINATES (ANGSTROEM)
---------------------------------
  C      5.325700    1.810700    0.211400
  C      4.118200    0.927600    0.317200
  C      4.052500   -0.083800    1.288500
  C      2.914000   -0.884400    1.389300
  C      1.832900   -0.680200    0.529800
  C      1.873500    0.337800   -0.435800
  C      0.707900    0.594400   -1.313400
  O      0.868900    1.212800   -2.401200
  N     -0.614500    0.140600   -0.951100
  C     -1.409800    1.004800   -0.043100
  C     -1.900900    2.264600   -0.773400
  C     -0.655800    1.312500    1.242900
  C      0.219700    2.413100    1.353100
  C      0.963200    2.612000    2.519400
  C      0.849100    1.719400    3.585800
  C     -0.008600    0.620800    3.488300
  Cl    -0.127800   -0.518400    4.815100
  C     -0.758100    0.418400    2.325300
  C     -1.322600   -0.756100   -1.898700
  C     -0.378200   -1.712900   -2.594200
  N     -0.307500   -1.752800   -4.017900
  O      0.349100   -2.488600   -1.918500
  C     -2.414300   -1.565100   -1.221300
  C     -2.141700   -2.329300   -0.070900
  C     -3.152200   -3.081500    0.534500
  C     -4.439700   -3.088000   -0.006200
  C     -4.720300   -2.338900   -1.150200
  C     -3.714300   -1.580200   -1.756200
  C      3.028400    1.132900   -0.542000
  H      5.680100    1.838000   -0.839900
  H      5.060600    2.839000    0.531400
  H      6.157700    1.440700    0.848100
  H      4.879300   -0.250400    1.966600
  H      2.868700   -1.666200    2.136300
  H      0.963500   -1.314100    0.629100
  H     -2.337600    0.477400    0.261900
  H     -2.433000    2.935700   -0.065400
  H     -1.060900    2.821400   -1.238900
  H     -2.612100    1.978400   -1.577800
  H      0.356600    3.102500    0.532100
  H      1.637600    3.454700    2.592800
  H      1.434500    1.876300    4.482300
  H     -1.400300   -0.451500    2.254900
  H     -1.783400   -0.109700   -2.676400
  H      0.334700   -2.425100   -4.492600
  H     -0.881300   -1.105300   -4.602100
  H     -1.149900   -2.341600    0.358300
  H     -2.935100   -3.664400    1.420200
  H     -5.221000   -3.673000    0.459400
  H     -5.718800   -2.349500   -1.569900
  H     -3.950500   -1.005100   -2.642400
  H      3.073700    1.929900   -1.274400

 Total Charge           Charge          ....    0
 Multiplicity           Mult            ....    1
 Number of Electrons    NEL             ....  214
 Basis Dimension        Dim             ....  456

ORBITAL ENERGIES
----------------

  NO   OCC          E(Eh)            E(eV)
   0   2.0000    -101.524348     -2762.6179
   1   2.0000     -19.123238      -520.3698
   2   2.0000     -19.109003      -519.9824
   3   2.0000     -14.354850      -390.6153
   4   2.0000     -14.332284      -390.0013
   5   2.0000     -10.292655      -280.0774
   6   2.0000     -10.287275      -279.9310
   7   2.0000     -10.241996      -278.6989
   8   2.0000     -10.236361      -278.5455
   9   2.0000     -10.226002      -278.2637
  10   2.0000     -10.198386      -277.5122
  11   2.0000     -10.197733      -277.4944
  12   2.0000     -10.191329      -277.3202
  13   2.0000     -10.190652      -277.3017
  14   2.0000     -10.189720      -277.2764
  15   2.0000     -10.188485      -277.2428
  16   2.0000     -10.186208      -277.1808
  17   2.0000     -10.185877      -277.1718
  18   2.0000     -10.185702      -277.1670
  19   2.0000     -10.185403      -277.1589
  20   2.0000     -10.184208      -277.1264
  21   2.0000     -10.183589      -277.1096
  22   2.0000     -10.182414      -277.0776
  23   2.0000     -10.178929      -276.9827
  24   2.0000     -10.177041      -276.9314
  25   2.0000     -10.175227      -276.8820
  26   2.0000     -10.174588      -276.8646
  27   2.0000     -10.174312      -276.8571
  28   2.0000     -10.168963      -276.7116
  29   2.0000      -9.456301      -257.3190
  30   2.0000      -7.219238      -196.4455
  31   2.0000      -7.209949      -196.1927
  32   2.0000      -7.209645      -196.1844
  33   2.0000      -1.018685       -27.7198
  34   2.0000      -1.007007       -27.4020
  35   2.0000      -0.915568       -24.9139
  36   2.0000      -0.883478       -24.0407
  37   2.0000      -0.877536       -23.8790
  38   2.0000      -0.854085       -23.2408
  39   2.0000      -0.849033       -23.1034
  40   2.0000      -0.832309       -22.6483
  41   2.0000      -0.787162       -21.4198
  42   2.0000      -0.772142       -21.0110
  43   2.0000      -0.759352       -20.6630
  44   2.0000      -0.745396       -20.2832
  45   2.0000      -0.744670       -20.2635
  46   2.0000      -0.736374       -20.0378
  47   2.0000      -0.718436       -19.5496
  48   2.0000      -0.698513       -19.0075
  49   2.0000      -0.675681       -18.3862
  50   2.0000      -0.642557       -17.4849
  51   2.0000      -0.626069       -17.0362
  52   2.0000      -0.607837       -16.5401
  53   2.0000      -0.606001       -16.4901
  54   2.0000      -0.602623       -16.3982
  55   2.0000      -0.582433       -15.8488
  56   2.0000      -0.574907       -15.6440
  57   2.0000      -0.569371       -15.4934
  58   2.0000      -0.534765       -14.5517
  59   2.0000      -0.521650       -14.1948
  60   2.0000      -0.513830       -13.9820
  61   2.0000      -0.507911       -13.8209
  62   2.0000      -0.496291       -13.5048
  63   2.0000      -0.489775       -13.3275
  64   2.0000      -0.484459       -13.1828
  65   2.0000      -0.472733       -12.8637
  66   2.0000      -0.464094       -12.6287
  67   2.0000      -0.456998       -12.4355
  68   2.0000      -0.454486       -12.3672
  69   2.0000      -0.450792       -12.2667
  70   2.0000      -0.434673       -11.8281
  71   2.0000      -0.430489       -11.7142
  72   2.0000      -0.427170       -11.6239
  73   2.0000      -0.426220       -11.5980
  74   2.0000      -0.420606       -11.4453
  75   2.0000      -0.417636       -11.3644
  76   2.0000      -0.416619       -11.3368
  77   2.0000      -0.412429       -11.2228
  78   2.0000      -0.400013       -10.8849
  79   2.0000      -0.392965       -10.6931
  80   2.0000      -0.390813       -10.6346
  81   2.0000      -0.383534       -10.4365
  82   2.0000      -0.381989       -10.3944
  83   2.0000      -0.375769       -10.2252
  84   2.0000      -0.374522       -10.1913
  85   2.0000      -0.370669       -10.0864
  86   2.0000      -0.364959        -9.9310
  87   2.0000      -0.359232        -9.7752
  88   2.0000      -0.349621        -9.5137
  89   2.0000      -0.346286        -9.4229
  90   2.0000      -0.344585        -9.3766
  91   2.0000      -0.340943        -9.2775
  92   2.0000      -0.337925        -9.1954
  93   2.0000      -0.333388        -9.0719
  94   2.0000      -0.328578        -8.9411
  95   2.0000      -0.321069        -8.7367
  96   2.0000      -0.307399        -8.3647
  97   2.0000      -0.262945        -7.1551
  98   2.0000      -0.259488        -7.0610
  99   2.0000      -0.257890        -7.0175
 100   2.0000      -0.253775        -6.9056
 101   2.0000      -0.247381        -6.7316
 102   2.0000      -0.246519        -6.7081
 103   2.0000      -0.238994        -6.5034
 104   2.0000      -0.231577        -6.3015
 105   2.0000      -0.229681        -6.2499
 106   2.0000      -0.212968        -5.7951
 107   0.0000      -0.051322        -1.3966
 108   0.0000      -0.021925        -0.5966
 109   0.0000      -0.009406        -0.2560
 110   0.0000      -0.007607        -0.2070
 111   0.0000      -0.002233        -0.0608

MULLIKEN ATOMIC CHARGES
-----------------------
   0 C :   -0.522993
   1 C :    0.162291
   2 C :   -0.161353
   3 C :   -0.134560
   4 C :   -0.137133
   5 C :    0.114557
   6 C :    0.430474
   7 O :   -0.451895
   8 N :   -0.460568
   9 C :   -0.054525
  10 C :   -0.449096
  11 C :    0.152043
  12 C :   -0.167599
  13 C :   -0.114661
  14 C :   -0.126233
  15 C :   -0.062269
  16 Cl:   -0.026572
  17 C :   -0.181339
  18 C :   -0.053401
  19 C :    0.559454
  20 N :   -0.758384
  21 O :   -0.478430
  22 C :    0.102210
  23 C :   -0.146338
  24 C :   -0.132707
  25 C :   -0.121899
  26 C :   -0.127280
  27 C :   -0.176077
  28 C :   -0.201368
  29 H :    0.162512
  30 H :    0.158739
  31 H :    0.150347
  32 H :    0.124596
  33 H :    0.133470
  34 H :    0.163757
  35 H :    0.159350
  36 H :    0.145128
  37 H :    0.164737
  38 H :    0.141994
  39 H :    0.138816
  40 H :    0.137142
  41 H :    0.146844
  42 H :    0.150790
  43 H :    0.124595
  44 H :    0.353167
  45 H :    0.337057
  46 H :    0.169507
  47 H :    0.136001
  48 H :    0.131010
  49 H :    0.130298
  50 H :    0.124093
  51 H :    0.141701
Sum of atomic charges:    0.0000000

LOEWDIN ATOMIC CHARGES
----------------------
   0 C :   -0.352064
   1 C :   -0.025814
   2 C :   -0.119772
   3 C :   -0.127997
   4 C :   -0.095630
   5 C :   -0.049276
   6 C :    0.158513
   7 O :   -0.248304
   8 N :   -0.144183
   9 C :   -0.049973
  10 C :   -0.366835
  11 C :   -0.013719
  12 C :   -0.127407
  13 C :   -0.118051
  14 C :   -0.131810
  15 C :   -0.087780
  16 Cl:    0.030643
  17 C :   -0.132225
  18 C :   -0.053613
  19 C :    0.145982
  20 N :   -0.388028
  21 O :   -0.286578
  22 C :   -0.022268
  23 C :   -0.115887
  24 C :   -0.128424
  25 C :   -0.125479
  26 C :   -0.129617
  27 C :   -0.133801
  28 C :   -0.103281
  29 H :    0.136696
  30 H :    0.135010
  31 H :    0.129043
  32 H :    0.130319
  33 H :    0.134287
  34 H :    0.144555
  35 H :    0.139247
  36 H :    0.127379
  37 H :    0.132103
  38 H :    0.124419
  39 H :    0.137144
  40 H :    0.136648
  41 H :    0.142273
  42 H :    0.143924
  43 H :    0.113253
  44 H :    0.266607
  45 H :    0.253568
  46 H :    0.145655
  47 H :    0.134933
  48 H :    0.132658
  49 H :    0.132518
  50 H :    0.129082
  51 H :    0.141360

  Mayer bond orders larger than 0.100000
B(  0-C ,  1-C ) :   0.9857 B(  0-C , 29-H ) :   0.9407 B(  0-C , 30-H ) :   0.9377
B(  0-C , 31-H ) :   0.9488 B(  1-C ,  2-C ) :   1.4349 B(  1-C , 28-C ) :   1.4070
B(  2-C ,  3-C ) :   1.4289 B(  2-C , 32-H ) :   0.9248 B(  3-C ,  4-C ) :   1.4323
B(  3-C , 33-H ) :   0.9285 B(  4-C ,  5-C ) :   1.3969 B(  4-C , 34-H ) :   0.9007
B(  5-C ,  6-C ) :   1.0019 B(  5-C , 28-C ) :   1.3658 B(  6-C ,  7-O ) :   1.8346
B(  6-C ,  8-N ) :   0.9531 B(  8-N ,  9-C ) :   0.9536 B(  8-N , 18-C ) :   0.9339
B(  9-C , 10-C ) :   0.9850 B(  9-C , 11-C ) :   0.9776 B(  9-C , 35-H ) :   0.9070
B( 10-C , 36-H ) :   0.9404 B( 10-C , 37-H ) :   0.9323 B( 10-C , 38-H ) :   0.9445
B( 11-C , 12-C ) :   1.4220 B( 11-C , 17-C ) :   1.4233 B( 12-C , 13-C ) :   1.4317
B( 12-C , 39-H ) :   0.9194 B( 13-C , 14-C ) :   1.4533 B( 13-C , 40-H ) :   0.9279
B( 14-C , 15-C ) :   1.4161 B( 14-C , 41-H ) :   0.9247 B( 15-C , 16-Cl) :   1.0053
B( 15-C , 17-C ) :   1.4015 B( 17-C , 42-H ) :   0.9117 B( 18-C , 19-C ) :   0.9139
B( 18-C , 22-C ) :   0.9674 B( 18-C , 43-H ) :   0.9014 B( 19-C , 20-N ) :   1.0899
B( 19-C , 21-O ) :   1.8277 B( 20-N , 21-O ) :   0.1002 B( 20-N , 44-H ) :   0.8220
B( 20-N , 45-H ) :   0.8273 B( 22-C , 23-C ) :   1.4154 B( 22-C , 27-C ) :   1.4244
B( 23-C , 24-C ) :   1.4358 B( 23-C , 46-H ) :   0.9043 B( 24-C , 25-C ) :   1.4397
B( 24-C , 47-H ) :   0.9295 B( 25-C , 26-C ) :   1.4625 B( 25-C , 48-H ) :   0.9302
B( 26-C , 27-C ) :   1.4319 B( 26-C , 49-H ) :   0.9294 B( 27-C , 50-H ) :   0.9241
B( 28-C , 51-H ) :   0.9162

FINAL SINGLE POINT ENERGY     -1647.722133897418

DIPOLE MOMENT
-------------

Method             : SCF
Type of density    : Electron Density
Multiplicity       :   1
Irrep              :   0
Energy             : -1647.7221338974175069 Eh
Relativity type    :
Basis              : AO
                                X                 Y                 Z
Electronic contribution:     -2.145452327      -7.653794160      14.055453399
Nuclear contribution   :      1.615079406       8.135694483     -14.551764930
                        -----------------------------------------
Total Dipole Moment    :     -0.530372921       0.481900324      -0.496311531
                        -----------------------------------------
Magnitude (a.u.)       :      0.871692889
Magnitude (Debye)      :      2.215667243

Rotational constants in cm-1:             0.006835             0.004531             0.003469
Rotational constants in MHz :           204.901446           135.836850           104.005515

                             ****ORCA TERMINATED NORMALLY****
TOTAL RUN TIME: 0 days 0 hours 6 minutes 5 seconds 604 msec
