                         Program Version 6.0.0  -   RELEASE  -
|  1> ! B3LYP def2-TZVP SP
|  2>
|  3>
|  4> * xyz 0 1
|  5> O 2.8397 -0.5742 -1.2070
|  6> C 2.6407 -0.0320 -0.0854
|  7> N 3.7348 0.5390 0.6476
|  8> C 5.1148 0.3630 0.2825
|  9> C 5.5847 -0.8915 -0.1488
| 10> C 6.9316 -1.0695 -0.4753
| 11> C 7.8250 -0.0027 -0.3662
| 12> C 7.3746 1.2435 0.0745
| 13> C 6.0270 1.4317 0.4052
| 14> Br 5.4642 3.1725 0.9772
| 15> N 1.3120 0.0448 0.4490
| 16> C 0.1534 -0.4986 -0.2690
| 17> C -0.1768 0.3290 -1.5136
| 18> C -1.6921 0.2690 -1.6512
| 19> N -2.1903 -0.1245 -0.3434
| 20> C -3.5937 -0.1453 -0.0180
| 21> C -4.0397 -0.4384 1.2813
| 22> C -5.4083 -0.4470 1.5550
| 23> C -6.3337 -0.1449 0.5450
| 24> C -7.8156 -0.2003 0.8157
| 25> F -8.2718 -1.4855 0.5904
| 26> F -8.0856 0.1510 2.1271
| 27> F -8.4967 0.6725 -0.0153
| 28> C -5.8490 0.1190 -0.7452
| 29> N -4.5119 0.1196 -0.9886
| 30> C -1.1213 -0.4756 0.5785
| 31> H 3.5067 1.1592 1.4563
| 32> H 4.9149 -1.7392 -0.2108
| 33> H 7.2844 -2.0379 -0.8058
| 34> H 8.8681 -0.1427 -0.6189
| 35> H 8.0745 2.0651 0.1576
| 36> H 1.1905 0.4604 1.4001
| 37> H 0.3602 -1.5502 -0.5714
| 38> H 0.3259 -0.0789 -2.4172
| 39> H 0.1366 1.3867 -1.3662
| 40> H -2.0966 1.2638 -1.9393
| 41> H -1.9858 -0.4926 -2.4059
| 42> H -3.3437 -0.6597 2.0791
| 43> H -5.7431 -0.6901 2.5556
| 44> H -6.5311 0.3224 -1.5603
| 45> H -1.3025 -1.4795 1.0203
| 46> H -1.0750 0.2889 1.3840
| 47> *
| 48>
| 49>                          ****END OF INPUT****

CARTESIAN COORDINATES (ANGSTROEM)
---------------------------------
  O      2.839700   -0.574200   -1.207000
  C      2.640700   -0.032000   -0.085400
  N      3.734800    0.539000    0.647600
  C      5.114800    0.363000    0.282500
  C      5.584700   -0.891500   -0.148800
  C      6.931600   -1.069500   -0.475300
  C      7.825000   -0.002700   -0.366200
  C      7.374600    1.243500    0.074500
  C      6.027000    1.431700    0.405200
  Br     5.464200    3.172500    0.977200
  N      1.312000    0.044800    0.449000
  C      0.153400   -0.498600   -0.269000
  C     -0.176800    0.329000   -1.513600
  C     -1.692100    0.269000   -1.651200
  N     -2.190300   -0.124500   -0.343400
  C     -3.593700   -0.145300   -0.018000
  C     -4.039700   -0.438400    1.281300
  C     -5.408300   -0.447000    1.555000
  C     -6.333700   -0.144900    0.545000
  C     -7.815600   -0.200300    0.815700
  F     -8.271800   -1.485500    0.590400
  F     -8.085600    0.151000    2.127100
  F     -8.496700    0.672500   -0.015300
  C     -5.849000    0.119000   -0.745200
  N     -4.511900    0.119600   -0.988600
  C     -1.121300   -0.475600    0.578500
  H      3.506700    1.159200    1.456300
  H      4.914900   -1.739200   -0.210800
  H      7.284400   -2.037900   -0.805800
  H      8.868100   -0.142700   -0.618900
  H      8.074500    2.065100    0.157600
  H      1.190500    0.460400    1.400100
  H      0.360200   -1.550200   -0.571400
  H      0.325900   -0.078900   -2.417200
  H      0.136600    1.386700   -1.366200
  H     -2.096600    1.263800   -1.939300
  H     -1.985800   -0.492600   -2.405900
  H     -3.343700   -0.659700    2.079100
  H     -5.743100   -0.690100    2.555600
  H     -6.531100    0.322400   -1.560300
  H     -1.302500   -1.479500    1.020300
  H     -1.075000    0.288900    1.384000

 Total Charge           Charge          ....    0
 Multiplicity           Mult            ....    1
 Number of Electrons    NEL             ....  216
 Basis Dimension        Dim             ....  919

ORBITAL ENERGIES
----------------

  NO   OCC          E(Eh)            E(eV)
   0   2.0000    -482.869930    -13139.5588
   1   2.0000     -62.517078     -1701.1762
   2   2.0000     -56.332648     -1532.8893
   3   2.0000     -56.330067     -1532.8190
   4   2.0000     -56.330033     -1532.8181
   5   2.0000     -24.714964      -672.5284
   6   2.0000     -24.714759      -672.5228
   7   2.0000     -24.712360      -672.4575
   8   2.0000     -19.095547      -519.6163
   9   2.0000     -14.368455      -390.9855
  10   2.0000     -14.360936      -390.7809
  11   2.0000     -14.349963      -390.4823
  12   2.0000     -14.320745      -389.6873
  13   2.0000     -10.431089      -283.8444
  14   2.0000     -10.323047      -280.9044
  15   2.0000     -10.268598      -279.4228
  16   2.0000     -10.245136      -278.7843
  17   2.0000     -10.242758      -278.7196
  18   2.0000     -10.236829      -278.5583
  19   2.0000     -10.233201      -278.4596
  20   2.0000     -10.231070      -278.4016
  21   2.0000     -10.209222      -277.8071
  22   2.0000     -10.207764      -277.7674
  23   2.0000     -10.203625      -277.6548
  24   2.0000     -10.195181      -277.4250
  25   2.0000     -10.194795      -277.4145
  26   2.0000     -10.189355      -277.2664
  27   2.0000     -10.187128      -277.2058
  28   2.0000     -10.186535      -277.1897
  29   2.0000     -10.178899      -276.9819
  30   2.0000      -8.707815      -236.9517
  31   2.0000      -6.537206      -177.8864
  32   2.0000      -6.526445      -177.5936
  33   2.0000      -6.526075      -177.5835
  34   2.0000      -2.651836       -72.1601
  35   2.0000      -2.648852       -72.0789
  36   2.0000      -2.648582       -72.0716
  37   2.0000      -2.639689       -71.8296
  38   2.0000      -2.639683       -71.8294
  39   2.0000      -1.292164       -35.1616
  40   2.0000      -1.218354       -33.1531
  41   2.0000      -1.217528       -33.1306
  42   2.0000      -1.035914       -28.1887
  43   2.0000      -0.977433       -26.5973
  44   2.0000      -0.936923       -25.4950
  45   2.0000      -0.935388       -25.4532
  46   2.0000      -0.913981       -24.8707
  47   2.0000      -0.866582       -23.5809
  48   2.0000      -0.826682       -22.4952
  49   2.0000      -0.814244       -22.1567
  50   2.0000      -0.804388       -21.8885
  51   2.0000      -0.770385       -20.9632
  52   2.0000      -0.757049       -20.6003
  53   2.0000      -0.749852       -20.4045
  54   2.0000      -0.734528       -19.9875
  55   2.0000      -0.708136       -19.2694
  56   2.0000      -0.656040       -17.8517
  57   2.0000      -0.654697       -17.8152
  58   2.0000      -0.639116       -17.3912
  59   2.0000      -0.618144       -16.8206
  60   2.0000      -0.605900       -16.4874
  61   2.0000      -0.602509       -16.3951
  62   2.0000      -0.587831       -15.9957
  63   2.0000      -0.585572       -15.9342
  64   2.0000      -0.580345       -15.7920
  65   2.0000      -0.568546       -15.4709
  66   2.0000      -0.557217       -15.1626
  67   2.0000      -0.545556       -14.8453
  68   2.0000      -0.539747       -14.6873
  69   2.0000      -0.518744       -14.1157
  70   2.0000      -0.506864       -13.7925
  71   2.0000      -0.491359       -13.3706
  72   2.0000      -0.476729       -12.9725
  73   2.0000      -0.475995       -12.9525
  74   2.0000      -0.465411       -12.6645
  75   2.0000      -0.464456       -12.6385
  76   2.0000      -0.460431       -12.5290
  77   2.0000      -0.453710       -12.3461
  78   2.0000      -0.450719       -12.2647
  79   2.0000      -0.445959       -12.1352
  80   2.0000      -0.439028       -11.9466
  81   2.0000      -0.436427       -11.8758
  82   2.0000      -0.431759       -11.7488
  83   2.0000      -0.429874       -11.6975
  84   2.0000      -0.427974       -11.6458
  85   2.0000      -0.419732       -11.4215
  86   2.0000      -0.416413       -11.3312
  87   2.0000      -0.413253       -11.2452
  88   2.0000      -0.406272       -11.0552
  89   2.0000      -0.401828       -10.9343
  90   2.0000      -0.395773       -10.7695
  91   2.0000      -0.384553       -10.4642
  92   2.0000      -0.379652       -10.3309
  93   2.0000      -0.375576       -10.2199
  94   2.0000      -0.369490       -10.0543
  95   2.0000      -0.365818        -9.9544
  96   2.0000      -0.347982        -9.4691
  97   2.0000      -0.326213        -8.8767
  98   2.0000      -0.312573        -8.5055
  99   2.0000      -0.309249        -8.4151
 100   2.0000      -0.301460        -8.2032
 101   2.0000      -0.295555        -8.0425
 102   2.0000      -0.275952        -7.5090
 103   2.0000      -0.270116        -7.3502
 104   2.0000      -0.265558        -7.2262
 105   2.0000      -0.256732        -6.9860
 106   2.0000      -0.238635        -6.4936
 107   2.0000      -0.223163        -6.0726
 108   0.0000      -0.046322        -1.2605
 109   0.0000      -0.032192        -0.8760
 110   0.0000      -0.031332        -0.8526
 111   0.0000      -0.029205        -0.7947
 112   0.0000      -0.016497        -0.4489

MULLIKEN ATOMIC CHARGES
-----------------------
   0 O :   -0.428913
   1 C :    0.409348
   2 N :   -0.355651
   3 C :    0.341578
   4 C :   -0.202402
   5 C :   -0.081467
   6 C :   -0.128427
   7 C :   -0.116898
   8 C :   -0.074613
   9 Br:   -0.089549
  10 N :   -0.377723
  11 C :    0.153320
  12 C :   -0.198716
  13 C :   -0.074211
  14 N :   -0.076198
  15 C :    0.219161
  16 C :   -0.176438
  17 C :   -0.179075
  18 C :    0.026596
  19 C :    0.514308
  20 F :   -0.181591
  21 F :   -0.189472
  22 F :   -0.188481
  23 C :   -0.091423
  24 N :   -0.268655
  25 C :   -0.184956
  26 H :    0.220557
  27 H :    0.124657
  28 H :    0.115166
  29 H :    0.114243
  30 H :    0.126825
  31 H :    0.205414
  32 H :    0.095251
  33 H :    0.134792
  34 H :    0.085187
  35 H :    0.098996
  36 H :    0.092285
  37 H :    0.118065
  38 H :    0.136211
  39 H :    0.143921
  40 H :    0.108440
  41 H :    0.080540
Sum of atomic charges:    0.0000000

LOEWDIN ATOMIC CHARGES
----------------------
   0 O :    0.008363
   1 C :   -0.431014
   2 N :    0.118609
   3 C :   -0.181424
   4 C :   -0.091024
   5 C :   -0.131505
   6 C :   -0.139490
   7 C :   -0.143676
   8 C :   -0.341663
   9 Br:    0.325081
  10 N :    0.082795
  11 C :   -0.259623
  12 C :   -0.224593
  13 C :   -0.254325
  14 N :    0.184420
  15 C :   -0.221939
  16 C :   -0.135639
  17 C :   -0.078693
  18 C :   -0.157895
  19 C :   -0.520139
  20 F :    0.153007
  21 F :    0.152007
  22 F :    0.153487
  23 C :   -0.144941
  24 N :    0.132376
  25 C :   -0.234624
  26 H :    0.187160
  27 H :    0.154146
  28 H :    0.144775
  29 H :    0.144115
  30 H :    0.146905
  31 H :    0.182402
  32 H :    0.157658
  33 H :    0.148883
  34 H :    0.142775
  35 H :    0.136303
  36 H :    0.132030
  37 H :    0.144655
  38 H :    0.154166
  39 H :    0.144335
  40 H :    0.135709
  41 H :    0.126043

  Mayer bond orders larger than 0.100000
B(  0-O ,  1-C ) :   1.8758 B(  1-C ,  2-N ) :   1.1246 B(  1-C , 10-N ) :   1.1679
B(  2-N ,  3-C ) :   0.8806 B(  2-N , 26-H ) :   0.9002 B(  3-C ,  4-C ) :   1.3989
B(  3-C ,  8-C ) :   1.2648 B(  4-C ,  5-C ) :   1.4373 B(  4-C , 27-H ) :   0.9518
B(  5-C ,  6-C ) :   1.3885 B(  5-C , 28-H ) :   0.9706 B(  6-C ,  7-C ) :   1.4022
B(  6-C , 29-H ) :   0.9667 B(  7-C ,  8-C ) :   1.3358 B(  7-C , 30-H ) :   0.9683
B(  8-C ,  9-Br) :   1.1294 B( 10-N , 11-C ) :   0.9208 B( 10-N , 31-H ) :   0.9050
B( 11-C , 12-C ) :   0.9839 B( 11-C , 25-C ) :   0.9445 B( 11-C , 32-H ) :   0.9600
B( 12-C , 13-C ) :   0.9770 B( 12-C , 33-H ) :   0.9732 B( 12-C , 34-H ) :   0.9570
B( 13-C , 14-N ) :   0.9317 B( 13-C , 35-H ) :   0.9583 B( 13-C , 36-H ) :   0.9592
B( 14-N , 15-C ) :   1.1901 B( 14-N , 25-C ) :   0.9920 B( 15-C , 16-C ) :   1.3223
B( 15-C , 24-N ) :   1.3583 B( 16-C , 17-C ) :   1.4913 B( 16-C , 37-H ) :   0.9575
B( 17-C , 18-C ) :   1.3458 B( 17-C , 38-H ) :   0.9578 B( 18-C , 19-C ) :   1.0171
B( 18-C , 23-C ) :   1.3357 B( 19-C , 20-F ) :   1.1243 B( 19-C , 21-F ) :   1.1032
B( 19-C , 22-F ) :   1.1068 B( 23-C , 24-N ) :   1.5254 B( 23-C , 39-H ) :   0.9740
B( 25-C , 40-H ) :   0.9387 B( 25-C , 41-H ) :   0.9482

FINAL SINGLE POINT ENERGY     -3825.071469909333

DIPOLE MOMENT
-------------

Method             : SCF
Type of density    : Electron Density
Multiplicity       :   1
Irrep              :   0
Energy             : -3825.0714699093327908 Eh
Relativity type    :
Basis              : AO
                                X                 Y                 Z
Electronic contribution:     17.780748746      32.138431930      15.313634664
Nuclear contribution   :    -16.332732645     -32.257886798     -14.076482129
                        -----------------------------------------
Total Dipole Moment    :      1.448016101      -0.119454868       1.237152536
                        -----------------------------------------
Magnitude (a.u.)       :      1.908288891
Magnitude (Debye)      :      4.850484887

Rotational constants in cm-1:             0.016881             0.001263             0.001219
Rotational constants in MHz :           506.069989            37.849631            36.532708

                             ****ORCA TERMINATED NORMALLY****
TOTAL RUN TIME: 0 days 0 hours 11 minutes 26 seconds 167 msec
