                         Program Version 6.0.0  -   RELEASE  -
|  1> ! B3LYP 6-31G* SP
|  2>
|  3> * xyz 0 1
|  4> O -2.7034 -1.7151 1.6454
|  5> C -2.1704 -0.8681 0.8793
|  6> C -0.7265 -0.9660 0.5793
|  7> S 0.2757 0.3423 0.2318
|  8> C 1.6768 -0.5878 0.1315
|  9> C 3.0362 -0.0792 -0.1634
| 10> C 4.1268 -0.9671 -0.2150
| 11> C 5.4130 -0.4943 -0.4931
| 12> C 5.6253 0.8666 -0.7223
| 13> C 4.5513 1.7585 -0.6741
| 14> F 4.7588 3.0798 -0.8971
| 15> C 3.2626 1.2908 -0.3964
| 16> N 1.4010 -1.8917 0.3621
| 17> C 0.0813 -2.1108 0.6084
| 18> O -0.3889 -3.4019 0.8418
| 19> N -2.9659 0.2043 0.3459
| 20> C -4.3846 0.3229 0.6195
| 21> C -4.8813 1.1585 -0.5288
| 22> C -3.6868 1.1643 -1.4749
| 23> O -2.5316 0.9527 -0.7018
| 24> H 3.9871 -2.0266 -0.0407
| 25> H 6.2459 -1.1845 -0.5307
| 26> H 6.6223 1.2291 -0.9373
| 27> H 2.4478 2.0022 -0.3649
| 28> H -1.3716 -3.6160 0.9433
| 29> H -4.8712 -0.6772 0.5996
| 30> H -4.5518 0.8207 1.5988
| 31> H -5.7809 0.7160 -1.0095
| 32> H -5.1006 2.1929 -0.1841
| 33> H -3.6134 2.1369 -2.0059
| 34> H -3.7826 0.3477 -2.2242
| 35> *
| 36>
| 37>                          ****END OF INPUT****

CARTESIAN COORDINATES (ANGSTROEM)
---------------------------------
  O     -2.703400   -1.715100    1.645400
  C     -2.170400   -0.868100    0.879300
  C     -0.726500   -0.966000    0.579300
  S      0.275700    0.342300    0.231800
  C      1.676800   -0.587800    0.131500
  C      3.036200   -0.079200   -0.163400
  C      4.126800   -0.967100   -0.215000
  C      5.413000   -0.494300   -0.493100
  C      5.625300    0.866600   -0.722300
  C      4.551300    1.758500   -0.674100
  F      4.758800    3.079800   -0.897100
  C      3.262600    1.290800   -0.396400
  N      1.401000   -1.891700    0.362100
  C      0.081300   -2.110800    0.608400
  O     -0.388900   -3.401900    0.841800
  N     -2.965900    0.204300    0.345900
  C     -4.384600    0.322900    0.619500
  C     -4.881300    1.158500   -0.528800
  C     -3.686800    1.164300   -1.474900
  O     -2.531600    0.952700   -0.701800
  H      3.987100   -2.026600   -0.040700
  H      6.245900   -1.184500   -0.530700
  H      6.622300    1.229100   -0.937300
  H      2.447800    2.002200   -0.364900
  H     -1.371600   -3.616000    0.943300
  H     -4.871200   -0.677200    0.599600
  H     -4.551800    0.820700    1.598800
  H     -5.780900    0.716000   -1.009500
  H     -5.100600    2.192900   -0.184100
  H     -3.613400    2.136900   -2.005900
  H     -3.782600    0.347700   -2.224200

 Total Charge           Charge          ....    0
 Multiplicity           Mult            ....    1
 Number of Electrons    NEL             ....  152
 Basis Dimension        Dim             ....  306

ORBITAL ENERGIES
----------------

  NO   OCC          E(Eh)            E(eV)
   0   2.0000     -88.898950     -2419.0634
   1   2.0000     -24.701914      -672.1733
   2   2.0000     -19.203565      -522.5556
   3   2.0000     -19.165367      -521.5161
   4   2.0000     -19.118279      -520.2348
   5   2.0000     -14.408751      -392.0821
   6   2.0000     -14.332123      -389.9969
   7   2.0000     -10.304520      -280.4002
   8   2.0000     -10.286789      -279.9178
   9   2.0000     -10.275110      -279.6000
  10   2.0000     -10.258485      -279.1476
  11   2.0000     -10.250317      -278.9253
  12   2.0000     -10.230594      -278.3886
  13   2.0000     -10.217405      -278.0297
  14   2.0000     -10.215220      -277.9703
  15   2.0000     -10.205421      -277.7036
  16   2.0000     -10.198929      -277.5270
  17   2.0000     -10.195882      -277.4441
  18   2.0000     -10.194635      -277.4101
  19   2.0000     -10.189763      -277.2775
  20   2.0000      -7.975984      -217.0376
  21   2.0000      -5.938878      -161.6051
  22   2.0000      -5.934824      -161.4948
  23   2.0000      -5.933189      -161.4503
  24   2.0000      -1.215236       -33.0683
  25   2.0000      -1.138973       -30.9930
  26   2.0000      -1.036555       -28.2061
  27   2.0000      -1.013764       -27.5859
  28   2.0000      -0.959461       -26.1083
  29   2.0000      -0.871172       -23.7058
  30   2.0000      -0.866009       -23.5653
  31   2.0000      -0.825251       -22.4562
  32   2.0000      -0.807297       -21.9677
  33   2.0000      -0.784692       -21.3526
  34   2.0000      -0.752087       -20.4653
  35   2.0000      -0.729384       -19.8476
  36   2.0000      -0.682924       -18.5833
  37   2.0000      -0.645988       -17.5782
  38   2.0000      -0.636377       -17.3167
  39   2.0000      -0.623068       -16.9545
  40   2.0000      -0.609558       -16.5869
  41   2.0000      -0.584478       -15.9044
  42   2.0000      -0.573290       -15.6000
  43   2.0000      -0.535767       -14.5790
  44   2.0000      -0.530535       -14.4366
  45   2.0000      -0.526186       -14.3182
  46   2.0000      -0.506093       -13.7715
  47   2.0000      -0.498686       -13.5699
  48   2.0000      -0.495410       -13.4808
  49   2.0000      -0.468563       -12.7502
  50   2.0000      -0.458198       -12.4682
  51   2.0000      -0.452945       -12.3253
  52   2.0000      -0.447169       -12.1681
  53   2.0000      -0.442466       -12.0401
  54   2.0000      -0.436684       -11.8828
  55   2.0000      -0.428932       -11.6718
  56   2.0000      -0.417037       -11.3481
  57   2.0000      -0.412458       -11.2236
  58   2.0000      -0.402563       -10.9543
  59   2.0000      -0.394361       -10.7311
  60   2.0000      -0.387999       -10.5580
  61   2.0000      -0.374890       -10.2013
  62   2.0000      -0.374350       -10.1866
  63   2.0000      -0.369262       -10.0481
  64   2.0000      -0.360743        -9.8163
  65   2.0000      -0.353498        -9.6192
  66   2.0000      -0.341918        -9.3041
  67   2.0000      -0.333246        -9.0681
  68   2.0000      -0.326083        -8.8732
  69   2.0000      -0.286909        -7.8072
  70   2.0000      -0.273002        -7.4288
  71   2.0000      -0.264632        -7.2010
  72   2.0000      -0.261128        -7.1056
  73   2.0000      -0.247792        -6.7428
  74   2.0000      -0.220097        -5.9892
  75   2.0000      -0.211244        -5.7482
  76   0.0000      -0.064710        -1.7609
  77   0.0000      -0.006188        -0.1684
  78   0.0000      -0.004998        -0.1360
  79   0.0000       0.037086         1.0092
  80   0.0000       0.041872         1.1394

MULLIKEN ATOMIC CHARGES
-----------------------
   0 O :   -0.500771
   1 C :    0.511532
   2 C :   -0.270231
   3 S :    0.301701
   4 C :   -0.018853
   5 C :    0.157054
   6 C :   -0.160935
   7 C :   -0.116927
   8 C :   -0.200819
   9 C :    0.411402
  10 F :   -0.316800
  11 C :   -0.280135
  12 N :   -0.404866
  13 C :    0.509265
  14 O :   -0.643552
  15 N :   -0.190600
  16 C :   -0.107732
  17 C :   -0.340556
  18 C :   -0.010539
  19 O :   -0.375133
  20 H :    0.170143
  21 H :    0.146065
  22 H :    0.147400
  23 H :    0.159902
  24 H :    0.440096
  25 H :    0.179755
  26 H :    0.171593
  27 H :    0.165192
  28 H :    0.162205
  29 H :    0.162004
  30 H :    0.143141
Sum of atomic charges:    0.0000000

LOEWDIN ATOMIC CHARGES
----------------------
   0 O :   -0.304844
   1 C :    0.124994
   2 C :   -0.284442
   3 S :    0.413768
   4 C :   -0.114014
   5 C :   -0.020335
   6 C :   -0.112929
   7 C :   -0.117017
   8 C :   -0.151172
   9 C :    0.118448
  10 F :   -0.102622
  11 C :   -0.153613
  12 N :   -0.161346
  13 C :    0.114363
  14 O :   -0.330326
  15 N :   -0.005141
  16 C :   -0.154313
  17 C :   -0.249588
  18 C :   -0.096426
  19 O :   -0.149138
  20 H :    0.153629
  21 H :    0.140600
  22 H :    0.144649
  23 H :    0.149987
  24 H :    0.349725
  25 H :    0.141706
  26 H :    0.136017
  27 H :    0.139937
  28 H :    0.133119
  29 H :    0.133015
  30 H :    0.113309

  Mayer bond orders larger than 0.100000
B(  0-O ,  1-C ) :   1.7505 B(  1-C ,  2-C ) :   0.9897 B(  1-C , 15-N ) :   1.0525
B(  2-C ,  3-S ) :   1.0781 B(  2-C ,  4-C ) :   0.1180 B(  2-C , 13-C ) :   1.3785
B(  3-S ,  4-C ) :   1.1663 B(  4-C ,  5-C ) :   1.0234 B(  4-C , 12-N ) :   1.4261
B(  5-C ,  6-C ) :   1.4105 B(  5-C , 11-C ) :   1.3585 B(  6-C ,  7-C ) :   1.4329
B(  6-C , 20-H ) :   0.9098 B(  7-C ,  8-C ) :   1.4230 B(  7-C , 21-H ) :   0.9287
B(  8-C ,  9-C ) :   1.3879 B(  8-C , 22-H ) :   0.9205 B(  9-C , 10-F ) :   0.9134
B(  9-C , 11-C ) :   1.3922 B( 11-C , 23-H ) :   0.9069 B( 12-N , 13-C ) :   1.3259
B( 13-C , 14-O ) :   1.0299 B( 14-O , 24-H ) :   0.7266 B( 15-N , 16-C ) :   0.9166
B( 15-N , 19-O ) :   0.9153 B( 16-C , 17-C ) :   0.9859 B( 16-C , 25-H ) :   0.9241
B( 16-C , 26-H ) :   0.9309 B( 17-C , 18-C ) :   0.9870 B( 17-C , 27-H ) :   0.9417
B( 17-C , 28-H ) :   0.9410 B( 18-C , 19-O ) :   0.8953 B( 18-C , 29-H ) :   0.9397
B( 18-C , 30-H ) :   0.9276

FINAL SINGLE POINT ENERGY     -1334.531527244579

DIPOLE MOMENT
-------------

Method             : SCF
Type of density    : Electron Density
Multiplicity       :   1
Irrep              :   0
Energy             : -1334.5315272445789105 Eh
Relativity type    :
Basis              : AO
                                X                 Y                 Z
Electronic contribution:     16.331398967       1.620753790       2.144681119
Nuclear contribution   :    -17.537923351      -0.698507077      -3.122662995
                        -----------------------------------------
Total Dipole Moment    :     -1.206524385       0.922246713      -0.977981877
                        -----------------------------------------
Magnitude (a.u.)       :      1.806291406
Magnitude (Debye)      :      4.591227882

Rotational constants in cm-1:             0.020528             0.005084             0.004206
Rotational constants in MHz :           615.400707           152.417624           126.079364

                             ****ORCA TERMINATED NORMALLY****
TOTAL RUN TIME: 0 days 0 hours 3 minutes 16 seconds 672 msec
