                         Program Version 6.0.0  -   RELEASE  -
|  1> ! B3LYP 6-31G* SP
|  2>
|  3> * xyz -1 1
|  4> O -5.7329 4.6893 0.1456
|  5> C -4.7445 4.6232 -0.6340
|  6> O -4.8089 5.2746 -1.8606
|  7> C -3.5353 3.8610 -0.2528
|  8> C -2.4644 3.7320 -1.1549
|  9> C -1.3246 3.0035 -0.8026
| 10> C -1.2367 2.3963 0.4564
| 11> S 0.1909 1.4528 0.8735
| 12> O 0.2323 1.1949 2.3531
| 13> O 1.4124 2.2459 0.5048
| 14> N 0.1673 -0.0738 0.0296
| 15> C 0.8001 -0.1707 -1.2939
| 16> C 2.2927 0.0747 -1.2545
| 17> C 3.0716 -0.2605 -0.1318
| 18> C 4.4560 -0.0671 -0.1444
| 19> C 5.0911 0.4526 -1.2882
| 20> O 6.4778 0.6684 -1.3563
| 21> C 7.4010 0.4278 -0.2959
| 22> F 8.6708 0.7698 -0.7202
| 23> F 7.3920 -0.9119 0.0508
| 24> F 7.0750 1.2017 0.8044
| 25> C 4.3173 0.7686 -2.4102
| 26> C 2.9331 0.5759 -2.3985
| 27> C -0.8621 -1.0171 0.3827
| 28> N -2.1346 -0.5658 0.5500
| 29> C -3.1680 -1.3825 0.8698
| 30> C -2.9510 -2.7528 1.0357
| 31> C -4.0158 -3.6075 1.3592
| 32> C -3.7895 -4.9730 1.5364
| 33> C -2.5027 -5.4927 1.4007
| 34> C -1.4349 -4.6545 1.0644
| 35> C -1.6424 -3.2718 0.8776
| 36> C -0.5843 -2.3931 0.5472
| 37> Cl 1.0716 -2.9890 0.4049
| 38> C -2.2992 2.5222 1.3608
| 39> C -3.4414 3.2475 1.0091
| 40> H -2.5096 4.1854 -2.1370
| 41> H -0.5123 2.9103 -1.5120
| 42> H 0.3113 0.5630 -1.9705
| 43> H 0.6301 -1.1744 -1.7386
| 44> H 2.6118 -0.6528 0.7647
| 45> H 5.0192 -0.3263 0.7406
| 46> H 4.7934 1.1631 -3.2997
| 47> H 2.3601 0.8180 -3.2855
| 48> H -4.1577 -0.9590 0.9882
| 49> H -5.0204 -3.2189 1.4786
| 50> H -4.6125 -5.6280 1.7914
| 51> H -2.3324 -6.5501 1.5506
| 52> H -0.4547 -5.0992 0.9566
| 53> H -2.2538 2.0464 2.3323
| 54> H -4.2526 3.3231 1.7223
| 55> *
| 56>
| 57>                          ****END OF INPUT****

CARTESIAN COORDINATES (ANGSTROEM)
---------------------------------
  O     -5.732900    4.689300    0.145600
  C     -4.744500    4.623200   -0.634000
  O     -4.808900    5.274600   -1.860600
  C     -3.535300    3.861000   -0.252800
  C     -2.464400    3.732000   -1.154900
  C     -1.324600    3.003500   -0.802600
  C     -1.236700    2.396300    0.456400
  S      0.190900    1.452800    0.873500
  O      0.232300    1.194900    2.353100
  O      1.412400    2.245900    0.504800
  N      0.167300   -0.073800    0.029600
  C      0.800100   -0.170700   -1.293900
  C      2.292700    0.074700   -1.254500
  C      3.071600   -0.260500   -0.131800
  C      4.456000   -0.067100   -0.144400
  C      5.091100    0.452600   -1.288200
  O      6.477800    0.668400   -1.356300
  C      7.401000    0.427800   -0.295900
  F      8.670800    0.769800   -0.720200
  F      7.392000   -0.911900    0.050800
  F      7.075000    1.201700    0.804400
  C      4.317300    0.768600   -2.410200
  C      2.933100    0.575900   -2.398500
  C     -0.862100   -1.017100    0.382700
  N     -2.134600   -0.565800    0.550000
  C     -3.168000   -1.382500    0.869800
  C     -2.951000   -2.752800    1.035700
  C     -4.015800   -3.607500    1.359200
  C     -3.789500   -4.973000    1.536400
  C     -2.502700   -5.492700    1.400700
  C     -1.434900   -4.654500    1.064400
  C     -1.642400   -3.271800    0.877600
  C     -0.584300   -2.393100    0.547200
  Cl     1.071600   -2.989000    0.404900
  C     -2.299200    2.522200    1.360800
  C     -3.441400    3.247500    1.009100
  H     -2.509600    4.185400   -2.137000
  H     -0.512300    2.910300   -1.512000
  H      0.311300    0.563000   -1.970500
  H      0.630100   -1.174400   -1.738600
  H      2.611800   -0.652800    0.764700
  H      5.019200   -0.326300    0.740600
  H      4.793400    1.163100   -3.299700
  H      2.360100    0.818000   -3.285500
  H     -4.157700   -0.959000    0.988200
  H     -5.020400   -3.218900    1.478600
  H     -4.612500   -5.628000    1.791400
  H     -2.332400   -6.550100    1.550600
  H     -0.454700   -5.099200    0.956600
  H     -2.253800    2.046400    2.332300
  H     -4.252600    3.323100    1.722300

 Total Charge           Charge          ....   -1
 Multiplicity           Mult            ....    1
 Number of Electrons    NEL             ....  274
 Basis Dimension        Dim             ....  542

ORBITAL ENERGIES
----------------

  NO   OCC          E(Eh)            E(eV)
   0   2.0000    -101.481154     -2761.4426
   1   2.0000     -89.007441     -2422.0156
   2   2.0000     -24.684956      -671.7118
   3   2.0000     -24.680443      -671.5890
   4   2.0000     -24.677281      -671.5030
   5   2.0000     -19.145682      -520.9805
   6   2.0000     -19.030899      -517.8571
   7   2.0000     -19.030874      -517.8564
   8   2.0000     -18.908438      -514.5248
   9   2.0000     -18.880929      -513.7762
  10   2.0000     -14.306716      -389.3055
  11   2.0000     -14.282194      -388.6382
  12   2.0000     -10.443437      -284.1804
  13   2.0000     -10.215799      -277.9860
  14   2.0000     -10.194794      -277.4144
  15   2.0000     -10.193022      -277.3662
  16   2.0000     -10.172967      -276.8205
  17   2.0000     -10.168123      -276.6887
  18   2.0000     -10.160452      -276.4800
  19   2.0000     -10.149394      -276.1790
  20   2.0000     -10.147876      -276.1377
  21   2.0000     -10.146876      -276.1105
  22   2.0000     -10.144507      -276.0461
  23   2.0000     -10.142536      -275.9924
  24   2.0000     -10.127749      -275.5901
  25   2.0000     -10.124685      -275.5067
  26   2.0000     -10.123538      -275.4755
  27   2.0000     -10.120525      -275.3935
  28   2.0000     -10.117002      -275.2976
  29   2.0000     -10.112015      -275.1619
  30   2.0000     -10.090150      -274.5669
  31   2.0000     -10.088324      -274.5173
  32   2.0000     -10.087879      -274.5051
  33   2.0000     -10.070126      -274.0221
  34   2.0000     -10.068835      -273.9869
  35   2.0000     -10.068379      -273.9745
  36   2.0000      -9.411962      -256.1125
  37   2.0000      -8.042953      -218.8599
  38   2.0000      -7.175105      -195.2445
  39   2.0000      -7.165792      -194.9911
  40   2.0000      -7.165161      -194.9739
  41   2.0000      -6.008613      -163.5027
  42   2.0000      -6.006197      -163.4369
  43   2.0000      -6.004715      -163.3966
  44   2.0000      -1.244911       -33.8758
  45   2.0000      -1.167232       -31.7620
  46   2.0000      -1.164257       -31.6810
  47   2.0000      -1.015793       -27.6411
  48   2.0000      -0.994048       -27.0494
  49   2.0000      -0.906633       -24.6707
  50   2.0000      -0.871167       -23.7057
  51   2.0000      -0.853189       -23.2165
  52   2.0000      -0.823202       -22.4005
  53   2.0000      -0.813762       -22.1436
  54   2.0000      -0.803886       -21.8748
  55   2.0000      -0.789706       -21.4890
  56   2.0000      -0.752034       -20.4639
  57   2.0000      -0.727246       -19.7894
  58   2.0000      -0.722096       -19.6492
  59   2.0000      -0.712382       -19.3849
  60   2.0000      -0.693681       -18.8760
  61   2.0000      -0.684184       -18.6176
  62   2.0000      -0.678096       -18.4519
  63   2.0000      -0.667828       -18.1725
  64   2.0000      -0.649378       -17.6705
  65   2.0000      -0.638824       -17.3833
  66   2.0000      -0.616651       -16.7799
  67   2.0000      -0.598332       -16.2814
  68   2.0000      -0.594348       -16.1730
  69   2.0000      -0.565957       -15.4005
  70   2.0000      -0.559682       -15.2297
  71   2.0000      -0.553230       -15.0541
  72   2.0000      -0.544694       -14.8219
  73   2.0000      -0.536290       -14.5932
  74   2.0000      -0.528694       -14.3865
  75   2.0000      -0.509145       -13.8545
  76   2.0000      -0.501467       -13.6456
  77   2.0000      -0.496791       -13.5184
  78   2.0000      -0.481516       -13.1027
  79   2.0000      -0.464535       -12.6406
  80   2.0000      -0.453121       -12.3300
  81   2.0000      -0.444782       -12.1031
  82   2.0000      -0.429701       -11.6928
  83   2.0000      -0.424376       -11.5478
  84   2.0000      -0.417576       -11.3628
  85   2.0000      -0.411166       -11.1884
  86   2.0000      -0.410747       -11.1770
  87   2.0000      -0.405792       -11.0422
  88   2.0000      -0.400976       -10.9111
  89   2.0000      -0.394294       -10.7293
  90   2.0000      -0.391508       -10.6535
  91   2.0000      -0.384742       -10.4694
  92   2.0000      -0.383212       -10.4277
  93   2.0000      -0.382039       -10.3958
  94   2.0000      -0.380843       -10.3633
  95   2.0000      -0.371337       -10.1046
  96   2.0000      -0.366649        -9.9770
  97   2.0000      -0.364721        -9.9246
  98   2.0000      -0.360254        -9.8030
  99   2.0000      -0.357913        -9.7393
 100   2.0000      -0.354530        -9.6472
 101   2.0000      -0.350184        -9.5290
 102   2.0000      -0.338756        -9.2180
 103   2.0000      -0.332415        -9.0455
 104   2.0000      -0.326713        -8.8903
 105   2.0000      -0.323131        -8.7928
 106   2.0000      -0.318855        -8.6765
 107   2.0000      -0.313718        -8.5367
 108   2.0000      -0.311329        -8.4717
 109   2.0000      -0.306660        -8.3447
 110   2.0000      -0.298862        -8.1325
 111   2.0000      -0.293769        -7.9939
 112   2.0000      -0.290959        -7.9174
 113   2.0000      -0.279187        -7.5971
 114   2.0000      -0.273811        -7.4508
 115   2.0000      -0.271081        -7.3765
 116   2.0000      -0.262828        -7.1519
 117   2.0000      -0.240801        -6.5525
 118   2.0000      -0.239656        -6.5214
 119   2.0000      -0.234844        -6.3904
 120   2.0000      -0.228075        -6.2062
 121   2.0000      -0.226549        -6.1647
 122   2.0000      -0.213985        -5.8228
 123   2.0000      -0.203979        -5.5505
 124   2.0000      -0.200490        -5.4556
 125   2.0000      -0.196624        -5.3504
 126   2.0000      -0.190773        -5.1912
 127   2.0000      -0.184388        -5.0175
 128   2.0000      -0.183106        -4.9826
 129   2.0000      -0.178316        -4.8522
 130   2.0000      -0.164545        -4.4775
 131   2.0000      -0.156697        -4.2639
 132   2.0000      -0.143977        -3.9178
 133   2.0000      -0.125489        -3.4147
 134   2.0000      -0.058757        -1.5989
 135   2.0000      -0.036507        -0.9934
 136   2.0000      -0.019581        -0.5328
 137   0.0000      -0.009481        -0.2580
 138   0.0000       0.027350         0.7442
 139   0.0000       0.059397         1.6163
 140   0.0000       0.064178         1.7464
 141   0.0000       0.068461         1.8629

MULLIKEN ATOMIC CHARGES
-----------------------
   0 O :   -0.555467
   1 C :    0.408829
   2 O :   -0.659191
   3 C :    0.105866
   4 C :   -0.151053
   5 C :   -0.161894
   6 C :   -0.119924
   7 S :    1.200472
   8 O :   -0.555401
   9 O :   -0.550228
  10 N :   -0.618206
  11 C :   -0.223048
  12 C :    0.170201
  13 C :   -0.133149
  14 C :   -0.193894
  15 C :    0.346133
  16 O :   -0.551454
  17 C :    1.082005
  18 F :   -0.286963
  19 F :   -0.295846
  20 F :   -0.290094
  21 C :   -0.170141
  22 C :   -0.172852
  23 C :    0.416646
  24 N :   -0.378359
  25 C :   -0.037014
  26 C :    0.133177
  27 C :   -0.198218
  28 C :   -0.130502
  29 C :   -0.120265
  30 C :   -0.205182
  31 C :    0.180951
  32 C :   -0.206870
  33 Cl:    0.006601
  34 C :   -0.130232
  35 C :   -0.164406
  36 H :    0.148310
  37 H :    0.128239
  38 H :    0.171343
  39 H :    0.178983
  40 H :    0.169272
  41 H :    0.142258
  42 H :    0.131779
  43 H :    0.125222
  44 H :    0.174252
  45 H :    0.144106
  46 H :    0.127639
  47 H :    0.129508
  48 H :    0.152977
  49 H :    0.143495
  50 H :    0.141589
Sum of atomic charges:   -1.0000000

LOEWDIN ATOMIC CHARGES
----------------------
   0 O :   -0.380955
   1 C :    0.071339
   2 O :   -0.507294
   3 C :   -0.004845
   4 C :   -0.109111
   5 C :   -0.131864
   6 C :   -0.204578
   7 S :    1.266597
   8 O :   -0.584150
   9 O :   -0.570218
  10 N :   -0.285543
  11 C :   -0.144714
  12 C :   -0.021728
  13 C :   -0.102354
  14 C :   -0.159497
  15 C :    0.077282
  16 O :   -0.165316
  17 C :    0.357797
  18 F :   -0.094592
  19 F :   -0.109297
  20 F :   -0.104604
  21 C :   -0.146195
  22 C :   -0.124843
  23 C :    0.054398
  24 N :   -0.109648
  25 C :   -0.042292
  26 C :   -0.031985
  27 C :   -0.109293
  28 C :   -0.134133
  29 C :   -0.119976
  30 C :   -0.125419
  31 C :   -0.008840
  32 C :   -0.106040
  33 Cl:    0.044934
  34 C :   -0.110806
  35 C :   -0.117579
  36 H :    0.148459
  37 H :    0.129833
  38 H :    0.131954
  39 H :    0.147111
  40 H :    0.149691
  41 H :    0.137568
  42 H :    0.137418
  43 H :    0.132001
  44 H :    0.148024
  45 H :    0.139958
  46 H :    0.131568
  47 H :    0.132888
  48 H :    0.144331
  49 H :    0.140446
  50 H :    0.144112

  Mayer bond orders larger than 0.100000
B(  0-O ,  1-C ) :   1.7056 B(  0-O ,  2-O ) :   0.1469 B(  1-C ,  2-O ) :   1.5497
B(  1-C ,  3-C ) :   0.9279 B(  3-C ,  4-C ) :   1.4047 B(  3-C , 35-C ) :   1.3880
B(  4-C ,  5-C ) :   1.4096 B(  4-C , 36-H ) :   0.9022 B(  5-C ,  6-C ) :   1.3611
B(  5-C , 37-H ) :   0.9215 B(  6-C ,  7-S ) :   0.8382 B(  6-C , 34-C ) :   1.3794
B(  7-S ,  8-O ) :   1.6471 B(  7-S ,  9-O ) :   1.6336 B(  7-S , 10-N ) :   0.7369
B( 10-N , 11-C ) :   0.9140 B( 10-N , 23-C ) :   0.9387 B( 11-C , 12-C ) :   0.9634
B( 11-C , 38-H ) :   0.9165 B( 11-C , 39-H ) :   0.9118 B( 12-C , 13-C ) :   1.4295
B( 12-C , 22-C ) :   1.4307 B( 13-C , 14-C ) :   1.4355 B( 13-C , 40-H ) :   0.9052
B( 14-C , 15-C ) :   1.3886 B( 14-C , 41-H ) :   0.9123 B( 15-C , 16-O ) :   0.8045
B( 15-C , 21-C ) :   1.4271 B( 16-O , 17-C ) :   1.0055 B( 17-C , 18-F ) :   0.9993
B( 17-C , 19-F ) :   0.9633 B( 17-C , 20-F ) :   0.9715 B( 21-C , 22-C ) :   1.4335
B( 21-C , 42-H ) :   0.9211 B( 22-C , 43-H ) :   0.9242 B( 23-C , 24-N ) :   1.3077
B( 23-C , 32-C ) :   1.3801 B( 24-N , 25-C ) :   1.4821 B( 25-C , 26-C ) :   1.2320
B( 25-C , 32-C ) :   0.1004 B( 25-C , 44-H ) :   0.9212 B( 26-C , 27-C ) :   1.2871
B( 26-C , 31-C ) :   1.2970 B( 27-C , 28-C ) :   1.5142 B( 27-C , 30-C ) :   0.1064
B( 27-C , 45-H ) :   0.9221 B( 28-C , 29-C ) :   1.3503 B( 28-C , 46-H ) :   0.9307
B( 29-C , 30-C ) :   1.5106 B( 29-C , 47-H ) :   0.9308 B( 30-C , 31-C ) :   1.2992
B( 30-C , 48-H ) :   0.9129 B( 31-C , 32-C ) :   1.2315 B( 32-C , 33-Cl) :   1.0406
B( 34-C , 35-C ) :   1.4109 B( 34-C , 49-H ) :   0.9202 B( 35-C , 50-H ) :   0.9083

FINAL SINGLE POINT ENERGY     -2565.994902104333

DIPOLE MOMENT
-------------

Method             : SCF
Type of density    : Electron Density
Multiplicity       :   1
Irrep              :   0
Energy             : -2565.9949021043325956 Eh
Relativity type    :
Basis              : AO
                                X                 Y                 Z
Electronic contribution:     44.137930368      -1.915381509       3.515514844
Nuclear contribution   :    -38.105184635      -7.039718681      -3.071750659
                        -----------------------------------------
Total Dipole Moment    :      6.032745733      -8.955100190       0.443764185
                        -----------------------------------------
Magnitude (a.u.)       :     10.806700104
Magnitude (Debye)      :     27.468448712

Rotational constants in cm-1:             0.003787             0.001894             0.001359
Rotational constants in MHz :           113.520973            56.766483            40.729787

                             ****ORCA TERMINATED NORMALLY****
TOTAL RUN TIME: 0 days 0 hours 7 minutes 25 seconds 476 msec
