                         Program Version 6.0.0  -   RELEASE  -
|  1> ! B3LYP 6-31G* SP
|  2>
|  3> * xyz -1 1
|  4> C -1.0253 -3.3864 2.3125
|  5> C -1.3915 -2.7742 0.9789
|  6> C -1.1935 -1.3927 0.7429
|  7> N -0.5379 -0.5555 1.7041
|  8> C 0.9099 -0.6576 1.9158
|  9> C 1.6564 0.0703 0.8312
| 10> C 2.1026 1.3836 0.9513
| 11> C 2.6265 1.7081 -0.2808
| 12> C 3.1917 2.8978 -0.7434
| 13> Cl 3.3744 4.2972 0.3010
| 14> C 3.6232 2.9426 -2.0819
| 15> C 3.4846 1.8124 -2.9160
| 16> C 2.9158 0.6257 -2.4210
| 17> C 2.4947 0.6055 -1.0875
| 18> N 1.9159 -0.4116 -0.4161
| 19> C 1.6180 -1.7377 -0.9610
| 20> S -1.4445 0.7101 2.4746
| 21> O -2.9132 0.5145 2.2199
| 22> O -1.2087 0.6469 3.9577
| 23> C -0.9617 2.2798 1.8391
| 24> C -1.1236 2.5596 0.4767
| 25> C -0.7243 3.7935 -0.0439
| 26> C -0.1620 4.7707 0.7937
| 27> C 0.2653 6.0738 0.2392
| 28> O 0.8047 6.9380 0.9809
| 29> O 0.0914 6.3571 -1.1100
| 30> C -0.0081 4.4877 2.1629
| 31> C -0.4089 3.2528 2.6809
| 32> N -1.6152 -0.8350 -0.4216
| 33> C -2.1962 -1.5578 -1.4087
| 34> C -2.3599 -2.9369 -1.2641
| 35> C -2.9224 -3.6952 -2.3022
| 36> C -3.0690 -5.0749 -2.1627
| 37> C -2.6563 -5.7069 -0.9901
| 38> C -2.1029 -4.9636 0.0560
| 39> C -1.9492 -3.5641 -0.0607
| 40> H -1.8747 -3.9871 2.7016
| 41> H -0.1318 -4.0363 2.1932
| 42> H -0.8096 -2.6213 3.0869
| 43> H 1.2286 -1.7185 1.9612
| 44> H 1.1747 -0.2153 2.9003
| 45> H 2.0330 2.0221 1.8215
| 46> H 4.0646 3.8477 -2.4780
| 47> H 3.8190 1.8596 -3.9443
| 48> H 2.8063 -0.2392 -3.0620
| 49> H 2.5158 -2.1434 -1.4729
| 50> H 1.3352 -2.4534 -0.1646
| 51> H 0.7893 -1.6620 -1.6949
| 52> H -1.5544 1.8225 -0.1855
| 53> H -0.8554 3.9811 -1.1024
| 54> H 0.4238 5.2196 2.8337
| 55> H -0.2747 3.0558 3.7362
| 56> H -2.5060 -1.0552 -2.3165
| 57> H -3.2404 -3.2210 -3.2234
| 58> H -3.4974 -5.6568 -2.9684
| 59> H -2.7608 -6.7787 -0.8929
| 60> H -1.7860 -5.4977 0.9415
| 61> *
| 62>
| 63>                          ****END OF INPUT****

CARTESIAN COORDINATES (ANGSTROEM)
---------------------------------
  C     -1.025300   -3.386400    2.312500
  C     -1.391500   -2.774200    0.978900
  C     -1.193500   -1.392700    0.742900
  N     -0.537900   -0.555500    1.704100
  C      0.909900   -0.657600    1.915800
  C      1.656400    0.070300    0.831200
  C      2.102600    1.383600    0.951300
  C      2.626500    1.708100   -0.280800
  C      3.191700    2.897800   -0.743400
  Cl     3.374400    4.297200    0.301000
  C      3.623200    2.942600   -2.081900
  C      3.484600    1.812400   -2.916000
  C      2.915800    0.625700   -2.421000
  C      2.494700    0.605500   -1.087500
  N      1.915900   -0.411600   -0.416100
  C      1.618000   -1.737700   -0.961000
  S     -1.444500    0.710100    2.474600
  O     -2.913200    0.514500    2.219900
  O     -1.208700    0.646900    3.957700
  C     -0.961700    2.279800    1.839100
  C     -1.123600    2.559600    0.476700
  C     -0.724300    3.793500   -0.043900
  C     -0.162000    4.770700    0.793700
  C      0.265300    6.073800    0.239200
  O      0.804700    6.938000    0.980900
  O      0.091400    6.357100   -1.110000
  C     -0.008100    4.487700    2.162900
  C     -0.408900    3.252800    2.680900
  N     -1.615200   -0.835000   -0.421600
  C     -2.196200   -1.557800   -1.408700
  C     -2.359900   -2.936900   -1.264100
  C     -2.922400   -3.695200   -2.302200
  C     -3.069000   -5.074900   -2.162700
  C     -2.656300   -5.706900   -0.990100
  C     -2.102900   -4.963600    0.056000
  C     -1.949200   -3.564100   -0.060700
  H     -1.874700   -3.987100    2.701600
  H     -0.131800   -4.036300    2.193200
  H     -0.809600   -2.621300    3.086900
  H      1.228600   -1.718500    1.961200
  H      1.174700   -0.215300    2.900300
  H      2.033000    2.022100    1.821500
  H      4.064600    3.847700   -2.478000
  H      3.819000    1.859600   -3.944300
  H      2.806300   -0.239200   -3.062000
  H      2.515800   -2.143400   -1.472900
  H      1.335200   -2.453400   -0.164600
  H      0.789300   -1.662000   -1.694900
  H     -1.554400    1.822500   -0.185500
  H     -0.855400    3.981100   -1.102400
  H      0.423800    5.219600    2.833700
  H     -0.274700    3.055800    3.736200
  H     -2.506000   -1.055200   -2.316500
  H     -3.240400   -3.221000   -3.223400
  H     -3.497400   -5.656800   -2.968400
  H     -2.760800   -6.778700   -0.892900
  H     -1.786000   -5.497700    0.941500

 Total Charge           Charge          ....   -1
 Multiplicity           Mult            ....    1
 Number of Electrons    NEL             ....  270
 Basis Dimension        Dim             ....  554

ORBITAL ENERGIES
----------------

  NO   OCC          E(Eh)            E(eV)
   0   2.0000    -101.418832     -2759.7467
   1   2.0000     -88.997872     -2421.7552
   2   2.0000     -19.030294      -517.8406
   3   2.0000     -19.026230      -517.7300
   4   2.0000     -18.896806      -514.2082
   5   2.0000     -18.876233      -513.6484
   6   2.0000     -14.302443      -389.1893
   7   2.0000     -14.287224      -388.7751
   8   2.0000     -14.268124      -388.2554
   9   2.0000     -10.195992      -277.4470
  10   2.0000     -10.164347      -276.5859
  11   2.0000     -10.163705      -276.5685
  12   2.0000     -10.162777      -276.5432
  13   2.0000     -10.149676      -276.1867
  14   2.0000     -10.146871      -276.1104
  15   2.0000     -10.145015      -276.0599
  16   2.0000     -10.143760      -276.0257
  17   2.0000     -10.142421      -275.9893
  18   2.0000     -10.142024      -275.9785
  19   2.0000     -10.141966      -275.9769
  20   2.0000     -10.141423      -275.9621
  21   2.0000     -10.131144      -275.6824
  22   2.0000     -10.125606      -275.5317
  23   2.0000     -10.123910      -275.4856
  24   2.0000     -10.105151      -274.9751
  25   2.0000     -10.099003      -274.8078
  26   2.0000     -10.098030      -274.7814
  27   2.0000     -10.091578      -274.6058
  28   2.0000     -10.085406      -274.4378
  29   2.0000     -10.082836      -274.3679
  30   2.0000     -10.081876      -274.3418
  31   2.0000     -10.077870      -274.2328
  32   2.0000     -10.073872      -274.1240
  33   2.0000     -10.063259      -273.8352
  34   2.0000     -10.062087      -273.8033
  35   2.0000     -10.060180      -273.7514
  36   2.0000      -9.349769      -254.4202
  37   2.0000      -8.033572      -218.6046
  38   2.0000      -7.113031      -193.5554
  39   2.0000      -7.103333      -193.2915
  40   2.0000      -7.103064      -193.2842
  41   2.0000      -5.999168      -163.2456
  42   2.0000      -5.996727      -163.1792
  43   2.0000      -5.995459      -163.1447
  44   2.0000      -0.986571       -26.8460
  45   2.0000      -0.925591       -25.1866
  46   2.0000      -0.891893       -24.2696
  47   2.0000      -0.865122       -23.5412
  48   2.0000      -0.841844       -22.9077
  49   2.0000      -0.807415       -21.9709
  50   2.0000      -0.805980       -21.9318
  51   2.0000      -0.783014       -21.3069
  52   2.0000      -0.749656       -20.3992
  53   2.0000      -0.744566       -20.2607
  54   2.0000      -0.733525       -19.9602
  55   2.0000      -0.725562       -19.7435
  56   2.0000      -0.718381       -19.5481
  57   2.0000      -0.689036       -18.7496
  58   2.0000      -0.687388       -18.7048
  59   2.0000      -0.675677       -18.3861
  60   2.0000      -0.655701       -17.8425
  61   2.0000      -0.644422       -17.5356
  62   2.0000      -0.637095       -17.3362
  63   2.0000      -0.631149       -17.1744
  64   2.0000      -0.622126       -16.9289
  65   2.0000      -0.596747       -16.2383
  66   2.0000      -0.587968       -15.9994
  67   2.0000      -0.586733       -15.9658
  68   2.0000      -0.546578       -14.8732
  69   2.0000      -0.538457       -14.6522
  70   2.0000      -0.523087       -14.2339
  71   2.0000      -0.504123       -13.7179
  72   2.0000      -0.495793       -13.4912
  73   2.0000      -0.489760       -13.3270
  74   2.0000      -0.486741       -13.2449
  75   2.0000      -0.474632       -12.9154
  76   2.0000      -0.454699       -12.3730
  77   2.0000      -0.444968       -12.1082
  78   2.0000      -0.437579       -11.9071
  79   2.0000      -0.431493       -11.7415
  80   2.0000      -0.420778       -11.4500
  81   2.0000      -0.411451       -11.1961
  82   2.0000      -0.406513       -11.0618
  83   2.0000      -0.396514       -10.7897
  84   2.0000      -0.393367       -10.7041
  85   2.0000      -0.391638       -10.6570
  86   2.0000      -0.382112       -10.3978
  87   2.0000      -0.376346       -10.2409
  88   2.0000      -0.373838       -10.1727
  89   2.0000      -0.369752       -10.0615
  90   2.0000      -0.365867        -9.9558
  91   2.0000      -0.355550        -9.6750
  92   2.0000      -0.348606        -9.4861
  93   2.0000      -0.347368        -9.4524
  94   2.0000      -0.341169        -9.2837
  95   2.0000      -0.334670        -9.1068
  96   2.0000      -0.331655        -9.0248
  97   2.0000      -0.326295        -8.8789
  98   2.0000      -0.324898        -8.8409
  99   2.0000      -0.322995        -8.7891
 100   2.0000      -0.321498        -8.7484
 101   2.0000      -0.318020        -8.6538
 102   2.0000      -0.313646        -8.5347
 103   2.0000      -0.306100        -8.3294
 104   2.0000      -0.304357        -8.2820
 105   2.0000      -0.294715        -8.0196
 106   2.0000      -0.293281        -7.9806
 107   2.0000      -0.282765        -7.6944
 108   2.0000      -0.273083        -7.4310
 109   2.0000      -0.266021        -7.2388
 110   2.0000      -0.263634        -7.1738
 111   2.0000      -0.260315        -7.0835
 112   2.0000      -0.237340        -6.4583
 113   2.0000      -0.233229        -6.3465
 114   2.0000      -0.231209        -6.2915
 115   2.0000      -0.220882        -6.0105
 116   2.0000      -0.219598        -5.9756
 117   2.0000      -0.216612        -5.8943
 118   2.0000      -0.206536        -5.6201
 119   2.0000      -0.201911        -5.4943
 120   2.0000      -0.200257        -5.4493
 121   2.0000      -0.189668        -5.1611
 122   2.0000      -0.188492        -5.1291
 123   2.0000      -0.184768        -5.0278
 124   2.0000      -0.176156        -4.7934
 125   2.0000      -0.175210        -4.7677
 126   2.0000      -0.170279        -4.6335
 127   2.0000      -0.158612        -4.3160
 128   2.0000      -0.137528        -3.7423
 129   2.0000      -0.137016        -3.7284
 130   2.0000      -0.119677        -3.2566
 131   2.0000      -0.107165        -2.9161
 132   2.0000      -0.050964        -1.3868
 133   2.0000      -0.029657        -0.8070
 134   2.0000      -0.012884        -0.3506
 135   0.0000      -0.004017        -0.1093
 136   0.0000       0.030254         0.8233
 137   0.0000       0.068642         1.8678
 138   0.0000       0.073339         1.9957
 139   0.0000       0.077483         2.1084

MULLIKEN ATOMIC CHARGES
-----------------------
   0 C :   -0.548482
   1 C :    0.089982
   2 C :    0.339772
   3 N :   -0.600967
   4 C :   -0.267927
   5 C :    0.292826
   6 C :   -0.248802
   7 C :    0.126558
   8 C :   -0.143408
   9 Cl:    0.021500
  10 C :   -0.149784
  11 C :   -0.133923
  12 C :   -0.197802
  13 C :    0.302697
  14 N :   -0.467326
  15 C :   -0.332909
  16 S :    1.185342
  17 O :   -0.552503
  18 O :   -0.566473
  19 C :   -0.142634
  20 C :   -0.147546
  21 C :   -0.150139
  22 C :    0.108753
  23 C :    0.422426
  24 O :   -0.558622
  25 O :   -0.660150
  26 C :   -0.155252
  27 C :   -0.164872
  28 N :   -0.366394
  29 C :   -0.056468
  30 C :    0.135927
  31 C :   -0.202462
  32 C :   -0.130667
  33 C :   -0.122608
  34 C :   -0.200144
  35 C :    0.119720
  36 H :    0.161051
  37 H :    0.143535
  38 H :    0.205607
  39 H :    0.147184
  40 H :    0.199857
  41 H :    0.157846
  42 H :    0.136343
  43 H :    0.108701
  44 H :    0.101080
  45 H :    0.158287
  46 H :    0.162253
  47 H :    0.179324
  48 H :    0.158378
  49 H :    0.150076
  50 H :    0.142417
  51 H :    0.143606
  52 H :    0.154101
  53 H :    0.134520
  54 H :    0.123111
  55 H :    0.124182
  56 H :    0.131301
Sum of atomic charges:   -1.0000000

LOEWDIN ATOMIC CHARGES
----------------------
   0 C :   -0.362102
   1 C :   -0.023994
   2 C :    0.047450
   3 N :   -0.286837
   4 C :   -0.156554
   5 C :   -0.012767
   6 C :   -0.177242
   7 C :   -0.046793
   8 C :   -0.078365
   9 Cl:    0.063801
  10 C :   -0.149660
  11 C :   -0.143451
  12 C :   -0.170685
  13 C :    0.009490
  14 N :    0.009616
  15 C :   -0.267241
  16 S :    1.263762
  17 O :   -0.584134
  18 O :   -0.594145
  19 C :   -0.214560
  20 C :   -0.120890
  21 C :   -0.105993
  22 C :   -0.001257
  23 C :    0.074299
  24 O :   -0.380500
  25 O :   -0.506366
  26 C :   -0.117615
  27 C :   -0.129924
  28 N :   -0.112628
  29 C :   -0.061318
  30 C :   -0.033782
  31 C :   -0.112464
  32 C :   -0.137029
  33 C :   -0.124970
  34 C :   -0.128225
  35 C :   -0.007434
  36 H :    0.136396
  37 H :    0.126745
  38 H :    0.155010
  39 H :    0.124445
  40 H :    0.157970
  41 H :    0.149822
  42 H :    0.138587
  43 H :    0.124587
  44 H :    0.120493
  45 H :    0.128273
  46 H :    0.135701
  47 H :    0.136829
  48 H :    0.143903
  49 H :    0.149394
  50 H :    0.144869
  51 H :    0.139505
  52 H :    0.137846
  53 H :    0.134937
  54 H :    0.129474
  55 H :    0.130292
  56 H :    0.135424

  Mayer bond orders larger than 0.100000
B(  0-C ,  1-C ) :   0.9987 B(  0-C , 36-H ) :   0.9303 B(  0-C , 37-H ) :   0.9287
B(  0-C , 38-H ) :   0.9224 B(  1-C ,  2-C ) :   1.4233 B(  1-C , 29-C ) :   0.1016
B(  1-C , 35-C ) :   1.2644 B(  2-C ,  3-N ) :   0.9166 B(  2-C , 28-N ) :   1.2718
B(  3-N ,  4-C ) :   0.9312 B(  3-N , 16-S ) :   0.7602 B(  4-C ,  5-C ) :   0.9588
B(  4-C , 39-H ) :   0.9172 B(  4-C , 40-H ) :   0.9158 B(  5-C ,  6-C ) :   1.5106
B(  5-C , 14-N ) :   1.1104 B(  6-C ,  7-C ) :   1.3090 B(  6-C , 41-H ) :   0.9072
B(  7-C ,  8-C ) :   1.2802 B(  7-C , 13-C ) :   1.3200 B(  8-C ,  9-Cl) :   1.0574
B(  8-C , 10-C ) :   1.4375 B( 10-C , 11-C ) :   1.3826 B( 10-C , 42-H ) :   0.9259
B( 11-C , 12-C ) :   1.4651 B( 11-C , 43-H ) :   0.9334 B( 12-C , 13-C ) :   1.3481
B( 12-C , 44-H ) :   0.9220 B( 13-C , 14-N ) :   1.0414 B( 14-N , 15-C ) :   0.9624
B( 15-C , 45-H ) :   0.9332 B( 15-C , 46-H ) :   0.9358 B( 15-C , 47-H ) :   0.9219
B( 16-S , 17-O ) :   1.6576 B( 16-S , 18-O ) :   1.6143 B( 16-S , 19-C ) :   0.8504
B( 19-C , 20-C ) :   1.3590 B( 19-C , 27-C ) :   1.3712 B( 20-C , 21-C ) :   1.4119
B( 20-C , 48-H ) :   0.9036 B( 21-C , 22-C ) :   1.3984 B( 21-C , 49-H ) :   0.9025
B( 22-C , 23-C ) :   0.9264 B( 22-C , 26-C ) :   1.3894 B( 23-C , 24-O ) :   1.6973
B( 23-C , 25-O ) :   1.5510 B( 24-O , 25-O ) :   0.1452 B( 26-C , 27-C ) :   1.4011
B( 26-C , 50-H ) :   0.9075 B( 27-C , 51-H ) :   0.9205 B( 28-N , 29-C ) :   1.4919
B( 29-C , 30-C ) :   1.2240 B( 29-C , 52-H ) :   0.9263 B( 30-C , 31-C ) :   1.2861
B( 30-C , 35-C ) :   1.2880 B( 31-C , 32-C ) :   1.5129 B( 31-C , 34-C ) :   0.1062
B( 31-C , 53-H ) :   0.9237 B( 32-C , 33-C ) :   1.3520 B( 32-C , 54-H ) :   0.9313
B( 33-C , 34-C ) :   1.5106 B( 33-C , 55-H ) :   0.9313 B( 34-C , 35-C ) :   1.2925
B( 34-C , 56-H ) :   0.9173

FINAL SINGLE POINT ENERGY     -2363.960131638530

DIPOLE MOMENT
-------------

Method             : SCF
Type of density    : Electron Density
Multiplicity       :   1
Irrep              :   0
Energy             : -2363.9601316385296741 Eh
Relativity type    :
Basis              : AO
                                X                 Y                 Z
Electronic contribution:      5.104306951      26.943196800       6.240720159
Nuclear contribution   :     -4.647192062     -37.452926359      -7.467441316
                        -----------------------------------------
Total Dipole Moment    :      0.457114890     -10.509729559      -1.226721157
                        -----------------------------------------
Magnitude (a.u.)       :     10.590949638
Magnitude (Debye)      :     26.920054607

Rotational constants in cm-1:             0.005892             0.002329             0.002006
Rotational constants in MHz :           176.623686            69.815291            60.143015

                             ****ORCA TERMINATED NORMALLY****
TOTAL RUN TIME: 0 days 0 hours 9 minutes 3 seconds 740 msec
