                         Program Version 6.0.0  -   RELEASE  -
|  1> ! B3LYP 6-31G* SP
|  2>
|  3> * xyz 0 1
|  4> C -1.0821 -2.8724 1.9124
|  5> C -2.1467 -2.7668 0.8429
|  6> C -2.1651 -1.6699 -0.0517
|  7> N -1.2283 -0.5917 0.0688
|  8> C -0.4027 -0.2366 -1.0896
|  9> C 1.0143 0.0357 -0.6660
| 10> C 1.8150 -1.0105 -0.1863
| 11> C 3.1098 -0.7548 0.2725
| 12> C 3.6205 0.5542 0.2746
| 13> C 5.0293 0.8179 0.7637
| 14> F 5.2605 0.0682 1.9046
| 15> F 5.1831 2.1535 1.1043
| 16> C 6.0575 0.4087 -0.3117
| 17> C 7.5002 0.7827 0.0299
| 18> C 7.5514 1.6906 -1.1934
| 19> C 6.1120 1.3259 -1.5345
| 20> C 2.8246 1.5960 -0.2360
| 21> C 1.5314 1.3384 -0.6987
| 22> S -1.4720 0.5747 1.3385
| 23> O -2.4191 0.0272 2.3703
| 24> O -0.1622 0.8718 2.0139
| 25> C -2.1682 2.0410 0.6596
| 26> C -3.4927 2.0320 0.2096
| 27> C -4.0559 3.1833 -0.3482
| 28> C -3.2990 4.3613 -0.4672
| 29> C -3.8974 5.5756 -1.0642
| 30> O -3.2394 6.6507 -1.1243
| 31> O -5.1891 5.5391 -1.5798
| 32> C -1.9620 4.3608 -0.0245
| 33> C -1.4019 3.2085 0.5359
| 34> N -3.0880 -1.6196 -1.0485
| 35> C -4.0268 -2.5801 -1.2224
| 36> C -4.0803 -3.6747 -0.3557
| 37> C -5.0584 -4.6672 -0.5288
| 38> C -5.1177 -5.7540 0.3428
| 39> C -4.2053 -5.8581 1.3928
| 40> C -3.2243 -4.8781 1.5752
| 41> C -3.1389 -3.7730 0.6993
| 42> H -0.2944 -2.0995 1.8169
| 43> H -0.5730 -3.8554 1.8413
| 44> H -1.5497 -2.7680 2.9136
| 45> H -0.8469 0.6441 -1.6016
| 46> H -0.3916 -1.0705 -1.8266
| 47> H 1.4325 -2.0238 -0.1607
| 48> H 3.7117 -1.5786 0.6356
| 49> H 5.9713 -0.6638 -0.5999
| 50> H 8.1939 -0.0820 -0.0557
| 51> H 7.6159 1.3468 0.9819
| 52> H 7.6641 2.7630 -0.9214
| 53> H 8.2767 1.3345 -1.9579
| 54> H 6.0338 0.7589 -2.4888
| 55> H 5.4296 2.2027 -1.4826
| 56> H 3.1991 2.6112 -0.2756
| 57> H 0.9328 2.1570 -1.0773
| 58> H -4.0864 1.1306 0.2841
| 59> H -5.0831 3.1493 -0.6870
| 60> H -5.6166 6.3694 -1.9752
| 61> H -1.3472 5.2493 -0.1162
| 62> H -0.3686 3.2269 0.8632
| 63> H -4.7347 -2.4828 -2.0361
| 64> H -5.7771 -4.5997 -1.3369
| 65> H -5.8750 -6.5156 0.2045
| 66> H -4.2576 -6.7006 2.0702
| 67> H -2.5453 -4.9941 2.4082
| 68> *
| 69>
| 70>                          ****END OF INPUT****

CARTESIAN COORDINATES (ANGSTROEM)
---------------------------------
  C     -1.082100   -2.872400    1.912400
  C     -2.146700   -2.766800    0.842900
  C     -2.165100   -1.669900   -0.051700
  N     -1.228300   -0.591700    0.068800
  C     -0.402700   -0.236600   -1.089600
  C      1.014300    0.035700   -0.666000
  C      1.815000   -1.010500   -0.186300
  C      3.109800   -0.754800    0.272500
  C      3.620500    0.554200    0.274600
  C      5.029300    0.817900    0.763700
  F      5.260500    0.068200    1.904600
  F      5.183100    2.153500    1.104300
  C      6.057500    0.408700   -0.311700
  C      7.500200    0.782700    0.029900
  C      7.551400    1.690600   -1.193400
  C      6.112000    1.325900   -1.534500
  C      2.824600    1.596000   -0.236000
  C      1.531400    1.338400   -0.698700
  S     -1.472000    0.574700    1.338500
  O     -2.419100    0.027200    2.370300
  O     -0.162200    0.871800    2.013900
  C     -2.168200    2.041000    0.659600
  C     -3.492700    2.032000    0.209600
  C     -4.055900    3.183300   -0.348200
  C     -3.299000    4.361300   -0.467200
  C     -3.897400    5.575600   -1.064200
  O     -3.239400    6.650700   -1.124300
  O     -5.189100    5.539100   -1.579800
  C     -1.962000    4.360800   -0.024500
  C     -1.401900    3.208500    0.535900
  N     -3.088000   -1.619600   -1.048500
  C     -4.026800   -2.580100   -1.222400
  C     -4.080300   -3.674700   -0.355700
  C     -5.058400   -4.667200   -0.528800
  C     -5.117700   -5.754000    0.342800
  C     -4.205300   -5.858100    1.392800
  C     -3.224300   -4.878100    1.575200
  C     -3.138900   -3.773000    0.699300
  H     -0.294400   -2.099500    1.816900
  H     -0.573000   -3.855400    1.841300
  H     -1.549700   -2.768000    2.913600
  H     -0.846900    0.644100   -1.601600
  H     -0.391600   -1.070500   -1.826600
  H      1.432500   -2.023800   -0.160700
  H      3.711700   -1.578600    0.635600
  H      5.971300   -0.663800   -0.599900
  H      8.193900   -0.082000   -0.055700
  H      7.615900    1.346800    0.981900
  H      7.664100    2.763000   -0.921400
  H      8.276700    1.334500   -1.957900
  H      6.033800    0.758900   -2.488800
  H      5.429600    2.202700   -1.482600
  H      3.199100    2.611200   -0.275600
  H      0.932800    2.157000   -1.077300
  H     -4.086400    1.130600    0.284100
  H     -5.083100    3.149300   -0.687000
  H     -5.616600    6.369400   -1.975200
  H     -1.347200    5.249300   -0.116200
  H     -0.368600    3.226900    0.863200
  H     -4.734700   -2.482800   -2.036100
  H     -5.777100   -4.599700   -1.336900
  H     -5.875000   -6.515600    0.204500
  H     -4.257600   -6.700600    2.070200
  H     -2.545300   -4.994100    2.408200

 Total Charge           Charge          ....    0
 Multiplicity           Mult            ....    1
 Number of Electrons    NEL             ....  280
 Basis Dimension        Dim             ....  588

ORBITAL ENERGIES
----------------

  NO   OCC          E(Eh)            E(eV)
   0   2.0000     -89.094790     -2424.3925
   1   2.0000     -24.689807      -671.8438
   2   2.0000     -24.679423      -671.5612
   3   2.0000     -19.195648      -522.3401
   4   2.0000     -19.136594      -520.7332
   5   2.0000     -19.124898      -520.4149
   6   2.0000     -19.122380      -520.3464
   7   2.0000     -14.371603      -391.0712
   8   2.0000     -14.332527      -390.0079
   9   2.0000     -10.334719      -281.2220
  10   2.0000     -10.334379      -281.2128
  11   2.0000     -10.257508      -279.1210
  12   2.0000     -10.239651      -278.6351
  13   2.0000     -10.231834      -278.4224
  14   2.0000     -10.230568      -278.3879
  15   2.0000     -10.225580      -278.2522
  16   2.0000     -10.218042      -278.0471
  17   2.0000     -10.217971      -278.0451
  18   2.0000     -10.215973      -277.9908
  19   2.0000     -10.215441      -277.9763
  20   2.0000     -10.207759      -277.7673
  21   2.0000     -10.205201      -277.6976
  22   2.0000     -10.200055      -277.5576
  23   2.0000     -10.197708      -277.4937
  24   2.0000     -10.197301      -277.4827
  25   2.0000     -10.195672      -277.4383
  26   2.0000     -10.194915      -277.4178
  27   2.0000     -10.193132      -277.3692
  28   2.0000     -10.192859      -277.3618
  29   2.0000     -10.186530      -277.1896
  30   2.0000     -10.185629      -277.1651
  31   2.0000     -10.184609      -277.1373
  32   2.0000     -10.184577      -277.1364
  33   2.0000     -10.184071      -277.1226
  34   2.0000     -10.172150      -276.7983
  35   2.0000     -10.171804      -276.7889
  36   2.0000     -10.167421      -276.6696
  37   2.0000     -10.166592      -276.6470
  38   2.0000      -8.130750      -221.2490
  39   2.0000      -6.095869      -165.8770
  40   2.0000      -6.093679      -165.8174
  41   2.0000      -6.093339      -165.8082
  42   2.0000      -1.223829       -33.3021
  43   2.0000      -1.169977       -31.8367
  44   2.0000      -1.081639       -29.4329
  45   2.0000      -1.080074       -29.3903
  46   2.0000      -0.993547       -27.0358
  47   2.0000      -0.963262       -26.2117
  48   2.0000      -0.959576       -26.1114
  49   2.0000      -0.914226       -24.8774
  50   2.0000      -0.888216       -24.1696
  51   2.0000      -0.864529       -23.5250
  52   2.0000      -0.859464       -23.3872
  53   2.0000      -0.850012       -23.1300
  54   2.0000      -0.808115       -21.9899
  55   2.0000      -0.803581       -21.8666
  56   2.0000      -0.785298       -21.3690
  57   2.0000      -0.774669       -21.0798
  58   2.0000      -0.772711       -21.0265
  59   2.0000      -0.745969       -20.2989
  60   2.0000      -0.742437       -20.2027
  61   2.0000      -0.726015       -19.7559
  62   2.0000      -0.708947       -19.2914
  63   2.0000      -0.691910       -18.8278
  64   2.0000      -0.678139       -18.4531
  65   2.0000      -0.655784       -17.8448
  66   2.0000      -0.652686       -17.7605
  67   2.0000      -0.643523       -17.5112
  68   2.0000      -0.634820       -17.2743
  69   2.0000      -0.627714       -17.0810
  70   2.0000      -0.616552       -16.7772
  71   2.0000      -0.611626       -16.6432
  72   2.0000      -0.594531       -16.1780
  73   2.0000      -0.593738       -16.1564
  74   2.0000      -0.579667       -15.7735
  75   2.0000      -0.557362       -15.1666
  76   2.0000      -0.539886       -14.6910
  77   2.0000      -0.538602       -14.6561
  78   2.0000      -0.534249       -14.5377
  79   2.0000      -0.528677       -14.3860
  80   2.0000      -0.524308       -14.2671
  81   2.0000      -0.511439       -13.9169
  82   2.0000      -0.503635       -13.7046
  83   2.0000      -0.499684       -13.5971
  84   2.0000      -0.491428       -13.3724
  85   2.0000      -0.484095       -13.1729
  86   2.0000      -0.476432       -12.9644
  87   2.0000      -0.473526       -12.8853
  88   2.0000      -0.472311       -12.8522
  89   2.0000      -0.467129       -12.7112
  90   2.0000      -0.459900       -12.5145
  91   2.0000      -0.455495       -12.3946
  92   2.0000      -0.450368       -12.2551
  93   2.0000      -0.447819       -12.1858
  94   2.0000      -0.445312       -12.1176
  95   2.0000      -0.441768       -12.0211
  96   2.0000      -0.440556       -11.9881
  97   2.0000      -0.429994       -11.7007
  98   2.0000      -0.429761       -11.6944
  99   2.0000      -0.426962       -11.6182
 100   2.0000      -0.423402       -11.5214
 101   2.0000      -0.422174       -11.4879
 102   2.0000      -0.414995       -11.2926
 103   2.0000      -0.408524       -11.1165
 104   2.0000      -0.401352       -10.9214
 105   2.0000      -0.397217       -10.8088
 106   2.0000      -0.393969       -10.7204
 107   2.0000      -0.391905       -10.6643
 108   2.0000      -0.390157       -10.6167
 109   2.0000      -0.388458       -10.5705
 110   2.0000      -0.383044       -10.4232
 111   2.0000      -0.377605       -10.2751
 112   2.0000      -0.375715       -10.2237
 113   2.0000      -0.372083       -10.1249
 114   2.0000      -0.367413        -9.9978
 115   2.0000      -0.364122        -9.9083
 116   2.0000      -0.363185        -9.8828
 117   2.0000      -0.354600        -9.6491
 118   2.0000      -0.351467        -9.5639
 119   2.0000      -0.349871        -9.5205
 120   2.0000      -0.342931        -9.3316
 121   2.0000      -0.339132        -9.2282
 122   2.0000      -0.321736        -8.7549
 123   2.0000      -0.319662        -8.6985
 124   2.0000      -0.306893        -8.3510
 125   2.0000      -0.305121        -8.3028
 126   2.0000      -0.299674        -8.1545
 127   2.0000      -0.293555        -7.9880
 128   2.0000      -0.287930        -7.8350
 129   2.0000      -0.287110        -7.8127
 130   2.0000      -0.281551        -7.6614
 131   2.0000      -0.277180        -7.5424
 132   2.0000      -0.276239        -7.5168
 133   2.0000      -0.273106        -7.4316
 134   2.0000      -0.266026        -7.2389
 135   2.0000      -0.256168        -6.9707
 136   2.0000      -0.255057        -6.9405
 137   2.0000      -0.246894        -6.7183
 138   2.0000      -0.240081        -6.5329
 139   2.0000      -0.219598        -5.9756
 140   0.0000      -0.082262        -2.2385
 141   0.0000      -0.060218        -1.6386
 142   0.0000      -0.031396        -0.8543
 143   0.0000      -0.028938        -0.7874
 144   0.0000      -0.013741        -0.3739

MULLIKEN ATOMIC CHARGES
-----------------------
   0 C :   -0.547018
   1 C :    0.120578
   2 C :    0.299549
   3 N :   -0.603107
   4 C :   -0.243925
   5 C :    0.174544
   6 C :   -0.154413
   7 C :   -0.166814
   8 C :    0.045166
   9 C :    0.672119
  10 F :   -0.337497
  11 F :   -0.341460
  12 C :   -0.160320
  13 C :   -0.278378
  14 C :   -0.262656
  15 C :   -0.279916
  16 C :   -0.163597
  17 C :   -0.167909
  18 S :    1.233929
  19 O :   -0.551225
  20 O :   -0.538610
  21 C :   -0.131508
  22 C :   -0.135780
  23 C :   -0.148289
  24 C :    0.083527
  25 C :    0.527706
  26 O :   -0.445425
  27 O :   -0.622830
  28 C :   -0.141988
  29 C :   -0.154240
  30 N :   -0.404336
  31 C :   -0.058589
  32 C :    0.137031
  33 C :   -0.203316
  34 C :   -0.126248
  35 C :   -0.121035
  36 C :   -0.195905
  37 C :    0.119918
  38 H :    0.198654
  39 H :    0.145948
  40 H :    0.185387
  41 H :    0.160005
  42 H :    0.184777
  43 H :    0.131148
  44 H :    0.140893
  45 H :    0.143663
  46 H :    0.134444
  47 H :    0.154037
  48 H :    0.140566
  49 H :    0.132393
  50 H :    0.136144
  51 H :    0.145628
  52 H :    0.141254
  53 H :    0.126080
  54 H :    0.185465
  55 H :    0.172658
  56 H :    0.434037
  57 H :    0.180093
  58 H :    0.194120
  59 H :    0.149073
  60 H :    0.136937
  61 H :    0.135745
  62 H :    0.138551
  63 H :    0.144566
Sum of atomic charges:    0.0000000

LOEWDIN ATOMIC CHARGES
----------------------
   0 C :   -0.364099
   1 C :    0.002526
   2 C :    0.021095
   3 N :   -0.278749
   4 C :   -0.144621
   5 C :   -0.025307
   6 C :   -0.118958
   7 C :   -0.115527
   8 C :   -0.041722
   9 C :    0.232499
  10 F :   -0.134988
  11 F :   -0.133846
  12 C :   -0.143460
  13 C :   -0.230563
  14 C :   -0.230494
  15 C :   -0.229882
  16 C :   -0.119984
  17 C :   -0.129454
  18 S :    1.266822
  19 O :   -0.569175
  20 O :   -0.561276
  21 C :   -0.176636
  22 C :   -0.097094
  23 C :   -0.098661
  24 C :   -0.039173
  25 C :    0.179739
  26 O :   -0.261750
  27 O :   -0.333822
  28 C :   -0.088073
  29 C :   -0.108255
  30 N :   -0.144686
  31 C :   -0.064967
  32 C :   -0.029268
  33 C :   -0.113448
  34 C :   -0.126187
  35 C :   -0.117119
  36 C :   -0.119393
  37 C :   -0.005674
  38 H :    0.151716
  39 H :    0.128228
  40 H :    0.151127
  41 H :    0.126431
  42 H :    0.152508
  43 H :    0.133443
  44 H :    0.137770
  45 H :    0.131427
  46 H :    0.121376
  47 H :    0.129462
  48 H :    0.122827
  49 H :    0.118602
  50 H :    0.122547
  51 H :    0.125382
  52 H :    0.137575
  53 H :    0.129522
  54 H :    0.159961
  55 H :    0.154786
  56 H :    0.349903
  57 H :    0.159983
  58 H :    0.163870
  59 H :    0.135282
  60 H :    0.136038
  61 H :    0.135291
  62 H :    0.136971
  63 H :    0.141598

  Mayer bond orders larger than 0.100000
B(  0-C ,  1-C ) :   1.0086 B(  0-C , 38-H ) :   0.9168 B(  0-C , 39-H ) :   0.9276
B(  0-C , 40-H ) :   0.9196 B(  1-C ,  2-C ) :   1.4371 B(  1-C , 31-C ) :   0.1004
B(  1-C , 37-C ) :   1.2637 B(  2-C ,  3-N ) :   0.9064 B(  2-C , 30-N ) :   1.2726
B(  3-N ,  4-C ) :   0.9135 B(  3-N , 18-S ) :   0.7858 B(  4-C ,  5-C ) :   0.9562
B(  4-C , 41-H ) :   0.9241 B(  4-C , 42-H ) :   0.9193 B(  5-C ,  6-C ) :   1.4164
B(  5-C , 17-C ) :   1.4395 B(  6-C ,  7-C ) :   1.4363 B(  6-C , 43-H ) :   0.9235
B(  7-C ,  8-C ) :   1.3994 B(  7-C , 44-H ) :   0.9208 B(  8-C ,  9-C ) :   0.9736
B(  8-C , 16-C ) :   1.4215 B(  9-C , 10-F ) :   0.8914 B(  9-C , 11-F ) :   0.8759
B(  9-C , 12-C ) :   0.9773 B( 12-C , 13-C ) :   0.9860 B( 12-C , 15-C ) :   0.9801
B( 12-C , 45-H ) :   0.9245 B( 13-C , 14-C ) :   1.0069 B( 13-C , 46-H ) :   0.9459
B( 13-C , 47-H ) :   0.9382 B( 14-C , 15-C ) :   1.0028 B( 14-C , 48-H ) :   0.9488
B( 14-C , 49-H ) :   0.9500 B( 15-C , 50-H ) :   0.9450 B( 15-C , 51-H ) :   0.9381
B( 16-C , 17-C ) :   1.4105 B( 16-C , 52-H ) :   0.9189 B( 17-C , 53-H ) :   0.9188
B( 18-S , 19-O ) :   1.6296 B( 18-S , 20-O ) :   1.6318 B( 18-S , 21-C ) :   0.8080
B( 21-C , 22-C ) :   1.3896 B( 21-C , 29-C ) :   1.3864 B( 22-C , 23-C ) :   1.4242
B( 22-C , 54-H ) :   0.9075 B( 23-C , 24-C ) :   1.3821 B( 23-C , 55-H ) :   0.9150
B( 24-C , 25-C ) :   1.0077 B( 24-C , 28-C ) :   1.4026 B( 25-C , 26-O ) :   1.8620
B( 25-C , 27-O ) :   1.0259 B( 27-O , 56-H ) :   0.7418 B( 28-C , 29-C ) :   1.4127
B( 28-C , 57-H ) :   0.9100 B( 29-C , 58-H ) :   0.9035 B( 30-N , 31-C ) :   1.4938
B( 31-C , 32-C ) :   1.2422 B( 31-C , 59-H ) :   0.9269 B( 32-C , 33-C ) :   1.2829
B( 32-C , 37-C ) :   1.2914 B( 33-C , 34-C ) :   1.5133 B( 33-C , 36-C ) :   0.1060
B( 33-C , 60-H ) :   0.9237 B( 34-C , 35-C ) :   1.3522 B( 34-C , 61-H ) :   0.9293
B( 35-C , 36-C ) :   1.5074 B( 35-C , 62-H ) :   0.9290 B( 36-C , 37-C ) :   1.2962
B( 36-C , 63-H ) :   0.9152

FINAL SINGLE POINT ENERGY     -2127.825607197594

DIPOLE MOMENT
-------------

Method             : SCF
Type of density    : Electron Density
Multiplicity       :   1
Irrep              :   0
Energy             : -2127.8256071975938539 Eh
Relativity type    :
Basis              : AO
                                X                 Y                 Z
Electronic contribution:    -13.007463268      12.766523145       9.366450958
Nuclear contribution   :     11.739029203     -14.137249036     -11.438341136
                        -----------------------------------------
Total Dipole Moment    :     -1.268434065      -1.370725892      -2.071890177
                        -----------------------------------------
Magnitude (a.u.)       :      2.789362535
Magnitude (Debye)      :      7.089996113

Rotational constants in cm-1:             0.003167             0.001937             0.001309
Rotational constants in MHz :            94.932863            58.083379            39.242584

                             ****ORCA TERMINATED NORMALLY****
TOTAL RUN TIME: 0 days 0 hours 8 minutes 6 seconds 215 msec
