                         Program Version 6.0.0  -   RELEASE  -
|  1> ! B3LYP 6-31G* SP
|  2>
|  3> * xyz 0 1
|  4> C 1.0116 3.2621 1.2249
|  5> C 1.0205 1.9144 0.4879
|  6> C 0.5670 2.0503 -0.9551
|  7> C -0.6924 2.5907 -1.2825
|  8> C -1.0948 2.6967 -2.6171
|  9> C -0.2537 2.2573 -3.6397
| 10> F -0.6486 2.3558 -4.9333
| 11> C 0.9909 1.7057 -3.3288
| 12> C 1.4008 1.6045 -1.9964
| 13> N 0.2324 0.8777 1.1945
| 14> C 0.9175 -0.2316 1.8804
| 15> C 1.9105 -0.9456 0.9900
| 16> C 1.5671 -1.3263 -0.3174
| 17> C 2.4912 -1.9933 -1.1233
| 18> C 3.7574 -2.3104 -0.6276
| 19> C 4.1119 -1.9661 0.6873
| 20> C 5.4463 -2.3231 1.2184
| 21> O 5.7549 -2.0434 2.4085
| 22> O 6.3731 -2.9756 0.4090
| 23> C 3.1788 -1.2843 1.4906
| 24> C -1.1646 1.0781 1.4889
| 25> O -1.5158 2.0528 2.2074
| 26> C -2.1845 0.1316 0.9918
| 27> C -3.5550 0.3276 1.2784
| 28> C -4.4519 -0.6117 0.7805
| 29> C -5.8219 -0.7013 0.8959
| 30> C -6.1671 -1.8590 0.2004
| 31> N -5.0687 -2.4558 -0.3210
| 32> C -4.0336 -1.6816 0.0417
| 33> C -2.6865 -1.8677 -0.2418
| 34> N -1.7973 -0.9513 0.2425
| 35> H 0.0160 3.7457 1.2052
| 36> H 1.3188 3.1151 2.2801
| 37> H 1.7344 3.9547 0.7446
| 38> H 2.0912 1.6123 0.4857
| 39> H -1.3655 2.9342 -0.5115
| 40> H -2.0654 3.1114 -2.8570
| 41> H 1.6413 1.3585 -4.1204
| 42> H 2.3691 1.1717 -1.7802
| 43> H 1.4264 0.1791 2.7795
| 44> H 0.1829 -0.9838 2.2415
| 45> H 0.5968 -1.0876 -0.7254
| 46> H 2.2255 -2.2652 -2.1367
| 47> H 4.4544 -2.8308 -1.2720
| 48> H 7.2860 -3.2320 0.7670
| 49> H 3.4377 -1.0157 2.5085
| 50> H -3.9054 1.1685 1.8653
| 51> H -6.4861 -0.0223 1.4135
| 52> H -7.1718 -2.2420 0.0846
| 53> H -5.0367 -3.3356 -0.8834
| 54> H -2.3448 -2.7134 -0.8241
| 55> *
| 56>
| 57>                          ****END OF INPUT****

CARTESIAN COORDINATES (ANGSTROEM)
---------------------------------
  C      1.011600    3.262100    1.224900
  C      1.020500    1.914400    0.487900
  C      0.567000    2.050300   -0.955100
  C     -0.692400    2.590700   -1.282500
  C     -1.094800    2.696700   -2.617100
  C     -0.253700    2.257300   -3.639700
  F     -0.648600    2.355800   -4.933300
  C      0.990900    1.705700   -3.328800
  C      1.400800    1.604500   -1.996400
  N      0.232400    0.877700    1.194500
  C      0.917500   -0.231600    1.880400
  C      1.910500   -0.945600    0.990000
  C      1.567100   -1.326300   -0.317400
  C      2.491200   -1.993300   -1.123300
  C      3.757400   -2.310400   -0.627600
  C      4.111900   -1.966100    0.687300
  C      5.446300   -2.323100    1.218400
  O      5.754900   -2.043400    2.408500
  O      6.373100   -2.975600    0.409000
  C      3.178800   -1.284300    1.490600
  C     -1.164600    1.078100    1.488900
  O     -1.515800    2.052800    2.207400
  C     -2.184500    0.131600    0.991800
  C     -3.555000    0.327600    1.278400
  C     -4.451900   -0.611700    0.780500
  C     -5.821900   -0.701300    0.895900
  C     -6.167100   -1.859000    0.200400
  N     -5.068700   -2.455800   -0.321000
  C     -4.033600   -1.681600    0.041700
  C     -2.686500   -1.867700   -0.241800
  N     -1.797300   -0.951300    0.242500
  H      0.016000    3.745700    1.205200
  H      1.318800    3.115100    2.280100
  H      1.734400    3.954700    0.744600
  H      2.091200    1.612300    0.485700
  H     -1.365500    2.934200   -0.511500
  H     -2.065400    3.111400   -2.857000
  H      1.641300    1.358500   -4.120400
  H      2.369100    1.171700   -1.780200
  H      1.426400    0.179100    2.779500
  H      0.182900   -0.983800    2.241500
  H      0.596800   -1.087600   -0.725400
  H      2.225500   -2.265200   -2.136700
  H      4.454400   -2.830800   -1.272000
  H      7.286000   -3.232000    0.767000
  H      3.437700   -1.015700    2.508500
  H     -3.905400    1.168500    1.865300
  H     -6.486100   -0.022300    1.413500
  H     -7.171800   -2.242000    0.084600
  H     -5.036700   -3.335600   -0.883400
  H     -2.344800   -2.713400   -0.824100

 Total Charge           Charge          ....    0
 Multiplicity           Mult            ....    1
 Number of Electrons    NEL             ....  218
 Basis Dimension        Dim             ....  474

ORBITAL ENERGIES
----------------

  NO   OCC          E(Eh)            E(eV)
   0   2.0000     -24.689810      -671.8439
   1   2.0000     -19.176970      -521.8319
   2   2.0000     -19.119353      -520.2640
   3   2.0000     -19.115987      -520.1725
   4   2.0000     -14.404754      -391.9733
   5   2.0000     -14.330123      -389.9425
   6   2.0000     -14.321500      -389.7078
   7   2.0000     -10.313238      -280.6375
   8   2.0000     -10.286407      -279.9074
   9   2.0000     -10.258452      -279.1467
  10   2.0000     -10.234622      -278.4982
  11   2.0000     -10.227938      -278.3164
  12   2.0000     -10.226240      -278.2701
  13   2.0000     -10.222895      -278.1791
  14   2.0000     -10.215070      -277.9662
  15   2.0000     -10.214313      -277.9456
  16   2.0000     -10.200205      -277.5617
  17   2.0000     -10.194834      -277.4155
  18   2.0000     -10.190035      -277.2850
  19   2.0000     -10.189821      -277.2791
  20   2.0000     -10.186974      -277.2016
  21   2.0000     -10.186932      -277.2005
  22   2.0000     -10.182565      -277.0817
  23   2.0000     -10.182118      -277.0695
  24   2.0000     -10.181847      -277.0621
  25   2.0000     -10.181182      -277.0440
  26   2.0000     -10.181097      -277.0417
  27   2.0000     -10.180678      -277.0303
  28   2.0000     -10.180462      -277.0245
  29   2.0000     -10.179176      -276.9895
  30   2.0000     -10.154055      -276.3059
  31   2.0000      -1.203095       -32.7379
  32   2.0000      -1.061033       -28.8722
  33   2.0000      -1.022438       -27.8220
  34   2.0000      -1.013926       -27.5903
  35   2.0000      -0.974491       -26.5173
  36   2.0000      -0.925926       -25.1957
  37   2.0000      -0.905051       -24.6277
  38   2.0000      -0.854969       -23.2649
  39   2.0000      -0.847552       -23.0631
  40   2.0000      -0.826160       -22.4810
  41   2.0000      -0.780199       -21.2303
  42   2.0000      -0.776049       -21.1174
  43   2.0000      -0.759354       -20.6631
  44   2.0000      -0.753059       -20.4918
  45   2.0000      -0.749630       -20.3985
  46   2.0000      -0.744332       -20.2543
  47   2.0000      -0.710221       -19.3261
  48   2.0000      -0.680891       -18.5280
  49   2.0000      -0.660687       -17.9782
  50   2.0000      -0.651462       -17.7272
  51   2.0000      -0.634914       -17.2769
  52   2.0000      -0.625136       -17.0108
  53   2.0000      -0.617819       -16.8117
  54   2.0000      -0.610335       -16.6081
  55   2.0000      -0.589925       -16.0527
  56   2.0000      -0.584729       -15.9113
  57   2.0000      -0.582283       -15.8447
  58   2.0000      -0.566529       -15.4160
  59   2.0000      -0.544709       -14.8223
  60   2.0000      -0.530052       -14.4235
  61   2.0000      -0.516672       -14.0594
  62   2.0000      -0.504384       -13.7250
  63   2.0000      -0.489259       -13.3134
  64   2.0000      -0.481636       -13.1060
  65   2.0000      -0.479308       -13.0426
  66   2.0000      -0.471846       -12.8396
  67   2.0000      -0.468500       -12.7485
  68   2.0000      -0.460533       -12.5317
  69   2.0000      -0.457070       -12.4375
  70   2.0000      -0.451651       -12.2901
  71   2.0000      -0.448476       -12.2036
  72   2.0000      -0.445362       -12.1189
  73   2.0000      -0.442181       -12.0324
  74   2.0000      -0.440708       -11.9923
  75   2.0000      -0.435420       -11.8484
  76   2.0000      -0.432093       -11.7579
  77   2.0000      -0.421722       -11.4756
  78   2.0000      -0.418771       -11.3953
  79   2.0000      -0.417801       -11.3690
  80   2.0000      -0.413266       -11.2455
  81   2.0000      -0.398705       -10.8493
  82   2.0000      -0.393419       -10.7055
  83   2.0000      -0.392756       -10.6874
  84   2.0000      -0.387347       -10.5403
  85   2.0000      -0.381063       -10.3692
  86   2.0000      -0.379474       -10.3260
  87   2.0000      -0.373298       -10.1580
  88   2.0000      -0.367015        -9.9870
  89   2.0000      -0.357554        -9.7295
  90   2.0000      -0.352515        -9.5924
  91   2.0000      -0.345922        -9.4130
  92   2.0000      -0.341858        -9.3024
  93   2.0000      -0.338345        -9.2068
  94   2.0000      -0.336140        -9.1468
  95   2.0000      -0.329856        -8.9758
  96   2.0000      -0.327170        -8.9028
  97   2.0000      -0.306487        -8.3399
  98   2.0000      -0.297464        -8.0944
  99   2.0000      -0.260601        -7.0913
 100   2.0000      -0.253889        -6.9087
 101   2.0000      -0.252602        -6.8737
 102   2.0000      -0.251052        -6.8315
 103   2.0000      -0.247631        -6.7384
 104   2.0000      -0.244791        -6.6611
 105   2.0000      -0.243635        -6.6297
 106   2.0000      -0.228489        -6.2175
 107   2.0000      -0.224765        -6.1162
 108   2.0000      -0.200047        -5.4436
 109   0.0000      -0.055181        -1.5016
 110   0.0000      -0.044390        -1.2079
 111   0.0000      -0.033348        -0.9075
 112   0.0000      -0.002925        -0.0796
 113   0.0000       0.001465         0.0399

MULLIKEN ATOMIC CHARGES
-----------------------
   0 C :   -0.426301
   1 C :   -0.074377
   2 C :    0.181714
   3 C :   -0.174500
   4 C :   -0.211691
   5 C :    0.407523
   6 F :   -0.323097
   7 C :   -0.211665
   8 C :   -0.176842
   9 N :   -0.425750
  10 C :   -0.196105
  11 C :    0.113632
  12 C :   -0.146295
  13 C :   -0.138273
  14 C :   -0.161280
  15 C :    0.083685
  16 C :    0.518024
  17 O :   -0.457561
  18 O :   -0.627679
  19 C :   -0.215737
  20 C :    0.467896
  21 O :   -0.450288
  22 C :    0.200370
  23 C :   -0.225621
  24 C :    0.180973
  25 C :   -0.222193
  26 C :    0.022966
  27 N :   -0.625137
  28 C :    0.287856
  29 C :   -0.028617
  30 N :   -0.431617
  31 H :    0.166076
  32 H :    0.146246
  33 H :    0.130959
  34 H :    0.148591
  35 H :    0.153723
  36 H :    0.139661
  37 H :    0.137603
  38 H :    0.142384
  39 H :    0.148415
  40 H :    0.172370
  41 H :    0.181011
  42 H :    0.131700
  43 H :    0.151063
  44 H :    0.426049
  45 H :    0.158716
  46 H :    0.162366
  47 H :    0.143509
  48 H :    0.157407
  49 H :    0.347731
  50 H :    0.140412
Sum of atomic charges:    0.0000000

LOEWDIN ATOMIC CHARGES
----------------------
   0 C :   -0.357434
   1 C :   -0.046619
   2 C :   -0.021500
   3 C :   -0.124415
   4 C :   -0.157325
   5 C :    0.110732
   6 F :   -0.109036
   7 C :   -0.161590
   8 C :   -0.124682
   9 N :   -0.133589
  10 C :   -0.134498
  11 C :   -0.034330
  12 C :   -0.101733
  13 C :   -0.136654
  14 C :   -0.109355
  15 C :   -0.061530
  16 C :    0.177795
  17 O :   -0.275415
  18 O :   -0.340158
  19 C :   -0.099931
  20 C :    0.147220
  21 O :   -0.247503
  22 C :   -0.031247
  23 C :   -0.098208
  24 C :   -0.032030
  25 C :   -0.182398
  26 C :   -0.086297
  27 N :   -0.103529
  28 C :   -0.007209
  29 C :   -0.085995
  30 N :   -0.138720
  31 H :    0.133062
  32 H :    0.127954
  33 H :    0.119215
  34 H :    0.134976
  35 H :    0.142254
  36 H :    0.140776
  37 H :    0.139914
  38 H :    0.138085
  39 H :    0.118469
  40 H :    0.145005
  41 H :    0.155360
  42 H :    0.132762
  43 H :    0.143358
  44 H :    0.344212
  45 H :    0.148929
  46 H :    0.153609
  47 H :    0.142859
  48 H :    0.139140
  49 H :    0.275219
  50 H :    0.132024

  Mayer bond orders larger than 0.100000
B(  0-C ,  1-C ) :   0.9984 B(  0-C , 31-H ) :   0.9347 B(  0-C , 32-H ) :   0.9447
B(  0-C , 33-H ) :   0.9398 B(  1-C ,  2-C ) :   0.9534 B(  1-C ,  9-N ) :   0.9473
B(  1-C , 34-H ) :   0.9192 B(  2-C ,  3-C ) :   1.4214 B(  2-C ,  8-C ) :   1.4342
B(  3-C ,  4-C ) :   1.4220 B(  3-C , 35-H ) :   0.9119 B(  4-C ,  5-C ) :   1.3925
B(  4-C , 36-H ) :   0.9218 B(  5-C ,  6-F ) :   0.9124 B(  5-C ,  7-C ) :   1.3990
B(  7-C ,  8-C ) :   1.4142 B(  7-C , 37-H ) :   0.9219 B(  8-C , 38-H ) :   0.9179
B(  9-N , 10-C ) :   0.9562 B(  9-N , 20-C ) :   0.9848 B( 10-C , 11-C ) :   0.9656
B( 10-C , 39-H ) :   0.9197 B( 10-C , 40-H ) :   0.9143 B( 11-C , 12-C ) :   1.4193
B( 11-C , 19-C ) :   1.4036 B( 12-C , 13-C ) :   1.4215 B( 12-C , 41-H ) :   0.8908
B( 13-C , 14-C ) :   1.4208 B( 13-C , 42-H ) :   0.9312 B( 14-C , 15-C ) :   1.3921
B( 14-C , 43-H ) :   0.9193 B( 15-C , 16-C ) :   1.0132 B( 15-C , 19-C ) :   1.3784
B( 16-C , 17-O ) :   1.8540 B( 16-C , 18-O ) :   1.0146 B( 18-O , 44-H ) :   0.7467
B( 19-C , 45-H ) :   0.9070 B( 20-C , 21-O ) :   1.8321 B( 20-C , 22-C ) :   0.9935
B( 22-C , 23-C ) :   1.3817 B( 22-C , 30-N ) :   1.2772 B( 23-C , 24-C ) :   1.2917
B( 23-C , 46-H ) :   0.9117 B( 24-C , 25-C ) :   1.3040 B( 24-C , 28-C ) :   1.3097
B( 25-C , 26-C ) :   1.5624 B( 25-C , 47-H ) :   0.9291 B( 26-C , 27-N ) :   1.1283
B( 26-C , 48-H ) :   0.9296 B( 27-N , 28-C ) :   1.0134 B( 27-N , 49-H ) :   0.8299
B( 28-C , 29-C ) :   1.2859 B( 29-C , 30-N ) :   1.4654 B( 29-C , 50-H ) :   0.9279

FINAL SINGLE POINT ENERGY     -1415.494872147186

DIPOLE MOMENT
-------------

Method             : SCF
Type of density    : Electron Density
Multiplicity       :   1
Irrep              :   0
Energy             : -1415.4948721471864701 Eh
Relativity type    :
Basis              : AO
                                X                 Y                 Z
Electronic contribution:     -2.142269733      -3.437793857      -8.047861409
Nuclear contribution   :      0.239406968       1.475367719       6.957886994
                        -----------------------------------------
Total Dipole Moment    :     -1.902862766      -1.962426138      -1.089974415
                        -----------------------------------------
Magnitude (a.u.)       :      2.942795827
Magnitude (Debye)      :      7.479992548

Rotational constants in cm-1:             0.005944             0.003004             0.002549
Rotational constants in MHz :           178.201483            90.043666            76.425411

                             ****ORCA TERMINATED NORMALLY****
TOTAL RUN TIME: 0 days 0 hours 5 minutes 4 seconds 174 msec
