                         Program Version 6.0.0  -   RELEASE  -
|  1> ! B3LYP 6-31G* SP
|  2>
|  3> * xyz 0 1
|  4> C 7.7555 -0.8173 0.6674
|  5> O 6.5326 -0.9298 1.3855
|  6> C 5.2859 -0.6996 0.7966
|  7> C 4.1288 -0.8283 1.5665
|  8> C 2.8829 -0.5997 0.9802
|  9> C 2.7937 -0.2475 -0.3777
| 10> C 1.4837 0.0114 -1.0242
| 11> O 1.4457 0.6659 -2.1025
| 12> N 0.2617 -0.4858 -0.4475
| 13> C -1.0529 -0.1752 -1.0319
| 14> C -2.2465 -0.8554 -0.3579
| 15> C -2.1877 -1.4968 0.8991
| 16> C -3.3222 -2.1043 1.4454
| 17> C -4.5378 -2.1119 0.7451
| 18> C -5.7712 -2.7240 1.3602
| 19> F -6.4245 -1.7687 2.1160
| 20> F -6.6297 -3.1866 0.3778
| 21> F -5.4329 -3.7903 2.1755
| 22> C -4.6093 -1.4604 -0.4948
| 23> C -3.4773 -0.8524 -1.0422
| 24> C -1.2890 1.3239 -1.1976
| 25> N -1.7755 1.7117 -2.4121
| 26> C -2.0365 3.0026 -2.7311
| 27> C -1.7984 4.0057 -1.8033
| 28> C -1.3052 3.6674 -0.5472
| 29> C -1.0651 2.3227 -0.1968
| 30> C -0.4833 2.0468 1.1777
| 31> F -0.9849 0.8860 1.7154
| 32> F -0.7934 3.0663 2.0623
| 33> F 0.8919 1.9578 1.0897
| 34> C 3.9863 -0.1200 -1.1106
| 35> N 5.1869 -0.3493 -0.5155
| 36> H 8.6005 -1.0471 1.3482
| 37> H 7.8759 0.2170 0.2810
| 38> H 7.7681 -1.5380 -0.1776
| 39> H 4.1951 -1.0976 2.6129
| 40> H 1.9981 -0.6783 1.5979
| 41> H 0.3618 -1.3350 0.1470
| 42> H -1.0221 -0.6093 -2.0577
| 43> H -1.2841 -1.5276 1.4874
| 44> H -3.2483 -2.5674 2.4215
| 45> H -5.5421 -1.4204 -1.0432
| 46> H -3.5637 -0.3732 -2.0095
| 47> H -2.4205 3.2481 -3.7122
| 48> H -1.9888 5.0407 -2.0566
| 49> H -1.1079 4.4702 0.1519
| 50> H 3.9653 0.1530 -2.1577
| 51> *
| 52>
| 53>                          ****END OF INPUT****

CARTESIAN COORDINATES (ANGSTROEM)
---------------------------------
  C      7.755500   -0.817300    0.667400
  O      6.532600   -0.929800    1.385500
  C      5.285900   -0.699600    0.796600
  C      4.128800   -0.828300    1.566500
  C      2.882900   -0.599700    0.980200
  C      2.793700   -0.247500   -0.377700
  C      1.483700    0.011400   -1.024200
  O      1.445700    0.665900   -2.102500
  N      0.261700   -0.485800   -0.447500
  C     -1.052900   -0.175200   -1.031900
  C     -2.246500   -0.855400   -0.357900
  C     -2.187700   -1.496800    0.899100
  C     -3.322200   -2.104300    1.445400
  C     -4.537800   -2.111900    0.745100
  C     -5.771200   -2.724000    1.360200
  F     -6.424500   -1.768700    2.116000
  F     -6.629700   -3.186600    0.377800
  F     -5.432900   -3.790300    2.175500
  C     -4.609300   -1.460400   -0.494800
  C     -3.477300   -0.852400   -1.042200
  C     -1.289000    1.323900   -1.197600
  N     -1.775500    1.711700   -2.412100
  C     -2.036500    3.002600   -2.731100
  C     -1.798400    4.005700   -1.803300
  C     -1.305200    3.667400   -0.547200
  C     -1.065100    2.322700   -0.196800
  C     -0.483300    2.046800    1.177700
  F     -0.984900    0.886000    1.715400
  F     -0.793400    3.066300    2.062300
  F      0.891900    1.957800    1.089700
  C      3.986300   -0.120000   -1.110600
  N      5.186900   -0.349300   -0.515500
  H      8.600500   -1.047100    1.348200
  H      7.875900    0.217000    0.281000
  H      7.768100   -1.538000   -0.177600
  H      4.195100   -1.097600    2.612900
  H      1.998100   -0.678300    1.597900
  H      0.361800   -1.335000    0.147000
  H     -1.022100   -0.609300   -2.057700
  H     -1.284100   -1.527600    1.487400
  H     -3.248300   -2.567400    2.421500
  H     -5.542100   -1.420400   -1.043200
  H     -3.563700   -0.373200   -2.009500
  H     -2.420500    3.248100   -3.712200
  H     -1.988800    5.040700   -2.056600
  H     -1.107900    4.470200    0.151900
  H      3.965300    0.153000   -2.157700

 Total Charge           Charge          ....    0
 Multiplicity           Mult            ....    1
 Number of Electrons    NEL             ....  232
 Basis Dimension        Dim             ....  478

ORBITAL ENERGIES
----------------

  NO   OCC          E(Eh)            E(eV)
   0   2.0000     -24.729388      -672.9209
   1   2.0000     -24.725261      -672.8085
   2   2.0000     -24.723741      -672.7672
   3   2.0000     -24.718117      -672.6142
   4   2.0000     -24.717976      -672.6103
   5   2.0000     -24.714041      -672.5033
   6   2.0000     -19.179556      -521.9022
   7   2.0000     -19.115154      -520.1498
   8   2.0000     -14.363167      -390.8416
   9   2.0000     -14.340056      -390.2128
  10   2.0000     -14.334017      -390.0484
  11   2.0000     -10.443687      -284.1872
  12   2.0000     -10.433150      -283.9005
  13   2.0000     -10.295630      -280.1583
  14   2.0000     -10.290469      -280.0179
  15   2.0000     -10.255637      -279.0701
  16   2.0000     -10.248009      -278.8625
  17   2.0000     -10.234075      -278.4833
  18   2.0000     -10.233321      -278.4628
  19   2.0000     -10.231698      -278.4187
  20   2.0000     -10.227181      -278.2957
  21   2.0000     -10.219299      -278.0813
  22   2.0000     -10.218467      -278.0586
  23   2.0000     -10.213388      -277.9204
  24   2.0000     -10.212845      -277.9056
  25   2.0000     -10.204725      -277.6847
  26   2.0000     -10.204354      -277.6746
  27   2.0000     -10.203100      -277.6405
  28   2.0000     -10.202949      -277.6363
  29   2.0000     -10.202722      -277.6302
  30   2.0000     -10.199408      -277.5400
  31   2.0000     -10.197987      -277.5013
  32   2.0000      -1.290295       -35.1107
  33   2.0000      -1.277772       -34.7699
  34   2.0000      -1.215316       -33.0704
  35   2.0000      -1.210444       -32.9379
  36   2.0000      -1.203433       -32.7471
  37   2.0000      -1.201914       -32.7057
  38   2.0000      -1.059738       -28.8369
  39   2.0000      -1.016140       -27.6506
  40   2.0000      -0.947598       -25.7855
  41   2.0000      -0.931442       -25.3458
  42   2.0000      -0.914215       -24.8770
  43   2.0000      -0.872074       -23.7303
  44   2.0000      -0.824038       -22.4232
  45   2.0000      -0.816664       -22.2226
  46   2.0000      -0.802295       -21.8316
  47   2.0000      -0.785576       -21.3766
  48   2.0000      -0.778498       -21.1840
  49   2.0000      -0.761802       -20.7297
  50   2.0000      -0.731713       -19.9109
  51   2.0000      -0.707560       -19.2537
  52   2.0000      -0.703909       -19.1543
  53   2.0000      -0.679649       -18.4942
  54   2.0000      -0.650745       -17.7077
  55   2.0000      -0.641634       -17.4597
  56   2.0000      -0.631718       -17.1899
  57   2.0000      -0.626855       -17.0576
  58   2.0000      -0.623668       -16.9709
  59   2.0000      -0.603742       -16.4287
  60   2.0000      -0.580524       -15.7969
  61   2.0000      -0.579771       -15.7764
  62   2.0000      -0.574288       -15.6272
  63   2.0000      -0.568656       -15.4739
  64   2.0000      -0.564667       -15.3654
  65   2.0000      -0.563492       -15.3334
  66   2.0000      -0.557278       -15.1643
  67   2.0000      -0.544117       -14.8062
  68   2.0000      -0.528194       -14.3729
  69   2.0000      -0.515136       -14.0176
  70   2.0000      -0.510586       -13.8938
  71   2.0000      -0.505206       -13.7474
  72   2.0000      -0.483629       -13.1602
  73   2.0000      -0.473150       -12.8751
  74   2.0000      -0.467577       -12.7234
  75   2.0000      -0.464641       -12.6435
  76   2.0000      -0.461090       -12.5469
  77   2.0000      -0.458841       -12.4857
  78   2.0000      -0.456324       -12.4172
  79   2.0000      -0.455923       -12.4063
  80   2.0000      -0.446575       -12.1519
  81   2.0000      -0.445629       -12.1262
  82   2.0000      -0.439658       -11.9637
  83   2.0000      -0.437461       -11.9039
  84   2.0000      -0.436977       -11.8908
  85   2.0000      -0.432898       -11.7797
  86   2.0000      -0.428918       -11.6714
  87   2.0000      -0.425927       -11.5901
  88   2.0000      -0.420935       -11.4542
  89   2.0000      -0.418608       -11.3909
  90   2.0000      -0.410262       -11.1638
  91   2.0000      -0.409279       -11.1370
  92   2.0000      -0.408490       -11.1156
  93   2.0000      -0.406751       -11.0683
  94   2.0000      -0.404008       -10.9936
  95   2.0000      -0.401401       -10.9227
  96   2.0000      -0.396417       -10.7870
  97   2.0000      -0.390942       -10.6381
  98   2.0000      -0.384552       -10.4642
  99   2.0000      -0.378440       -10.2979
 100   2.0000      -0.373289       -10.1577
 101   2.0000      -0.365353        -9.9418
 102   2.0000      -0.358967        -9.7680
 103   2.0000      -0.355646        -9.6776
 104   2.0000      -0.335745        -9.1361
 105   2.0000      -0.321316        -8.7435
 106   2.0000      -0.295394        -8.0381
 107   2.0000      -0.288749        -7.8572
 108   2.0000      -0.279657        -7.6099
 109   2.0000      -0.269224        -7.3260
 110   2.0000      -0.265946        -7.2367
 111   2.0000      -0.262941        -7.1550
 112   2.0000      -0.259203        -7.0533
 113   2.0000      -0.251413        -6.8413
 114   2.0000      -0.245491        -6.6801
 115   2.0000      -0.238062        -6.4780
 116   0.0000      -0.046029        -1.2525
 117   0.0000      -0.043637        -1.1874
 118   0.0000      -0.041500        -1.1293
 119   0.0000      -0.029931        -0.8145
 120   0.0000      -0.022683        -0.6172

MULLIKEN ATOMIC CHARGES
-----------------------
   0 C :   -0.192314
   1 O :   -0.488653
   2 C :    0.506711
   3 C :   -0.185185
   4 C :   -0.136214
   5 C :    0.041602
   6 C :    0.507296
   7 O :   -0.479028
   8 N :   -0.668794
   9 C :   -0.043383
  10 C :    0.118653
  11 C :   -0.177212
  12 C :   -0.162582
  13 C :   -0.012732
  14 C :    0.895103
  15 F :   -0.296415
  16 F :   -0.305589
  17 F :   -0.306109
  18 C :   -0.159302
  19 C :   -0.170806
  20 C :    0.276052
  21 N :   -0.416260
  22 C :    0.034167
  23 C :   -0.134287
  24 C :   -0.123211
  25 C :   -0.074039
  26 C :    0.921922
  27 F :   -0.298992
  28 F :   -0.306060
  29 F :   -0.290597
  30 C :    0.004505
  31 N :   -0.435065
  32 H :    0.162061
  33 H :    0.161302
  34 H :    0.160011
  35 H :    0.147323
  36 H :    0.148342
  37 H :    0.327004
  38 H :    0.195494
  39 H :    0.129732
  40 H :    0.153061
  41 H :    0.155195
  42 H :    0.163679
  43 H :    0.159318
  44 H :    0.144854
  45 H :    0.165784
  46 H :    0.183657
Sum of atomic charges:   -0.0000000

LOEWDIN ATOMIC CHARGES
----------------------
   0 C :   -0.197920
   1 O :   -0.177840
   2 C :    0.130062
   3 C :   -0.157956
   4 C :   -0.093688
   5 C :   -0.085901
   6 C :    0.141187
   7 O :   -0.281697
   8 N :   -0.252087
   9 C :   -0.047711
  10 C :   -0.005744
  11 C :   -0.136559
  12 C :   -0.112185
  13 C :   -0.070649
  14 C :    0.309999
  15 F :   -0.113857
  16 F :   -0.113708
  17 F :   -0.114282
  18 C :   -0.110429
  19 C :   -0.121866
  20 C :    0.064411
  21 N :   -0.126878
  22 C :   -0.051397
  23 C :   -0.142435
  24 C :   -0.085183
  25 C :   -0.078745
  26 C :    0.306265
  27 F :   -0.097652
  28 F :   -0.112565
  29 F :   -0.105192
  30 C :   -0.026061
  31 N :   -0.162444
  32 H :    0.131436
  33 H :    0.126328
  34 H :    0.125679
  35 H :    0.145392
  36 H :    0.140693
  37 H :    0.249587
  38 H :    0.157234
  39 H :    0.131497
  40 H :    0.143932
  41 H :    0.145129
  42 H :    0.148639
  43 H :    0.140224
  44 H :    0.141183
  45 H :    0.149466
  46 H :    0.154289

  Mayer bond orders larger than 0.100000
B(  0-C ,  1-O ) :   0.8924 B(  0-C , 32-H ) :   0.9441 B(  0-C , 33-H ) :   0.9354
B(  0-C , 34-H ) :   0.9356 B(  1-O ,  2-C ) :   0.9790 B(  2-C ,  3-C ) :   1.3683
B(  2-C , 31-N ) :   1.3463 B(  3-C ,  4-C ) :   1.4611 B(  3-C , 35-H ) :   0.9171
B(  4-C ,  5-C ) :   1.3660 B(  4-C , 36-H ) :   0.9156 B(  5-C ,  6-C ) :   0.9985
B(  5-C , 30-C ) :   1.3654 B(  6-C ,  7-O ) :   1.8015 B(  6-C ,  8-N ) :   1.0186
B(  8-N ,  9-C ) :   0.8881 B(  8-N , 37-H ) :   0.8118 B(  9-C , 10-C ) :   0.9705
B(  9-C , 20-C ) :   0.9338 B(  9-C , 38-H ) :   0.9017 B( 10-C , 11-C ) :   1.4206
B( 10-C , 19-C ) :   1.4195 B( 11-C , 12-C ) :   1.4261 B( 11-C , 39-H ) :   0.9148
B( 12-C , 13-C ) :   1.4183 B( 12-C , 40-H ) :   0.9191 B( 13-C , 14-C ) :   0.9790
B( 13-C , 18-C ) :   1.4074 B( 14-C , 15-F ) :   0.9867 B( 14-C , 16-F ) :   0.9479
B( 14-C , 17-F ) :   0.9474 B( 18-C , 19-C ) :   1.4283 B( 18-C , 41-H ) :   0.9197
B( 19-C , 42-H ) :   0.9094 B( 20-C , 21-N ) :   1.3579 B( 20-C , 25-C ) :   1.3597
B( 21-N , 22-C ) :   1.4171 B( 22-C , 23-C ) :   1.4232 B( 22-C , 43-H ) :   0.9271
B( 23-C , 24-C ) :   1.4387 B( 23-C , 44-H ) :   0.9236 B( 24-C , 25-C ) :   1.4040
B( 24-C , 45-H ) :   0.9167 B( 25-C , 26-C ) :   0.9711 B( 26-C , 27-F ) :   0.9279
B( 26-C , 28-F ) :   0.9394 B( 26-C , 29-F ) :   0.9695 B( 30-C , 31-N ) :   1.4010
B( 30-C , 46-H ) :   0.9129

FINAL SINGLE POINT ENERGY     -1722.113474755368

DIPOLE MOMENT
-------------

Method             : SCF
Type of density    : Electron Density
Multiplicity       :   1
Irrep              :   0
Energy             : -1722.1134747553680882 Eh
Relativity type    :
Basis              : AO
                                X                 Y                 Z
Electronic contribution:    -36.120374196      -3.663454827      13.817919102
Nuclear contribution   :     36.599596805       4.058104530     -13.563472740
                        -----------------------------------------
Total Dipole Moment    :      0.479222609       0.394649702       0.254446362
                        -----------------------------------------
Magnitude (a.u.)       :      0.670928944
Magnitude (Debye)      :      1.705365847

Rotational constants in cm-1:             0.006592             0.002249             0.001935
Rotational constants in MHz :           197.617733            67.431905            58.020821

                             ****ORCA TERMINATED NORMALLY****
TOTAL RUN TIME: 0 days 0 hours 7 minutes 21 seconds 953 msec
