                         Program Version 6.0.0  -   RELEASE  -
|  1> ! B3LYP 6-31G* SP
|  2>
|  3> * xyz 0 1
|  4> C -2.7302 2.5879 -1.6026
|  5> C -2.5019 1.3350 -0.8058
|  6> C -2.3562 1.3220 0.5422
|  7> C -2.5149 2.6061 1.3282
|  8> C -2.1043 0.0117 1.3084
|  9> C -3.0507 -1.0793 0.8091
| 10> C -4.5222 -0.9569 1.1063
| 11> C -2.6328 -2.0928 0.0186
| 12> C -1.1753 -2.3842 -0.2607
| 13> C -0.9776 -2.9018 -1.6958
| 14> C 0.5020 -3.2692 -1.9410
| 15> C 0.7037 -3.7489 -3.3825
| 16> C 1.4343 -2.0770 -1.6329
| 17> C 1.2113 -1.5373 -0.2018
| 18> C 2.1151 -0.3578 0.0686
| 19> O 3.3516 -0.4778 -0.1524
| 20> C 1.5864 0.8681 0.7230
| 21> C 2.1992 2.0675 0.6415
| 22> N 3.3087 2.3280 -0.2316
| 23> C 4.1084 3.5413 -0.0823
| 24> C 5.0076 3.4456 1.1470
| 25> O 5.8913 2.3687 1.0063
| 26> C 0.3444 0.7339 1.5258
| 27> O 0.1038 1.5662 2.4436
| 28> C -0.5960 -0.4482 1.3285
| 29> C -0.3718 -1.3995 2.5347
| 30> C -0.2766 -1.1503 -0.0270
| 31> H -1.8798 3.2877 -1.4645
| 32> H -2.8052 2.3359 -2.6815
| 33> H -3.6759 3.0769 -1.2899
| 34> H -2.4752 0.4078 -1.3663
| 35> H -2.4096 2.4397 2.4198
| 36> H -1.7403 3.3385 1.0185
| 37> H -3.5228 3.0366 1.1517
| 38> H -2.3929 0.1956 2.3671
| 39> H -5.0901 -0.8610 0.1567
| 40> H -4.8710 -1.8573 1.6540
| 41> H -4.7314 -0.0623 1.7307
| 42> H -3.3627 -2.8199 -0.3282
| 43> H -0.8715 -3.2010 0.4303
| 44> H -1.3043 -2.1258 -2.4243
| 45> H -1.6065 -3.8062 -1.8513
| 46> H 0.7734 -4.1106 -1.2643
| 47> H 1.7638 -4.0400 -3.5442
| 48> H 0.4380 -2.9462 -4.1039
| 49> H 0.0668 -4.6371 -3.5824
| 50> H 1.2571 -1.2618 -2.3703
| 51> H 2.4895 -2.4108 -1.7408
| 52> H 1.4786 -2.3435 0.5155
| 53> H 1.8116 2.8993 1.2186
| 54> H 3.4700 1.7398 -1.0789
| 55> H 3.4400 4.4240 0.0088
| 56> H 4.7407 3.6832 -0.9858
| 57> H 4.3840 3.3115 2.0592
| 58> H 5.5841 4.3916 1.2458
| 59> H 6.4211 2.3352 1.8447
| 60> H -0.5644 -0.8657 3.4904
| 61> H 0.6733 -1.7697 2.5729
| 62> H -1.0583 -2.2694 2.5092
| 63> H -0.4874 -0.4162 -0.8330
| 64> *
| 65>
| 66>                          ****END OF INPUT****

CARTESIAN COORDINATES (ANGSTROEM)
---------------------------------
  C     -2.730200    2.587900   -1.602600
  C     -2.501900    1.335000   -0.805800
  C     -2.356200    1.322000    0.542200
  C     -2.514900    2.606100    1.328200
  C     -2.104300    0.011700    1.308400
  C     -3.050700   -1.079300    0.809100
  C     -4.522200   -0.956900    1.106300
  C     -2.632800   -2.092800    0.018600
  C     -1.175300   -2.384200   -0.260700
  C     -0.977600   -2.901800   -1.695800
  C      0.502000   -3.269200   -1.941000
  C      0.703700   -3.748900   -3.382500
  C      1.434300   -2.077000   -1.632900
  C      1.211300   -1.537300   -0.201800
  C      2.115100   -0.357800    0.068600
  O      3.351600   -0.477800   -0.152400
  C      1.586400    0.868100    0.723000
  C      2.199200    2.067500    0.641500
  N      3.308700    2.328000   -0.231600
  C      4.108400    3.541300   -0.082300
  C      5.007600    3.445600    1.147000
  O      5.891300    2.368700    1.006300
  C      0.344400    0.733900    1.525800
  O      0.103800    1.566200    2.443600
  C     -0.596000   -0.448200    1.328500
  C     -0.371800   -1.399500    2.534700
  C     -0.276600   -1.150300   -0.027000
  H     -1.879800    3.287700   -1.464500
  H     -2.805200    2.335900   -2.681500
  H     -3.675900    3.076900   -1.289900
  H     -2.475200    0.407800   -1.366300
  H     -2.409600    2.439700    2.419800
  H     -1.740300    3.338500    1.018500
  H     -3.522800    3.036600    1.151700
  H     -2.392900    0.195600    2.367100
  H     -5.090100   -0.861000    0.156700
  H     -4.871000   -1.857300    1.654000
  H     -4.731400   -0.062300    1.730700
  H     -3.362700   -2.819900   -0.328200
  H     -0.871500   -3.201000    0.430300
  H     -1.304300   -2.125800   -2.424300
  H     -1.606500   -3.806200   -1.851300
  H      0.773400   -4.110600   -1.264300
  H      1.763800   -4.040000   -3.544200
  H      0.438000   -2.946200   -4.103900
  H      0.066800   -4.637100   -3.582400
  H      1.257100   -1.261800   -2.370300
  H      2.489500   -2.410800   -1.740800
  H      1.478600   -2.343500    0.515500
  H      1.811600    2.899300    1.218600
  H      3.470000    1.739800   -1.078900
  H      3.440000    4.424000    0.008800
  H      4.740700    3.683200   -0.985800
  H      4.384000    3.311500    2.059200
  H      5.584100    4.391600    1.245800
  H      6.421100    2.335200    1.844700
  H     -0.564400   -0.865700    3.490400
  H      0.673300   -1.769700    2.572900
  H     -1.058300   -2.269400    2.509200
  H     -0.487400   -0.416200   -0.833000

 Total Charge           Charge          ....    0
 Multiplicity           Mult            ....    1
 Number of Electrons    NEL             ....  202
 Basis Dimension        Dim             ....  444

ORBITAL ENERGIES
----------------

  NO   OCC          E(Eh)            E(eV)
   0   2.0000     -19.137580      -520.7600
   1   2.0000     -19.108383      -519.9655
   2   2.0000     -19.107776      -519.9490
   3   2.0000     -14.360983      -390.7822
   4   2.0000     -10.253786      -279.0197
   5   2.0000     -10.253555      -279.0134
   6   2.0000     -10.244315      -278.7620
   7   2.0000     -10.230683      -278.3910
   8   2.0000     -10.226799      -278.2853
   9   2.0000     -10.191351      -277.3208
  10   2.0000     -10.182675      -277.0847
  11   2.0000     -10.178937      -276.9830
  12   2.0000     -10.176407      -276.9141
  13   2.0000     -10.175851      -276.8990
  14   2.0000     -10.175007      -276.8760
  15   2.0000     -10.174788      -276.8701
  16   2.0000     -10.174266      -276.8559
  17   2.0000     -10.173207      -276.8270
  18   2.0000     -10.170292      -276.7477
  19   2.0000     -10.167198      -276.6635
  20   2.0000     -10.167034      -276.6591
  21   2.0000     -10.166537      -276.6455
  22   2.0000     -10.165637      -276.6210
  23   2.0000     -10.162212      -276.5279
  24   2.0000     -10.160073      -276.4697
  25   2.0000     -10.158241      -276.4198
  26   2.0000     -10.156337      -276.3680
  27   2.0000      -1.019603       -27.7448
  28   2.0000      -0.998603       -27.1734
  29   2.0000      -0.993050       -27.0223
  30   2.0000      -0.922266       -25.0961
  31   2.0000      -0.854470       -23.2513
  32   2.0000      -0.816594       -22.2207
  33   2.0000      -0.797693       -21.7063
  34   2.0000      -0.781853       -21.2753
  35   2.0000      -0.774681       -21.0802
  36   2.0000      -0.745755       -20.2930
  37   2.0000      -0.743557       -20.2332
  38   2.0000      -0.727790       -19.8042
  39   2.0000      -0.708485       -19.2789
  40   2.0000      -0.673435       -18.3251
  41   2.0000      -0.668410       -18.1884
  42   2.0000      -0.661875       -18.0105
  43   2.0000      -0.649115       -17.6633
  44   2.0000      -0.630938       -17.1687
  45   2.0000      -0.621016       -16.8987
  46   2.0000      -0.607564       -16.5327
  47   2.0000      -0.589118       -16.0307
  48   2.0000      -0.574642       -15.6368
  49   2.0000      -0.550056       -14.9678
  50   2.0000      -0.547193       -14.8899
  51   2.0000      -0.526500       -14.3268
  52   2.0000      -0.517704       -14.0874
  53   2.0000      -0.509050       -13.8519
  54   2.0000      -0.489621       -13.3233
  55   2.0000      -0.485278       -13.2051
  56   2.0000      -0.476284       -12.9603
  57   2.0000      -0.459388       -12.5006
  58   2.0000      -0.453104       -12.3296
  59   2.0000      -0.450445       -12.2572
  60   2.0000      -0.445894       -12.1334
  61   2.0000      -0.439695       -11.9647
  62   2.0000      -0.433078       -11.7847
  63   2.0000      -0.422850       -11.5063
  64   2.0000      -0.420012       -11.4291
  65   2.0000      -0.417079       -11.3493
  66   2.0000      -0.413489       -11.2516
  67   2.0000      -0.410105       -11.1595
  68   2.0000      -0.403907       -10.9909
  69   2.0000      -0.401519       -10.9259
  70   2.0000      -0.397566       -10.8183
  71   2.0000      -0.393489       -10.7074
  72   2.0000      -0.391394       -10.6504
  73   2.0000      -0.389720       -10.6048
  74   2.0000      -0.384106       -10.4521
  75   2.0000      -0.381405       -10.3785
  76   2.0000      -0.378382       -10.2963
  77   2.0000      -0.372265       -10.1298
  78   2.0000      -0.367455        -9.9990
  79   2.0000      -0.364599        -9.9212
  80   2.0000      -0.355305        -9.6683
  81   2.0000      -0.349355        -9.5064
  82   2.0000      -0.344647        -9.3783
  83   2.0000      -0.339788        -9.2461
  84   2.0000      -0.336378        -9.1533
  85   2.0000      -0.335846        -9.1388
  86   2.0000      -0.333222        -9.0674
  87   2.0000      -0.323676        -8.8077
  88   2.0000      -0.321949        -8.7607
  89   2.0000      -0.317380        -8.6364
  90   2.0000      -0.313353        -8.5268
  91   2.0000      -0.310119        -8.4388
  92   2.0000      -0.299032        -8.1371
  93   2.0000      -0.289080        -7.8663
  94   2.0000      -0.276746        -7.5306
  95   2.0000      -0.265256        -7.2180
  96   2.0000      -0.230704        -6.2778
  97   2.0000      -0.225066        -6.1244
  98   2.0000      -0.221751        -6.0342
  99   2.0000      -0.211284        -5.7493
 100   2.0000      -0.209843        -5.7101
 101   0.0000      -0.053343        -1.4515
 102   0.0000      -0.005463        -0.1487
 103   0.0000       0.017381         0.4729
 104   0.0000       0.037792         1.0284
 105   0.0000       0.066058         1.7975

MULLIKEN ATOMIC CHARGES
-----------------------
   0 C :   -0.474773
   1 C :   -0.163137
   2 C :    0.152036
   3 C :   -0.500637
   4 C :   -0.204148
   5 C :    0.159085
   6 C :   -0.509689
   7 C :   -0.170174
   8 C :   -0.112305
   9 C :   -0.261738
  10 C :   -0.075232
  11 C :   -0.435843
  12 C :   -0.257378
  13 C :   -0.186394
  14 C :    0.343252
  15 O :   -0.472621
  16 C :    0.001976
  17 C :    0.050445
  18 N :   -0.523727
  19 C :   -0.149499
  20 C :    0.003422
  21 O :   -0.607045
  22 C :    0.347170
  23 O :   -0.493301
  24 C :    0.012416
  25 C :   -0.471609
  26 C :   -0.134918
  27 H :    0.151923
  28 H :    0.140817
  29 H :    0.155091
  30 H :    0.130286
  31 H :    0.166331
  32 H :    0.152152
  33 H :    0.141111
  34 H :    0.130792
  35 H :    0.161192
  36 H :    0.154315
  37 H :    0.145508
  38 H :    0.105129
  39 H :    0.125428
  40 H :    0.124809
  41 H :    0.122176
  42 H :    0.116546
  43 H :    0.138073
  44 H :    0.134903
  45 H :    0.135535
  46 H :    0.118641
  47 H :    0.153802
  48 H :    0.151412
  49 H :    0.182664
  50 H :    0.355970
  51 H :    0.146625
  52 H :    0.161053
  53 H :    0.125658
  54 H :    0.113809
  55 H :    0.400877
  56 H :    0.163811
  57 H :    0.145611
  58 H :    0.156232
  59 H :    0.126083
Sum of atomic charges:   -0.0000000

LOEWDIN ATOMIC CHARGES
----------------------
   0 C :   -0.360332
   1 C :   -0.166705
   2 C :   -0.027586
   3 C :   -0.355581
   4 C :   -0.092632
   5 C :   -0.025119
   6 C :   -0.353703
   7 C :   -0.165281
   8 C :   -0.119496
   9 C :   -0.216278
  10 C :   -0.126452
  11 C :   -0.351506
  12 C :   -0.209331
  13 C :   -0.143788
  14 C :    0.126718
  15 O :   -0.258933
  16 C :   -0.159378
  17 C :    0.022339
  18 N :   -0.191093
  19 C :   -0.167790
  20 C :   -0.112732
  21 O :   -0.400951
  22 C :    0.142801
  23 O :   -0.273125
  24 C :   -0.041844
  25 C :   -0.346659
  26 C :   -0.110946
  27 H :    0.130214
  28 H :    0.125782
  29 H :    0.131827
  30 H :    0.126161
  31 H :    0.135708
  32 H :    0.132569
  33 H :    0.124685
  34 H :    0.130697
  35 H :    0.136897
  36 H :    0.133383
  37 H :    0.126332
  38 H :    0.119736
  39 H :    0.119911
  40 H :    0.115017
  41 H :    0.115823
  42 H :    0.113716
  43 H :    0.121487
  44 H :    0.119352
  45 H :    0.120545
  46 H :    0.114009
  47 H :    0.132077
  48 H :    0.138006
  49 H :    0.155078
  50 H :    0.269316
  51 H :    0.124056
  52 H :    0.136848
  53 H :    0.104848
  54 H :    0.100103
  55 H :    0.318216
  56 H :    0.134734
  57 H :    0.123887
  58 H :    0.130110
  59 H :    0.124251

  Mayer bond orders larger than 0.100000
B(  0-C ,  1-C ) :   1.0157 B(  0-C , 27-H ) :   0.9388 B(  0-C , 28-H ) :   0.9533
B(  0-C , 29-H ) :   0.9358 B(  1-C ,  2-C ) :   1.8859 B(  1-C , 30-H ) :   0.9129
B(  2-C ,  3-C ) :   1.0100 B(  2-C ,  4-C ) :   0.9864 B(  3-C , 31-H ) :   0.9374
B(  3-C , 32-H ) :   0.9355 B(  3-C , 33-H ) :   0.9324 B(  4-C ,  5-C ) :   0.9982
B(  4-C , 24-C ) :   0.9508 B(  4-C , 34-H ) :   0.8959 B(  5-C ,  6-C ) :   0.9792
B(  5-C ,  7-C ) :   1.8661 B(  6-C , 35-H ) :   0.9427 B(  6-C , 36-H ) :   0.9417
B(  6-C , 37-H ) :   0.9478 B(  7-C ,  8-C ) :   0.9933 B(  7-C , 38-H ) :   0.9239
B(  8-C ,  9-C ) :   0.9837 B(  8-C , 26-C ) :   0.9856 B(  8-C , 39-H ) :   0.9082
B(  9-C , 10-C ) :   0.9965 B(  9-C , 40-H ) :   0.9314 B(  9-C , 41-H ) :   0.9347
B( 10-C , 11-C ) :   1.0037 B( 10-C , 12-C ) :   0.9971 B( 10-C , 42-H ) :   0.9277
B( 11-C , 43-H ) :   0.9484 B( 11-C , 44-H ) :   0.9480 B( 11-C , 45-H ) :   0.9489
B( 12-C , 13-C ) :   0.9879 B( 12-C , 46-H ) :   0.9328 B( 12-C , 47-H ) :   0.9250
B( 13-C , 14-C ) :   0.9330 B( 13-C , 26-C ) :   0.9586 B( 13-C , 48-H ) :   0.9022
B( 14-C , 15-O ) :   1.7911 B( 14-C , 16-C ) :   1.0355 B( 16-C , 17-C ) :   1.5324
B( 16-C , 22-C ) :   1.0378 B( 17-C , 18-N ) :   1.1741 B( 17-C , 49-H ) :   0.8940
B( 18-N , 19-C ) :   0.9649 B( 18-N , 50-H ) :   0.8053 B( 19-C , 20-C ) :   0.9880
B( 19-C , 51-H ) :   0.9289 B( 19-C , 52-H ) :   0.9354 B( 20-C , 21-O ) :   0.9808
B( 20-C , 53-H ) :   0.9214 B( 20-C , 54-H ) :   0.9243 B( 21-O , 55-H ) :   0.7890
B( 22-C , 23-O ) :   1.7762 B( 22-C , 24-C ) :   0.9074 B( 24-C , 25-C ) :   0.9780
B( 24-C , 26-C ) :   0.9543 B( 25-C , 56-H ) :   0.9343 B( 25-C , 57-H ) :   0.9393
B( 25-C , 58-H ) :   0.9326 B( 26-C , 59-H ) :   0.8976

FINAL SINGLE POINT ENERGY     -1175.912917000542

DIPOLE MOMENT
-------------

Method             : SCF
Type of density    : Electron Density
Multiplicity       :   1
Irrep              :   0
Energy             : -1175.9129170005417109 Eh
Relativity type    :
Basis              : AO
                                X                 Y                 Z
Electronic contribution:     14.850745659       3.898727249       9.026168903
Nuclear contribution   :    -14.751731228      -3.147581174      -9.394926561
                        -----------------------------------------
Total Dipole Moment    :      0.099014431       0.751146075      -0.368757657
                        -----------------------------------------
Magnitude (a.u.)       :      0.842618831
Magnitude (Debye)      :      2.141766858

Rotational constants in cm-1:             0.008155             0.004710             0.003632
Rotational constants in MHz :           244.488531           141.200917           108.871401

                             ****ORCA TERMINATED NORMALLY****
TOTAL RUN TIME: 0 days 0 hours 8 minutes 46 seconds 356 msec
