                         Program Version 6.0.0  -   RELEASE  -
|  1> ! B3LYP 6-31G* SP
|  2>
|  3> * xyz 0 1
|  4> C -2.9342 -0.5346 0.8330
|  5> C -1.8927 -0.8044 -0.2635
|  6> C -1.5055 -2.2713 -0.3981
|  7> C -1.2686 -3.0830 0.7328
|  8> C -0.8604 -4.4119 0.5825
|  9> C -0.6619 -4.9447 -0.6916
| 10> F -0.2504 -6.2282 -0.8340
| 11> C -0.8627 -4.1457 -1.8201
| 12> C -1.2724 -2.8134 -1.6813
| 13> F -1.4100 -2.0473 -2.7992
| 14> N -0.6893 0.0310 -0.0952
| 15> C -0.4248 1.1189 -1.0463
| 16> C -1.3419 2.2773 -0.7662
| 17> C -1.0843 3.1214 0.3257
| 18> C -1.9672 4.1657 0.6244
| 19> C -3.1064 4.3721 -0.1556
| 20> C -3.3821 3.5327 -1.2515
| 21> C -4.5972 3.7415 -2.0771
| 22> O -5.4306 4.6407 -1.7754
| 23> O -4.8268 2.9517 -3.1992
| 24> C -2.4926 2.4829 -1.5483
| 25> C 0.2166 -0.1659 1.0040
| 26> O -0.2137 -0.0825 2.1903
| 27> C 1.6571 -0.4056 0.7671
| 28> C 2.0894 -0.9921 -0.4323
| 29> N 3.4165 -1.1641 -0.6753
| 30> C 4.3674 -0.7862 0.2257
| 31> C 5.7262 -0.9436 -0.0753
| 32> C 6.6998 -0.5265 0.8371
| 33> C 6.3219 0.0243 2.0645
| 34> C 4.9674 0.1808 2.3816
| 35> C 3.9836 -0.2110 1.4586
| 36> C 2.6196 -0.0348 1.7269
| 37> H -3.8512 -1.1347 0.6369
| 38> H -2.5638 -0.7826 1.8452
| 39> H -3.2154 0.5420 0.8257
| 40> H -2.4068 -0.5050 -1.2044
| 41> H -1.3832 -2.6946 1.7347
| 42> H -0.6803 -5.0245 1.4581
| 43> H -0.6861 -4.5523 -2.8085
| 44> H -0.5545 0.7495 -2.0855
| 45> H 0.6279 1.4669 -0.9691
| 46> H -0.2121 2.9662 0.9470
| 47> H -1.7633 4.8141 1.4693
| 48> H -3.7684 5.1896 0.0985
| 49> H -5.6615 3.0749 -3.7617
| 50> H -2.7007 1.8185 -2.3823
| 51> H 1.3739 -1.3172 -1.1772
| 52> H 6.0289 -1.3806 -1.0170
| 53> H 7.7475 -0.6413 0.5919
| 54> H 7.0789 0.3296 2.7702
| 55> H 4.6910 0.6109 3.3341
| 56> H 2.3094 0.4267 2.6592
| 57> *
| 58>
| 59>                          ****END OF INPUT****

CARTESIAN COORDINATES (ANGSTROEM)
---------------------------------
  C     -2.934200   -0.534600    0.833000
  C     -1.892700   -0.804400   -0.263500
  C     -1.505500   -2.271300   -0.398100
  C     -1.268600   -3.083000    0.732800
  C     -0.860400   -4.411900    0.582500
  C     -0.661900   -4.944700   -0.691600
  F     -0.250400   -6.228200   -0.834000
  C     -0.862700   -4.145700   -1.820100
  C     -1.272400   -2.813400   -1.681300
  F     -1.410000   -2.047300   -2.799200
  N     -0.689300    0.031000   -0.095200
  C     -0.424800    1.118900   -1.046300
  C     -1.341900    2.277300   -0.766200
  C     -1.084300    3.121400    0.325700
  C     -1.967200    4.165700    0.624400
  C     -3.106400    4.372100   -0.155600
  C     -3.382100    3.532700   -1.251500
  C     -4.597200    3.741500   -2.077100
  O     -5.430600    4.640700   -1.775400
  O     -4.826800    2.951700   -3.199200
  C     -2.492600    2.482900   -1.548300
  C      0.216600   -0.165900    1.004000
  O     -0.213700   -0.082500    2.190300
  C      1.657100   -0.405600    0.767100
  C      2.089400   -0.992100   -0.432300
  N      3.416500   -1.164100   -0.675300
  C      4.367400   -0.786200    0.225700
  C      5.726200   -0.943600   -0.075300
  C      6.699800   -0.526500    0.837100
  C      6.321900    0.024300    2.064500
  C      4.967400    0.180800    2.381600
  C      3.983600   -0.211000    1.458600
  C      2.619600   -0.034800    1.726900
  H     -3.851200   -1.134700    0.636900
  H     -2.563800   -0.782600    1.845200
  H     -3.215400    0.542000    0.825700
  H     -2.406800   -0.505000   -1.204400
  H     -1.383200   -2.694600    1.734700
  H     -0.680300   -5.024500    1.458100
  H     -0.686100   -4.552300   -2.808500
  H     -0.554500    0.749500   -2.085500
  H      0.627900    1.466900   -0.969100
  H     -0.212100    2.966200    0.947000
  H     -1.763300    4.814100    1.469300
  H     -3.768400    5.189600    0.098500
  H     -5.661500    3.074900   -3.761700
  H     -2.700700    1.818500   -2.382300
  H      1.373900   -1.317200   -1.177200
  H      6.028900   -1.380600   -1.017000
  H      7.747500   -0.641300    0.591900
  H      7.078900    0.329600    2.770200
  H      4.691000    0.610900    3.334100
  H      2.309400    0.426700    2.659200

 Total Charge           Charge          ....    0
 Multiplicity           Mult            ....    1
 Number of Electrons    NEL             ....  232
 Basis Dimension        Dim             ....  502

ORBITAL ENERGIES
----------------

  NO   OCC          E(Eh)            E(eV)
   0   2.0000     -24.714957      -672.5282
   1   2.0000     -24.705475      -672.2702
   2   2.0000     -19.184565      -522.0386
   3   2.0000     -19.127518      -520.4862
   4   2.0000     -19.122972      -520.3625
   5   2.0000     -14.344746      -390.3404
   6   2.0000     -14.330036      -389.9401
   7   2.0000     -10.321328      -280.8576
   8   2.0000     -10.298433      -280.2346
   9   2.0000     -10.283183      -279.8196
  10   2.0000     -10.279908      -279.7305
  11   2.0000     -10.233109      -278.4571
  12   2.0000     -10.229479      -278.3583
  13   2.0000     -10.228021      -278.3186
  14   2.0000     -10.227232      -278.2971
  15   2.0000     -10.213931      -277.9352
  16   2.0000     -10.211138      -277.8592
  17   2.0000     -10.208245      -277.7805
  18   2.0000     -10.204700      -277.6840
  19   2.0000     -10.203785      -277.6591
  20   2.0000     -10.201380      -277.5937
  21   2.0000     -10.200863      -277.5796
  22   2.0000     -10.200322      -277.5649
  23   2.0000     -10.199712      -277.5483
  24   2.0000     -10.199525      -277.5432
  25   2.0000     -10.198454      -277.5140
  26   2.0000     -10.197584      -277.4904
  27   2.0000     -10.197326      -277.4834
  28   2.0000     -10.196786      -277.4686
  29   2.0000     -10.194576      -277.4085
  30   2.0000     -10.194320      -277.4015
  31   2.0000     -10.191981      -277.3379
  32   2.0000     -10.164707      -276.5957
  33   2.0000      -1.225179       -33.3388
  34   2.0000      -1.218600       -33.1598
  35   2.0000      -1.068206       -29.0674
  36   2.0000      -1.022036       -27.8110
  37   2.0000      -0.980696       -26.6861
  38   2.0000      -0.940434       -25.5905
  39   2.0000      -0.926962       -25.2239
  40   2.0000      -0.870047       -23.6752
  41   2.0000      -0.863226       -23.4896
  42   2.0000      -0.855512       -23.2797
  43   2.0000      -0.817812       -22.2538
  44   2.0000      -0.795794       -21.6547
  45   2.0000      -0.776110       -21.1190
  46   2.0000      -0.767993       -20.8981
  47   2.0000      -0.761991       -20.7348
  48   2.0000      -0.759515       -20.6675
  49   2.0000      -0.746319       -20.3084
  50   2.0000      -0.726793       -19.7770
  51   2.0000      -0.689848       -18.7717
  52   2.0000      -0.665119       -18.0988
  53   2.0000      -0.661331       -17.9957
  54   2.0000      -0.648646       -17.6506
  55   2.0000      -0.641325       -17.4513
  56   2.0000      -0.627881       -17.0855
  57   2.0000      -0.615126       -16.7384
  58   2.0000      -0.611971       -16.6526
  59   2.0000      -0.604211       -16.4414
  60   2.0000      -0.581862       -15.8333
  61   2.0000      -0.562336       -15.3019
  62   2.0000      -0.557385       -15.1672
  63   2.0000      -0.532173       -14.4812
  64   2.0000      -0.531542       -14.4640
  65   2.0000      -0.527648       -14.3580
  66   2.0000      -0.519875       -14.1465
  67   2.0000      -0.511557       -13.9202
  68   2.0000      -0.500587       -13.6217
  69   2.0000      -0.495422       -13.4811
  70   2.0000      -0.486022       -13.2253
  71   2.0000      -0.481698       -13.1077
  72   2.0000      -0.472494       -12.8572
  73   2.0000      -0.470853       -12.8126
  74   2.0000      -0.463202       -12.6044
  75   2.0000      -0.455965       -12.4074
  76   2.0000      -0.454428       -12.3656
  77   2.0000      -0.450774       -12.2662
  78   2.0000      -0.448106       -12.1936
  79   2.0000      -0.444732       -12.1018
  80   2.0000      -0.439773       -11.9668
  81   2.0000      -0.437309       -11.8998
  82   2.0000      -0.430805       -11.7228
  83   2.0000      -0.429547       -11.6886
  84   2.0000      -0.426504       -11.6058
  85   2.0000      -0.419833       -11.4242
  86   2.0000      -0.418584       -11.3903
  87   2.0000      -0.407452       -11.0873
  88   2.0000      -0.404712       -11.0128
  89   2.0000      -0.394158       -10.7256
  90   2.0000      -0.391872       -10.6634
  91   2.0000      -0.382193       -10.4000
  92   2.0000      -0.380104       -10.3432
  93   2.0000      -0.372181       -10.1276
  94   2.0000      -0.370306       -10.0765
  95   2.0000      -0.369213       -10.0468
  96   2.0000      -0.365485        -9.9453
  97   2.0000      -0.361428        -9.8349
  98   2.0000      -0.358763        -9.7624
  99   2.0000      -0.353305        -9.6139
 100   2.0000      -0.351409        -9.5623
 101   2.0000      -0.345892        -9.4122
 102   2.0000      -0.342144        -9.3102
 103   2.0000      -0.338261        -9.2045
 104   2.0000      -0.307892        -8.3782
 105   2.0000      -0.304226        -8.2784
 106   2.0000      -0.270690        -7.3659
 107   2.0000      -0.262912        -7.1542
 108   2.0000      -0.262080        -7.1316
 109   2.0000      -0.260216        -7.0808
 110   2.0000      -0.259515        -7.0618
 111   2.0000      -0.255605        -6.9554
 112   2.0000      -0.249846        -6.7987
 113   2.0000      -0.243955        -6.6384
 114   2.0000      -0.232474        -6.3259
 115   2.0000      -0.219815        -5.9815
 116   0.0000      -0.078430        -2.1342
 117   0.0000      -0.054775        -1.4905
 118   0.0000      -0.045326        -1.2334
 119   0.0000      -0.016382        -0.4458
 120   0.0000      -0.013400        -0.3646

MULLIKEN ATOMIC CHARGES
-----------------------
   0 C :   -0.441961
   1 C :   -0.052515
   2 C :    0.051405
   3 C :   -0.154869
   4 C :   -0.217504
   5 C :    0.434081
   6 F :   -0.314404
   7 C :   -0.293238
   8 C :    0.376861
   9 F :   -0.319131
  10 N :   -0.409339
  11 C :   -0.273463
  12 C :    0.179516
  13 C :   -0.144971
  14 C :   -0.132777
  15 C :   -0.149467
  16 C :    0.080525
  17 C :    0.521636
  18 O :   -0.455241
  19 O :   -0.625528
  20 C :   -0.216475
  21 C :    0.438017
  22 O :   -0.455174
  23 C :    0.060890
  24 C :   -0.020853
  25 N :   -0.434384
  26 C :    0.217874
  27 C :   -0.143459
  28 C :   -0.125939
  29 C :   -0.131558
  30 C :   -0.195745
  31 C :    0.159595
  32 C :   -0.180470
  33 H :    0.133987
  34 H :    0.176882
  35 H :    0.157866
  36 H :    0.157213
  37 H :    0.170233
  38 H :    0.150928
  39 H :    0.160958
  40 H :    0.156479
  41 H :    0.166173
  42 H :    0.141770
  43 H :    0.142064
  44 H :    0.166368
  45 H :    0.429330
  46 H :    0.157154
  47 H :    0.167407
  48 H :    0.147891
  49 H :    0.140996
  50 H :    0.137788
  51 H :    0.140255
  52 H :    0.166323
Sum of atomic charges:   -0.0000000

LOEWDIN ATOMIC CHARGES
----------------------
   0 C :   -0.362207
   1 C :   -0.045513
   2 C :   -0.061466
   3 C :   -0.114066
   4 C :   -0.162155
   5 C :    0.123753
   6 F :   -0.098768
   7 C :   -0.184841
   8 C :    0.119381
   9 F :   -0.104316
  10 N :   -0.119756
  11 C :   -0.147777
  12 C :   -0.030778
  13 C :   -0.102932
  14 C :   -0.124609
  15 C :   -0.091670
  16 C :   -0.055958
  17 C :    0.178962
  18 O :   -0.271996
  19 O :   -0.337971
  20 C :   -0.113727
  21 C :    0.144695
  22 O :   -0.257120
  23 C :   -0.080837
  24 C :   -0.055344
  25 N :   -0.130367
  26 C :    0.022848
  27 C :   -0.114944
  28 C :   -0.115009
  29 C :   -0.126744
  30 C :   -0.114077
  31 C :   -0.031467
  32 C :   -0.055811
  33 H :    0.120901
  34 H :    0.137452
  35 H :    0.134596
  36 H :    0.136914
  37 H :    0.152387
  38 H :    0.146308
  39 H :    0.154764
  40 H :    0.125198
  41 H :    0.138123
  42 H :    0.138442
  43 H :    0.138381
  44 H :    0.153060
  45 H :    0.346552
  46 H :    0.144411
  47 H :    0.144677
  48 H :    0.146170
  49 H :    0.138241
  50 H :    0.136495
  51 H :    0.137229
  52 H :    0.152288

  Mayer bond orders larger than 0.100000
B(  0-C ,  1-C ) :   0.9952 B(  0-C , 33-H ) :   0.9402 B(  0-C , 34-H ) :   0.9274
B(  0-C , 35-H ) :   0.9399 B(  1-C ,  2-C ) :   0.9563 B(  1-C , 10-N ) :   0.9335
B(  1-C , 36-H ) :   0.9155 B(  2-C ,  3-C ) :   1.4166 B(  2-C ,  8-C ) :   1.3538
B(  3-C ,  4-C ) :   1.4211 B(  3-C , 37-H ) :   0.9130 B(  4-C ,  5-C ) :   1.3922
B(  4-C , 38-H ) :   0.9196 B(  5-C ,  6-F ) :   0.9157 B(  5-C ,  7-C ) :   1.3730
B(  7-C ,  8-C ) :   1.3652 B(  7-C , 39-H ) :   0.9106 B(  8-C ,  9-F ) :   0.9000
B( 10-N , 11-C ) :   0.9702 B( 10-N , 21-C ) :   1.0077 B( 11-C , 12-C ) :   0.9386
B( 11-C , 40-H ) :   0.9209 B( 11-C , 41-H ) :   0.9234 B( 12-C , 13-C ) :   1.4169
B( 12-C , 20-C ) :   1.4079 B( 13-C , 14-C ) :   1.4312 B( 13-C , 42-H ) :   0.9220
B( 14-C , 15-C ) :   1.4295 B( 14-C , 43-H ) :   0.9280 B( 15-C , 16-C ) :   1.4081
B( 15-C , 44-H ) :   0.9127 B( 16-C , 17-C ) :   1.0090 B( 16-C , 20-C ) :   1.3657
B( 17-C , 18-O ) :   1.8566 B( 17-C , 19-O ) :   1.0177 B( 19-O , 45-H ) :   0.7445
B( 20-C , 46-H ) :   0.9095 B( 21-C , 22-O ) :   1.8172 B( 21-C , 23-C ) :   0.9814
B( 23-C , 24-C ) :   1.2605 B( 23-C , 32-C ) :   1.4272 B( 24-C , 25-N ) :   1.5014
B( 24-C , 47-H ) :   0.9155 B( 25-N , 26-C ) :   1.2466 B( 26-C , 27-C ) :   1.3124
B( 26-C , 31-C ) :   1.2457 B( 27-C , 28-C ) :   1.5130 B( 27-C , 30-C ) :   0.1077
B( 27-C , 48-H ) :   0.9169 B( 28-C , 29-C ) :   1.3462 B( 28-C , 49-H ) :   0.9287
B( 29-C , 30-C ) :   1.5158 B( 29-C , 50-H ) :   0.9293 B( 30-C , 31-C ) :   1.2747
B( 30-C , 51-H ) :   0.9239 B( 31-C , 32-C ) :   1.2747 B( 32-C , 52-H ) :   0.9114

FINAL SINGLE POINT ENERGY     -1536.759613149934

DIPOLE MOMENT
-------------

Method             : SCF
Type of density    : Electron Density
Multiplicity       :   1
Irrep              :   0
Energy             : -1536.7596131499344665 Eh
Relativity type    :
Basis              : AO
                                X                 Y                 Z
Electronic contribution:     -2.630975923     -14.286783688      -9.990615915
Nuclear contribution   :      3.775824164      14.283002019      10.095752830
                        -----------------------------------------
Total Dipole Moment    :      1.144848241      -0.003781669       0.105136915
                        -----------------------------------------
Magnitude (a.u.)       :      1.149671939
Magnitude (Debye)      :      2.922233835

Rotational constants in cm-1:             0.005087             0.002707             0.001996
Rotational constants in MHz :           152.518338            81.149943            59.844869

                             ****ORCA TERMINATED NORMALLY****
TOTAL RUN TIME: 0 days 0 hours 8 minutes 53 seconds 736 msec
