                         Program Version 6.0.0  -   RELEASE  -
|  1> ! B3LYP 6-31G* SP
|  2>
|  3> * xyz 0 1
|  4> C -3.8019 -2.7267 3.3036
|  5> O -2.7710 -2.3836 2.3859
|  6> C -1.8907 -1.3160 2.6036
|  7> O -1.9545 -0.6504 3.6727
|  8> C -0.7989 -1.0245 1.6037
|  9> C -1.1181 -1.5437 0.2122
| 10> C -2.3614 -1.2871 -0.3997
| 11> C -2.6024 -1.6959 -1.7147
| 12> C -1.6107 -2.3711 -2.4304
| 13> C -0.3765 -2.6367 -1.8335
| 14> C -0.1283 -2.2223 -0.5224
| 15> N -0.4824 0.4180 1.5622
| 16> C 0.7194 0.9272 2.2358
| 17> C 1.8602 1.0210 1.2624
| 18> C 2.1151 2.2229 0.5817
| 19> C 3.1325 2.2883 -0.3731
| 20> C 3.9010 1.1568 -0.6576
| 21> C 3.6546 -0.0557 0.0162
| 22> O 4.3931 -1.2215 -0.2367
| 23> C 5.4586 -1.3108 -1.1778
| 24> C 2.6344 -0.1126 0.9729
| 25> C -1.4561 1.3701 1.0962
| 26> O -2.3642 1.7490 1.8874
| 27> C -1.4138 1.9061 -0.2889
| 28> C -0.4963 1.4083 -1.2378
| 29> C -0.4963 1.8926 -2.5483
| 30> C -1.3975 2.8905 -2.9257
| 31> C -2.3115 3.3964 -1.9958
| 32> C -2.3245 2.9050 -0.6865
| 33> H -4.3592 -3.6038 2.9134
| 34> H -4.5055 -1.8736 3.4207
| 35> H -3.3622 -2.9915 4.2898
| 36> H 0.0872 -1.5815 1.9798
| 37> H -3.1361 -0.7511 0.1323
| 38> H -3.5551 -1.4805 -2.1822
| 39> H -1.7972 -2.6851 -3.4490
| 40> H 0.3934 -3.1556 -2.3903
| 41> H 0.8417 -2.4214 -0.0863
| 42> H 0.5153 1.9215 2.6889
| 43> H 1.0004 0.2630 3.0803
| 44> H 1.5144 3.1029 0.7766
| 45> H 3.3214 3.2170 -0.8991
| 46> H 4.6804 1.2339 -1.4033
| 47> H 5.0878 -1.0789 -2.1970
| 48> H 5.8611 -2.3442 -1.1741
| 49> H 6.2734 -0.6120 -0.9000
| 50> H 2.4427 -1.0467 1.4875
| 51> H 0.2162 0.6409 -0.9750
| 52> H 0.2088 1.4984 -3.2697
| 53> H -1.3924 3.2689 -3.9374
| 54> H -3.0074 4.1758 -2.2875
| 55> H -3.0409 3.3101 0.0139
| 56> *
| 57>
| 58>                          ****END OF INPUT****

CARTESIAN COORDINATES (ANGSTROEM)
---------------------------------
  C     -3.801900   -2.726700    3.303600
  O     -2.771000   -2.383600    2.385900
  C     -1.890700   -1.316000    2.603600
  O     -1.954500   -0.650400    3.672700
  C     -0.798900   -1.024500    1.603700
  C     -1.118100   -1.543700    0.212200
  C     -2.361400   -1.287100   -0.399700
  C     -2.602400   -1.695900   -1.714700
  C     -1.610700   -2.371100   -2.430400
  C     -0.376500   -2.636700   -1.833500
  C     -0.128300   -2.222300   -0.522400
  N     -0.482400    0.418000    1.562200
  C      0.719400    0.927200    2.235800
  C      1.860200    1.021000    1.262400
  C      2.115100    2.222900    0.581700
  C      3.132500    2.288300   -0.373100
  C      3.901000    1.156800   -0.657600
  C      3.654600   -0.055700    0.016200
  O      4.393100   -1.221500   -0.236700
  C      5.458600   -1.310800   -1.177800
  C      2.634400   -0.112600    0.972900
  C     -1.456100    1.370100    1.096200
  O     -2.364200    1.749000    1.887400
  C     -1.413800    1.906100   -0.288900
  C     -0.496300    1.408300   -1.237800
  C     -0.496300    1.892600   -2.548300
  C     -1.397500    2.890500   -2.925700
  C     -2.311500    3.396400   -1.995800
  C     -2.324500    2.905000   -0.686500
  H     -4.359200   -3.603800    2.913400
  H     -4.505500   -1.873600    3.420700
  H     -3.362200   -2.991500    4.289800
  H      0.087200   -1.581500    1.979800
  H     -3.136100   -0.751100    0.132300
  H     -3.555100   -1.480500   -2.182200
  H     -1.797200   -2.685100   -3.449000
  H      0.393400   -3.155600   -2.390300
  H      0.841700   -2.421400   -0.086300
  H      0.515300    1.921500    2.688900
  H      1.000400    0.263000    3.080300
  H      1.514400    3.102900    0.776600
  H      3.321400    3.217000   -0.899100
  H      4.680400    1.233900   -1.403300
  H      5.087800   -1.078900   -2.197000
  H      5.861100   -2.344200   -1.174100
  H      6.273400   -0.612000   -0.900000
  H      2.442700   -1.046700    1.487500
  H      0.216200    0.640900   -0.975000
  H      0.208800    1.498400   -3.269700
  H     -1.392400    3.268900   -3.937400
  H     -3.007400    4.175800   -2.287500
  H     -3.040900    3.310100    0.013900

 Total Charge           Charge          ....    0
 Multiplicity           Mult            ....    1
 Number of Electrons    NEL             ....  206
 Basis Dimension        Dim             ....  452

ORBITAL ENERGIES
----------------

  NO   OCC          E(Eh)            E(eV)
   0   2.0000     -19.174131      -521.7546
   1   2.0000     -19.165418      -521.5175
   2   2.0000     -19.123580      -520.3791
   3   2.0000     -19.116918      -520.1978
   4   2.0000     -14.324593      -389.7920
   5   2.0000     -10.303958      -280.3850
   6   2.0000     -10.289400      -279.9888
   7   2.0000     -10.246979      -278.8345
   8   2.0000     -10.242239      -278.7055
   9   2.0000     -10.238546      -278.6050
  10   2.0000     -10.229368      -278.3553
  11   2.0000     -10.213717      -277.9294
  12   2.0000     -10.191964      -277.3375
  13   2.0000     -10.190374      -277.2942
  14   2.0000     -10.188673      -277.2479
  15   2.0000     -10.186809      -277.1972
  16   2.0000     -10.185359      -277.1577
  17   2.0000     -10.184032      -277.1216
  18   2.0000     -10.183877      -277.1174
  19   2.0000     -10.183180      -277.0984
  20   2.0000     -10.181922      -277.0642
  21   2.0000     -10.180269      -277.0192
  22   2.0000     -10.180121      -277.0152
  23   2.0000     -10.179641      -277.0021
  24   2.0000     -10.179245      -276.9913
  25   2.0000     -10.179114      -276.9878
  26   2.0000     -10.178884      -276.9815
  27   2.0000     -10.178559      -276.9727
  28   2.0000     -10.173024      -276.8220
  29   2.0000      -1.066299       -29.0155
  30   2.0000      -1.043032       -28.3823
  31   2.0000      -1.014537       -27.6069
  32   2.0000      -0.978337       -26.6219
  33   2.0000      -0.913068       -24.8458
  34   2.0000      -0.851538       -23.1715
  35   2.0000      -0.850997       -23.1568
  36   2.0000      -0.844018       -22.9669
  37   2.0000      -0.784180       -21.3386
  38   2.0000      -0.760912       -20.7055
  39   2.0000      -0.752189       -20.4681
  40   2.0000      -0.749010       -20.3816
  41   2.0000      -0.742524       -20.2051
  42   2.0000      -0.739826       -20.1317
  43   2.0000      -0.719628       -19.5821
  44   2.0000      -0.691660       -18.8210
  45   2.0000      -0.688742       -18.7416
  46   2.0000      -0.674398       -18.3513
  47   2.0000      -0.623918       -16.9777
  48   2.0000      -0.605864       -16.4864
  49   2.0000      -0.602323       -16.3901
  50   2.0000      -0.597634       -16.2624
  51   2.0000      -0.590436       -16.0666
  52   2.0000      -0.576860       -15.6972
  53   2.0000      -0.566755       -15.4222
  54   2.0000      -0.539812       -14.6890
  55   2.0000      -0.522049       -14.2057
  56   2.0000      -0.517283       -14.0760
  57   2.0000      -0.514240       -13.9932
  58   2.0000      -0.491506       -13.3746
  59   2.0000      -0.485070       -13.1994
  60   2.0000      -0.482943       -13.1415
  61   2.0000      -0.476769       -12.9735
  62   2.0000      -0.468515       -12.7489
  63   2.0000      -0.461186       -12.5495
  64   2.0000      -0.458802       -12.4846
  65   2.0000      -0.453231       -12.3330
  66   2.0000      -0.448916       -12.2156
  67   2.0000      -0.445831       -12.1317
  68   2.0000      -0.440757       -11.9936
  69   2.0000      -0.435086       -11.8393
  70   2.0000      -0.432444       -11.7674
  71   2.0000      -0.427010       -11.6195
  72   2.0000      -0.421533       -11.4705
  73   2.0000      -0.418353       -11.3840
  74   2.0000      -0.415964       -11.3190
  75   2.0000      -0.408686       -11.1209
  76   2.0000      -0.403071       -10.9681
  77   2.0000      -0.399031       -10.8582
  78   2.0000      -0.381099       -10.3702
  79   2.0000      -0.379597       -10.3294
  80   2.0000      -0.370673       -10.0865
  81   2.0000      -0.361198        -9.8287
  82   2.0000      -0.358981        -9.7684
  83   2.0000      -0.356976        -9.7138
  84   2.0000      -0.353008        -9.6058
  85   2.0000      -0.349931        -9.5221
  86   2.0000      -0.344806        -9.3827
  87   2.0000      -0.340113        -9.2550
  88   2.0000      -0.337341        -9.1795
  89   2.0000      -0.335910        -9.1406
  90   2.0000      -0.326679        -8.8894
  91   2.0000      -0.314756        -8.5650
  92   2.0000      -0.309734        -8.4283
  93   2.0000      -0.281278        -7.6540
  94   2.0000      -0.261217        -7.1081
  95   2.0000      -0.253889        -6.9087
  96   2.0000      -0.250155        -6.8071
  97   2.0000      -0.248612        -6.7651
  98   2.0000      -0.245706        -6.6860
  99   2.0000      -0.242279        -6.5928
 100   2.0000      -0.234689        -6.3862
 101   2.0000      -0.217012        -5.9052
 102   2.0000      -0.204721        -5.5707
 103   0.0000      -0.058889        -1.6025
 104   0.0000      -0.009932        -0.2703
 105   0.0000      -0.003108        -0.0846
 106   0.0000      -0.000258        -0.0070
 107   0.0000       0.002469         0.0672

MULLIKEN ATOMIC CHARGES
-----------------------
   0 C :   -0.197014
   1 O :   -0.465118
   2 C :    0.603618
   3 O :   -0.443558
   4 C :   -0.173522
   5 C :    0.176367
   6 C :   -0.161232
   7 C :   -0.128801
   8 C :   -0.124823
   9 C :   -0.128399
  10 C :   -0.187587
  11 N :   -0.408331
  12 C :   -0.254027
  13 C :    0.191738
  14 C :   -0.183886
  15 C :   -0.121746
  16 C :   -0.208858
  17 C :    0.371386
  18 O :   -0.516045
  19 C :   -0.194474
  20 C :   -0.230068
  21 C :    0.422530
  22 O :   -0.410633
  23 C :    0.097233
  24 C :   -0.145993
  25 C :   -0.135589
  26 C :   -0.115681
  27 C :   -0.134324
  28 C :   -0.155961
  29 H :    0.161162
  30 H :    0.167226
  31 H :    0.160722
  32 H :    0.181621
  33 H :    0.144765
  34 H :    0.130807
  35 H :    0.125445
  36 H :    0.127199
  37 H :    0.132287
  38 H :    0.167794
  39 H :    0.164023
  40 H :    0.128293
  41 H :    0.131666
  42 H :    0.128262
  43 H :    0.145039
  44 H :    0.168046
  45 H :    0.148150
  46 H :    0.125851
  47 H :    0.168912
  48 H :    0.132435
  49 H :    0.131720
  50 H :    0.133138
  51 H :    0.158234
Sum of atomic charges:    0.0000000

LOEWDIN ATOMIC CHARGES
----------------------
   0 C :   -0.199647
   1 O :   -0.180718
   2 C :    0.171851
   3 O :   -0.246047
   4 C :   -0.057884
   5 C :   -0.021225
   6 C :   -0.122565
   7 C :   -0.124986
   8 C :   -0.129856
   9 C :   -0.130579
  10 C :   -0.133722
  11 N :   -0.138624
  12 C :   -0.136576
  13 C :   -0.022458
  14 C :   -0.150437
  15 C :   -0.118864
  16 C :   -0.180400
  17 C :    0.089435
  18 O :   -0.197235
  19 C :   -0.199411
  20 C :   -0.160226
  21 C :    0.157061
  22 O :   -0.216634
  23 C :   -0.064195
  24 C :   -0.090570
  25 C :   -0.133518
  26 C :   -0.110606
  27 C :   -0.135074
  28 C :   -0.094303
  29 H :    0.130976
  30 H :    0.130116
  31 H :    0.126698
  32 H :    0.155601
  33 H :    0.138073
  34 H :    0.132901
  35 H :    0.130242
  36 H :    0.130982
  37 H :    0.132310
  38 H :    0.136414
  39 H :    0.134884
  40 H :    0.131844
  41 H :    0.133186
  42 H :    0.133432
  43 H :    0.115188
  44 H :    0.134791
  45 H :    0.116857
  46 H :    0.132449
  47 H :    0.152967
  48 H :    0.133615
  49 H :    0.132747
  50 H :    0.133406
  51 H :    0.148336

  Mayer bond orders larger than 0.100000
B(  0-C ,  1-O ) :   0.8841 B(  0-C , 29-H ) :   0.9440 B(  0-C , 30-H ) :   0.9355
B(  0-C , 31-H ) :   0.9356 B(  1-O ,  2-C ) :   1.0094 B(  2-C ,  3-O ) :   1.8506
B(  2-C ,  4-C ) :   0.9052 B(  4-C ,  5-C ) :   0.9379 B(  4-C , 11-N ) :   1.0003
B(  4-C , 32-H ) :   0.9060 B(  5-C ,  6-C ) :   1.4185 B(  5-C , 10-C ) :   1.4223
B(  6-C ,  7-C ) :   1.4441 B(  6-C , 33-H ) :   0.9167 B(  7-C ,  8-C ) :   1.4497
B(  7-C , 34-H ) :   0.9293 B(  8-C ,  9-C ) :   1.4554 B(  8-C , 35-H ) :   0.9306
B(  9-C , 10-C ) :   1.4408 B(  9-C , 36-H ) :   0.9299 B( 10-C , 37-H ) :   0.9200
B( 11-N , 12-C ) :   0.9475 B( 11-N , 21-C ) :   0.9255 B( 12-C , 13-C ) :   0.9314
B( 12-C , 38-H ) :   0.9270 B( 12-C , 39-H ) :   0.9264 B( 13-C , 14-C ) :   1.4205
B( 13-C , 20-C ) :   1.4201 B( 14-C , 15-C ) :   1.4430 B( 14-C , 40-H ) :   0.9233
B( 15-C , 16-C ) :   1.4396 B( 15-C , 41-H ) :   0.9288 B( 16-C , 17-C ) :   1.3678
B( 16-C , 42-H ) :   0.9198 B( 17-C , 18-O ) :   0.9143 B( 17-C , 20-C ) :   1.3881
B( 18-O , 19-C ) :   0.9215 B( 19-C , 43-H ) :   0.9310 B( 19-C , 44-H ) :   0.9455
B( 19-C , 45-H ) :   0.9308 B( 20-C , 46-H ) :   0.9128 B( 21-C , 22-O ) :   1.8890
B( 21-C , 23-C ) :   1.0119 B( 23-C , 24-C ) :   1.3744 B( 23-C , 28-C ) :   1.3754
B( 24-C , 25-C ) :   1.4351 B( 24-C , 47-H ) :   0.8996 B( 25-C , 26-C ) :   1.4466
B( 25-C , 48-H ) :   0.9302 B( 26-C , 27-C ) :   1.4306 B( 26-C , 49-H ) :   0.9303
B( 27-C , 28-C ) :   1.4421 B( 27-C , 50-H ) :   0.9304 B( 28-C , 51-H ) :   0.9134

FINAL SINGLE POINT ENERGY     -1283.206906374392

DIPOLE MOMENT
-------------

Method             : SCF
Type of density    : Electron Density
Multiplicity       :   1
Irrep              :   0
Energy             : -1283.2069063743920196 Eh
Relativity type    :
Basis              : AO
                                X                 Y                 Z
Electronic contribution:     -6.286915787       3.688383357       6.744471470
Nuclear contribution   :      7.253696339      -4.164548194      -8.527514360
                        -----------------------------------------
Total Dipole Moment    :      0.966780553      -0.476164836      -1.783042891
                        -----------------------------------------
Magnitude (a.u.)       :      2.083420154
Magnitude (Debye)      :      5.295633180

Rotational constants in cm-1:             0.006697             0.004690             0.004094
Rotational constants in MHz :           200.782095           140.591198           122.744909

                             ****ORCA TERMINATED NORMALLY****
TOTAL RUN TIME: 0 days 0 hours 6 minutes 5 seconds 433 msec
