                         Program Version 6.0.0  -   RELEASE  -
|  1> ! B3LYP def2-TZVP SP
|  2>
|  3> * xyz 0 1
|  4> O 2.0251 1.0150 1.6777
|  5> C 1.7046 0.5629 0.5444
|  6> N 2.7211 0.3455 -0.4491
|  7> C 4.1191 0.1972 -0.1455
|  8> C 5.0755 0.6058 -1.0859
|  9> C 6.4405 0.4528 -0.8246
| 10> C 6.8713 -0.1292 0.3829
| 11> O 8.2280 -0.3070 0.6993
| 12> C 9.3239 0.0689 -0.1320
| 13> F 9.2659 -0.6125 -1.3345
| 14> F 9.3029 1.4330 -0.3611
| 15> F 10.5040 -0.2569 0.5078
| 16> C 5.9150 -0.5557 1.3113
| 17> C 4.5503 -0.4020 1.0507
| 18> N 0.3167 0.3124 0.2421
| 19> C -0.7219 1.1595 0.8456
| 20> C -1.9786 0.3397 1.1571
| 21> C -2.4758 -0.4797 -0.0600
| 22> C -1.3145 -1.3598 -0.5716
| 23> C -0.0499 -0.5509 -0.8889
| 24> C -3.0332 0.4119 -1.2043
| 25> C -4.3216 1.1554 -0.7929
| 26> O -4.9229 1.7318 -1.9265
| 27> C -5.2942 0.2541 -0.0572
| 28> C -6.6293 0.6522 0.1261
| 29> C -7.5228 -0.1711 0.8155
| 30> C -7.0903 -1.3909 1.3395
| 31> C -5.7579 -1.7871 1.1885
| 32> Br -5.1824 -3.4509 1.9370
| 33> C -4.8525 -0.9604 0.5074
| 34> O -3.5151 -1.3565 0.3834
| 35> H 2.4425 0.4043 -1.4544
| 36> H 4.7618 1.0533 -2.0208
| 37> H 7.1477 0.7887 -1.5695
| 38> H 6.2320 -1.0172 2.2381
| 39> H 3.8362 -0.7727 1.7739
| 40> H -0.9654 1.9940 0.1551
| 41> H -0.3653 1.6134 1.7951
| 42> H -2.7741 1.0121 1.5395
| 43> H -1.7366 -0.3627 1.9855
| 44> H -1.6284 -1.9221 -1.4781
| 45> H -1.0609 -2.1137 0.2068
| 46> H -0.2034 0.0703 -1.7966
| 47> H 0.7644 -1.2761 -1.1055
| 48> H -2.2831 1.1541 -1.5466
| 49> H -3.2647 -0.2402 -2.0758
| 50> H -4.0465 1.9846 -0.1078
| 51> H -5.2358 0.9914 -2.5104
| 52> H -6.9798 1.5976 -0.2688
| 53> H -8.5522 0.1374 0.9444
| 54> H -7.7893 -2.0241 1.8706
| 55> *
| 56>
| 57>                          ****END OF INPUT****

CARTESIAN COORDINATES (ANGSTROEM)
---------------------------------
  O      2.025100    1.015000    1.677700
  C      1.704600    0.562900    0.544400
  N      2.721100    0.345500   -0.449100
  C      4.119100    0.197200   -0.145500
  C      5.075500    0.605800   -1.085900
  C      6.440500    0.452800   -0.824600
  C      6.871300   -0.129200    0.382900
  O      8.228000   -0.307000    0.699300
  C      9.323900    0.068900   -0.132000
  F      9.265900   -0.612500   -1.334500
  F      9.302900    1.433000   -0.361100
  F     10.504000   -0.256900    0.507800
  C      5.915000   -0.555700    1.311300
  C      4.550300   -0.402000    1.050700
  N      0.316700    0.312400    0.242100
  C     -0.721900    1.159500    0.845600
  C     -1.978600    0.339700    1.157100
  C     -2.475800   -0.479700   -0.060000
  C     -1.314500   -1.359800   -0.571600
  C     -0.049900   -0.550900   -0.888900
  C     -3.033200    0.411900   -1.204300
  C     -4.321600    1.155400   -0.792900
  O     -4.922900    1.731800   -1.926500
  C     -5.294200    0.254100   -0.057200
  C     -6.629300    0.652200    0.126100
  C     -7.522800   -0.171100    0.815500
  C     -7.090300   -1.390900    1.339500
  C     -5.757900   -1.787100    1.188500
  Br    -5.182400   -3.450900    1.937000
  C     -4.852500   -0.960400    0.507400
  O     -3.515100   -1.356500    0.383400
  H      2.442500    0.404300   -1.454400
  H      4.761800    1.053300   -2.020800
  H      7.147700    0.788700   -1.569500
  H      6.232000   -1.017200    2.238100
  H      3.836200   -0.772700    1.773900
  H     -0.965400    1.994000    0.155100
  H     -0.365300    1.613400    1.795100
  H     -2.774100    1.012100    1.539500
  H     -1.736600   -0.362700    1.985500
  H     -1.628400   -1.922100   -1.478100
  H     -1.060900   -2.113700    0.206800
  H     -0.203400    0.070300   -1.796600
  H      0.764400   -1.276100   -1.105500
  H     -2.283100    1.154100   -1.546600
  H     -3.264700   -0.240200   -2.075800
  H     -4.046500    1.984600   -0.107800
  H     -5.235800    0.991400   -2.510400
  H     -6.979800    1.597600   -0.268800
  H     -8.552200    0.137400    0.944400
  H     -7.789300   -2.024100    1.870600

 Total Charge           Charge          ....    0
 Multiplicity           Mult            ....    1
 Number of Electrons    NEL             ....  254
 Basis Dimension        Dim             .... 1098

ORBITAL ENERGIES
----------------

  NO   OCC          E(Eh)            E(eV)
   0   2.0000    -482.857559    -13139.2222
   1   2.0000     -62.504735     -1700.8403
   2   2.0000     -56.320350     -1532.5546
   3   2.0000     -56.317718     -1532.4830
   4   2.0000     -56.317657     -1532.4813
   5   2.0000     -24.736177      -673.1056
   6   2.0000     -24.733939      -673.0447
   7   2.0000     -24.733471      -673.0320
   8   2.0000     -19.199567      -522.4468
   9   2.0000     -19.164011      -521.4793
  10   2.0000     -19.144370      -520.9448
  11   2.0000     -19.092832      -519.5424
  12   2.0000     -14.367515      -390.9600
  13   2.0000     -14.356119      -390.6498
  14   2.0000     -10.500231      -285.7258
  15   2.0000     -10.317160      -280.7442
  16   2.0000     -10.260631      -279.2060
  17   2.0000     -10.259632      -279.1788
  18   2.0000     -10.258257      -279.1414
  19   2.0000     -10.248070      -278.8642
  20   2.0000     -10.237405      -278.5739
  21   2.0000     -10.234254      -278.4882
  22   2.0000     -10.232819      -278.4492
  23   2.0000     -10.222655      -278.1726
  24   2.0000     -10.197278      -277.4821
  25   2.0000     -10.195604      -277.4365
  26   2.0000     -10.194193      -277.3981
  27   2.0000     -10.194047      -277.3941
  28   2.0000     -10.193183      -277.3706
  29   2.0000     -10.192612      -277.3551
  30   2.0000     -10.190879      -277.3079
  31   2.0000     -10.189944      -277.2825
  32   2.0000     -10.189219      -277.2628
  33   2.0000     -10.188035      -277.2305
  34   2.0000     -10.185066      -277.1497
  35   2.0000      -8.695513      -236.6169
  36   2.0000      -6.525212      -177.5600
  37   2.0000      -6.514102      -177.2577
  38   2.0000      -6.513489      -177.2411
  39   2.0000      -2.639786       -71.8322
  40   2.0000      -2.636762       -71.7499
  41   2.0000      -2.636294       -71.7372
  42   2.0000      -2.627121       -71.4876
  43   2.0000      -2.627111       -71.4873
  44   2.0000      -1.316477       -35.8232
  45   2.0000      -1.238324       -33.6965
  46   2.0000      -1.237615       -33.6772
  47   2.0000      -1.088534       -29.6205
  48   2.0000      -1.070815       -29.1383
  49   2.0000      -1.042862       -28.3777
  50   2.0000      -1.032628       -28.0992
  51   2.0000      -0.939963       -25.5777
  52   2.0000      -0.929207       -25.2850
  53   2.0000      -0.878825       -23.9140
  54   2.0000      -0.859898       -23.3990
  55   2.0000      -0.830344       -22.5948
  56   2.0000      -0.810194       -22.0465
  57   2.0000      -0.784683       -21.3523
  58   2.0000      -0.780863       -21.2484
  59   2.0000      -0.772238       -21.0137
  60   2.0000      -0.762251       -20.7419
  61   2.0000      -0.742494       -20.2043
  62   2.0000      -0.732101       -19.9215
  63   2.0000      -0.713273       -19.4091
  64   2.0000      -0.676192       -18.4001
  65   2.0000      -0.663700       -18.0602
  66   2.0000      -0.656634       -17.8679
  67   2.0000      -0.646345       -17.5879
  68   2.0000      -0.636068       -17.3083
  69   2.0000      -0.618684       -16.8352
  70   2.0000      -0.611257       -16.6332
  71   2.0000      -0.609362       -16.5816
  72   2.0000      -0.606975       -16.5166
  73   2.0000      -0.593079       -16.1385
  74   2.0000      -0.576697       -15.6927
  75   2.0000      -0.559868       -15.2348
  76   2.0000      -0.555385       -15.1128
  77   2.0000      -0.539697       -14.6859
  78   2.0000      -0.526878       -14.3371
  79   2.0000      -0.521268       -14.1844
  80   2.0000      -0.501281       -13.6405
  81   2.0000      -0.496145       -13.5008
  82   2.0000      -0.491974       -13.3873
  83   2.0000      -0.487436       -13.2638
  84   2.0000      -0.484681       -13.1888
  85   2.0000      -0.482927       -13.1411
  86   2.0000      -0.475899       -12.9499
  87   2.0000      -0.474567       -12.9136
  88   2.0000      -0.471160       -12.8209
  89   2.0000      -0.463813       -12.6210
  90   2.0000      -0.461611       -12.5611
  91   2.0000      -0.460436       -12.5291
  92   2.0000      -0.451042       -12.2735
  93   2.0000      -0.449084       -12.2202
  94   2.0000      -0.436265       -11.8714
  95   2.0000      -0.434811       -11.8318
  96   2.0000      -0.434514       -11.8237
  97   2.0000      -0.431539       -11.7428
  98   2.0000      -0.424951       -11.5635
  99   2.0000      -0.420352       -11.4384
 100   2.0000      -0.419625       -11.4186
 101   2.0000      -0.413399       -11.2492
 102   2.0000      -0.411008       -11.1841
 103   2.0000      -0.407604       -11.0915
 104   2.0000      -0.398763       -10.8509
 105   2.0000      -0.392001       -10.6669
 106   2.0000      -0.389688       -10.6039
 107   2.0000      -0.382962       -10.4209
 108   2.0000      -0.374964       -10.2033
 109   2.0000      -0.372220       -10.1286
 110   2.0000      -0.367503       -10.0003
 111   2.0000      -0.363705        -9.8969
 112   2.0000      -0.361920        -9.8483
 113   2.0000      -0.359905        -9.7935
 114   2.0000      -0.357992        -9.7414
 115   2.0000      -0.323500        -8.8029
 116   2.0000      -0.319142        -8.6843
 117   2.0000      -0.317636        -8.6433
 118   2.0000      -0.303810        -8.2671
 119   2.0000      -0.296157        -8.0589
 120   2.0000      -0.286770        -7.8034
 121   2.0000      -0.276109        -7.5133
 122   2.0000      -0.264658        -7.2017
 123   2.0000      -0.253061        -6.8861
 124   2.0000      -0.249875        -6.7994
 125   2.0000      -0.236864        -6.4454
 126   2.0000      -0.226202        -6.1553
 127   0.0000      -0.036809        -1.0016
 128   0.0000      -0.027943        -0.7604
 129   0.0000      -0.025333        -0.6893
 130   0.0000      -0.018566        -0.5052
 131   0.0000      -0.008446        -0.2298

MULLIKEN ATOMIC CHARGES
-----------------------
   0 O :   -0.413827
   1 C :    0.325863
   2 N :   -0.340812
   3 C :    0.320724
   4 C :   -0.239139
   5 C :   -0.185045
   6 C :    0.268267
   7 O :   -0.266622
   8 C :    0.589335
   9 F :   -0.175858
  10 F :   -0.174468
  11 F :   -0.157576
  12 C :   -0.168853
  13 C :   -0.179278
  14 N :   -0.088303
  15 C :   -0.159135
  16 C :   -0.263520
  17 C :    0.370312
  18 C :   -0.180731
  19 C :   -0.237278
  20 C :   -0.258693
  21 C :    0.132271
  22 O :   -0.440241
  23 C :   -0.080378
  24 C :   -0.202916
  25 C :   -0.099023
  26 C :   -0.126464
  27 C :   -0.075124
  28 Br:   -0.069503
  29 C :    0.252507
  30 O :   -0.293104
  31 H :    0.227833
  32 H :    0.110098
  33 H :    0.123331
  34 H :    0.122109
  35 H :    0.129992
  36 H :    0.104067
  37 H :    0.153104
  38 H :    0.114890
  39 H :    0.112668
  40 H :    0.103591
  41 H :    0.109053
  42 H :    0.103474
  43 H :    0.140192
  44 H :    0.117029
  45 H :    0.084191
  46 H :    0.099955
  47 H :    0.299250
  48 H :    0.122350
  49 H :    0.112865
  50 H :    0.126572
Sum of atomic charges:   -0.0000000

LOEWDIN ATOMIC CHARGES
----------------------
   0 O :    0.011212
   1 C :   -0.410031
   2 N :    0.123688
   3 C :   -0.179234
   4 C :   -0.119677
   5 C :   -0.122889
   6 C :   -0.212813
   7 O :    0.256180
   8 C :   -0.617812
   9 F :    0.153017
  10 F :    0.154031
  11 F :    0.164666
  12 C :   -0.104292
  13 C :   -0.092194
  14 N :    0.162975
  15 C :   -0.243696
  16 C :   -0.206119
  17 C :   -0.324300
  18 C :   -0.203781
  19 C :   -0.265098
  20 C :   -0.191062
  21 C :   -0.314395
  22 O :   -0.000239
  23 C :   -0.119867
  24 C :   -0.103499
  25 C :   -0.146105
  26 C :   -0.139542
  27 C :   -0.346141
  28 Br:    0.336732
  29 C :   -0.188140
  30 O :    0.282309
  31 H :    0.195274
  32 H :    0.143316
  33 H :    0.147253
  34 H :    0.151790
  35 H :    0.154958
  36 H :    0.126880
  37 H :    0.154007
  38 H :    0.145254
  39 H :    0.151586
  40 H :    0.145011
  41 H :    0.150362
  42 H :    0.122636
  43 H :    0.143446
  44 H :    0.142529
  45 H :    0.143833
  46 H :    0.153744
  47 H :    0.191799
  48 H :    0.150838
  49 H :    0.143806
  50 H :    0.147792

  Mayer bond orders larger than 0.100000
B(  0-O ,  1-C ) :   1.9193 B(  1-C ,  2-N ) :   1.0998 B(  1-C , 14-N ) :   1.1641
B(  2-N ,  3-C ) :   0.9004 B(  2-N , 31-H ) :   0.9046 B(  3-C ,  4-C ) :   1.3629
B(  3-C , 13-C ) :   1.3962 B(  4-C ,  5-C ) :   1.4429 B(  4-C , 32-H ) :   0.9579
B(  5-C ,  6-C ) :   1.3593 B(  5-C , 33-H ) :   0.9507 B(  6-C ,  7-O ) :   0.9640
B(  6-C , 12-C ) :   1.3864 B(  7-O ,  8-C ) :   1.1340 B(  8-C ,  9-F ) :   1.1005
B(  8-C , 10-F ) :   1.1030 B(  8-C , 11-F ) :   1.1576 B( 12-C , 13-C ) :   1.4250
B( 12-C , 34-H ) :   0.9761 B( 13-C , 35-H ) :   0.9571 B( 14-N , 15-C ) :   0.9103
B( 14-N , 19-C ) :   0.9540 B( 15-C , 16-C ) :   0.9690 B( 15-C , 36-H ) :   0.9609
B( 15-C , 37-H ) :   0.9497 B( 16-C , 17-C ) :   0.9417 B( 16-C , 38-H ) :   0.9671
B( 16-C , 39-H ) :   0.9613 B( 17-C , 18-C ) :   0.9134 B( 17-C , 20-C ) :   0.8894
B( 17-C , 30-O ) :   0.8955 B( 18-C , 19-C ) :   0.9880 B( 18-C , 40-H ) :   0.9769
B( 18-C , 41-H ) :   0.9536 B( 19-C , 42-H ) :   0.9499 B( 19-C , 43-H ) :   0.9505
B( 20-C , 21-C ) :   1.0106 B( 20-C , 44-H ) :   0.9665 B( 20-C , 45-H ) :   0.9401
B( 21-C , 22-O ) :   0.9756 B( 21-C , 23-C ) :   0.9894 B( 21-C , 46-H ) :   0.9389
B( 22-O , 47-H ) :   0.8821 B( 23-C , 24-C ) :   1.3486 B( 23-C , 29-C ) :   1.3153
B( 24-C , 25-C ) :   1.4058 B( 24-C , 48-H ) :   0.9678 B( 25-C , 26-C ) :   1.3865
B( 25-C , 49-H ) :   0.9759 B( 26-C , 27-C ) :   1.3508 B( 26-C , 50-H ) :   0.9673
B( 27-C , 28-Br) :   1.1313 B( 27-C , 29-C ) :   1.2891 B( 29-C , 30-O ) :   1.1314

FINAL SINGLE POINT ENERGY     -4096.023913762323

DIPOLE MOMENT
-------------

Method             : SCF
Type of density    : Electron Density
Multiplicity       :   1
Irrep              :   0
Energy             : -4096.0239137623229908 Eh
Relativity type    :
Basis              : AO
                                X                 Y                 Z
Electronic contribution:     -0.844678977     -37.919839352      20.931272493
Nuclear contribution   :     -0.530013624      37.912290404     -22.535014328
                        -----------------------------------------
Total Dipole Moment    :     -1.374692601      -0.007548948      -1.603741835
                        -----------------------------------------
Magnitude (a.u.)       :      2.112303152
Magnitude (Debye)      :      5.369047928

Rotational constants in cm-1:             0.011122             0.000997             0.000943
Rotational constants in MHz :           333.414336            29.888482            28.284294

                             ****ORCA TERMINATED NORMALLY****
TOTAL RUN TIME: 0 days 0 hours 18 minutes 57 seconds 952 msec
