                         Program Version 6.0.0  -   RELEASE  -
|  1> ! B3LYP 6-31G* SP
|  2>
|  3> * xyz 0 1
|  4> C 6.0289 -0.1716 1.2261
|  5> C 5.5141 0.5503 -0.0122
|  6> N 4.0980 0.8588 0.1388
|  7> N 3.6301 1.9665 0.6881
|  8> N 2.3090 1.9014 0.7224
|  9> C 2.0063 0.7043 0.1793
| 10> C 0.6378 0.1965 0.0178
| 11> S -0.7599 1.0194 0.4627
| 12> C -1.7855 -0.2235 -0.0388
| 13> C -3.2608 -0.1645 -0.0483
| 14> C -3.9388 -0.5765 -1.2092
| 15> C -5.3287 -0.4697 -1.2963
| 16> C -6.0586 0.0468 -0.2259
| 17> C -5.4024 0.4379 0.9427
| 18> C -4.0114 0.3166 1.0530
| 19> O -3.4213 0.6441 2.2749
| 20> N -1.0836 -1.2479 -0.5761
| 21> C 0.2574 -1.0238 -0.5347
| 22> O 1.1700 -1.9543 -1.0209
| 23> N 3.1168 0.0345 -0.1853
| 24> H 5.8994 0.4702 2.1234
| 25> H 5.4727 -1.1218 1.3729
| 26> H 7.1079 -0.4025 1.1025
| 27> H 6.0884 1.4903 -0.1599
| 28> H 5.6631 -0.0933 -0.9060
| 29> H -3.3883 -0.9563 -2.0615
| 30> H -5.8392 -0.7783 -2.1995
| 31> H -7.1350 0.1344 -0.2973
| 32> H -5.9798 0.8149 1.7774
| 33> H -2.4597 0.4276 2.4990
| 34> H 0.8536 -2.8304 -1.4184
| 35> *
| 36>
| 37>                          ****END OF INPUT****

CARTESIAN COORDINATES (ANGSTROEM)
---------------------------------
  C      6.028900   -0.171600    1.226100
  C      5.514100    0.550300   -0.012200
  N      4.098000    0.858800    0.138800
  N      3.630100    1.966500    0.688100
  N      2.309000    1.901400    0.722400
  C      2.006300    0.704300    0.179300
  C      0.637800    0.196500    0.017800
  S     -0.759900    1.019400    0.462700
  C     -1.785500   -0.223500   -0.038800
  C     -3.260800   -0.164500   -0.048300
  C     -3.938800   -0.576500   -1.209200
  C     -5.328700   -0.469700   -1.296300
  C     -6.058600    0.046800   -0.225900
  C     -5.402400    0.437900    0.942700
  C     -4.011400    0.316600    1.053000
  O     -3.421300    0.644100    2.274900
  N     -1.083600   -1.247900   -0.576100
  C      0.257400   -1.023800   -0.534700
  O      1.170000   -1.954300   -1.020900
  N      3.116800    0.034500   -0.185300
  H      5.899400    0.470200    2.123400
  H      5.472700   -1.121800    1.372900
  H      7.107900   -0.402500    1.102500
  H      6.088400    1.490300   -0.159900
  H      5.663100   -0.093300   -0.906000
  H     -3.388300   -0.956300   -2.061500
  H     -5.839200   -0.778300   -2.199500
  H     -7.135000    0.134400   -0.297300
  H     -5.979800    0.814900    1.777400
  H     -2.459700    0.427600    2.499000
  H      0.853600   -2.830400   -1.418400

 Total Charge           Charge          ....    0
 Multiplicity           Mult            ....    1
 Number of Electrons    NEL             ....  150
 Basis Dimension        Dim             ....  306

ORBITAL ENERGIES
----------------

  NO   OCC          E(Eh)            E(eV)
   0   2.0000     -88.906924     -2419.2804
   1   2.0000     -19.175583      -521.7941
   2   2.0000     -19.169431      -521.6267
   3   2.0000     -14.455265      -393.3478
   4   2.0000     -14.393517      -391.6675
   5   2.0000     -14.363947      -390.8629
   6   2.0000     -14.356618      -390.6634
   7   2.0000     -14.335357      -390.0849
   8   2.0000     -10.284493      -279.8553
   9   2.0000     -10.258830      -279.1570
  10   2.0000     -10.258755      -279.1549
  11   2.0000     -10.252415      -278.9824
  12   2.0000     -10.248627      -278.8793
  13   2.0000     -10.222021      -278.1553
  14   2.0000     -10.205300      -277.7003
  15   2.0000     -10.192958      -277.3645
  16   2.0000     -10.190117      -277.2872
  17   2.0000     -10.189227      -277.2630
  18   2.0000     -10.184079      -277.1229
  19   2.0000     -10.179702      -277.0038
  20   2.0000      -7.983430      -217.2402
  21   2.0000      -5.946473      -161.8118
  22   2.0000      -5.942394      -161.7008
  23   2.0000      -5.940464      -161.6482
  24   2.0000      -1.142630       -31.0925
  25   2.0000      -1.045366       -28.4459
  26   2.0000      -1.034951       -28.1625
  27   2.0000      -0.963115       -26.2077
  28   2.0000      -0.946010       -25.7423
  29   2.0000      -0.892597       -24.2888
  30   2.0000      -0.854156       -23.2428
  31   2.0000      -0.820137       -22.3171
  32   2.0000      -0.789552       -21.4848
  33   2.0000      -0.778801       -21.1922
  34   2.0000      -0.743098       -20.2207
  35   2.0000      -0.729082       -19.8393
  36   2.0000      -0.685253       -18.6467
  37   2.0000      -0.662669       -18.0321
  38   2.0000      -0.636136       -17.3101
  39   2.0000      -0.611117       -16.6293
  40   2.0000      -0.608352       -16.5541
  41   2.0000      -0.586059       -15.9475
  42   2.0000      -0.582387       -15.8476
  43   2.0000      -0.540456       -14.7066
  44   2.0000      -0.531069       -14.4511
  45   2.0000      -0.520116       -14.1531
  46   2.0000      -0.504500       -13.7282
  47   2.0000      -0.496045       -13.4981
  48   2.0000      -0.472724       -12.8635
  49   2.0000      -0.470313       -12.7979
  50   2.0000      -0.459172       -12.4947
  51   2.0000      -0.441578       -12.0159
  52   2.0000      -0.436537       -11.8788
  53   2.0000      -0.426429       -11.6037
  54   2.0000      -0.412084       -11.2134
  55   2.0000      -0.401518       -10.9259
  56   2.0000      -0.393924       -10.7192
  57   2.0000      -0.387091       -10.5333
  58   2.0000      -0.379937       -10.3386
  59   2.0000      -0.374052       -10.1785
  60   2.0000      -0.372422       -10.1341
  61   2.0000      -0.366779        -9.9806
  62   2.0000      -0.356936        -9.7127
  63   2.0000      -0.354662        -9.6509
  64   2.0000      -0.338389        -9.2080
  65   2.0000      -0.328424        -8.9369
  66   2.0000      -0.318442        -8.6652
  67   2.0000      -0.307215        -8.3598
  68   2.0000      -0.292799        -7.9675
  69   2.0000      -0.286289        -7.7903
  70   2.0000      -0.278814        -7.5869
  71   2.0000      -0.272065        -7.4033
  72   2.0000      -0.259329        -7.0567
  73   2.0000      -0.230124        -6.2620
  74   2.0000      -0.208273        -5.6674
  75   0.0000      -0.053215        -1.4481
  76   0.0000      -0.017708        -0.4819
  77   0.0000      -0.001391        -0.0379
  78   0.0000       0.007737         0.2105
  79   0.0000       0.024562         0.6684

MULLIKEN ATOMIC CHARGES
-----------------------
   0 C :   -0.445999
   1 C :   -0.143258
   2 N :   -0.029767
   3 N :   -0.067064
   4 N :   -0.326678
   5 C :    0.408798
   6 C :   -0.218181
   7 S :    0.287160
   8 C :   -0.066542
   9 C :    0.082020
  10 C :   -0.146131
  11 C :   -0.139681
  12 C :   -0.113396
  13 C :   -0.168823
  14 C :    0.324191
  15 O :   -0.672105
  16 N :   -0.402731
  17 C :    0.481568
  18 O :   -0.635257
  19 N :   -0.300621
  20 H :    0.173347
  21 H :    0.174776
  22 H :    0.156615
  23 H :    0.187979
  24 H :    0.188557
  25 H :    0.150728
  26 H :    0.130121
  27 H :    0.136523
  28 H :    0.145232
  29 H :    0.424340
  30 H :    0.424281
Sum of atomic charges:    0.0000000

LOEWDIN ATOMIC CHARGES
----------------------
   0 C :   -0.362389
   1 C :   -0.152416
   2 N :    0.097011
   3 N :   -0.076641
   4 N :   -0.128051
   5 C :   -0.006183
   6 C :   -0.251945
   7 S :    0.423757
   8 C :   -0.123124
   9 C :   -0.071514
  10 C :   -0.098142
  11 C :   -0.148689
  12 C :   -0.112080
  13 C :   -0.149165
  14 C :    0.095415
  15 O :   -0.347150
  16 N :   -0.180379
  17 C :    0.090873
  18 O :   -0.325817
  19 N :   -0.124019
  20 H :    0.138540
  21 H :    0.139157
  22 H :    0.134571
  23 H :    0.149839
  24 H :    0.150482
  25 H :    0.144830
  26 H :    0.133214
  27 H :    0.136509
  28 H :    0.144407
  29 H :    0.335188
  30 H :    0.343911

  Mayer bond orders larger than 0.100000
B(  0-C ,  1-C ) :   1.0039 B(  0-C , 20-H ) :   0.9441 B(  0-C , 21-H ) :   0.9436
B(  0-C , 22-H ) :   0.9425 B(  1-C ,  2-N ) :   0.8989 B(  1-C , 23-H ) :   0.9271
B(  1-C , 24-H ) :   0.9265 B(  2-N ,  3-N ) :   1.2407 B(  2-N , 19-N ) :   1.2216
B(  3-N ,  4-N ) :   1.4311 B(  3-N , 19-N ) :   0.1313 B(  4-N ,  5-C ) :   1.2854
B(  5-C ,  6-C ) :   1.0410 B(  5-C , 19-N ) :   1.3861 B(  6-C ,  7-S ) :   1.0840
B(  6-C ,  8-C ) :   0.1254 B(  6-C , 17-C ) :   1.4278 B(  7-S ,  8-C ) :   1.1500
B(  8-C ,  9-C ) :   0.9670 B(  8-C , 16-N ) :   1.4608 B(  9-C , 10-C ) :   1.4064
B(  9-C , 14-C ) :   1.3203 B( 10-C , 11-C ) :   1.4454 B( 10-C , 25-H ) :   0.9190
B( 11-C , 12-C ) :   1.4340 B( 11-C , 26-H ) :   0.9295 B( 12-C , 13-C ) :   1.4564
B( 12-C , 27-H ) :   0.9292 B( 13-C , 14-C ) :   1.3933 B( 13-C , 28-H ) :   0.9183
B( 14-C , 15-O ) :   0.9384 B( 15-O , 29-H ) :   0.7334 B( 16-N , 17-C ) :   1.2929
B( 17-C , 18-O ) :   0.9958 B( 18-O , 30-H ) :   0.7553

FINAL SINGLE POINT ENERGY     -1285.638129393949

DIPOLE MOMENT
-------------

Method             : SCF
Type of density    : Electron Density
Multiplicity       :   1
Irrep              :   0
Energy             : -1285.6381293939489296 Eh
Relativity type    :
Basis              : AO
                                X                 Y                 Z
Electronic contribution:     -7.681133017       3.574528095      -0.474273062
Nuclear contribution   :      8.426680075      -4.613577980      -0.003190161
                        -----------------------------------------
Total Dipole Moment    :      0.745547058      -1.039049885      -0.477463222
                        -----------------------------------------
Magnitude (a.u.)       :      1.365077363
Magnitude (Debye)      :      3.469750912

Rotational constants in cm-1:             0.034235             0.004398             0.004086
Rotational constants in MHz :          1026.339498           131.835832           122.494237

                             ****ORCA TERMINATED NORMALLY****
TOTAL RUN TIME: 0 days 0 hours 3 minutes 19 seconds 406 msec
