                         Program Version 6.0.0  -   RELEASE  -
|  1> ! B3LYP 6-31G* SP
|  2>
|  3> * xyz 0 1
|  4> O -0.3823 7.1758 2.0404
|  5> C -0.9294 6.1168 2.4515
|  6> O -1.2389 5.9901 3.8033
|  7> C -1.2399 5.0192 1.5094
|  8> C -0.9299 5.1372 0.1424
|  9> C -1.2207 4.0949 -0.7424
| 10> C -1.8253 2.9213 -0.2758
| 11> S -2.1393 1.5825 -1.3748
| 12> O -2.2921 2.0865 -2.7827
| 13> O -3.4232 0.9124 -0.9693
| 14> N -0.8215 0.4496 -1.3048
| 15> C -0.9916 -0.7005 -0.4535
| 16> N -1.0284 -0.4953 0.8899
| 17> C -1.1061 -1.5061 1.7858
| 18> C -1.1070 -2.8300 1.3472
| 19> C -1.1216 -3.8818 2.2762
| 20> C -1.0859 -5.2054 1.8376
| 21> C -1.0277 -5.4880 0.4736
| 22> C -1.0194 -4.4502 -0.4619
| 23> C -1.0783 -3.1015 -0.0434
| 24> C -1.0930 -2.0199 -0.9668
| 25> C -1.1506 -2.2814 -2.4602
| 26> C -2.4224 -2.9872 -2.9259
| 27> C -2.2086 -1.5292 -3.2613
| 28> C 0.5273 0.9575 -1.6405
| 29> C 1.1900 0.1482 -2.7735
| 30> C 2.2285 -0.7768 -2.1121
| 31> C 2.4069 -0.1866 -0.7642
| 32> C 3.3593 -0.5509 0.1896
| 33> C 3.3738 0.1217 1.4335
| 34> O 4.2944 -0.1841 2.4484
| 35> C 5.2989 -1.1932 2.3706
| 36> F 6.0067 -1.2135 3.5566
| 37> F 6.1728 -0.9171 1.3344
| 38> F 4.7155 -2.4327 2.1782
| 39> C 2.4321 1.1406 1.6768
| 40> C 1.4800 1.4822 0.7060
| 41> C 1.4816 0.7934 -0.5080
| 42> C -2.1372 2.7980 1.0836
| 43> C -1.8480 3.8387 1.9705
| 44> H -1.0307 6.7357 4.4568
| 45> H -0.4584 6.0325 -0.2431
| 46> H -0.9635 4.2009 -1.7885
| 47> H -1.1308 -1.2716 2.8428
| 48> H -1.1510 -3.6797 3.3405
| 49> H -1.0921 -6.0139 2.5573
| 50> H -0.9846 -6.5164 0.1387
| 51> H -0.9492 -4.7174 -1.5070
| 52> H -0.2421 -2.6229 -2.9984
| 53> H -3.2025 -3.1575 -2.1522
| 54> H -2.2832 -3.6714 -3.7896
| 55> H -1.9509 -1.3543 -4.3268
| 56> H -2.9114 -0.8779 -2.7089
| 57> H 0.4838 2.0292 -1.9332
| 58> H 0.4599 -0.4052 -3.3926
| 59> H 1.7240 0.8518 -3.4504
| 60> H 1.8355 -1.8105 -2.0160
| 61> H 3.1855 -0.7782 -2.6769
| 62> H 4.0639 -1.3371 -0.0415
| 63> H 2.4357 1.6630 2.6250
| 64> H 0.7533 2.2578 0.9023
| 65> H -2.5950 1.8921 1.4601
| 66> H -2.0961 3.7157 3.0172
| 67> *
| 68>
| 69>                          ****END OF INPUT****

CARTESIAN COORDINATES (ANGSTROEM)
---------------------------------
  O     -0.382300    7.175800    2.040400
  C     -0.929400    6.116800    2.451500
  O     -1.238900    5.990100    3.803300
  C     -1.239900    5.019200    1.509400
  C     -0.929900    5.137200    0.142400
  C     -1.220700    4.094900   -0.742400
  C     -1.825300    2.921300   -0.275800
  S     -2.139300    1.582500   -1.374800
  O     -2.292100    2.086500   -2.782700
  O     -3.423200    0.912400   -0.969300
  N     -0.821500    0.449600   -1.304800
  C     -0.991600   -0.700500   -0.453500
  N     -1.028400   -0.495300    0.889900
  C     -1.106100   -1.506100    1.785800
  C     -1.107000   -2.830000    1.347200
  C     -1.121600   -3.881800    2.276200
  C     -1.085900   -5.205400    1.837600
  C     -1.027700   -5.488000    0.473600
  C     -1.019400   -4.450200   -0.461900
  C     -1.078300   -3.101500   -0.043400
  C     -1.093000   -2.019900   -0.966800
  C     -1.150600   -2.281400   -2.460200
  C     -2.422400   -2.987200   -2.925900
  C     -2.208600   -1.529200   -3.261300
  C      0.527300    0.957500   -1.640500
  C      1.190000    0.148200   -2.773500
  C      2.228500   -0.776800   -2.112100
  C      2.406900   -0.186600   -0.764200
  C      3.359300   -0.550900    0.189600
  C      3.373800    0.121700    1.433500
  O      4.294400   -0.184100    2.448400
  C      5.298900   -1.193200    2.370600
  F      6.006700   -1.213500    3.556600
  F      6.172800   -0.917100    1.334400
  F      4.715500   -2.432700    2.178200
  C      2.432100    1.140600    1.676800
  C      1.480000    1.482200    0.706000
  C      1.481600    0.793400   -0.508000
  C     -2.137200    2.798000    1.083600
  C     -1.848000    3.838700    1.970500
  H     -1.030700    6.735700    4.456800
  H     -0.458400    6.032500   -0.243100
  H     -0.963500    4.200900   -1.788500
  H     -1.130800   -1.271600    2.842800
  H     -1.151000   -3.679700    3.340500
  H     -1.092100   -6.013900    2.557300
  H     -0.984600   -6.516400    0.138700
  H     -0.949200   -4.717400   -1.507000
  H     -0.242100   -2.622900   -2.998400
  H     -3.202500   -3.157500   -2.152200
  H     -2.283200   -3.671400   -3.789600
  H     -1.950900   -1.354300   -4.326800
  H     -2.911400   -0.877900   -2.708900
  H      0.483800    2.029200   -1.933200
  H      0.459900   -0.405200   -3.392600
  H      1.724000    0.851800   -3.450400
  H      1.835500   -1.810500   -2.016000
  H      3.185500   -0.778200   -2.676900
  H      4.063900   -1.337100   -0.041500
  H      2.435700    1.663000    2.625000
  H      0.753300    2.257800    0.902300
  H     -2.595000    1.892100    1.460100
  H     -2.096100    3.715700    3.017200

 Total Charge           Charge          ....    0
 Multiplicity           Mult            ....    1
 Number of Electrons    NEL             ....  294
 Basis Dimension        Dim             ....  610

ORBITAL ENERGIES
----------------

  NO   OCC          E(Eh)            E(eV)
   0   2.0000     -89.093181     -2424.3487
   1   2.0000     -24.741396      -673.2476
   2   2.0000     -24.738913      -673.1800
   3   2.0000     -24.738746      -673.1755
   4   2.0000     -19.211884      -522.7820
   5   2.0000     -19.195561      -522.3378
   6   2.0000     -19.137020      -520.7448
   7   2.0000     -19.123845      -520.3863
   8   2.0000     -19.123783      -520.3846
   9   2.0000     -14.368670      -390.9914
  10   2.0000     -14.333870      -390.0444
  11   2.0000     -10.503624      -285.8181
  12   2.0000     -10.334402      -281.2134
  13   2.0000     -10.268052      -279.4079
  14   2.0000     -10.262137      -279.2470
  15   2.0000     -10.238271      -278.5975
  16   2.0000     -10.235671      -278.5268
  17   2.0000     -10.230332      -278.3815
  18   2.0000     -10.227775      -278.3119
  19   2.0000     -10.218453      -278.0583
  20   2.0000     -10.215649      -277.9819
  21   2.0000     -10.215327      -277.9732
  22   2.0000     -10.214655      -277.9549
  23   2.0000     -10.211811      -277.8775
  24   2.0000     -10.208091      -277.7763
  25   2.0000     -10.201579      -277.5991
  26   2.0000     -10.198661      -277.5197
  27   2.0000     -10.198239      -277.5082
  28   2.0000     -10.197201      -277.4799
  29   2.0000     -10.196722      -277.4669
  30   2.0000     -10.195156      -277.4243
  31   2.0000     -10.193650      -277.3833
  32   2.0000     -10.192960      -277.3645
  33   2.0000     -10.191320      -277.3199
  34   2.0000     -10.190876      -277.3078
  35   2.0000     -10.186956      -277.2012
  36   2.0000     -10.182065      -277.0681
  37   2.0000     -10.181737      -277.0592
  38   2.0000     -10.178331      -276.9665
  39   2.0000     -10.174850      -276.8717
  40   2.0000      -8.129202      -221.2068
  41   2.0000      -6.094011      -165.8265
  42   2.0000      -6.092358      -165.7815
  43   2.0000      -6.091864      -165.7681
  44   2.0000      -1.304090       -35.4861
  45   2.0000      -1.224721       -33.3264
  46   2.0000      -1.224490       -33.3201
  47   2.0000      -1.081623       -29.4325
  48   2.0000      -1.081167       -29.4200
  49   2.0000      -1.080095       -29.3909
  50   2.0000      -0.994208       -27.0538
  51   2.0000      -0.964348       -26.2412
  52   2.0000      -0.959665       -26.1138
  53   2.0000      -0.917675       -24.9712
  54   2.0000      -0.888208       -24.1694
  55   2.0000      -0.876098       -23.8398
  56   2.0000      -0.866960       -23.5912
  57   2.0000      -0.853166       -23.2158
  58   2.0000      -0.819375       -22.2963
  59   2.0000      -0.804152       -21.8821
  60   2.0000      -0.787881       -21.4393
  61   2.0000      -0.777098       -21.1459
  62   2.0000      -0.774058       -21.0632
  63   2.0000      -0.765864       -20.8402
  64   2.0000      -0.745730       -20.2923
  65   2.0000      -0.735774       -20.0214
  66   2.0000      -0.712394       -19.3852
  67   2.0000      -0.700771       -19.0689
  68   2.0000      -0.688825       -18.7439
  69   2.0000      -0.661954       -18.0127
  70   2.0000      -0.652485       -17.7550
  71   2.0000      -0.638130       -17.3644
  72   2.0000      -0.635418       -17.2906
  73   2.0000      -0.626496       -17.0478
  74   2.0000      -0.621558       -16.9135
  75   2.0000      -0.610561       -16.6142
  76   2.0000      -0.602635       -16.3985
  77   2.0000      -0.596148       -16.2220
  78   2.0000      -0.587704       -15.9922
  79   2.0000      -0.585657       -15.9365
  80   2.0000      -0.579729       -15.7752
  81   2.0000      -0.572066       -15.5667
  82   2.0000      -0.559885       -15.2353
  83   2.0000      -0.553637       -15.0652
  84   2.0000      -0.539843       -14.6899
  85   2.0000      -0.530331       -14.4310
  86   2.0000      -0.526852       -14.3364
  87   2.0000      -0.507375       -13.8064
  88   2.0000      -0.504837       -13.7373
  89   2.0000      -0.489452       -13.3187
  90   2.0000      -0.489159       -13.3107
  91   2.0000      -0.480567       -13.0769
  92   2.0000      -0.479112       -13.0373
  93   2.0000      -0.471946       -12.8423
  94   2.0000      -0.469823       -12.7845
  95   2.0000      -0.468681       -12.7535
  96   2.0000      -0.467741       -12.7279
  97   2.0000      -0.459524       -12.5043
  98   2.0000      -0.457298       -12.4437
  99   2.0000      -0.455463       -12.3938
 100   2.0000      -0.452393       -12.3102
 101   2.0000      -0.448265       -12.1979
 102   2.0000      -0.445547       -12.1240
 103   2.0000      -0.444822       -12.1042
 104   2.0000      -0.441133       -12.0038
 105   2.0000      -0.437969       -11.9177
 106   2.0000      -0.432741       -11.7755
 107   2.0000      -0.430176       -11.7057
 108   2.0000      -0.426896       -11.6164
 109   2.0000      -0.423884       -11.5345
 110   2.0000      -0.417794       -11.3687
 111   2.0000      -0.416469       -11.3327
 112   2.0000      -0.413679       -11.2568
 113   2.0000      -0.412230       -11.2174
 114   2.0000      -0.404393       -11.0041
 115   2.0000      -0.391624       -10.6566
 116   2.0000      -0.388955       -10.5840
 117   2.0000      -0.387579       -10.5466
 118   2.0000      -0.383763       -10.4427
 119   2.0000      -0.377777       -10.2798
 120   2.0000      -0.372903       -10.1472
 121   2.0000      -0.370640       -10.0856
 122   2.0000      -0.365935        -9.9576
 123   2.0000      -0.363500        -9.8913
 124   2.0000      -0.361290        -9.8312
 125   2.0000      -0.357335        -9.7236
 126   2.0000      -0.353687        -9.6243
 127   2.0000      -0.350605        -9.5404
 128   2.0000      -0.339977        -9.2513
 129   2.0000      -0.330206        -8.9854
 130   2.0000      -0.323316        -8.7979
 131   2.0000      -0.319995        -8.7075
 132   2.0000      -0.308571        -8.3967
 133   2.0000      -0.304957        -8.2983
 134   2.0000      -0.295249        -8.0341
 135   2.0000      -0.287767        -7.8305
 136   2.0000      -0.282742        -7.6938
 137   2.0000      -0.278083        -7.5670
 138   2.0000      -0.274789        -7.4774
 139   2.0000      -0.273246        -7.4354
 140   2.0000      -0.270645        -7.3646
 141   2.0000      -0.267745        -7.2857
 142   2.0000      -0.256790        -6.9876
 143   2.0000      -0.250829        -6.8254
 144   2.0000      -0.247081        -6.7234
 145   2.0000      -0.233420        -6.3517
 146   2.0000      -0.224907        -6.1200
 147   0.0000      -0.080920        -2.2019
 148   0.0000      -0.063969        -1.7407
 149   0.0000      -0.035964        -0.9786
 150   0.0000      -0.029080        -0.7913
 151   0.0000      -0.014998        -0.4081

MULLIKEN ATOMIC CHARGES
-----------------------
   0 O :   -0.444569
   1 C :    0.527898
   2 O :   -0.623782
   3 C :    0.082178
   4 C :   -0.141854
   5 C :   -0.154519
   6 C :   -0.135547
   7 S :    1.240582
   8 O :   -0.548028
   9 O :   -0.566324
  10 N :   -0.594619
  11 C :    0.327045
  12 N :   -0.391064
  13 C :   -0.042285
  14 C :    0.137305
  15 C :   -0.203437
  16 C :   -0.125020
  17 C :   -0.122263
  18 C :   -0.185870
  19 C :    0.116044
  20 C :    0.052910
  21 C :   -0.192182
  22 C :   -0.315319
  23 C :   -0.310345
  24 C :   -0.080666
  25 C :   -0.288096
  26 C :   -0.359378
  27 C :    0.140822
  28 C :   -0.251489
  29 C :    0.350530
  30 O :   -0.547644
  31 C :    1.089379
  32 F :   -0.280036
  33 F :   -0.292082
  34 F :   -0.292482
  35 C :   -0.182067
  36 C :   -0.146799
  37 C :    0.110120
  38 C :   -0.125566
  39 C :   -0.154967
  40 H :    0.433912
  41 H :    0.179949
  42 H :    0.183394
  43 H :    0.150839
  44 H :    0.138842
  45 H :    0.136473
  46 H :    0.138187
  47 H :    0.148237
  48 H :    0.154519
  49 H :    0.162712
  50 H :    0.140997
  51 H :    0.147091
  52 H :    0.208076
  53 H :    0.167914
  54 H :    0.175830
  55 H :    0.148171
  56 H :    0.158136
  57 H :    0.153859
  58 H :    0.144716
  59 H :    0.143216
  60 H :    0.145586
  61 H :    0.191012
  62 H :    0.171820
Sum of atomic charges:   -0.0000000

LOEWDIN ATOMIC CHARGES
----------------------
   0 O :   -0.260915
   1 C :    0.179630
   2 O :   -0.334865
   3 C :   -0.041749
   4 C :   -0.089194
   5 C :   -0.112766
   6 C :   -0.175885
   7 S :    1.264333
   8 O :   -0.571665
   9 O :   -0.575707
  10 N :   -0.266519
  11 C :    0.039344
  12 N :   -0.130741
  13 C :   -0.055111
  14 C :   -0.028501
  15 C :   -0.112646
  16 C :   -0.125014
  17 C :   -0.117762
  18 C :   -0.117252
  19 C :   -0.002709
  20 C :   -0.004875
  21 C :   -0.148723
  22 C :   -0.256819
  23 C :   -0.243644
  24 C :   -0.050174
  25 C :   -0.226410
  26 C :   -0.227130
  27 C :   -0.011824
  28 C :   -0.167603
  29 C :    0.091169
  30 O :   -0.160102
  31 C :    0.359219
  32 F :   -0.088112
  33 F :   -0.105092
  34 F :   -0.105420
  35 C :   -0.145950
  36 C :   -0.102824
  37 C :   -0.045814
  38 C :   -0.094027
  39 C :   -0.103014
  40 H :    0.349638
  41 H :    0.160006
  42 H :    0.158258
  43 H :    0.136459
  44 H :    0.137031
  45 H :    0.135667
  46 H :    0.136815
  47 H :    0.144513
  48 H :    0.133683
  49 H :    0.138245
  50 H :    0.127313
  51 H :    0.132725
  52 H :    0.158935
  53 H :    0.141802
  54 H :    0.142296
  55 H :    0.129741
  56 H :    0.132261
  57 H :    0.133440
  58 H :    0.139616
  59 H :    0.143039
  60 H :    0.143012
  61 H :    0.164047
  62 H :    0.154320

  Mayer bond orders larger than 0.100000
B(  0-O ,  1-C ) :   1.8631 B(  1-C ,  2-O ) :   1.0246 B(  1-C ,  3-C ) :   1.0084
B(  2-O , 40-H ) :   0.7419 B(  3-C ,  4-C ) :   1.4038 B(  3-C , 39-C ) :   1.3773
B(  4-C ,  5-C ) :   1.4146 B(  4-C , 41-H ) :   0.9098 B(  5-C ,  6-C ) :   1.3821
B(  5-C , 42-H ) :   0.9091 B(  6-C ,  7-S ) :   0.8082 B(  6-C , 38-C ) :   1.3967
B(  7-S ,  8-O ) :   1.6433 B(  7-S ,  9-O ) :   1.5785 B(  7-S , 10-N ) :   0.8043
B( 10-N , 11-C ) :   0.9062 B( 10-N , 24-C ) :   0.9053 B( 11-C , 12-N ) :   1.2558
B( 11-C , 20-C ) :   1.4337 B( 12-N , 13-C ) :   1.4906 B( 13-C , 14-C ) :   1.2418
B( 13-C , 43-H ) :   0.9254 B( 14-C , 15-C ) :   1.2820 B( 14-C , 19-C ) :   1.2862
B( 15-C , 16-C ) :   1.5144 B( 15-C , 18-C ) :   0.1055 B( 15-C , 44-H ) :   0.9234
B( 16-C , 17-C ) :   1.3515 B( 16-C , 45-H ) :   0.9292 B( 17-C , 18-C ) :   1.5044
B( 17-C , 46-H ) :   0.9291 B( 18-C , 19-C ) :   1.3018 B( 18-C , 47-H ) :   0.9106
B( 19-C , 20-C ) :   1.2459 B( 20-C , 21-C ) :   1.0296 B( 21-C , 22-C ) :   0.9216
B( 21-C , 23-C ) :   0.9315 B( 21-C , 48-H ) :   0.9120 B( 22-C , 23-C ) :   0.9501
B( 22-C , 49-H ) :   0.9410 B( 22-C , 50-H ) :   0.9434 B( 23-C , 51-H ) :   0.9448
B( 23-C , 52-H ) :   0.9113 B( 24-C , 25-C ) :   0.9735 B( 24-C , 37-C ) :   0.9585
B( 24-C , 53-H ) :   0.9135 B( 25-C , 26-C ) :   0.9926 B( 25-C , 54-H ) :   0.9240
B( 25-C , 55-H ) :   0.9410 B( 26-C , 27-C ) :   0.9801 B( 26-C , 56-H ) :   0.9204
B( 26-C , 57-H ) :   0.9330 B( 27-C , 28-C ) :   1.3891 B( 27-C , 37-C ) :   1.4839
B( 28-C , 29-C ) :   1.3828 B( 28-C , 58-H ) :   0.9076 B( 29-C , 30-O ) :   0.8191
B( 29-C , 35-C ) :   1.3922 B( 30-O , 31-C ) :   0.9916 B( 31-C , 32-F ) :   1.0072
B( 31-C , 33-F ) :   0.9670 B( 31-C , 34-F ) :   0.9669 B( 35-C , 36-C ) :   1.4436
B( 35-C , 59-H ) :   0.9203 B( 36-C , 37-C ) :   1.4002 B( 36-C , 60-H ) :   0.9136
B( 38-C , 39-C ) :   1.4155 B( 38-C , 61-H ) :   0.9028 B( 39-C , 62-H ) :   0.9156

FINAL SINGLE POINT ENERGY     -2301.004842111447

DIPOLE MOMENT
-------------

Method             : SCF
Type of density    : Electron Density
Multiplicity       :   1
Irrep              :   0
Energy             : -2301.0048421114470329 Eh
Relativity type    :
Basis              : AO
                                X                 Y                 Z
Electronic contribution:     28.980923574       7.868966799      24.000470540
Nuclear contribution   :    -28.168939961      -9.199688934     -22.967412126
                        -----------------------------------------
Total Dipole Moment    :      0.811983613      -1.330722136       1.033058414
                        -----------------------------------------
Magnitude (a.u.)       :      1.870119910
Magnitude (Debye)      :      4.753467046

Rotational constants in cm-1:             0.002997             0.002389             0.001677
Rotational constants in MHz :            89.849487            71.617134            50.270110

                             ****ORCA TERMINATED NORMALLY****
TOTAL RUN TIME: 0 days 0 hours 15 minutes 34 seconds 736 msec
