                         Program Version 6.0.0  -   RELEASE  -
|  1> ! B3LYP 6-31G* SP
|  2>
|  3> * xyz 0 1
|  4> C -3.1286 2.4859 -0.4735
|  5> C -3.6659 1.3058 0.3436
|  6> C -4.3366 0.2545 -0.5463
|  7> N -2.6101 0.7074 1.1693
|  8> C -1.4164 0.0931 0.6542
|  9> O -1.2184 0.0282 -0.5896
| 10> N -0.4300 -0.4351 1.5658
| 11> C -0.9096 -1.3730 2.6057
| 12> C -0.1617 -2.7380 2.5632
| 13> C 0.4238 -3.0270 1.1931
| 14> C 0.3723 -4.3161 0.6437
| 15> C 0.8336 -4.5418 -0.6554
| 16> C 1.3247 -3.4803 -1.4193
| 17> C 1.3922 -2.1936 -0.8769
| 18> C 1.0076 -1.9707 0.4595
| 19> C 0.9715 -0.6165 1.1420
| 20> C 1.6093 0.5782 0.4245
| 21> C 1.0620 1.8766 0.5036
| 22> C 1.7112 2.9661 -0.0838
| 23> C 2.9469 2.7984 -0.7258
| 24> C 3.6694 3.9836 -1.3142
| 25> F 4.4489 4.5734 -0.3367
| 26> F 4.4824 3.5882 -2.3624
| 27> F 2.7662 4.9159 -1.7949
| 28> C 3.5573 1.5361 -0.6969
| 29> C 2.9063 0.4478 -0.1106
| 30> H -2.6068 3.2022 0.1962
| 31> H -2.4207 2.1486 -1.2582
| 32> H -3.9700 3.0174 -0.9670
| 33> H -4.4488 1.7078 1.0249
| 34> H -5.2232 0.6959 -1.0494
| 35> H -3.6422 -0.1194 -1.3265
| 36> H -4.6764 -0.6026 0.0731
| 37> H -2.7191 0.7700 2.2066
| 38> H -0.7808 -0.9062 3.6053
| 39> H -1.9956 -1.5781 2.4748
| 40> H 0.6724 -2.7201 3.2973
| 41> H -0.8586 -3.5470 2.8735
| 42> H -0.0456 -5.1387 1.2104
| 43> H 0.7821 -5.5353 -1.0817
| 44> H 1.6396 -3.6523 -2.4405
| 45> H 1.7191 -1.3866 -1.5153
| 46> H 1.5878 -0.7144 2.0648
| 47> H 0.1482 2.0722 1.0446
| 48> H 1.2563 3.9465 -0.0146
| 49> H 4.5474 1.3936 -1.1117
| 50> H 3.4266 -0.5005 -0.0641
| 51> *
| 52>
| 53>                          ****END OF INPUT****

CARTESIAN COORDINATES (ANGSTROEM)
---------------------------------
  C     -3.128600    2.485900   -0.473500
  C     -3.665900    1.305800    0.343600
  C     -4.336600    0.254500   -0.546300
  N     -2.610100    0.707400    1.169300
  C     -1.416400    0.093100    0.654200
  O     -1.218400    0.028200   -0.589600
  N     -0.430000   -0.435100    1.565800
  C     -0.909600   -1.373000    2.605700
  C     -0.161700   -2.738000    2.563200
  C      0.423800   -3.027000    1.193100
  C      0.372300   -4.316100    0.643700
  C      0.833600   -4.541800   -0.655400
  C      1.324700   -3.480300   -1.419300
  C      1.392200   -2.193600   -0.876900
  C      1.007600   -1.970700    0.459500
  C      0.971500   -0.616500    1.142000
  C      1.609300    0.578200    0.424500
  C      1.062000    1.876600    0.503600
  C      1.711200    2.966100   -0.083800
  C      2.946900    2.798400   -0.725800
  C      3.669400    3.983600   -1.314200
  F      4.448900    4.573400   -0.336700
  F      4.482400    3.588200   -2.362400
  F      2.766200    4.915900   -1.794900
  C      3.557300    1.536100   -0.696900
  C      2.906300    0.447800   -0.110600
  H     -2.606800    3.202200    0.196200
  H     -2.420700    2.148600   -1.258200
  H     -3.970000    3.017400   -0.967000
  H     -4.448800    1.707800    1.024900
  H     -5.223200    0.695900   -1.049400
  H     -3.642200   -0.119400   -1.326500
  H     -4.676400   -0.602600    0.073100
  H     -2.719100    0.770000    2.206600
  H     -0.780800   -0.906200    3.605300
  H     -1.995600   -1.578100    2.474800
  H      0.672400   -2.720100    3.297300
  H     -0.858600   -3.547000    2.873500
  H     -0.045600   -5.138700    1.210400
  H      0.782100   -5.535300   -1.081700
  H      1.639600   -3.652300   -2.440500
  H      1.719100   -1.386600   -1.515300
  H      1.587800   -0.714400    2.064800
  H      0.148200    2.072200    1.044600
  H      1.256300    3.946500   -0.014600
  H      4.547400    1.393600   -1.111700
  H      3.426600   -0.500500   -0.064100

 Total Charge           Charge          ....    0
 Multiplicity           Mult            ....    1
 Number of Electrons    NEL             ....  190
 Basis Dimension        Dim             ....  406

ORBITAL ENERGIES
----------------

  NO   OCC          E(Eh)            E(eV)
   0   2.0000     -24.709978      -672.3927
   1   2.0000     -24.709773      -672.3871
   2   2.0000     -24.706656      -672.3023
   3   2.0000     -19.098884      -519.7070
   4   2.0000     -14.352392      -390.5484
   5   2.0000     -14.348492      -390.4423
   6   2.0000     -10.424633      -283.6687
   7   2.0000     -10.310747      -280.5697
   8   2.0000     -10.237361      -278.5728
   9   2.0000     -10.227928      -278.3161
  10   2.0000     -10.223536      -278.1966
  11   2.0000     -10.205987      -277.7190
  12   2.0000     -10.201820      -277.6056
  13   2.0000     -10.195765      -277.4409
  14   2.0000     -10.192824      -277.3608
  15   2.0000     -10.191521      -277.3254
  16   2.0000     -10.188648      -277.2472
  17   2.0000     -10.188245      -277.2362
  18   2.0000     -10.186822      -277.1975
  19   2.0000     -10.186636      -277.1925
  20   2.0000     -10.177187      -276.9353
  21   2.0000     -10.175002      -276.8759
  22   2.0000     -10.173895      -276.8457
  23   2.0000     -10.173246      -276.8281
  24   2.0000     -10.161568      -276.5103
  25   2.0000     -10.161414      -276.5061
  26   2.0000      -1.269885       -34.5553
  27   2.0000      -1.195372       -32.5277
  28   2.0000      -1.194416       -32.5017
  29   2.0000      -1.014703       -27.6115
  30   2.0000      -0.927087       -25.2273
  31   2.0000      -0.900260       -24.4973
  32   2.0000      -0.862315       -23.4648
  33   2.0000      -0.845507       -23.0074
  34   2.0000      -0.796709       -21.6795
  35   2.0000      -0.777573       -21.1588
  36   2.0000      -0.760263       -20.6878
  37   2.0000      -0.751665       -20.4539
  38   2.0000      -0.747695       -20.3458
  39   2.0000      -0.725176       -19.7331
  40   2.0000      -0.695030       -18.9127
  41   2.0000      -0.673931       -18.3386
  42   2.0000      -0.665597       -18.1118
  43   2.0000      -0.637561       -17.3489
  44   2.0000      -0.617455       -16.8018
  45   2.0000      -0.610603       -16.6154
  46   2.0000      -0.602636       -16.3986
  47   2.0000      -0.582897       -15.8614
  48   2.0000      -0.567796       -15.4505
  49   2.0000      -0.560899       -15.2629
  50   2.0000      -0.556904       -15.1541
  51   2.0000      -0.551181       -14.9984
  52   2.0000      -0.541473       -14.7342
  53   2.0000      -0.527492       -14.3538
  54   2.0000      -0.507091       -13.7986
  55   2.0000      -0.487887       -13.2761
  56   2.0000      -0.472678       -12.8622
  57   2.0000      -0.464389       -12.6367
  58   2.0000      -0.461091       -12.5469
  59   2.0000      -0.454548       -12.3689
  60   2.0000      -0.449804       -12.2398
  61   2.0000      -0.443683       -12.0732
  62   2.0000      -0.438172       -11.9233
  63   2.0000      -0.436053       -11.8656
  64   2.0000      -0.433338       -11.7917
  65   2.0000      -0.431178       -11.7330
  66   2.0000      -0.428329       -11.6554
  67   2.0000      -0.418964       -11.4006
  68   2.0000      -0.415493       -11.3061
  69   2.0000      -0.411114       -11.1870
  70   2.0000      -0.404534       -11.0079
  71   2.0000      -0.400280       -10.8922
  72   2.0000      -0.394220       -10.7273
  73   2.0000      -0.388783       -10.5793
  74   2.0000      -0.386347       -10.5130
  75   2.0000      -0.383221       -10.4280
  76   2.0000      -0.375505       -10.2180
  77   2.0000      -0.371317       -10.1041
  78   2.0000      -0.364866        -9.9285
  79   2.0000      -0.363200        -9.8832
  80   2.0000      -0.357648        -9.7321
  81   2.0000      -0.351620        -9.5681
  82   2.0000      -0.347418        -9.4537
  83   2.0000      -0.341633        -9.2963
  84   2.0000      -0.339896        -9.2490
  85   2.0000      -0.334751        -9.1090
  86   2.0000      -0.329813        -8.9747
  87   2.0000      -0.324488        -8.8298
  88   2.0000      -0.261358        -7.1119
  89   2.0000      -0.254443        -6.9238
  90   2.0000      -0.251932        -6.8554
  91   2.0000      -0.239571        -6.5191
  92   2.0000      -0.235631        -6.4119
  93   2.0000      -0.229500        -6.2450
  94   2.0000      -0.217349        -5.9144
  95   0.0000      -0.020753        -0.5647
  96   0.0000      -0.005821        -0.1584
  97   0.0000       0.002542         0.0692
  98   0.0000       0.007242         0.1971
  99   0.0000       0.029842         0.8120

MULLIKEN ATOMIC CHARGES
-----------------------
   0 C :   -0.438060
   1 C :    0.068012
   2 C :   -0.436665
   3 N :   -0.612085
   4 C :    0.668922
   5 O :   -0.486082
   6 N :   -0.450997
   7 C :   -0.135620
   8 C :   -0.376228
   9 C :    0.132582
  10 C :   -0.189598
  11 C :   -0.121319
  12 C :   -0.133544
  13 C :   -0.168298
  14 C :    0.122601
  15 C :   -0.108008
  16 C :    0.154172
  17 C :   -0.159207
  18 C :   -0.164889
  19 C :   -0.012631
  20 C :    0.891289
  21 F :   -0.299005
  22 F :   -0.307226
  23 F :   -0.306739
  24 C :   -0.163751
  25 C :   -0.188913
  26 H :    0.131277
  27 H :    0.187419
  28 H :    0.133134
  29 H :    0.127459
  30 H :    0.132980
  31 H :    0.186364
  32 H :    0.132339
  33 H :    0.319733
  34 H :    0.135545
  35 H :    0.156346
  36 H :    0.156481
  37 H :    0.153153
  38 H :    0.118947
  39 H :    0.123168
  40 H :    0.126637
  41 H :    0.148828
  42 H :    0.165920
  43 H :    0.143756
  44 H :    0.147966
  45 H :    0.149081
  46 H :    0.144753
Sum of atomic charges:   -0.0000000

LOEWDIN ATOMIC CHARGES
----------------------
   0 C :   -0.364114
   1 C :   -0.057230
   2 C :   -0.362958
   3 N :   -0.247762
   4 C :    0.160872
   5 O :   -0.306793
   6 N :   -0.135915
   7 C :   -0.150807
   8 C :   -0.233949
   9 C :   -0.021772
  10 C :   -0.136788
  11 C :   -0.131175
  12 C :   -0.131792
  13 C :   -0.123420
  14 C :   -0.022949
  15 C :   -0.034826
  16 C :    0.006519
  17 C :   -0.118961
  18 C :   -0.113176
  19 C :   -0.074089
  20 C :    0.309018
  21 F :   -0.116413
  22 F :   -0.115114
  23 F :   -0.114773
  24 C :   -0.115869
  25 C :   -0.132932
  26 H :    0.119015
  27 H :    0.144966
  28 H :    0.121556
  29 H :    0.121443
  30 H :    0.121354
  31 H :    0.144588
  32 H :    0.120125
  33 H :    0.247119
  34 H :    0.112430
  35 H :    0.129437
  36 H :    0.131536
  37 H :    0.135000
  38 H :    0.127701
  39 H :    0.129465
  40 H :    0.130999
  41 H :    0.142360
  42 H :    0.143675
  43 H :    0.140998
  44 H :    0.141754
  45 H :    0.142108
  46 H :    0.139542

  Mayer bond orders larger than 0.100000
B(  0-C ,  1-C ) :   1.0053 B(  0-C , 26-H ) :   0.9496 B(  0-C , 27-H ) :   0.9307
B(  0-C , 28-H ) :   0.9446 B(  1-C ,  2-C ) :   1.0065 B(  1-C ,  3-N ) :   0.9209
B(  1-C , 29-H ) :   0.9398 B(  2-C , 30-H ) :   0.9454 B(  2-C , 31-H ) :   0.9324
B(  2-C , 32-H ) :   0.9500 B(  3-N ,  4-C ) :   1.0572 B(  3-N , 33-H ) :   0.8322
B(  4-C ,  5-O ) :   1.7782 B(  4-C ,  6-N ) :   0.9948 B(  6-N ,  7-C ) :   0.9553
B(  6-N , 15-C ) :   0.9363 B(  7-C ,  8-C ) :   0.9672 B(  7-C , 34-H ) :   0.9304
B(  7-C , 35-H ) :   0.9326 B(  8-C ,  9-C ) :   0.9874 B(  8-C , 36-H ) :   0.9262
B(  8-C , 37-H ) :   0.9359 B(  9-C , 10-C ) :   1.4334 B(  9-C , 14-C ) :   1.4148
B( 10-C , 11-C ) :   1.4381 B( 10-C , 38-H ) :   0.9247 B( 11-C , 12-C ) :   1.4516
B( 11-C , 39-H ) :   0.9303 B( 12-C , 13-C ) :   1.4303 B( 12-C , 40-H ) :   0.9302
B( 13-C , 14-C ) :   1.4270 B( 13-C , 41-H ) :   0.9107 B( 14-C , 15-C ) :   0.9289
B( 15-C , 16-C ) :   0.9858 B( 15-C , 42-H ) :   0.9029 B( 16-C , 17-C ) :   1.4173
B( 16-C , 25-C ) :   1.4013 B( 17-C , 18-C ) :   1.4254 B( 17-C , 43-H ) :   0.9103
B( 18-C , 19-C ) :   1.4110 B( 18-C , 44-H ) :   0.9212 B( 19-C , 20-C ) :   0.9802
B( 19-C , 24-C ) :   1.4130 B( 20-C , 21-F ) :   0.9846 B( 20-C , 22-F ) :   0.9466
B( 20-C , 23-F ) :   0.9473 B( 24-C , 25-C ) :   1.4256 B( 24-C , 45-H ) :   0.9208
B( 25-C , 46-H ) :   0.9196

FINAL SINGLE POINT ENERGY     -1258.301927200737

DIPOLE MOMENT
-------------

Method             : SCF
Type of density    : Electron Density
Multiplicity       :   1
Irrep              :   0
Energy             : -1258.3019272007372820 Eh
Relativity type    :
Basis              : AO
                                X                 Y                 Z
Electronic contribution:     38.758861128      26.325272114     -11.300126074
Nuclear contribution   :    -39.764514157     -27.237331211      13.008624084
                        -----------------------------------------
Total Dipole Moment    :     -1.005653029      -0.912059098       1.708498010
                        -----------------------------------------
Magnitude (a.u.)       :      2.182236299
Magnitude (Debye)      :      5.546803859

Rotational constants in cm-1:             0.008685             0.004283             0.003302
Rotational constants in MHz :           260.374109           128.388864            98.986957

                             ****ORCA TERMINATED NORMALLY****
TOTAL RUN TIME: 0 days 0 hours 4 minutes 2 seconds 50 msec
