                         Program Version 6.0.0  -   RELEASE  -
|  1> ! B3LYP 6-31G* SP
|  2>
|  3> * xyz 0 1
|  4> C -0.8435 -0.5663 1.3794
|  5> C -1.3859 -1.5355 0.3515
|  6> C -1.3604 -1.2105 -1.0208
|  7> N -0.8651 0.0528 -1.4814
|  8> C 0.4154 0.1119 -2.1886
|  9> C 1.5474 -0.0667 -1.2148
| 10> C 1.9865 -1.3541 -0.8716
| 11> C 2.9818 -1.5251 0.0939
| 12> C 3.5485 -0.4186 0.7374
| 13> O 4.5401 -0.6503 1.7043
| 14> C 5.2058 0.3596 2.4596
| 15> F 6.1101 -0.2420 3.3129
| 16> F 5.8906 1.2144 1.6143
| 17> F 4.2900 1.0737 3.2116
| 18> C 3.1046 0.8738 0.3962
| 19> C 2.1097 1.0451 -0.5700
| 20> S -1.9290 1.4259 -1.4864
| 21> O -3.1075 1.1628 -0.5902
| 22> O -2.4352 1.6608 -2.8820
| 23> C -1.0741 2.8518 -0.9047
| 24> C -0.4274 3.7039 -1.8086
| 25> C 0.2876 4.8119 -1.3450
| 26> C 0.3656 5.0840 0.0327
| 27> C 1.1273 6.2506 0.5300
| 28> O 1.7117 7.0230 -0.2771
| 29> O 1.2067 6.5064 1.8964
| 30> C -0.2913 4.2288 0.9341
| 31> C -1.0072 3.1228 0.4675
| 32> N -1.7967 -2.1062 -1.9397
| 33> C -2.2893 -3.3290 -1.6175
| 34> C -2.7360 -4.2277 -2.7455
| 35> F -2.5346 -3.6079 -3.9671
| 36> F -2.0081 -5.4038 -2.7296
| 37> F -4.0838 -4.5115 -2.6183
| 38> C -2.3707 -3.7047 -0.2546
| 39> C -2.8884 -4.9567 0.1443
| 40> C -2.9628 -5.2994 1.4935
| 41> C -2.5275 -4.4068 2.4673
| 42> C -2.0100 -3.1652 2.1004
| 43> C -1.9174 -2.7924 0.7400
| 44> H -1.6704 -0.2032 2.0249
| 45> H -0.0735 -1.0684 2.0021
| 46> H -0.3520 0.3138 0.9243
| 47> H 0.4504 -0.6783 -2.9702
| 48> H 0.5239 1.0828 -2.7175
| 49> H 1.5481 -2.2259 -1.3416
| 50> H 3.3091 -2.5247 0.3507
| 51> H 3.5146 1.7528 0.8731
| 52> H 1.7739 2.0455 -0.8090
| 53> H -0.4650 3.5051 -2.8720
| 54> H 0.7834 5.4512 -2.0647
| 55> H 1.7258 7.3023 2.2477
| 56> H -0.2516 4.4119 2.0005
| 57> H -1.5049 2.4768 1.1789
| 58> H -3.2419 -5.6820 -0.5743
| 59> H -3.3630 -6.2619 1.7852
| 60> H -2.5922 -4.6773 3.5134
| 61> H -1.6923 -2.5041 2.8947
| 62> *
| 63>
| 64>                          ****END OF INPUT****

CARTESIAN COORDINATES (ANGSTROEM)
---------------------------------
  C     -0.843500   -0.566300    1.379400
  C     -1.385900   -1.535500    0.351500
  C     -1.360400   -1.210500   -1.020800
  N     -0.865100    0.052800   -1.481400
  C      0.415400    0.111900   -2.188600
  C      1.547400   -0.066700   -1.214800
  C      1.986500   -1.354100   -0.871600
  C      2.981800   -1.525100    0.093900
  C      3.548500   -0.418600    0.737400
  O      4.540100   -0.650300    1.704300
  C      5.205800    0.359600    2.459600
  F      6.110100   -0.242000    3.312900
  F      5.890600    1.214400    1.614300
  F      4.290000    1.073700    3.211600
  C      3.104600    0.873800    0.396200
  C      2.109700    1.045100   -0.570000
  S     -1.929000    1.425900   -1.486400
  O     -3.107500    1.162800   -0.590200
  O     -2.435200    1.660800   -2.882000
  C     -1.074100    2.851800   -0.904700
  C     -0.427400    3.703900   -1.808600
  C      0.287600    4.811900   -1.345000
  C      0.365600    5.084000    0.032700
  C      1.127300    6.250600    0.530000
  O      1.711700    7.023000   -0.277100
  O      1.206700    6.506400    1.896400
  C     -0.291300    4.228800    0.934100
  C     -1.007200    3.122800    0.467500
  N     -1.796700   -2.106200   -1.939700
  C     -2.289300   -3.329000   -1.617500
  C     -2.736000   -4.227700   -2.745500
  F     -2.534600   -3.607900   -3.967100
  F     -2.008100   -5.403800   -2.729600
  F     -4.083800   -4.511500   -2.618300
  C     -2.370700   -3.704700   -0.254600
  C     -2.888400   -4.956700    0.144300
  C     -2.962800   -5.299400    1.493500
  C     -2.527500   -4.406800    2.467300
  C     -2.010000   -3.165200    2.100400
  C     -1.917400   -2.792400    0.740000
  H     -1.670400   -0.203200    2.024900
  H     -0.073500   -1.068400    2.002100
  H     -0.352000    0.313800    0.924300
  H      0.450400   -0.678300   -2.970200
  H      0.523900    1.082800   -2.717500
  H      1.548100   -2.225900   -1.341600
  H      3.309100   -2.524700    0.350700
  H      3.514600    1.752800    0.873100
  H      1.773900    2.045500   -0.809000
  H     -0.465000    3.505100   -2.872000
  H      0.783400    5.451200   -2.064700
  H      1.725800    7.302300    2.247700
  H     -0.251600    4.411900    2.000500
  H     -1.504900    2.476800    1.178900
  H     -3.241900   -5.682000   -0.574300
  H     -3.363000   -6.261900    1.785200
  H     -2.592200   -4.677300    3.513400
  H     -1.692300   -2.504100    2.894700

 Total Charge           Charge          ....    0
 Multiplicity           Mult            ....    1
 Number of Electrons    NEL             ....  298
 Basis Dimension        Dim             ....  600

ORBITAL ENERGIES
----------------

  NO   OCC          E(Eh)            E(eV)
   0   2.0000     -89.102348     -2424.5982
   1   2.0000     -24.748214      -673.4331
   2   2.0000     -24.746915      -673.3978
   3   2.0000     -24.745961      -673.3718
   4   2.0000     -24.722321      -672.7286
   5   2.0000     -24.720441      -672.6774
   6   2.0000     -24.710437      -672.4052
   7   2.0000     -19.220914      -523.0277
   8   2.0000     -19.204156      -522.5716
   9   2.0000     -19.146547      -521.0040
  10   2.0000     -19.130669      -520.5720
  11   2.0000     -19.125759      -520.4384
  12   2.0000     -14.375874      -391.1874
  13   2.0000     -14.347123      -390.4051
  14   2.0000     -10.511455      -286.0312
  15   2.0000     -10.436497      -283.9915
  16   2.0000     -10.344036      -281.4755
  17   2.0000     -10.278035      -279.6795
  18   2.0000     -10.269682      -279.4522
  19   2.0000     -10.252886      -278.9952
  20   2.0000     -10.251558      -278.9591
  21   2.0000     -10.242882      -278.7230
  22   2.0000     -10.239920      -278.6424
  23   2.0000     -10.230936      -278.3979
  24   2.0000     -10.230522      -278.3867
  25   2.0000     -10.228007      -278.3182
  26   2.0000     -10.227806      -278.3128
  27   2.0000     -10.223018      -278.1825
  28   2.0000     -10.218590      -278.0620
  29   2.0000     -10.217958      -278.0448
  30   2.0000     -10.206369      -277.7294
  31   2.0000     -10.206211      -277.7251
  32   2.0000     -10.206070      -277.7213
  33   2.0000     -10.205281      -277.6998
  34   2.0000     -10.205015      -277.6926
  35   2.0000     -10.204696      -277.6839
  36   2.0000     -10.204150      -277.6690
  37   2.0000     -10.203343      -277.6471
  38   2.0000     -10.202575      -277.6262
  39   2.0000     -10.191231      -277.3175
  40   2.0000      -8.138207      -221.4519
  41   2.0000      -6.103219      -166.0770
  42   2.0000      -6.101285      -166.0244
  43   2.0000      -6.100776      -166.0105
  44   2.0000      -1.311429       -35.6858
  45   2.0000      -1.278804       -34.7980
  46   2.0000      -1.232352       -33.5340
  47   2.0000      -1.231418       -33.5086
  48   2.0000      -1.207637       -32.8615
  49   2.0000      -1.198012       -32.5996
  50   2.0000      -1.090872       -29.6841
  51   2.0000      -1.089023       -29.6338
  52   2.0000      -1.087014       -29.5791
  53   2.0000      -1.003359       -27.3028
  54   2.0000      -0.973711       -26.4960
  55   2.0000      -0.964834       -26.2545
  56   2.0000      -0.926587       -25.2137
  57   2.0000      -0.901046       -24.5187
  58   2.0000      -0.875911       -23.8347
  59   2.0000      -0.872018       -23.7288
  60   2.0000      -0.824004       -22.4223
  61   2.0000      -0.816191       -22.2097
  62   2.0000      -0.796173       -21.6650
  63   2.0000      -0.787789       -21.4368
  64   2.0000      -0.786695       -21.4071
  65   2.0000      -0.768514       -20.9123
  66   2.0000      -0.754998       -20.5445
  67   2.0000      -0.738498       -20.0956
  68   2.0000      -0.734861       -19.9966
  69   2.0000      -0.718283       -19.5455
  70   2.0000      -0.691309       -18.8115
  71   2.0000      -0.679746       -18.4968
  72   2.0000      -0.661614       -18.0034
  73   2.0000      -0.650836       -17.7101
  74   2.0000      -0.648318       -17.6416
  75   2.0000      -0.642349       -17.4792
  76   2.0000      -0.633401       -17.2357
  77   2.0000      -0.623872       -16.9764
  78   2.0000      -0.611359       -16.6359
  79   2.0000      -0.603681       -16.4270
  80   2.0000      -0.603499       -16.4220
  81   2.0000      -0.599349       -16.3091
  82   2.0000      -0.582799       -15.8588
  83   2.0000      -0.573307       -15.6005
  84   2.0000      -0.572080       -15.5671
  85   2.0000      -0.567985       -15.4557
  86   2.0000      -0.554615       -15.0918
  87   2.0000      -0.542338       -14.7578
  88   2.0000      -0.538022       -14.6403
  89   2.0000      -0.525360       -14.2958
  90   2.0000      -0.506640       -13.7864
  91   2.0000      -0.503591       -13.7034
  92   2.0000      -0.500309       -13.6141
  93   2.0000      -0.488549       -13.2941
  94   2.0000      -0.484346       -13.1797
  95   2.0000      -0.481430       -13.1004
  96   2.0000      -0.479665       -13.0524
  97   2.0000      -0.477206       -12.9854
  98   2.0000      -0.476700       -12.9717
  99   2.0000      -0.469280       -12.7698
 100   2.0000      -0.468638       -12.7523
 101   2.0000      -0.460601       -12.5336
 102   2.0000      -0.458821       -12.4852
 103   2.0000      -0.454785       -12.3753
 104   2.0000      -0.453035       -12.3277
 105   2.0000      -0.452808       -12.3215
 106   2.0000      -0.451253       -12.2792
 107   2.0000      -0.449960       -12.2440
 108   2.0000      -0.444415       -12.0931
 109   2.0000      -0.442598       -12.0437
 110   2.0000      -0.440232       -11.9793
 111   2.0000      -0.437165       -11.8959
 112   2.0000      -0.431713       -11.7475
 113   2.0000      -0.424107       -11.5405
 114   2.0000      -0.423586       -11.5264
 115   2.0000      -0.422409       -11.4943
 116   2.0000      -0.418051       -11.3757
 117   2.0000      -0.415045       -11.2940
 118   2.0000      -0.414287       -11.2733
 119   2.0000      -0.409069       -11.1313
 120   2.0000      -0.402977       -10.9655
 121   2.0000      -0.401474       -10.9247
 122   2.0000      -0.395547       -10.7634
 123   2.0000      -0.394787       -10.7427
 124   2.0000      -0.393649       -10.7117
 125   2.0000      -0.391243       -10.6463
 126   2.0000      -0.387648       -10.5484
 127   2.0000      -0.385530       -10.4908
 128   2.0000      -0.378018       -10.2864
 129   2.0000      -0.375483       -10.2174
 130   2.0000      -0.363862        -9.9012
 131   2.0000      -0.356948        -9.7131
 132   2.0000      -0.356851        -9.7104
 133   2.0000      -0.354440        -9.6448
 134   2.0000      -0.330048        -8.9811
 135   2.0000      -0.328023        -8.9259
 136   2.0000      -0.313367        -8.5272
 137   2.0000      -0.302893        -8.2421
 138   2.0000      -0.300190        -8.1686
 139   2.0000      -0.293456        -7.9854
 140   2.0000      -0.288386        -7.8474
 141   2.0000      -0.283103        -7.7036
 142   2.0000      -0.281171        -7.6510
 143   2.0000      -0.276504        -7.5241
 144   2.0000      -0.271674        -7.3926
 145   2.0000      -0.267018        -7.2659
 146   2.0000      -0.257486        -7.0066
 147   2.0000      -0.246535        -6.7086
 148   2.0000      -0.232196        -6.3184
 149   0.0000      -0.094107        -2.5608
 150   0.0000      -0.076047        -2.0693
 151   0.0000      -0.045128        -1.2280
 152   0.0000      -0.041800        -1.1374
 153   0.0000      -0.022944        -0.6243

MULLIKEN ATOMIC CHARGES
-----------------------
   0 C :   -0.547106
   1 C :    0.136476
   2 C :    0.317937
   3 N :   -0.609331
   4 C :   -0.253064
   5 C :    0.170879
   6 C :   -0.168460
   7 C :   -0.173643
   8 C :    0.352663
   9 O :   -0.544833
  10 C :    1.086670
  11 F :   -0.277650
  12 F :   -0.290148
  13 F :   -0.292693
  14 C :   -0.190530
  15 C :   -0.179123
  16 S :    1.203605
  17 O :   -0.549594
  18 O :   -0.521787
  19 C :   -0.134635
  20 C :   -0.154699
  21 C :   -0.141258
  22 C :    0.082248
  23 C :    0.530083
  24 O :   -0.440183
  25 O :   -0.622979
  26 C :   -0.149110
  27 C :   -0.137934
  28 N :   -0.405392
  29 C :    0.019441
  30 C :    0.948200
  31 F :   -0.293502
  32 F :   -0.306172
  33 F :   -0.301551
  34 C :    0.117660
  35 C :   -0.202802
  36 C :   -0.122221
  37 C :   -0.116077
  38 C :   -0.197573
  39 C :    0.121102
  40 H :    0.175340
  41 H :    0.164617
  42 H :    0.172372
  43 H :    0.190835
  44 H :    0.170137
  45 H :    0.151349
  46 H :    0.152944
  47 H :    0.154411
  48 H :    0.142692
  49 H :    0.191546
  50 H :    0.185928
  51 H :    0.436870
  52 H :    0.176951
  53 H :    0.186225
  54 H :    0.157310
  55 H :    0.143154
  56 H :    0.141384
  57 H :    0.143024
Sum of atomic charges:   -0.0000000

LOEWDIN ATOMIC CHARGES
----------------------
   0 C :   -0.362147
   1 C :    0.014981
   2 C :    0.030720
   3 N :   -0.280347
   4 C :   -0.145566
   5 C :   -0.039357
   6 C :   -0.121344
   7 C :   -0.140050
   8 C :    0.086781
   9 O :   -0.159467
  10 C :    0.359695
  11 F :   -0.086228
  12 F :   -0.103930
  13 F :   -0.105984
  14 C :   -0.158310
  15 C :   -0.125666
  16 S :    1.261421
  17 O :   -0.573244
  18 O :   -0.563052
  19 C :   -0.176209
  20 C :   -0.109335
  21 C :   -0.087509
  22 C :   -0.037900
  23 C :    0.179623
  24 O :   -0.256541
  25 O :   -0.333426
  26 C :   -0.098603
  27 C :   -0.101082
  28 N :   -0.100856
  29 C :   -0.014983
  30 C :    0.311283
  31 F :   -0.097234
  32 F :   -0.112383
  33 F :   -0.108420
  34 C :   -0.013673
  35 C :   -0.114650
  36 C :   -0.118816
  37 C :   -0.113730
  38 C :   -0.120191
  39 C :   -0.004145
  40 H :    0.144001
  41 H :    0.138691
  42 H :    0.140435
  43 H :    0.145651
  44 H :    0.140934
  45 H :    0.143013
  46 H :    0.147085
  47 H :    0.142828
  48 H :    0.139384
  49 H :    0.162139
  50 H :    0.162839
  51 H :    0.351700
  52 H :    0.156743
  53 H :    0.160105
  54 H :    0.145473
  55 H :    0.139155
  56 H :    0.138343
  57 H :    0.141357

  Mayer bond orders larger than 0.100000
B(  0-C ,  1-C ) :   1.0073 B(  0-C , 40-H ) :   0.9200 B(  0-C , 41-H ) :   0.9245
B(  0-C , 42-H ) :   0.9191 B(  1-C ,  2-C ) :   1.4223 B(  1-C , 39-C ) :   1.2638
B(  2-C ,  3-N ) :   0.8879 B(  2-C , 28-N ) :   1.2888 B(  3-N ,  4-C ) :   0.9156
B(  3-N , 16-S ) :   0.8072 B(  4-C ,  5-C ) :   0.9407 B(  4-C , 43-H ) :   0.9159
B(  4-C , 44-H ) :   0.9225 B(  5-C ,  6-C ) :   1.4315 B(  5-C , 15-C ) :   1.4235
B(  6-C ,  7-C ) :   1.4327 B(  6-C , 45-H ) :   0.9192 B(  7-C ,  8-C ) :   1.4187
B(  7-C , 46-H ) :   0.9174 B(  8-C ,  9-O ) :   0.8261 B(  8-C , 14-C ) :   1.3895
B(  9-O , 10-C ) :   0.9890 B( 10-C , 11-F ) :   1.0097 B( 10-C , 12-F ) :   0.9697
B( 10-C , 13-F ) :   0.9670 B( 14-C , 15-C ) :   1.4364 B( 14-C , 47-H ) :   0.9091
B( 15-C , 48-H ) :   0.9148 B( 16-S , 17-O ) :   1.6147 B( 16-S , 18-O ) :   1.6748
B( 16-S , 19-C ) :   0.8088 B( 19-C , 20-C ) :   1.3791 B( 19-C , 27-C ) :   1.3942
B( 20-C , 21-C ) :   1.4128 B( 20-C , 49-H ) :   0.9069 B( 21-C , 22-C ) :   1.4012
B( 21-C , 50-H ) :   0.9082 B( 22-C , 23-C ) :   1.0061 B( 22-C , 26-C ) :   1.3830
B( 23-C , 24-O ) :   1.8653 B( 23-C , 25-O ) :   1.0277 B( 25-O , 51-H ) :   0.7401
B( 26-C , 27-C ) :   1.4170 B( 26-C , 52-H ) :   0.9137 B( 27-C , 53-H ) :   0.9069
B( 28-N , 29-C ) :   1.4419 B( 29-C , 30-C ) :   0.9521 B( 29-C , 34-C ) :   1.2169
B( 30-C , 31-F ) :   0.9609 B( 30-C , 32-F ) :   0.9385 B( 30-C , 33-F ) :   0.9448
B( 34-C , 35-C ) :   1.3034 B( 34-C , 39-C ) :   1.2864 B( 35-C , 36-C ) :   1.5074
B( 35-C , 38-C ) :   0.1049 B( 35-C , 54-H ) :   0.9034 B( 36-C , 37-C ) :   1.3552
B( 36-C , 55-H ) :   0.9278 B( 37-C , 38-C ) :   1.5099 B( 37-C , 56-H ) :   0.9281
B( 38-C , 39-C ) :   1.2920 B( 38-C , 57-H ) :   0.9153

FINAL SINGLE POINT ENERGY     -2483.218426515622

DIPOLE MOMENT
-------------

Method             : SCF
Type of density    : Electron Density
Multiplicity       :   1
Irrep              :   0
Energy             : -2483.2184265156224683 Eh
Relativity type    :
Basis              : AO
                                X                 Y                 Z
Electronic contribution:     10.610320155     -13.664070531      -6.991552475
Nuclear contribution   :     -9.184802286      13.578866155       9.425933622
                        -----------------------------------------
Total Dipole Moment    :      1.425517869      -0.085204375       2.434381147
                        -----------------------------------------
Magnitude (a.u.)       :      2.822334591
Magnitude (Debye)      :      7.173804420

Rotational constants in cm-1:             0.003438             0.001797             0.001386
Rotational constants in MHz :           103.058565            53.861344            41.547945

                             ****ORCA TERMINATED NORMALLY****
TOTAL RUN TIME: 0 days 0 hours 8 minutes 28 seconds 845 msec
