                         Program Version 6.0.0  -   RELEASE  -
|  1> ! B3LYP 6-31G* SP
|  2>
|  3> * xyz -1 1
|  4> C 2.3223 0.2612 -3.1484
|  5> C 1.5254 -0.6083 -2.1845
|  6> N 2.1686 -0.6279 -0.8659
|  7> C 1.9469 0.2153 0.1805
|  8> C 0.8656 1.2555 0.2468
|  9> N -0.3381 0.6857 0.8532
| 10> C -1.1673 -0.2004 0.0944
| 11> N -1.9796 0.3290 -0.8572
| 12> C -2.7646 -0.4374 -1.6516
| 13> C -2.7471 -1.8284 -1.5237
| 14> C -3.5429 -2.6258 -2.3605
| 15> C -3.5145 -4.0154 -2.2397
| 16> C -2.6938 -4.6182 -1.2869
| 17> C -1.8981 -3.8365 -0.4454
| 18> C -1.9137 -2.4274 -0.5457
| 19> C -1.1206 -1.6006 0.2919
| 20> C -0.2225 -2.2006 1.3511
| 21> S -0.9230 1.3033 2.3644
| 22> O -2.0518 0.4476 2.8685
| 23> O 0.1856 1.2712 3.3792
| 24> C -1.4992 2.9483 2.1281
| 25> C -0.7547 4.0397 2.5932
| 26> C -1.2090 5.3446 2.3795
| 27> C -2.4131 5.5761 1.6918
| 28> C -2.8910 6.9583 1.4663
| 29> O -3.9683 7.1709 0.8484
| 30> O -2.1572 8.0431 1.9340
| 31> C -3.1523 4.4751 1.2211
| 32> C -2.6958 3.1716 1.4370
| 33> C 2.7870 -0.0893 1.2477
| 34> C 3.5587 -1.1414 0.8110
| 35> C 4.5693 -1.8441 1.4624
| 36> C 5.2017 -2.8861 0.7623
| 37> C 4.8139 -3.1980 -0.5600
| 38> Cl 5.6159 -4.4984 -1.4205
| 39> C 3.7868 -2.4709 -1.1911
| 40> C 3.1708 -1.4422 -0.4701
| 41> H 3.3507 -0.1408 -3.2657
| 42> H 2.3784 1.3017 -2.7646
| 43> H 1.8249 0.2713 -4.1405
| 44> H 1.4471 -1.6398 -2.5882
| 45> H 0.4907 -0.2201 -2.1119
| 46> H 1.2307 2.1125 0.8526
| 47> H 0.6339 1.6571 -0.7615
| 48> H -3.3923 0.0430 -2.3919
| 49> H -4.1833 -2.1747 -3.1092
| 50> H -4.1283 -4.6270 -2.8884
| 51> H -2.6726 -5.6970 -1.2002
| 52> H -1.2731 -4.3476 0.2737
| 53> H 0.5720 -2.8057 0.8663
| 54> H -0.8195 -2.8442 2.0301
| 55> H 0.2698 -1.4373 1.9847
| 56> H 0.1796 3.8848 3.1173
| 57> H -0.6149 6.1709 2.7500
| 58> H -4.0817 4.6204 0.6840
| 59> H -3.2739 2.3360 1.0619
| 60> H 2.8174 0.3891 2.2180
| 61> H 4.8616 -1.5958 2.4746
| 62> H 5.9916 -3.4492 1.2429
| 63> H 3.4909 -2.7068 -2.2042
| 64> *
| 65>
| 66>                          ****END OF INPUT****

CARTESIAN COORDINATES (ANGSTROEM)
---------------------------------
  C      2.322300    0.261200   -3.148400
  C      1.525400   -0.608300   -2.184500
  N      2.168600   -0.627900   -0.865900
  C      1.946900    0.215300    0.180500
  C      0.865600    1.255500    0.246800
  N     -0.338100    0.685700    0.853200
  C     -1.167300   -0.200400    0.094400
  N     -1.979600    0.329000   -0.857200
  C     -2.764600   -0.437400   -1.651600
  C     -2.747100   -1.828400   -1.523700
  C     -3.542900   -2.625800   -2.360500
  C     -3.514500   -4.015400   -2.239700
  C     -2.693800   -4.618200   -1.286900
  C     -1.898100   -3.836500   -0.445400
  C     -1.913700   -2.427400   -0.545700
  C     -1.120600   -1.600600    0.291900
  C     -0.222500   -2.200600    1.351100
  S     -0.923000    1.303300    2.364400
  O     -2.051800    0.447600    2.868500
  O      0.185600    1.271200    3.379200
  C     -1.499200    2.948300    2.128100
  C     -0.754700    4.039700    2.593200
  C     -1.209000    5.344600    2.379500
  C     -2.413100    5.576100    1.691800
  C     -2.891000    6.958300    1.466300
  O     -3.968300    7.170900    0.848400
  O     -2.157200    8.043100    1.934000
  C     -3.152300    4.475100    1.221100
  C     -2.695800    3.171600    1.437000
  C      2.787000   -0.089300    1.247700
  C      3.558700   -1.141400    0.811000
  C      4.569300   -1.844100    1.462400
  C      5.201700   -2.886100    0.762300
  C      4.813900   -3.198000   -0.560000
  Cl     5.615900   -4.498400   -1.420500
  C      3.786800   -2.470900   -1.191100
  C      3.170800   -1.442200   -0.470100
  H      3.350700   -0.140800   -3.265700
  H      2.378400    1.301700   -2.764600
  H      1.824900    0.271300   -4.140500
  H      1.447100   -1.639800   -2.588200
  H      0.490700   -0.220100   -2.111900
  H      1.230700    2.112500    0.852600
  H      0.633900    1.657100   -0.761500
  H     -3.392300    0.043000   -2.391900
  H     -4.183300   -2.174700   -3.109200
  H     -4.128300   -4.627000   -2.888400
  H     -2.672600   -5.697000   -1.200200
  H     -1.273100   -4.347600    0.273700
  H      0.572000   -2.805700    0.866300
  H     -0.819500   -2.844200    2.030100
  H      0.269800   -1.437300    1.984700
  H      0.179600    3.884800    3.117300
  H     -0.614900    6.170900    2.750000
  H     -4.081700    4.620400    0.684000
  H     -3.273900    2.336000    1.061900
  H      2.817400    0.389100    2.218000
  H      4.861600   -1.595800    2.474600
  H      5.991600   -3.449200    1.242900
  H      3.490900   -2.706800   -2.204200

 Total Charge           Charge          ....   -1
 Multiplicity           Mult            ....    1
 Number of Electrons    NEL             ....  278
 Basis Dimension        Dim             ....  572

ORBITAL ENERGIES
----------------

  NO   OCC          E(Eh)            E(eV)
   0   2.0000    -101.469304     -2761.1201
   1   2.0000     -89.006835     -2421.9991
   2   2.0000     -19.032425      -517.8986
   3   2.0000     -19.031377      -517.8701
   4   2.0000     -18.910513      -514.5812
   5   2.0000     -18.878730      -513.7164
   6   2.0000     -14.322916      -389.7464
   7   2.0000     -14.293231      -388.9386
   8   2.0000     -14.272499      -388.3744
   9   2.0000     -10.194781      -277.4141
  10   2.0000     -10.179952      -277.0106
  11   2.0000     -10.178936      -276.9829
  12   2.0000     -10.167696      -276.6771
  13   2.0000     -10.162963      -276.5483
  14   2.0000     -10.153081      -276.2794
  15   2.0000     -10.152679      -276.2684
  16   2.0000     -10.147834      -276.1366
  17   2.0000     -10.147178      -276.1187
  18   2.0000     -10.143753      -276.0256
  19   2.0000     -10.142686      -275.9965
  20   2.0000     -10.142190      -275.9830
  21   2.0000     -10.141654      -275.9684
  22   2.0000     -10.140865      -275.9470
  23   2.0000     -10.133778      -275.7541
  24   2.0000     -10.132572      -275.7213
  25   2.0000     -10.126400      -275.5534
  26   2.0000     -10.125991      -275.5422
  27   2.0000     -10.114204      -275.2215
  28   2.0000     -10.111549      -275.1492
  29   2.0000     -10.110638      -275.1244
  30   2.0000     -10.096797      -274.7478
  31   2.0000     -10.091545      -274.6049
  32   2.0000     -10.090496      -274.5764
  33   2.0000     -10.089999      -274.5628
  34   2.0000     -10.073594      -274.1164
  35   2.0000     -10.072101      -274.0758
  36   2.0000     -10.070072      -274.0206
  37   2.0000      -9.401126      -255.8176
  38   2.0000      -8.042203      -218.8395
  39   2.0000      -7.163995      -194.9422
  40   2.0000      -7.154765      -194.6910
  41   2.0000      -7.154625      -194.6872
  42   2.0000      -6.007638      -163.4761
  43   2.0000      -6.005555      -163.4195
  44   2.0000      -6.004145      -163.3811
  45   2.0000      -0.993599       -27.0372
  46   2.0000      -0.949040       -25.8247
  47   2.0000      -0.895280       -24.3618
  48   2.0000      -0.871799       -23.7228
  49   2.0000      -0.845601       -23.0100
  50   2.0000      -0.821347       -22.3500
  51   2.0000      -0.815531       -22.1917
  52   2.0000      -0.807172       -21.9643
  53   2.0000      -0.782920       -21.3043
  54   2.0000      -0.755206       -20.5502
  55   2.0000      -0.748063       -20.3558
  56   2.0000      -0.743383       -20.2285
  57   2.0000      -0.719822       -19.5873
  58   2.0000      -0.708721       -19.2853
  59   2.0000      -0.694043       -18.8859
  60   2.0000      -0.688935       -18.7469
  61   2.0000      -0.680529       -18.5181
  62   2.0000      -0.671155       -18.2631
  63   2.0000      -0.658819       -17.9274
  64   2.0000      -0.640958       -17.4414
  65   2.0000      -0.633422       -17.2363
  66   2.0000      -0.616609       -16.7788
  67   2.0000      -0.591706       -16.1011
  68   2.0000      -0.590152       -16.0589
  69   2.0000      -0.586454       -15.9582
  70   2.0000      -0.557267       -15.1640
  71   2.0000      -0.544245       -14.8097
  72   2.0000      -0.535440       -14.5701
  73   2.0000      -0.532563       -14.4918
  74   2.0000      -0.504399       -13.7254
  75   2.0000      -0.500866       -13.6293
  76   2.0000      -0.499095       -13.5811
  77   2.0000      -0.475471       -12.9382
  78   2.0000      -0.468430       -12.7466
  79   2.0000      -0.457114       -12.4387
  80   2.0000      -0.445930       -12.1344
  81   2.0000      -0.439888       -11.9700
  82   2.0000      -0.436114       -11.8673
  83   2.0000      -0.419356       -11.4112
  84   2.0000      -0.418006       -11.3745
  85   2.0000      -0.409980       -11.1561
  86   2.0000      -0.409042       -11.1306
  87   2.0000      -0.398283       -10.8378
  88   2.0000      -0.393074       -10.6961
  89   2.0000      -0.391161       -10.6440
  90   2.0000      -0.383172       -10.4266
  91   2.0000      -0.381282       -10.3752
  92   2.0000      -0.374043       -10.1782
  93   2.0000      -0.371366       -10.1054
  94   2.0000      -0.366147        -9.9634
  95   2.0000      -0.356054        -9.6887
  96   2.0000      -0.355136        -9.6637
  97   2.0000      -0.345029        -9.3887
  98   2.0000      -0.344165        -9.3652
  99   2.0000      -0.339413        -9.2359
 100   2.0000      -0.337033        -9.1711
 101   2.0000      -0.333666        -9.0795
 102   2.0000      -0.331935        -9.0324
 103   2.0000      -0.328073        -8.9273
 104   2.0000      -0.327034        -8.8991
 105   2.0000      -0.319751        -8.7009
 106   2.0000      -0.314975        -8.5709
 107   2.0000      -0.310969        -8.4619
 108   2.0000      -0.308188        -8.3862
 109   2.0000      -0.304775        -8.2934
 110   2.0000      -0.300256        -8.1704
 111   2.0000      -0.293644        -7.9905
 112   2.0000      -0.292898        -7.9702
 113   2.0000      -0.291821        -7.9409
 114   2.0000      -0.289497        -7.8776
 115   2.0000      -0.271829        -7.3968
 116   2.0000      -0.253422        -6.8960
 117   2.0000      -0.251305        -6.8384
 118   2.0000      -0.242644        -6.6027
 119   2.0000      -0.241095        -6.5605
 120   2.0000      -0.232136        -6.3167
 121   2.0000      -0.228922        -6.2293
 122   2.0000      -0.216089        -5.8801
 123   2.0000      -0.215087        -5.8528
 124   2.0000      -0.213532        -5.8105
 125   2.0000      -0.204302        -5.5593
 126   2.0000      -0.196299        -5.3416
 127   2.0000      -0.191938        -5.2229
 128   2.0000      -0.187662        -5.1065
 129   2.0000      -0.183536        -4.9943
 130   2.0000      -0.177343        -4.8257
 131   2.0000      -0.167273        -4.5517
 132   2.0000      -0.163892        -4.4597
 133   2.0000      -0.147141        -4.0039
 134   2.0000      -0.136375        -3.7109
 135   2.0000      -0.127767        -3.4767
 136   2.0000      -0.059826        -1.6279
 137   2.0000      -0.036662        -0.9976
 138   2.0000      -0.019587        -0.5330
 139   0.0000      -0.003511        -0.0955
 140   0.0000       0.026243         0.7141
 141   0.0000       0.038379         1.0443
 142   0.0000       0.067408         1.8343
 143   0.0000       0.078434         2.1343

MULLIKEN ATOMIC CHARGES
-----------------------
   0 C :   -0.437590
   1 C :   -0.182350
   2 N :   -0.462647
   3 C :    0.276635
   4 C :   -0.238829
   5 N :   -0.602391
   6 C :    0.292367
   7 N :   -0.378191
   8 C :   -0.069622
   9 C :    0.144350
  10 C :   -0.205082
  11 C :   -0.128307
  12 C :   -0.123195
  13 C :   -0.195286
  14 C :    0.107446
  15 C :    0.133459
  16 C :   -0.547242
  17 S :    1.210415
  18 O :   -0.564505
  19 O :   -0.575155
  20 C :   -0.144851
  21 C :   -0.164115
  22 C :   -0.150260
  23 C :    0.104957
  24 C :    0.409915
  25 O :   -0.553557
  26 O :   -0.657869
  27 C :   -0.159533
  28 C :   -0.141713
  29 C :   -0.259846
  30 C :    0.134361
  31 C :   -0.190791
  32 C :   -0.156667
  33 C :   -0.087857
  34 Cl:   -0.055646
  35 C :   -0.195435
  36 C :    0.297587
  37 H :    0.158356
  38 H :    0.164147
  39 H :    0.145527
  40 H :    0.160304
  41 H :    0.185768
  42 H :    0.197598
  43 H :    0.165595
  44 H :    0.149299
  45 H :    0.132448
  46 H :    0.124005
  47 H :    0.127164
  48 H :    0.140770
  49 H :    0.154604
  50 H :    0.160692
  51 H :    0.215413
  52 H :    0.142962
  53 H :    0.150875
  54 H :    0.145405
  55 H :    0.144961
  56 H :    0.157803
  57 H :    0.131380
  58 H :    0.128196
  59 H :    0.133770
Sum of atomic charges:   -1.0000000

LOEWDIN ATOMIC CHARGES
----------------------
   0 C :   -0.365007
   1 C :   -0.157557
   2 N :    0.020677
   3 C :    0.003343
   4 C :   -0.152386
   5 N :   -0.289792
   6 C :    0.028992
   7 N :   -0.126804
   8 C :   -0.069324
   9 C :   -0.030708
  10 C :   -0.115498
  11 C :   -0.133105
  12 C :   -0.124835
  13 C :   -0.120293
  14 C :   -0.008601
  15 C :    0.002499
  16 C :   -0.362054
  17 S :    1.263417
  18 O :   -0.586003
  19 O :   -0.595088
  20 C :   -0.217749
  21 C :   -0.131493
  22 C :   -0.109985
  23 C :   -0.003309
  24 C :    0.071043
  25 O :   -0.379019
  26 O :   -0.506115
  27 C :   -0.112795
  28 C :   -0.117278
  29 C :   -0.185051
  30 C :   -0.041414
  31 C :   -0.123641
  32 C :   -0.158204
  33 C :   -0.107240
  34 Cl:    0.009498
  35 C :   -0.167334
  36 C :    0.007650
  37 H :    0.130282
  38 H :    0.132870
  39 H :    0.127937
  40 H :    0.132324
  41 H :    0.144402
  42 H :    0.160537
  43 H :    0.131195
  44 H :    0.135377
  45 H :    0.133944
  46 H :    0.129775
  47 H :    0.131579
  48 H :    0.140056
  49 H :    0.133680
  50 H :    0.137614
  51 H :    0.160223
  52 H :    0.138903
  53 H :    0.149664
  54 H :    0.146028
  55 H :    0.139839
  56 H :    0.148877
  57 H :    0.135992
  58 H :    0.133732
  59 H :    0.135733

  Mayer bond orders larger than 0.100000
B(  0-C ,  1-C ) :   1.0003 B(  0-C , 37-H ) :   0.9465 B(  0-C , 38-H ) :   0.9460
B(  0-C , 39-H ) :   0.9444 B(  1-C ,  2-N ) :   0.9448 B(  1-C , 40-H ) :   0.9298
B(  1-C , 41-H ) :   0.9155 B(  2-N ,  3-C ) :   1.1224 B(  2-N , 36-C ) :   1.0453
B(  3-C ,  4-C ) :   0.9635 B(  3-C , 29-C ) :   1.5195 B(  4-C ,  5-N ) :   0.9377
B(  4-C , 42-H ) :   0.9133 B(  4-C , 43-H ) :   0.9143 B(  5-N ,  6-C ) :   0.9174
B(  5-N , 17-S ) :   0.7713 B(  6-C ,  7-N ) :   1.2677 B(  6-C , 15-C ) :   1.4278
B(  7-N ,  8-C ) :   1.4935 B(  8-C ,  9-C ) :   1.2338 B(  8-C , 15-C ) :   0.1029
B(  8-C , 44-H ) :   0.9273 B(  9-C , 10-C ) :   1.2839 B(  9-C , 14-C ) :   1.2898
B( 10-C , 11-C ) :   1.5135 B( 10-C , 13-C ) :   0.1068 B( 10-C , 45-H ) :   0.9240
B( 11-C , 12-C ) :   1.3516 B( 11-C , 46-H ) :   0.9312 B( 12-C , 13-C ) :   1.5095
B( 12-C , 47-H ) :   0.9309 B( 13-C , 14-C ) :   1.2953 B( 13-C , 48-H ) :   0.9151
B( 14-C , 15-C ) :   1.2598 B( 15-C , 16-C ) :   1.0088 B( 16-C , 49-H ) :   0.9233
B( 16-C , 50-H ) :   0.9264 B( 16-C , 51-H ) :   0.9116 B( 17-S , 18-O ) :   1.6374
B( 17-S , 19-O ) :   1.5978 B( 17-S , 20-C ) :   0.8472 B( 20-C , 21-C ) :   1.3665
B( 20-C , 28-C ) :   1.3629 B( 21-C , 22-C ) :   1.3983 B( 21-C , 52-H ) :   0.9205
B( 22-C , 23-C ) :   1.4064 B( 22-C , 53-H ) :   0.9016 B( 23-C , 24-C ) :   0.9275
B( 23-C , 27-C ) :   1.3829 B( 24-C , 25-O ) :   1.7066 B( 24-C , 26-O ) :   1.5496
B( 25-O , 26-O ) :   0.1480 B( 27-C , 28-C ) :   1.4225 B( 27-C , 54-H ) :   0.9081
B( 28-C , 55-H ) :   0.9174 B( 29-C , 30-C ) :   1.2768 B( 29-C , 56-H ) :   0.9208
B( 30-C , 31-C ) :   1.3359 B( 30-C , 36-C ) :   1.3092 B( 31-C , 32-C ) :   1.4696
B( 31-C , 57-H ) :   0.9253 B( 32-C , 33-C ) :   1.3504 B( 32-C , 58-H ) :   0.9286
B( 33-C , 34-Cl) :   0.9820 B( 33-C , 35-C ) :   1.4341 B( 35-C , 36-C ) :   1.3394
B( 35-C , 59-H ) :   0.9138

FINAL SINGLE POINT ENERGY     -2403.258600530341

DIPOLE MOMENT
-------------

Method             : SCF
Type of density    : Electron Density
Multiplicity       :   1
Irrep              :   0
Energy             : -2403.2586005303414822 Eh
Relativity type    :
Basis              : AO
                                X                 Y                 Z
Electronic contribution:      7.502488076      -2.487528949       7.982293929
Nuclear contribution   :     -3.791634573      -8.116718175     -11.920032167
                        -----------------------------------------
Total Dipole Moment    :      3.710853503     -10.604247124      -3.937738238
                        -----------------------------------------
Magnitude (a.u.)       :     11.904884427
Magnitude (Debye)      :     30.259811427

Rotational constants in cm-1:             0.004530             0.001808             0.001491
Rotational constants in MHz :           135.816718            54.192334            44.697934

                             ****ORCA TERMINATED NORMALLY****
TOTAL RUN TIME: 0 days 0 hours 11 minutes 4 seconds 720 msec
