                         Program Version 6.0.0  -   RELEASE  -
|  1> ! B3LYP 6-31G* SP
|  2>
|  3> * xyz 0 1
|  4> C 5.7737 0.7016 1.2173
|  5> C 5.2796 1.1844 -0.1400
|  6> N 4.1814 0.3455 -0.6020
|  7> N 4.3331 -0.7574 -1.3138
|  8> N 3.1445 -1.3043 -1.5100
|  9> C 2.2739 -0.4898 -0.8794
| 10> C 0.8157 -0.6910 -0.8085
| 11> S -0.2257 0.3437 0.0141
| 12> C -1.6094 -0.5419 -0.3551
| 13> C -3.0019 -0.1699 -0.0115
| 14> C -3.9970 -0.3709 -0.9854
| 15> C -5.3221 -0.0099 -0.7380
| 16> C -5.6758 0.5529 0.4863
| 17> C -4.7091 0.7415 1.4745
| 18> C -3.3715 0.3672 1.2515
| 19> C -2.3820 0.5430 2.3730
| 20> N -1.3012 -1.6083 -1.1271
| 21> C 0.0326 -1.7075 -1.3758
| 22> O 0.5249 -2.7578 -2.1488
| 23> N 2.9109 0.5459 -0.2981
| 24> H 6.6099 1.3460 1.5614
| 25> H 4.9516 0.7516 1.9626
| 26> H 6.1351 -0.3459 1.1414
| 27> H 6.1137 1.1469 -0.8737
| 28> H 4.9357 2.2380 -0.0568
| 29> H -3.7439 -0.7898 -1.9519
| 30> H -6.0750 -0.1602 -1.5010
| 31> H -6.7031 0.8380 0.6732
| 32> H -5.0097 1.1699 2.4229
| 33> H -2.8962 0.6351 3.3535
| 34> H -1.7863 1.4641 2.2057
| 35> H -1.7092 -0.3376 2.4392
| 36> H 1.5030 -2.8733 -2.3691
| 37> *
| 38>
| 39>                          ****END OF INPUT****

CARTESIAN COORDINATES (ANGSTROEM)
---------------------------------
  C      5.773700    0.701600    1.217300
  C      5.279600    1.184400   -0.140000
  N      4.181400    0.345500   -0.602000
  N      4.333100   -0.757400   -1.313800
  N      3.144500   -1.304300   -1.510000
  C      2.273900   -0.489800   -0.879400
  C      0.815700   -0.691000   -0.808500
  S     -0.225700    0.343700    0.014100
  C     -1.609400   -0.541900   -0.355100
  C     -3.001900   -0.169900   -0.011500
  C     -3.997000   -0.370900   -0.985400
  C     -5.322100   -0.009900   -0.738000
  C     -5.675800    0.552900    0.486300
  C     -4.709100    0.741500    1.474500
  C     -3.371500    0.367200    1.251500
  C     -2.382000    0.543000    2.373000
  N     -1.301200   -1.608300   -1.127100
  C      0.032600   -1.707500   -1.375800
  O      0.524900   -2.757800   -2.148800
  N      2.910900    0.545900   -0.298100
  H      6.609900    1.346000    1.561400
  H      4.951600    0.751600    1.962600
  H      6.135100   -0.345900    1.141400
  H      6.113700    1.146900   -0.873700
  H      4.935700    2.238000   -0.056800
  H     -3.743900   -0.789800   -1.951900
  H     -6.075000   -0.160200   -1.501000
  H     -6.703100    0.838000    0.673200
  H     -5.009700    1.169900    2.422900
  H     -2.896200    0.635100    3.353500
  H     -1.786300    1.464100    2.205700
  H     -1.709200   -0.337600    2.439200
  H      1.503000   -2.873300   -2.369100

 Total Charge           Charge          ....    0
 Multiplicity           Mult            ....    1
 Number of Electrons    NEL             ....  150
 Basis Dimension        Dim             ....  310

ORBITAL ENERGIES
----------------

  NO   OCC          E(Eh)            E(eV)
   0   2.0000     -88.896971     -2419.0095
   1   2.0000     -19.163229      -521.4580
   2   2.0000     -14.465405      -393.6237
   3   2.0000     -14.404916      -391.9777
   4   2.0000     -14.373220      -391.1152
   5   2.0000     -14.369323      -391.0091
   6   2.0000     -14.327555      -389.8726
   7   2.0000     -10.282306      -279.7958
   8   2.0000     -10.261974      -279.2425
   9   2.0000     -10.255657      -279.0706
  10   2.0000     -10.252406      -278.9822
  11   2.0000     -10.217274      -278.0262
  12   2.0000     -10.202771      -277.6315
  13   2.0000     -10.199487      -277.5422
  14   2.0000     -10.198759      -277.5224
  15   2.0000     -10.183879      -277.1174
  16   2.0000     -10.183214      -277.0993
  17   2.0000     -10.181605      -277.0556
  18   2.0000     -10.179579      -277.0004
  19   2.0000     -10.179140      -276.9885
  20   2.0000      -7.973802      -216.9782
  21   2.0000      -5.936737      -161.5468
  22   2.0000      -5.932749      -161.4383
  23   2.0000      -5.930898      -161.3879
  24   2.0000      -1.153034       -31.3757
  25   2.0000      -1.033174       -28.1141
  26   2.0000      -0.956688       -26.0328
  27   2.0000      -0.955965       -26.0131
  28   2.0000      -0.901817       -24.5397
  29   2.0000      -0.857297       -23.3282
  30   2.0000      -0.814985       -22.1769
  31   2.0000      -0.795044       -21.6342
  32   2.0000      -0.777456       -21.1556
  33   2.0000      -0.764676       -20.8079
  34   2.0000      -0.724707       -19.7203
  35   2.0000      -0.692557       -18.8454
  36   2.0000      -0.685371       -18.6499
  37   2.0000      -0.663759       -18.0618
  38   2.0000      -0.624098       -16.9826
  39   2.0000      -0.613356       -16.6903
  40   2.0000      -0.598197       -16.2778
  41   2.0000      -0.585498       -15.9322
  42   2.0000      -0.554788       -15.0966
  43   2.0000      -0.548449       -14.9241
  44   2.0000      -0.517879       -14.0922
  45   2.0000      -0.501677       -13.6513
  46   2.0000      -0.498677       -13.5697
  47   2.0000      -0.478442       -13.0191
  48   2.0000      -0.467181       -12.7126
  49   2.0000      -0.458598       -12.4791
  50   2.0000      -0.449332       -12.2269
  51   2.0000      -0.432783       -11.7766
  52   2.0000      -0.422516       -11.4972
  53   2.0000      -0.421395       -11.4667
  54   2.0000      -0.416007       -11.3201
  55   2.0000      -0.408603       -11.1186
  56   2.0000      -0.403565       -10.9816
  57   2.0000      -0.399598       -10.8736
  58   2.0000      -0.384903       -10.4737
  59   2.0000      -0.380866       -10.3639
  60   2.0000      -0.375364       -10.2142
  61   2.0000      -0.358359        -9.7514
  62   2.0000      -0.346358        -9.4249
  63   2.0000      -0.344929        -9.3860
  64   2.0000      -0.338133        -9.2011
  65   2.0000      -0.333678        -9.0798
  66   2.0000      -0.322081        -8.7643
  67   2.0000      -0.317288        -8.6338
  68   2.0000      -0.305949        -8.3253
  69   2.0000      -0.297645        -8.0993
  70   2.0000      -0.268336        -7.3018
  71   2.0000      -0.266390        -7.2488
  72   2.0000      -0.253375        -6.8947
  73   2.0000      -0.241291        -6.5659
  74   2.0000      -0.207112        -5.6358
  75   0.0000      -0.052745        -1.4353
  76   0.0000      -0.025862        -0.7037
  77   0.0000       0.000178         0.0048
  78   0.0000       0.004282         0.1165
  79   0.0000       0.040328         1.0974

MULLIKEN ATOMIC CHARGES
-----------------------
   0 C :   -0.446120
   1 C :   -0.146332
   2 N :   -0.031487
   3 N :   -0.054199
   4 N :   -0.365800
   5 C :    0.431279
   6 C :   -0.245281
   7 S :    0.286929
   8 C :   -0.044273
   9 C :    0.085001
  10 C :   -0.147018
  11 C :   -0.133483
  12 C :   -0.112164
  13 C :   -0.185772
  14 C :    0.136543
  15 C :   -0.542543
  16 N :   -0.386155
  17 C :    0.488034
  18 O :   -0.655999
  19 N :   -0.318211
  20 H :    0.159813
  21 H :    0.174792
  22 H :    0.174671
  23 H :    0.190543
  24 H :    0.190433
  25 H :    0.157242
  26 H :    0.132326
  27 H :    0.129834
  28 H :    0.127371
  29 H :    0.155579
  30 H :    0.173769
  31 H :    0.172891
  32 H :    0.447784
Sum of atomic charges:   -0.0000000

LOEWDIN ATOMIC CHARGES
----------------------
   0 C :   -0.362195
   1 C :   -0.152770
   2 N :    0.100517
   3 N :   -0.071911
   4 N :   -0.143166
   5 C :   -0.001248
   6 C :   -0.271136
   7 S :    0.417799
   8 C :   -0.115506
   9 C :   -0.037966
  10 C :   -0.098962
  11 C :   -0.134689
  12 C :   -0.119335
  13 C :   -0.135409
  14 C :   -0.009263
  15 C :   -0.357687
  16 N :   -0.158016
  17 C :    0.100780
  18 O :   -0.336376
  19 N :   -0.139045
  20 H :    0.136337
  21 H :    0.139245
  22 H :    0.139283
  23 H :    0.151217
  24 H :    0.151415
  25 H :    0.147370
  26 H :    0.133981
  27 H :    0.132381
  28 H :    0.131741
  29 H :    0.132216
  30 H :    0.140652
  31 H :    0.140866
  32 H :    0.348879

  Mayer bond orders larger than 0.100000
B(  0-C ,  1-C ) :   1.0034 B(  0-C , 20-H ) :   0.9418 B(  0-C , 21-H ) :   0.9435
B(  0-C , 22-H ) :   0.9437 B(  1-C ,  2-N ) :   0.8966 B(  1-C , 23-H ) :   0.9263
B(  1-C , 24-H ) :   0.9259 B(  2-N ,  3-N ) :   1.2530 B(  2-N , 19-N ) :   1.2237
B(  3-N ,  4-N ) :   1.4196 B(  3-N , 19-N ) :   0.1303 B(  4-N ,  5-C ) :   1.2767
B(  5-C ,  6-C ) :   1.0536 B(  5-C , 19-N ) :   1.3689 B(  6-C ,  7-S ) :   1.0789
B(  6-C ,  8-C ) :   0.1202 B(  6-C , 17-C ) :   1.3844 B(  7-S ,  8-C ) :   1.1485
B(  8-C ,  9-C ) :   0.9892 B(  8-C , 16-N ) :   1.4477 B(  9-C , 10-C ) :   1.4009
B(  9-C , 14-C ) :   1.3993 B( 10-C , 11-C ) :   1.4377 B( 10-C , 25-H ) :   0.9167
B( 11-C , 12-C ) :   1.4427 B( 11-C , 26-H ) :   0.9294 B( 12-C , 13-C ) :   1.4393
B( 12-C , 27-H ) :   0.9294 B( 13-C , 14-C ) :   1.4289 B( 13-C , 28-H ) :   0.9242
B( 14-C , 15-C ) :   0.9946 B( 15-C , 29-H ) :   0.9413 B( 15-C , 30-H ) :   0.9241
B( 15-C , 31-H ) :   0.9299 B( 16-N , 17-C ) :   1.3224 B( 17-C , 18-O ) :   1.0152
B( 18-O , 32-H ) :   0.7155

FINAL SINGLE POINT ENERGY     -1249.747992766447

DIPOLE MOMENT
-------------

Method             : SCF
Type of density    : Electron Density
Multiplicity       :   1
Irrep              :   0
Energy             : -1249.7479927664473962 Eh
Relativity type    :
Basis              : AO
                                X                 Y                 Z
Electronic contribution:     -1.430085230      -6.052159727     -10.589396018
Nuclear contribution   :      2.334351863       7.489222239      11.564573110
                        -----------------------------------------
Total Dipole Moment    :      0.904266633       1.437062512       0.975177092
                        -----------------------------------------
Magnitude (a.u.)       :      1.958013577
Magnitude (Debye)      :      4.976874994

Rotational constants in cm-1:             0.026148             0.004767             0.004177
Rotational constants in MHz :           783.911558           142.925535           125.222831

                             ****ORCA TERMINATED NORMALLY****
TOTAL RUN TIME: 0 days 0 hours 3 minutes 32 seconds 882 msec
