                         Program Version 6.0.0  -   RELEASE  -
|  1> ! B3LYP 6-31G* SP
|  2>
|  3> * xyz 0 1
|  4> C 1.4726 2.3696 0.4209
|  5> C 0.8416 2.1481 -0.9371
|  6> C 0.1238 0.9602 -1.2173
|  7> N -0.0548 -0.0553 -0.2234
|  8> C -1.0632 0.1049 0.8264
|  9> C -2.2728 -0.7391 0.5309
| 10> C -3.1262 -0.4025 -0.5428
| 11> C -4.2500 -1.1925 -0.8285
| 12> F -5.0731 -0.8662 -1.8560
| 13> C -4.5112 -2.3095 -0.0318
| 14> C -3.6908 -2.6372 1.0162
| 15> C -2.5652 -1.8690 1.3218
| 16> C -4.1654 -3.8367 1.7438
| 17> C -5.4263 -4.2694 0.9715
| 18> C -5.6505 -3.2481 -0.1602
| 19> S 0.9739 -1.4527 -0.2555
| 20> O 0.2096 -2.6699 0.1816
| 21> O 1.4692 -1.6889 -1.6551
| 22> C 2.3377 -1.1789 0.8195
| 23> C 3.4900 -0.5405 0.3440
| 24> C 4.5508 -0.2651 1.2114
| 25> C 4.4727 -0.6248 2.5692
| 26> C 5.5933 -0.3263 3.4886
| 27> O 5.5447 -0.6905 4.6950
| 28> O 6.7141 0.3601 3.0292
| 29> C 3.3114 -1.2646 3.0392
| 30> C 2.2507 -1.5348 2.1701
| 31> N -0.4009 0.7555 -2.4538
| 32> C -0.2801 1.6602 -3.4549
| 33> C 0.4036 2.8594 -3.2391
| 34> C 0.5273 3.7998 -4.2739
| 35> C 1.2137 4.9951 -4.0576
| 36> C 1.7802 5.2608 -2.8116
| 37> C 1.6670 4.3325 -1.7722
| 38> C 0.9755 3.1156 -1.9673
| 39> H 1.0424 3.2786 0.8909
| 40> H 1.3134 1.5266 1.1203
| 41> H 2.5691 2.4944 0.3054
| 42> H -1.3758 1.1696 0.9023
| 43> H -0.6183 -0.1665 1.8080
| 44> H -2.9198 0.4675 -1.1516
| 45> H -1.9318 -2.1456 2.1553
| 46> H -4.4175 -3.5674 2.7934
| 47> H -3.3908 -4.6337 1.7260
| 48> H -6.3061 -4.2893 1.6512
| 49> H -5.2846 -5.2872 0.5481
| 50> H -6.6090 -2.7049 -0.0168
| 51> H -5.6321 -3.7440 -1.1547
| 52> H 3.5607 -0.2396 -0.6940
| 53> H 5.4287 0.2336 0.8199
| 54> H 7.4863 0.5706 3.6502
| 55> H 3.2179 -1.5481 4.0804
| 56> H 1.3575 -2.0111 2.5539
| 57> H -0.7214 1.4403 -4.4192
| 58> H 0.0941 3.6095 -5.2488
| 59> H 1.3072 5.7173 -4.8588
| 60> H 2.3127 6.1893 -2.6492
| 61> H 2.1237 4.5808 -0.8232
| 62> *
| 63>
| 64>                          ****END OF INPUT****

CARTESIAN COORDINATES (ANGSTROEM)
---------------------------------
  C      1.472600    2.369600    0.420900
  C      0.841600    2.148100   -0.937100
  C      0.123800    0.960200   -1.217300
  N     -0.054800   -0.055300   -0.223400
  C     -1.063200    0.104900    0.826400
  C     -2.272800   -0.739100    0.530900
  C     -3.126200   -0.402500   -0.542800
  C     -4.250000   -1.192500   -0.828500
  F     -5.073100   -0.866200   -1.856000
  C     -4.511200   -2.309500   -0.031800
  C     -3.690800   -2.637200    1.016200
  C     -2.565200   -1.869000    1.321800
  C     -4.165400   -3.836700    1.743800
  C     -5.426300   -4.269400    0.971500
  C     -5.650500   -3.248100   -0.160200
  S      0.973900   -1.452700   -0.255500
  O      0.209600   -2.669900    0.181600
  O      1.469200   -1.688900   -1.655100
  C      2.337700   -1.178900    0.819500
  C      3.490000   -0.540500    0.344000
  C      4.550800   -0.265100    1.211400
  C      4.472700   -0.624800    2.569200
  C      5.593300   -0.326300    3.488600
  O      5.544700   -0.690500    4.695000
  O      6.714100    0.360100    3.029200
  C      3.311400   -1.264600    3.039200
  C      2.250700   -1.534800    2.170100
  N     -0.400900    0.755500   -2.453800
  C     -0.280100    1.660200   -3.454900
  C      0.403600    2.859400   -3.239100
  C      0.527300    3.799800   -4.273900
  C      1.213700    4.995100   -4.057600
  C      1.780200    5.260800   -2.811600
  C      1.667000    4.332500   -1.772200
  C      0.975500    3.115600   -1.967300
  H      1.042400    3.278600    0.890900
  H      1.313400    1.526600    1.120300
  H      2.569100    2.494400    0.305400
  H     -1.375800    1.169600    0.902300
  H     -0.618300   -0.166500    1.808000
  H     -2.919800    0.467500   -1.151600
  H     -1.931800   -2.145600    2.155300
  H     -4.417500   -3.567400    2.793400
  H     -3.390800   -4.633700    1.726000
  H     -6.306100   -4.289300    1.651200
  H     -5.284600   -5.287200    0.548100
  H     -6.609000   -2.704900   -0.016800
  H     -5.632100   -3.744000   -1.154700
  H      3.560700   -0.239600   -0.694000
  H      5.428700    0.233600    0.819900
  H      7.486300    0.570600    3.650200
  H      3.217900   -1.548100    4.080400
  H      1.357500   -2.011100    2.553900
  H     -0.721400    1.440300   -4.419200
  H      0.094100    3.609500   -5.248800
  H      1.307200    5.717300   -4.858800
  H      2.312700    6.189300   -2.649200
  H      2.123700    4.580800   -0.823200

 Total Charge           Charge          ....    0
 Multiplicity           Mult            ....    1
 Number of Electrons    NEL             ....  256
 Basis Dimension        Dim             ....  540

ORBITAL ENERGIES
----------------

  NO   OCC          E(Eh)            E(eV)
   0   2.0000     -89.094801     -2424.3928
   1   2.0000     -24.684303      -671.6940
   2   2.0000     -19.198846      -522.4272
   3   2.0000     -19.140236      -520.8323
   4   2.0000     -19.122650      -520.3538
   5   2.0000     -19.121202      -520.3144
   6   2.0000     -14.367427      -390.9576
   7   2.0000     -14.328337      -389.8939
   8   2.0000     -10.337840      -281.3069
   9   2.0000     -10.260222      -279.1948
  10   2.0000     -10.249464      -278.9021
  11   2.0000     -10.242412      -278.7102
  12   2.0000     -10.234289      -278.4892
  13   2.0000     -10.233549      -278.4690
  14   2.0000     -10.223998      -278.2091
  15   2.0000     -10.222373      -278.1649
  16   2.0000     -10.221215      -278.1334
  17   2.0000     -10.220018      -278.1008
  18   2.0000     -10.219836      -278.0959
  19   2.0000     -10.213178      -277.9147
  20   2.0000     -10.209429      -277.8127
  21   2.0000     -10.201896      -277.6077
  22   2.0000     -10.200958      -277.5822
  23   2.0000     -10.199751      -277.5493
  24   2.0000     -10.199514      -277.5429
  25   2.0000     -10.198076      -277.5037
  26   2.0000     -10.192890      -277.3627
  27   2.0000     -10.183601      -277.1099
  28   2.0000     -10.171369      -276.7770
  29   2.0000     -10.169303      -276.7208
  30   2.0000     -10.169176      -276.7173
  31   2.0000     -10.169034      -276.7135
  32   2.0000     -10.168540      -276.7001
  33   2.0000     -10.168242      -276.6919
  34   2.0000     -10.166785      -276.6523
  35   2.0000      -8.130215      -221.2344
  36   2.0000      -6.095252      -165.8602
  37   2.0000      -6.093238      -165.8054
  38   2.0000      -6.092964      -165.7980
  39   2.0000      -1.196814       -32.5670
  40   2.0000      -1.083410       -29.4811
  41   2.0000      -1.079866       -29.3847
  42   2.0000      -0.997366       -27.1397
  43   2.0000      -0.961430       -26.1618
  44   2.0000      -0.957290       -26.0492
  45   2.0000      -0.913286       -24.8518
  46   2.0000      -0.892256       -24.2795
  47   2.0000      -0.866729       -23.5849
  48   2.0000      -0.863093       -23.4859
  49   2.0000      -0.813622       -22.1398
  50   2.0000      -0.810275       -22.0487
  51   2.0000      -0.802646       -21.8411
  52   2.0000      -0.778879       -21.1944
  53   2.0000      -0.777449       -21.1555
  54   2.0000      -0.753085       -20.4925
  55   2.0000      -0.744325       -20.2541
  56   2.0000      -0.731982       -19.9182
  57   2.0000      -0.714592       -19.4450
  58   2.0000      -0.700765       -19.0688
  59   2.0000      -0.690003       -18.7759
  60   2.0000      -0.667481       -18.1631
  61   2.0000      -0.653160       -17.7734
  62   2.0000      -0.646515       -17.5926
  63   2.0000      -0.640430       -17.4270
  64   2.0000      -0.619973       -16.8703
  65   2.0000      -0.601198       -16.3594
  66   2.0000      -0.598820       -16.2947
  67   2.0000      -0.596214       -16.2238
  68   2.0000      -0.567407       -15.4399
  69   2.0000      -0.566447       -15.4138
  70   2.0000      -0.556859       -15.1529
  71   2.0000      -0.544682       -14.8216
  72   2.0000      -0.532873       -14.5002
  73   2.0000      -0.516303       -14.0493
  74   2.0000      -0.506736       -13.7890
  75   2.0000      -0.499814       -13.6006
  76   2.0000      -0.493808       -13.4372
  77   2.0000      -0.488648       -13.2968
  78   2.0000      -0.479648       -13.0519
  79   2.0000      -0.474772       -12.9192
  80   2.0000      -0.470442       -12.8014
  81   2.0000      -0.469007       -12.7623
  82   2.0000      -0.463232       -12.6052
  83   2.0000      -0.462864       -12.5952
  84   2.0000      -0.453418       -12.3381
  85   2.0000      -0.451022       -12.2729
  86   2.0000      -0.449463       -12.2305
  87   2.0000      -0.444542       -12.0966
  88   2.0000      -0.440455       -11.9854
  89   2.0000      -0.436898       -11.8886
  90   2.0000      -0.432331       -11.7643
  91   2.0000      -0.425006       -11.5650
  92   2.0000      -0.419222       -11.4076
  93   2.0000      -0.414518       -11.2796
  94   2.0000      -0.412711       -11.2304
  95   2.0000      -0.407841       -11.0979
  96   2.0000      -0.405866       -11.0442
  97   2.0000      -0.401244       -10.9184
  98   2.0000      -0.396518       -10.7898
  99   2.0000      -0.394631       -10.7385
 100   2.0000      -0.388015       -10.5584
 101   2.0000      -0.387411       -10.5420
 102   2.0000      -0.372380       -10.1330
 103   2.0000      -0.370587       -10.0842
 104   2.0000      -0.369660       -10.0589
 105   2.0000      -0.355879        -9.6840
 106   2.0000      -0.352153        -9.5826
 107   2.0000      -0.350572        -9.5395
 108   2.0000      -0.345923        -9.4130
 109   2.0000      -0.333307        -9.0697
 110   2.0000      -0.329871        -8.9762
 111   2.0000      -0.328677        -8.9438
 112   2.0000      -0.325458        -8.8562
 113   2.0000      -0.322219        -8.7680
 114   2.0000      -0.310941        -8.4611
 115   2.0000      -0.303014        -8.2454
 116   2.0000      -0.293993        -8.0000
 117   2.0000      -0.289449        -7.8763
 118   2.0000      -0.286428        -7.7941
 119   2.0000      -0.280658        -7.6371
 120   2.0000      -0.276882        -7.5344
 121   2.0000      -0.272615        -7.4182
 122   2.0000      -0.263927        -7.1818
 123   2.0000      -0.254252        -6.9185
 124   2.0000      -0.247314        -6.7298
 125   2.0000      -0.227552        -6.1920
 126   2.0000      -0.220725        -6.0062
 127   2.0000      -0.217105        -5.9077
 128   0.0000      -0.085204        -2.3185
 129   0.0000      -0.063047        -1.7156
 130   0.0000      -0.035722        -0.9720
 131   0.0000      -0.030656        -0.8342
 132   0.0000       0.004960         0.1350

MULLIKEN ATOMIC CHARGES
-----------------------
   0 C :   -0.542931
   1 C :    0.101018
   2 C :    0.296326
   3 N :   -0.594298
   4 C :   -0.267109
   5 C :    0.203972
   6 C :   -0.243092
   7 C :    0.348251
   8 F :   -0.317707
   9 C :    0.034258
  10 C :    0.142207
  11 C :   -0.203081
  12 C :   -0.350941
  13 C :   -0.281906
  14 C :   -0.336975
  15 S :    1.204225
  16 O :   -0.534740
  17 O :   -0.530771
  18 C :   -0.119065
  19 C :   -0.145469
  20 C :   -0.149576
  21 C :    0.082236
  22 C :    0.527825
  23 O :   -0.444318
  24 O :   -0.623894
  25 C :   -0.139773
  26 C :   -0.154044
  27 N :   -0.354643
  28 C :   -0.053452
  29 C :    0.137154
  30 C :   -0.201548
  31 C :   -0.126708
  32 C :   -0.120340
  33 C :   -0.201369
  34 C :    0.123451
  35 H :    0.162559
  36 H :    0.170489
  37 H :    0.164413
  38 H :    0.173487
  39 H :    0.153446
  40 H :    0.137723
  41 H :    0.115004
  42 H :    0.145056
  43 H :    0.158531
  44 H :    0.137596
  45 H :    0.143822
  46 H :    0.150128
  47 H :    0.156504
  48 H :    0.186291
  49 H :    0.172576
  50 H :    0.434473
  51 H :    0.180728
  52 H :    0.181662
  53 H :    0.158159
  54 H :    0.142779
  55 H :    0.137391
  56 H :    0.137619
  57 H :    0.136391
Sum of atomic charges:   -0.0000000

LOEWDIN ATOMIC CHARGES
----------------------
   0 C :   -0.361802
   1 C :   -0.020739
   2 C :    0.025325
   3 N :   -0.280095
   4 C :   -0.144120
   5 C :   -0.025188
   6 C :   -0.155245
   7 C :    0.113226
   8 F :   -0.106596
   9 C :   -0.053114
  10 C :   -0.018136
  11 C :   -0.130316
  12 C :   -0.225229
  13 C :   -0.224889
  14 C :   -0.222434
  15 S :    1.268391
  16 O :   -0.561509
  17 O :   -0.559025
  18 C :   -0.174971
  19 C :   -0.104668
  20 C :   -0.100704
  21 C :   -0.040666
  22 C :    0.179583
  23 O :   -0.260783
  24 O :   -0.334805
  25 C :   -0.085848
  26 C :   -0.111382
  27 N :   -0.108103
  28 C :   -0.055426
  29 C :   -0.028261
  30 C :   -0.109618
  31 C :   -0.126179
  32 C :   -0.117270
  33 C :   -0.126566
  34 C :   -0.008232
  35 H :    0.136821
  36 H :    0.138554
  37 H :    0.138215
  38 H :    0.142892
  39 H :    0.126389
  40 H :    0.141936
  41 H :    0.127426
  42 H :    0.127776
  43 H :    0.134524
  44 H :    0.121560
  45 H :    0.124443
  46 H :    0.130082
  47 H :    0.133399
  48 H :    0.160152
  49 H :    0.154432
  50 H :    0.350011
  51 H :    0.160337
  52 H :    0.157404
  53 H :    0.140157
  54 H :    0.138875
  55 H :    0.136095
  56 H :    0.136483
  57 H :    0.137431

  Mayer bond orders larger than 0.100000
B(  0-C ,  1-C ) :   0.9980 B(  0-C , 35-H ) :   0.9271 B(  0-C , 36-H ) :   0.9306
B(  0-C , 37-H ) :   0.9268 B(  1-C ,  2-C ) :   1.4315 B(  1-C , 28-C ) :   0.1019
B(  1-C , 34-C ) :   1.2615 B(  2-C ,  3-N ) :   0.8915 B(  2-C , 27-N ) :   1.2935
B(  3-N ,  4-C ) :   0.9172 B(  3-N , 15-S ) :   0.8082 B(  4-C ,  5-C ) :   0.9481
B(  4-C , 38-H ) :   0.9215 B(  4-C , 39-H ) :   0.9267 B(  5-C ,  6-C ) :   1.3801
B(  5-C , 11-C ) :   1.4267 B(  6-C ,  7-C ) :   1.3881 B(  6-C , 40-H ) :   0.9088
B(  7-C ,  8-F ) :   0.9365 B(  7-C ,  9-C ) :   1.3131 B(  9-C , 10-C ) :   1.4973
B(  9-C , 14-C ) :   0.9731 B( 10-C , 11-C ) :   1.3986 B( 10-C , 12-C ) :   0.9753
B( 11-C , 41-H ) :   0.9190 B( 12-C , 13-C ) :   0.9927 B( 12-C , 42-H ) :   0.9354
B( 12-C , 43-H ) :   0.9329 B( 13-C , 14-C ) :   0.9897 B( 13-C , 44-H ) :   0.9537
B( 13-C , 45-H ) :   0.9530 B( 14-C , 46-H ) :   0.9352 B( 14-C , 47-H ) :   0.9344
B( 15-S , 16-O ) :   1.6374 B( 15-S , 17-O ) :   1.6494 B( 15-S , 18-C ) :   0.8118
B( 18-C , 19-C ) :   1.3914 B( 18-C , 26-C ) :   1.3798 B( 19-C , 20-C ) :   1.4169
B( 19-C , 48-H ) :   0.9087 B( 20-C , 21-C ) :   1.3805 B( 20-C , 49-H ) :   0.9151
B( 21-C , 22-C ) :   1.0080 B( 21-C , 25-C ) :   1.4043 B( 22-C , 23-O ) :   1.8629
B( 22-C , 24-O ) :   1.0251 B( 24-O , 50-H ) :   0.7416 B( 25-C , 26-C ) :   1.4174
B( 25-C , 51-H ) :   0.9095 B( 26-C , 52-H ) :   0.9094 B( 27-N , 28-C ) :   1.4970
B( 28-C , 29-C ) :   1.2297 B( 28-C , 53-H ) :   0.9255 B( 29-C , 30-C ) :   1.2845
B( 29-C , 34-C ) :   1.2923 B( 30-C , 31-C ) :   1.5117 B( 30-C , 33-C ) :   0.1064
B( 30-C , 54-H ) :   0.9226 B( 31-C , 32-C ) :   1.3543 B( 31-C , 55-H ) :   0.9290
B( 32-C , 33-C ) :   1.5078 B( 32-C , 56-H ) :   0.9290 B( 33-C , 34-C ) :   1.2946
B( 33-C , 57-H ) :   0.9170

FINAL SINGLE POINT ENERGY     -1950.075620350147

DIPOLE MOMENT
-------------

Method             : SCF
Type of density    : Electron Density
Multiplicity       :   1
Irrep              :   0
Energy             : -1950.0756203501471191 Eh
Relativity type    :
Basis              : AO
                                X                 Y                 Z
Electronic contribution:      8.253243042      -1.680762169      -6.264727274
Nuclear contribution   :     -7.126616617       4.312046353       7.016270479
                        -----------------------------------------
Total Dipole Moment    :      1.126626425       2.631284184       0.751543205
                        -----------------------------------------
Magnitude (a.u.)       :      2.959351407
Magnitude (Debye)      :      7.522073488

Rotational constants in cm-1:             0.003949             0.002618             0.001705
Rotational constants in MHz :           118.373894            78.488239            51.128964

                             ****ORCA TERMINATED NORMALLY****
TOTAL RUN TIME: 0 days 0 hours 7 minutes 15 seconds 969 msec
