                         Program Version 6.0.0  -   RELEASE  -
|  1> ! B3LYP 6-31G* SP
|  2>
|  3> * xyz 0 1
|  4> C -1.8041 -2.8613 0.8008
|  5> C -2.7979 -1.7515 0.6983
|  6> O -3.9101 -1.8325 -0.0082
|  7> C -4.5293 -0.6799 0.0994
|  8> C -3.8260 0.1827 0.8823
|  9> C -2.6934 -0.4961 1.2987
| 10> C -1.5496 0.0251 2.1177
| 11> C -0.5409 0.6892 1.2313
| 12> O -0.7830 1.8402 0.7788
| 13> N 0.6896 0.0189 0.9116
| 14> C 1.5872 0.4396 -0.1243
| 15> N 2.8527 -0.0191 -0.2153
| 16> C 3.5017 0.4777 -1.3059
| 17> C 4.9132 0.1257 -1.6008
| 18> C 5.3793 0.1182 -2.9256
| 19> C 6.7062 -0.2077 -3.2070
| 20> C 7.5910 -0.5370 -2.1772
| 21> F 8.8766 -0.8241 -2.5009
| 22> C 7.1456 -0.5568 -0.8384
| 23> C 8.0734 -0.8867 0.3132
| 24> F 9.2993 -1.3654 -0.1150
| 25> F 8.2842 0.2532 1.0691
| 26> F 7.4939 -1.8548 1.1130
| 27> C 5.8050 -0.2121 -0.5599
| 28> F 5.3844 -0.1704 0.7316
| 29> C 2.7328 1.3331 -2.1012
| 30> S 1.2085 1.4641 -1.4058
| 31> C -4.2962 1.4739 1.0912
| 32> O -3.6339 2.2877 1.7916
| 33> N -5.4900 1.8402 0.5112
| 34> C -6.0008 3.2113 0.6833
| 35> C -6.1758 0.9479 -0.2954
| 36> O -7.2417 1.3121 -0.8701
| 37> N -5.7070 -0.3333 -0.4857
| 38> C -6.4192 -1.2796 -1.3540
| 39> H -0.8471 -2.5513 0.3312
| 40> H -2.1866 -3.7618 0.2785
| 41> H -1.6296 -3.1114 1.8677
| 42> H -1.0810 -0.8099 2.6762
| 43> H -1.9157 0.7464 2.8746
| 44> H 0.9665 -0.8136 1.4808
| 45> H 4.7164 0.3501 -3.7502
| 46> H 7.0512 -0.2046 -4.2328
| 47> H 3.0555 1.8438 -2.9988
| 48> H -5.6578 3.6577 1.6430
| 49> H -7.1126 3.2213 0.7128
| 50> H -5.6516 3.8467 -0.1582
| 51> H -6.0888 -2.3248 -1.1731
| 52> H -6.2344 -1.0235 -2.4195
| 53> H -7.5102 -1.2376 -1.1525
| 54> *
| 55>
| 56>                          ****END OF INPUT****

CARTESIAN COORDINATES (ANGSTROEM)
---------------------------------
  C     -1.804100   -2.861300    0.800800
  C     -2.797900   -1.751500    0.698300
  O     -3.910100   -1.832500   -0.008200
  C     -4.529300   -0.679900    0.099400
  C     -3.826000    0.182700    0.882300
  C     -2.693400   -0.496100    1.298700
  C     -1.549600    0.025100    2.117700
  C     -0.540900    0.689200    1.231300
  O     -0.783000    1.840200    0.778800
  N      0.689600    0.018900    0.911600
  C      1.587200    0.439600   -0.124300
  N      2.852700   -0.019100   -0.215300
  C      3.501700    0.477700   -1.305900
  C      4.913200    0.125700   -1.600800
  C      5.379300    0.118200   -2.925600
  C      6.706200   -0.207700   -3.207000
  C      7.591000   -0.537000   -2.177200
  F      8.876600   -0.824100   -2.500900
  C      7.145600   -0.556800   -0.838400
  C      8.073400   -0.886700    0.313200
  F      9.299300   -1.365400   -0.115000
  F      8.284200    0.253200    1.069100
  F      7.493900   -1.854800    1.113000
  C      5.805000   -0.212100   -0.559900
  F      5.384400   -0.170400    0.731600
  C      2.732800    1.333100   -2.101200
  S      1.208500    1.464100   -1.405800
  C     -4.296200    1.473900    1.091200
  O     -3.633900    2.287700    1.791600
  N     -5.490000    1.840200    0.511200
  C     -6.000800    3.211300    0.683300
  C     -6.175800    0.947900   -0.295400
  O     -7.241700    1.312100   -0.870100
  N     -5.707000   -0.333300   -0.485700
  C     -6.419200   -1.279600   -1.354000
  H     -0.847100   -2.551300    0.331200
  H     -2.186600   -3.761800    0.278500
  H     -1.629600   -3.111400    1.867700
  H     -1.081000   -0.809900    2.676200
  H     -1.915700    0.746400    2.874600
  H      0.966500   -0.813600    1.480800
  H      4.716400    0.350100   -3.750200
  H      7.051200   -0.204600   -4.232800
  H      3.055500    1.843800   -2.998800
  H     -5.657800    3.657700    1.643000
  H     -7.112600    3.221300    0.712800
  H     -5.651600    3.846700   -0.158200
  H     -6.088800   -2.324800   -1.173100
  H     -6.234400   -1.023500   -2.419500
  H     -7.510200   -1.237600   -1.152500

 Total Charge           Charge          ....    0
 Multiplicity           Mult            ....    1
 Number of Electrons    NEL             ....  262
 Basis Dimension        Dim             ....  524

ORBITAL ENERGIES
----------------

  NO   OCC          E(Eh)            E(eV)
   0   2.0000     -88.907161     -2419.2868
   1   2.0000     -24.716856      -672.5798
   2   2.0000     -24.716773      -672.5776
   3   2.0000     -24.713756      -672.4955
   4   2.0000     -24.713455      -672.4873
   5   2.0000     -24.713254      -672.4818
   6   2.0000     -19.254299      -523.9361
   7   2.0000     -19.128408      -520.5104
   8   2.0000     -19.113322      -520.0999
   9   2.0000     -19.100863      -519.7609
  10   2.0000     -14.413410      -392.2088
  11   2.0000     -14.397487      -391.7755
  12   2.0000     -14.393001      -391.6535
  13   2.0000     -14.333866      -390.0443
  14   2.0000     -10.439849      -284.0827
  15   2.0000     -10.329785      -281.0878
  16   2.0000     -10.310271      -280.5567
  17   2.0000     -10.299604      -280.2665
  18   2.0000     -10.299562      -280.2653
  19   2.0000     -10.299165      -280.2545
  20   2.0000     -10.292263      -280.0667
  21   2.0000     -10.284072      -279.8438
  22   2.0000     -10.255728      -279.0726
  23   2.0000     -10.241097      -278.6744
  24   2.0000     -10.234204      -278.4869
  25   2.0000     -10.230418      -278.3838
  26   2.0000     -10.221657      -278.1454
  27   2.0000     -10.218021      -278.0465
  28   2.0000     -10.215467      -277.9770
  29   2.0000     -10.212933      -277.9080
  30   2.0000     -10.211388      -277.8660
  31   2.0000     -10.210340      -277.8375
  32   2.0000     -10.208243      -277.7804
  33   2.0000     -10.204183      -277.6699
  34   2.0000     -10.187376      -277.2126
  35   2.0000      -7.983446      -217.2406
  36   2.0000      -5.946551      -161.8139
  37   2.0000      -5.942328      -161.6990
  38   2.0000      -5.940428      -161.6473
  39   2.0000      -1.276822       -34.7441
  40   2.0000      -1.230151       -33.4741
  41   2.0000      -1.225190       -33.3391
  42   2.0000      -1.200332       -32.6627
  43   2.0000      -1.199622       -32.6434
  44   2.0000      -1.183954       -32.2170
  45   2.0000      -1.066172       -29.0120
  46   2.0000      -1.030737       -28.0478
  47   2.0000      -1.013106       -27.5680
  48   2.0000      -0.980613       -26.6838
  49   2.0000      -0.975465       -26.5438
  50   2.0000      -0.934422       -25.4269
  51   2.0000      -0.919093       -25.0098
  52   2.0000      -0.886599       -24.1256
  53   2.0000      -0.855172       -23.2704
  54   2.0000      -0.815282       -22.1849
  55   2.0000      -0.811783       -22.0897
  56   2.0000      -0.805996       -21.9323
  57   2.0000      -0.782390       -21.2899
  58   2.0000      -0.771301       -20.9882
  59   2.0000      -0.747192       -20.3321
  60   2.0000      -0.727572       -19.7982
  61   2.0000      -0.725569       -19.7437
  62   2.0000      -0.710777       -19.3412
  63   2.0000      -0.701072       -19.0771
  64   2.0000      -0.663232       -18.0474
  65   2.0000      -0.646426       -17.5901
  66   2.0000      -0.643051       -17.4983
  67   2.0000      -0.630598       -17.1594
  68   2.0000      -0.626356       -17.0440
  69   2.0000      -0.610808       -16.6209
  70   2.0000      -0.596184       -16.2230
  71   2.0000      -0.580863       -15.8061
  72   2.0000      -0.573573       -15.6077
  73   2.0000      -0.567862       -15.4523
  74   2.0000      -0.567191       -15.4341
  75   2.0000      -0.562907       -15.3175
  76   2.0000      -0.542287       -14.7564
  77   2.0000      -0.537157       -14.6168
  78   2.0000      -0.531479       -14.4623
  79   2.0000      -0.529586       -14.4108
  80   2.0000      -0.513167       -13.9640
  81   2.0000      -0.506000       -13.7689
  82   2.0000      -0.502181       -13.6650
  83   2.0000      -0.497151       -13.5282
  84   2.0000      -0.485432       -13.2093
  85   2.0000      -0.481458       -13.1011
  86   2.0000      -0.478052       -13.0085
  87   2.0000      -0.472677       -12.8622
  88   2.0000      -0.464144       -12.6300
  89   2.0000      -0.460087       -12.5196
  90   2.0000      -0.456537       -12.4230
  91   2.0000      -0.454293       -12.3620
  92   2.0000      -0.448141       -12.1945
  93   2.0000      -0.444847       -12.1049
  94   2.0000      -0.442283       -12.0351
  95   2.0000      -0.438753       -11.9391
  96   2.0000      -0.434928       -11.8350
  97   2.0000      -0.434362       -11.8196
  98   2.0000      -0.431533       -11.7426
  99   2.0000      -0.428789       -11.6679
 100   2.0000      -0.417925       -11.3723
 101   2.0000      -0.415016       -11.2932
 102   2.0000      -0.412829       -11.2336
 103   2.0000      -0.408965       -11.1285
 104   2.0000      -0.407025       -11.0757
 105   2.0000      -0.405755       -11.0412
 106   2.0000      -0.401246       -10.9185
 107   2.0000      -0.397333       -10.8120
 108   2.0000      -0.395634       -10.7658
 109   2.0000      -0.393952       -10.7200
 110   2.0000      -0.388242       -10.5646
 111   2.0000      -0.386723       -10.5233
 112   2.0000      -0.378381       -10.2963
 113   2.0000      -0.376941       -10.2571
 114   2.0000      -0.369132       -10.0446
 115   2.0000      -0.365053        -9.9336
 116   2.0000      -0.361242        -9.8299
 117   2.0000      -0.353505        -9.6193
 118   2.0000      -0.326300        -8.8791
 119   2.0000      -0.314503        -8.5581
 120   2.0000      -0.297027        -8.0825
 121   2.0000      -0.288965        -7.8631
 122   2.0000      -0.276351        -7.5199
 123   2.0000      -0.274504        -7.4696
 124   2.0000      -0.274376        -7.4662
 125   2.0000      -0.263981        -7.1833
 126   2.0000      -0.258659        -7.0385
 127   2.0000      -0.254865        -6.9352
 128   2.0000      -0.239736        -6.5235
 129   2.0000      -0.219446        -5.9714
 130   2.0000      -0.207630        -5.6499
 131   0.0000      -0.047218        -1.2849
 132   0.0000      -0.036322        -0.9884
 133   0.0000      -0.029144        -0.7930
 134   0.0000      -0.015630        -0.4253
 135   0.0000      -0.005204        -0.1416

MULLIKEN ATOMIC CHARGES
-----------------------
   0 C :   -0.541060
   1 C :    0.259570
   2 O :   -0.406318
   3 C :    0.480304
   4 C :    0.042497
   5 C :    0.028654
   6 C :   -0.431942
   7 C :    0.567371
   8 O :   -0.430755
   9 N :   -0.649669
  10 C :    0.253991
  11 N :   -0.413554
  12 C :    0.210947
  13 C :    0.023711
  14 C :   -0.146008
  15 C :   -0.216726
  16 C :    0.403810
  17 F :   -0.297511
  18 C :   -0.219695
  19 C :    0.936063
  20 F :   -0.298955
  21 F :   -0.296280
  22 F :   -0.298635
  23 C :    0.368530
  24 F :   -0.280538
  25 C :   -0.393660
  26 S :    0.319891
  27 C :    0.510351
  28 O :   -0.489771
  29 N :   -0.484039
  30 C :   -0.313340
  31 C :    0.676443
  32 O :   -0.507021
  33 N :   -0.503904
  34 C :   -0.327432
  35 H :    0.176193
  36 H :    0.173061
  37 H :    0.176006
  38 H :    0.137021
  39 H :    0.224160
  40 H :    0.353282
  41 H :    0.153761
  42 H :    0.156437
  43 H :    0.180989
  44 H :    0.197685
  45 H :    0.188658
  46 H :    0.179376
  47 H :    0.179382
  48 H :    0.186516
  49 H :    0.202157
Sum of atomic charges:   -0.0000000

LOEWDIN ATOMIC CHARGES
----------------------
   0 C :   -0.364255
   1 C :    0.016200
   2 O :   -0.002686
   3 C :    0.091274
   4 C :   -0.105002
   5 C :   -0.039418
   6 C :   -0.237952
   7 C :    0.156045
   8 O :   -0.243674
   9 N :   -0.208224
  10 C :   -0.080514
  11 N :   -0.177624
  12 C :   -0.010170
  13 C :   -0.046721
  14 C :   -0.099808
  15 C :   -0.160700
  16 C :    0.135189
  17 F :   -0.087638
  18 C :   -0.123585
  19 C :    0.318194
  20 F :   -0.105869
  21 F :   -0.111559
  22 F :   -0.110397
  23 C :    0.155446
  24 F :   -0.074330
  25 C :   -0.348338
  26 S :    0.430972
  27 C :    0.111420
  28 O :   -0.288855
  29 N :   -0.029120
  30 C :   -0.259150
  31 C :    0.143944
  32 O :   -0.315343
  33 N :   -0.025571
  34 C :   -0.259554
  35 H :    0.143263
  36 H :    0.147111
  37 H :    0.144562
  38 H :    0.126734
  39 H :    0.178716
  40 H :    0.273613
  41 H :    0.145562
  42 H :    0.150398
  43 H :    0.161091
  44 H :    0.154417
  45 H :    0.148904
  46 H :    0.141141
  47 H :    0.143396
  48 H :    0.142886
  49 H :    0.155582

  Mayer bond orders larger than 0.100000
B(  0-C ,  1-C ) :   1.0271 B(  0-C , 35-H ) :   0.9259 B(  0-C , 36-H ) :   0.9370
B(  0-C , 37-H ) :   0.9313 B(  1-C ,  2-O ) :   0.9898 B(  1-C ,  5-C ) :   1.5423
B(  2-O ,  3-C ) :   1.0655 B(  3-C ,  4-C ) :   1.3756 B(  3-C , 33-N ) :   0.9750
B(  4-C ,  5-C ) :   1.2991 B(  4-C , 27-C ) :   1.0774 B(  5-C ,  6-C ) :   1.0002
B(  6-C ,  7-C ) :   0.9515 B(  6-C , 38-H ) :   0.9186 B(  6-C , 39-H ) :   0.8893
B(  7-C ,  8-O ) :   1.8531 B(  7-C ,  9-N ) :   1.0050 B(  9-N , 10-C ) :   0.9436
B(  9-N , 40-H ) :   0.8086 B( 10-C , 11-N ) :   1.4884 B( 10-C , 25-C ) :   0.1086
B( 10-C , 26-S ) :   1.1798 B( 11-N , 12-C ) :   1.2905 B( 12-C , 13-C ) :   1.0170
B( 12-C , 25-C ) :   1.5216 B( 13-C , 14-C ) :   1.4024 B( 13-C , 23-C ) :   1.3120
B( 14-C , 15-C ) :   1.4295 B( 14-C , 41-H ) :   0.9185 B( 15-C , 16-C ) :   1.3827
B( 15-C , 42-H ) :   0.9168 B( 16-C , 17-F ) :   0.9503 B( 16-C , 18-C ) :   1.3312
B( 18-C , 19-C ) :   0.9487 B( 18-C , 23-C ) :   1.3021 B( 19-C , 20-F ) :   0.9588
B( 19-C , 21-F ) :   0.9819 B( 19-C , 22-F ) :   0.9649 B( 23-C , 24-F ) :   0.9786
B( 25-C , 26-S ) :   1.1213 B( 25-C , 43-H ) :   0.9050 B( 27-C , 28-O ) :   1.7849
B( 27-C , 29-N ) :   0.9599 B( 29-N , 30-C ) :   0.9183 B( 29-N , 31-C ) :   1.0488
B( 30-C , 44-H ) :   0.9222 B( 30-C , 45-H ) :   0.9287 B( 30-C , 46-H ) :   0.9402
B( 31-C , 32-O ) :   1.7904 B( 31-C , 33-N ) :   1.0428 B( 33-N , 34-C ) :   0.9277
B( 34-C , 47-H ) :   0.9313 B( 34-C , 48-H ) :   0.9345 B( 34-C , 49-H ) :   0.9274

FINAL SINGLE POINT ENERGY     -2225.533632484843

DIPOLE MOMENT
-------------

Method             : SCF
Type of density    : Electron Density
Multiplicity       :   1
Irrep              :   0
Energy             : -2225.5336324848426557 Eh
Relativity type    :
Basis              : AO
                                X                 Y                 Z
Electronic contribution:     74.039640200      -2.753704903       1.136861728
Nuclear contribution   :    -75.226617720       0.858601589      -2.250037093
                        -----------------------------------------
Total Dipole Moment    :     -1.186977520      -1.895103314      -1.113175364
                        -----------------------------------------
Magnitude (a.u.)       :      2.497897435
Magnitude (Debye)      :      6.349150704

Rotational constants in cm-1:             0.010202             0.001099             0.001089
Rotational constants in MHz :           305.841821            32.943699            32.651464

                             ****ORCA TERMINATED NORMALLY****
TOTAL RUN TIME: 0 days 0 hours 5 minutes 35 seconds 204 msec
