                         Program Version 6.0.0  -   RELEASE  -
|  1> ! B3LYP 6-31G* SP
|  2>
|  3> * xyz 0 1
|  4> C -1.8858 2.5968 -1.8335
|  5> C -0.8406 3.1063 -0.8663
|  6> C -0.1729 2.2182 0.0117
|  7> N -0.4038 0.8036 -0.0350
|  8> C -0.8300 0.1233 1.1940
|  9> C -1.7936 -1.0073 0.8901
| 10> C -3.0598 -0.6385 0.4016
| 11> C -4.0065 -1.5984 0.0554
| 12> C -3.7136 -2.9509 0.1883
| 13> C -2.4652 -3.3599 0.6745
| 14> C -2.1902 -4.7304 0.8043
| 15> C -0.9575 -5.1578 1.2923
| 16> C 0.0079 -4.2251 1.6615
| 17> C -0.2472 -2.8568 1.5406
| 18> C -1.4844 -2.3926 1.0384
| 19> S 0.2842 -0.1009 -1.3571
| 20> O 0.9010 0.8369 -2.3556
| 21> O -0.8049 -0.8806 -2.0399
| 22> C 1.5381 -1.1850 -0.7693
| 23> C 1.5651 -2.5277 -1.1716
| 24> C 2.5520 -3.3890 -0.6834
| 25> C 3.5331 -2.9158 0.2084
| 26> C 4.5723 -3.8313 0.7286
| 27> O 5.4903 -3.3954 1.4798
| 28> O 4.5468 -5.1842 0.3949
| 29> C 3.5098 -1.5625 0.5951
| 30> C 2.5196 -0.7044 0.1065
| 31> N 0.7111 2.7014 0.9245
| 32> C 1.0107 4.0188 1.0241
| 33> C 0.4132 4.9416 0.1627
| 34> C 0.7364 6.3047 0.2513
| 35> C 0.1472 7.2234 -0.6171
| 36> C -0.7675 6.7908 -1.5769
| 37> C -1.1030 5.4377 -1.6729
| 38> C -0.5211 4.4888 -0.8023
| 39> H -2.8354 3.1559 -1.6916
| 40> H -2.1282 1.5268 -1.6812
| 41> H -1.5271 2.7276 -2.8763
| 42> H -1.3659 0.8467 1.8479
| 43> H 0.0587 -0.1727 1.7748
| 44> H -3.3164 0.4068 0.2859
| 45> H -4.9742 -1.2917 -0.3177
| 46> H -4.4660 -3.6807 -0.0874
| 47> H -2.9299 -5.4729 0.5271
| 48> H -0.7507 -6.2163 1.3880
| 49> H 0.9653 -4.5637 2.0390
| 50> H 0.5478 -2.1954 1.8373
| 51> H 0.8142 -2.9154 -1.8500
| 52> H 2.5435 -4.4256 -1.0026
| 53> H 5.2577 -5.8175 0.7420
| 54> H 4.2535 -1.1676 1.2773
| 55> H 2.5135 0.3330 0.4170
| 56> H 1.7249 4.3406 1.7720
| 57> H 1.4475 6.6573 0.9890
| 58> H 0.4034 8.2731 -0.5486
| 59> H -1.2167 7.5064 -2.2523
| 60> H -1.8106 5.1474 -2.4376
| 61> *
| 62>
| 63>                          ****END OF INPUT****

CARTESIAN COORDINATES (ANGSTROEM)
---------------------------------
  C     -1.885800    2.596800   -1.833500
  C     -0.840600    3.106300   -0.866300
  C     -0.172900    2.218200    0.011700
  N     -0.403800    0.803600   -0.035000
  C     -0.830000    0.123300    1.194000
  C     -1.793600   -1.007300    0.890100
  C     -3.059800   -0.638500    0.401600
  C     -4.006500   -1.598400    0.055400
  C     -3.713600   -2.950900    0.188300
  C     -2.465200   -3.359900    0.674500
  C     -2.190200   -4.730400    0.804300
  C     -0.957500   -5.157800    1.292300
  C      0.007900   -4.225100    1.661500
  C     -0.247200   -2.856800    1.540600
  C     -1.484400   -2.392600    1.038400
  S      0.284200   -0.100900   -1.357100
  O      0.901000    0.836900   -2.355600
  O     -0.804900   -0.880600   -2.039900
  C      1.538100   -1.185000   -0.769300
  C      1.565100   -2.527700   -1.171600
  C      2.552000   -3.389000   -0.683400
  C      3.533100   -2.915800    0.208400
  C      4.572300   -3.831300    0.728600
  O      5.490300   -3.395400    1.479800
  O      4.546800   -5.184200    0.394900
  C      3.509800   -1.562500    0.595100
  C      2.519600   -0.704400    0.106500
  N      0.711100    2.701400    0.924500
  C      1.010700    4.018800    1.024100
  C      0.413200    4.941600    0.162700
  C      0.736400    6.304700    0.251300
  C      0.147200    7.223400   -0.617100
  C     -0.767500    6.790800   -1.576900
  C     -1.103000    5.437700   -1.672900
  C     -0.521100    4.488800   -0.802300
  H     -2.835400    3.155900   -1.691600
  H     -2.128200    1.526800   -1.681200
  H     -1.527100    2.727600   -2.876300
  H     -1.365900    0.846700    1.847900
  H      0.058700   -0.172700    1.774800
  H     -3.316400    0.406800    0.285900
  H     -4.974200   -1.291700   -0.317700
  H     -4.466000   -3.680700   -0.087400
  H     -2.929900   -5.472900    0.527100
  H     -0.750700   -6.216300    1.388000
  H      0.965300   -4.563700    2.039000
  H      0.547800   -2.195400    1.837300
  H      0.814200   -2.915400   -1.850000
  H      2.543500   -4.425600   -1.002600
  H      5.257700   -5.817500    0.742000
  H      4.253500   -1.167600    1.277300
  H      2.513500    0.333000    0.417000
  H      1.724900    4.340600    1.772000
  H      1.447500    6.657300    0.989000
  H      0.403400    8.273100   -0.548600
  H     -1.216700    7.506400   -2.252300
  H     -1.810600    5.147400   -2.437600

 Total Charge           Charge          ....    0
 Multiplicity           Mult            ....    1
 Number of Electrons    NEL             ....  252
 Basis Dimension        Dim             ....  538

ORBITAL ENERGIES
----------------

  NO   OCC          E(Eh)            E(eV)
   0   2.0000     -89.091983     -2424.3161
   1   2.0000     -19.194521      -522.3095
   2   2.0000     -19.135428      -520.7015
   3   2.0000     -19.121421      -520.3203
   4   2.0000     -19.118317      -520.2358
   5   2.0000     -14.368586      -390.9891
   6   2.0000     -14.331094      -389.9689
   7   2.0000     -10.332973      -281.1745
   8   2.0000     -10.255184      -279.0577
   9   2.0000     -10.236622      -278.5527
  10   2.0000     -10.229128      -278.3487
  11   2.0000     -10.227943      -278.3165
  12   2.0000     -10.223393      -278.1927
  13   2.0000     -10.215482      -277.9774
  14   2.0000     -10.213813      -277.9320
  15   2.0000     -10.213431      -277.9216
  16   2.0000     -10.212218      -277.8886
  17   2.0000     -10.205445      -277.7043
  18   2.0000     -10.202981      -277.6372
  19   2.0000     -10.197732      -277.4944
  20   2.0000     -10.195508      -277.4339
  21   2.0000     -10.195017      -277.4205
  22   2.0000     -10.193428      -277.3773
  23   2.0000     -10.192752      -277.3589
  24   2.0000     -10.192705      -277.3576
  25   2.0000     -10.191151      -277.3153
  26   2.0000     -10.185067      -277.1498
  27   2.0000     -10.180189      -277.0170
  28   2.0000     -10.179412      -276.9959
  29   2.0000     -10.179304      -276.9929
  30   2.0000     -10.179148      -276.9887
  31   2.0000     -10.178384      -276.9679
  32   2.0000     -10.177800      -276.9520
  33   2.0000     -10.177138      -276.9340
  34   2.0000     -10.170926      -276.7650
  35   2.0000      -8.127876      -221.1707
  36   2.0000      -6.093083      -165.8012
  37   2.0000      -6.090729      -165.7372
  38   2.0000      -6.090465      -165.7300
  39   2.0000      -1.078556       -29.3490
  40   2.0000      -1.077874       -29.3304
  41   2.0000      -0.991769       -26.9874
  42   2.0000      -0.960081       -26.1251
  43   2.0000      -0.956480       -26.0272
  44   2.0000      -0.911161       -24.7940
  45   2.0000      -0.884924       -24.0800
  46   2.0000      -0.870751       -23.6944
  47   2.0000      -0.861173       -23.4337
  48   2.0000      -0.816940       -22.2301
  49   2.0000      -0.805663       -21.9232
  50   2.0000      -0.799988       -21.7688
  51   2.0000      -0.781666       -21.2702
  52   2.0000      -0.771489       -20.9933
  53   2.0000      -0.770547       -20.9676
  54   2.0000      -0.741035       -20.1646
  55   2.0000      -0.739107       -20.1121
  56   2.0000      -0.728116       -19.8130
  57   2.0000      -0.708870       -19.2893
  58   2.0000      -0.691620       -18.8200
  59   2.0000      -0.679186       -18.4816
  60   2.0000      -0.649083       -17.6624
  61   2.0000      -0.641091       -17.4450
  62   2.0000      -0.634976       -17.2786
  63   2.0000      -0.622591       -16.9416
  64   2.0000      -0.612842       -16.6763
  65   2.0000      -0.606681       -16.5086
  66   2.0000      -0.594609       -16.1801
  67   2.0000      -0.591732       -16.1018
  68   2.0000      -0.577282       -15.7086
  69   2.0000      -0.552508       -15.0345
  70   2.0000      -0.537463       -14.6251
  71   2.0000      -0.531589       -14.4653
  72   2.0000      -0.513354       -13.9691
  73   2.0000      -0.512192       -13.9374
  74   2.0000      -0.502753       -13.6806
  75   2.0000      -0.497008       -13.5243
  76   2.0000      -0.488848       -13.3022
  77   2.0000      -0.482872       -13.1396
  78   2.0000      -0.478631       -13.0242
  79   2.0000      -0.473119       -12.8742
  80   2.0000      -0.466122       -12.6838
  81   2.0000      -0.456282       -12.4161
  82   2.0000      -0.449965       -12.2442
  83   2.0000      -0.446656       -12.1541
  84   2.0000      -0.444640       -12.0993
  85   2.0000      -0.442192       -12.0327
  86   2.0000      -0.439415       -11.9571
  87   2.0000      -0.435848       -11.8600
  88   2.0000      -0.428229       -11.6527
  89   2.0000      -0.424787       -11.5591
  90   2.0000      -0.423166       -11.5149
  91   2.0000      -0.422523       -11.4974
  92   2.0000      -0.411182       -11.1888
  93   2.0000      -0.408542       -11.1170
  94   2.0000      -0.399960       -10.8835
  95   2.0000      -0.397349       -10.8124
  96   2.0000      -0.391397       -10.6505
  97   2.0000      -0.389657       -10.6031
  98   2.0000      -0.387853       -10.5540
  99   2.0000      -0.382318       -10.4034
 100   2.0000      -0.380015       -10.3407
 101   2.0000      -0.375198       -10.2097
 102   2.0000      -0.369450       -10.0532
 103   2.0000      -0.363864        -9.9012
 104   2.0000      -0.362773        -9.8715
 105   2.0000      -0.350825        -9.5464
 106   2.0000      -0.347377        -9.4526
 107   2.0000      -0.333229        -9.0676
 108   2.0000      -0.329579        -8.9683
 109   2.0000      -0.325841        -8.8666
 110   2.0000      -0.318845        -8.6762
 111   2.0000      -0.314129        -8.5479
 112   2.0000      -0.301468        -8.2034
 113   2.0000      -0.299364        -8.1461
 114   2.0000      -0.286382        -7.7928
 115   2.0000      -0.282731        -7.6935
 116   2.0000      -0.276590        -7.5264
 117   2.0000      -0.272073        -7.4035
 118   2.0000      -0.270332        -7.3561
 119   2.0000      -0.268924        -7.3178
 120   2.0000      -0.260681        -7.0935
 121   2.0000      -0.253731        -6.9044
 122   2.0000      -0.248754        -6.7689
 123   2.0000      -0.240637        -6.5481
 124   2.0000      -0.219111        -5.9623
 125   2.0000      -0.201769        -5.4904
 126   0.0000      -0.079632        -2.1669
 127   0.0000      -0.058087        -1.5806
 128   0.0000      -0.041650        -1.1334
 129   0.0000      -0.029725        -0.8088
 130   0.0000      -0.025672        -0.6986

MULLIKEN ATOMIC CHARGES
-----------------------
   0 C :   -0.551040
   1 C :    0.116981
   2 C :    0.316237
   3 N :   -0.622290
   4 C :   -0.224487
   5 C :    0.058137
   6 C :   -0.145803
   7 C :   -0.123921
   8 C :   -0.192144
   9 C :    0.156330
  10 C :   -0.202128
  11 C :   -0.132560
  12 C :   -0.130381
  13 C :   -0.218703
  14 C :    0.120255
  15 S :    1.230133
  16 O :   -0.536717
  17 O :   -0.547539
  18 C :   -0.125394
  19 C :   -0.130166
  20 C :   -0.142051
  21 C :    0.078599
  22 C :    0.526607
  23 O :   -0.447555
  24 O :   -0.623840
  25 C :   -0.144428
  26 C :   -0.161754
  27 N :   -0.409792
  28 C :   -0.053574
  29 C :    0.136132
  30 C :   -0.202757
  31 C :   -0.126452
  32 C :   -0.120634
  33 C :   -0.195145
  34 C :    0.121459
  35 H :    0.146228
  36 H :    0.200201
  37 H :    0.183163
  38 H :    0.183257
  39 H :    0.167384
  40 H :    0.127950
  41 H :    0.127648
  42 H :    0.128731
  43 H :    0.129535
  44 H :    0.124733
  45 H :    0.126603
  46 H :    0.132383
  47 H :    0.192311
  48 H :    0.172600
  49 H :    0.433215
  50 H :    0.179604
  51 H :    0.191413
  52 H :    0.150045
  53 H :    0.137263
  54 H :    0.135269
  55 H :    0.137554
  56 H :    0.143294
Sum of atomic charges:   -0.0000000

LOEWDIN ATOMIC CHARGES
----------------------
   0 C :   -0.365213
   1 C :    0.001672
   2 C :    0.026009
   3 N :   -0.282217
   4 C :   -0.146844
   5 C :   -0.028698
   6 C :   -0.113059
   7 C :   -0.127451
   8 C :   -0.115260
   9 C :   -0.009464
  10 C :   -0.120229
  11 C :   -0.135950
  12 C :   -0.133821
  13 C :   -0.130825
  14 C :   -0.012426
  15 S :    1.264334
  16 O :   -0.567472
  17 O :   -0.569572
  18 C :   -0.172500
  19 C :   -0.090241
  20 C :   -0.095703
  21 C :   -0.043291
  22 C :    0.180543
  23 O :   -0.264444
  24 O :   -0.335472
  25 C :   -0.089603
  26 C :   -0.112171
  27 N :   -0.145269
  28 C :   -0.062403
  29 C :   -0.028805
  30 C :   -0.112694
  31 C :   -0.126407
  32 C :   -0.117386
  33 C :   -0.119694
  34 C :   -0.004706
  35 H :    0.128578
  36 H :    0.152387
  37 H :    0.149807
  38 H :    0.151331
  39 H :    0.126851
  40 H :    0.132135
  41 H :    0.132324
  42 H :    0.132567
  43 H :    0.132609
  44 H :    0.130247
  45 H :    0.130927
  46 H :    0.132720
  47 H :    0.164883
  48 H :    0.154881
  49 H :    0.349126
  50 H :    0.159727
  51 H :    0.160809
  52 H :    0.135843
  53 H :    0.136237
  54 H :    0.135101
  55 H :    0.136573
  56 H :    0.141069

  Mayer bond orders larger than 0.100000
B(  0-C ,  1-C ) :   1.0077 B(  0-C , 35-H ) :   0.9283 B(  0-C , 36-H ) :   0.9136
B(  0-C , 37-H ) :   0.9204 B(  1-C ,  2-C ) :   1.4404 B(  1-C , 28-C ) :   0.1002
B(  1-C , 34-C ) :   1.2642 B(  2-C ,  3-N ) :   0.9041 B(  2-C , 27-N ) :   1.2651
B(  3-N ,  4-C ) :   0.9071 B(  3-N , 15-S ) :   0.7794 B(  4-C ,  5-C ) :   0.9662
B(  4-C , 38-H ) :   0.9191 B(  4-C , 39-H ) :   0.9122 B(  5-C ,  6-C ) :   1.4732
B(  5-C ,  8-C ) :   0.1017 B(  5-C , 14-C ) :   1.2835 B(  6-C ,  7-C ) :   1.3556
B(  6-C , 40-H ) :   0.9234 B(  7-C ,  8-C ) :   1.4998 B(  7-C , 41-H ) :   0.9294
B(  8-C ,  9-C ) :   1.2997 B(  8-C , 42-H ) :   0.9255 B(  9-C , 10-C ) :   1.2900
B(  9-C , 14-C ) :   1.2868 B( 10-C , 11-C ) :   1.5113 B( 10-C , 13-C ) :   0.1052
B( 10-C , 43-H ) :   0.9255 B( 11-C , 12-C ) :   1.3542 B( 11-C , 44-H ) :   0.9305
B( 12-C , 13-C ) :   1.5099 B( 12-C , 45-H ) :   0.9293 B( 13-C , 14-C ) :   1.2855
B( 13-C , 46-H ) :   0.9119 B( 15-S , 16-O ) :   1.6636 B( 15-S , 17-O ) :   1.6158
B( 15-S , 18-C ) :   0.8116 B( 18-C , 19-C ) :   1.4064 B( 18-C , 26-C ) :   1.3686
B( 19-C , 20-C ) :   1.4103 B( 19-C , 47-H ) :   0.9067 B( 20-C , 21-C ) :   1.3810
B( 20-C , 48-H ) :   0.9151 B( 21-C , 22-C ) :   1.0099 B( 21-C , 25-C ) :   1.3956
B( 22-C , 23-O ) :   1.8588 B( 22-C , 24-O ) :   1.0232 B( 24-O , 49-H ) :   0.7425
B( 25-C , 26-C ) :   1.4289 B( 25-C , 50-H ) :   0.9103 B( 26-C , 51-H ) :   0.8998
B( 27-N , 28-C ) :   1.4916 B( 28-C , 29-C ) :   1.2424 B( 28-C , 52-H ) :   0.9267
B( 29-C , 30-C ) :   1.2833 B( 29-C , 34-C ) :   1.2914 B( 30-C , 31-C ) :   1.5133
B( 30-C , 33-C ) :   0.1060 B( 30-C , 53-H ) :   0.9236 B( 31-C , 32-C ) :   1.3523
B( 31-C , 54-H ) :   0.9294 B( 32-C , 33-C ) :   1.5081 B( 32-C , 55-H ) :   0.9291
B( 33-C , 34-C ) :   1.2960 B( 33-C , 56-H ) :   0.9153

FINAL SINGLE POINT ENERGY     -1887.767048283587

DIPOLE MOMENT
-------------

Method             : SCF
Type of density    : Electron Density
Multiplicity       :   1
Irrep              :   0
Energy             : -1887.7670482835869734 Eh
Relativity type    :
Basis              : AO
                                X                 Y                 Z
Electronic contribution:     11.030566793      -5.155298122      -0.902541305
Nuclear contribution   :    -11.432812635       5.387644934       1.742183809
                        -----------------------------------------
Total Dipole Moment    :     -0.402245842       0.232346812       0.839642504
                        -----------------------------------------
Magnitude (a.u.)       :      0.959576101
Magnitude (Debye)      :      2.439048613

Rotational constants in cm-1:             0.005886             0.002498             0.001962
Rotational constants in MHz :           176.454778            74.898332            58.829671

                             ****ORCA TERMINATED NORMALLY****
TOTAL RUN TIME: 0 days 0 hours 8 minutes 4 seconds 748 msec
