                         Program Version 6.0.0  -   RELEASE  -
|  1> ! B3LYP 6-31G* SP
|  2>
|  3> * xyz 0 1
|  4> C -6.6338 -0.7383 1.0178
|  5> C -6.1513 -0.5571 -0.4153
|  6> N -4.8444 0.0871 -0.4274
|  7> N -4.6572 1.3950 -0.4544
|  8> N -3.3584 1.6402 -0.3963
|  9> C -2.7741 0.4256 -0.3237
| 10> C -1.3164 0.2272 -0.2349
| 11> S -0.2055 1.4912 -0.2182
| 12> C 1.1395 0.4834 -0.1059
| 13> C 2.5524 0.9252 -0.0424
| 14> C 2.8830 2.2918 -0.0733
| 15> C 4.2178 2.6975 -0.0128
| 16> C 5.2369 1.7484 0.0790
| 17> C 4.9340 0.3835 0.1114
| 18> O 5.9947 -0.5303 0.2043
| 19> C 5.8377 -1.9449 0.2467
| 20> C 3.5867 -0.0250 0.0503
| 21> N 0.7608 -0.8148 -0.0802
| 22> C -0.5889 -0.9695 -0.1506
| 23> O -1.1494 -2.2458 -0.1359
| 24> N -3.6944 -0.5574 -0.3349
| 25> H -5.9199 -1.3741 1.5834
| 26> H -6.7203 0.2492 1.5190
| 27> H -7.6296 -1.2294 1.0176
| 28> H -6.8809 0.0653 -0.9771
| 29> H -6.0835 -1.5489 -0.9124
| 30> H 2.1144 3.0500 -0.1441
| 31> H 4.4632 3.7514 -0.0372
| 32> H 6.2682 2.0746 0.1253
| 33> H 5.3427 -2.3022 -0.6809
| 34> H 6.8380 -2.4185 0.3202
| 35> H 5.2403 -2.2363 1.1363
| 36> H 3.3406 -1.0778 0.0746
| 37> H -2.1428 -2.4163 -0.1862
| 38> *
| 39>
| 40>                          ****END OF INPUT****

CARTESIAN COORDINATES (ANGSTROEM)
---------------------------------
  C     -6.633800   -0.738300    1.017800
  C     -6.151300   -0.557100   -0.415300
  N     -4.844400    0.087100   -0.427400
  N     -4.657200    1.395000   -0.454400
  N     -3.358400    1.640200   -0.396300
  C     -2.774100    0.425600   -0.323700
  C     -1.316400    0.227200   -0.234900
  S     -0.205500    1.491200   -0.218200
  C      1.139500    0.483400   -0.105900
  C      2.552400    0.925200   -0.042400
  C      2.883000    2.291800   -0.073300
  C      4.217800    2.697500   -0.012800
  C      5.236900    1.748400    0.079000
  C      4.934000    0.383500    0.111400
  O      5.994700   -0.530300    0.204300
  C      5.837700   -1.944900    0.246700
  C      3.586700   -0.025000    0.050300
  N      0.760800   -0.814800   -0.080200
  C     -0.588900   -0.969500   -0.150600
  O     -1.149400   -2.245800   -0.135900
  N     -3.694400   -0.557400   -0.334900
  H     -5.919900   -1.374100    1.583400
  H     -6.720300    0.249200    1.519000
  H     -7.629600   -1.229400    1.017600
  H     -6.880900    0.065300   -0.977100
  H     -6.083500   -1.548900   -0.912400
  H      2.114400    3.050000   -0.144100
  H      4.463200    3.751400   -0.037200
  H      6.268200    2.074600    0.125300
  H      5.342700   -2.302200   -0.680900
  H      6.838000   -2.418500    0.320200
  H      5.240300   -2.236300    1.136300
  H      3.340600   -1.077800    0.074600
  H     -2.142800   -2.416300   -0.186200

 Total Charge           Charge          ....    0
 Multiplicity           Mult            ....    1
 Number of Electrons    NEL             ....  158
 Basis Dimension        Dim             ....  324

ORBITAL ENERGIES
----------------

  NO   OCC          E(Eh)            E(eV)
   0   2.0000     -88.897947     -2419.0361
   1   2.0000     -19.168228      -521.5940
   2   2.0000     -19.162998      -521.4517
   3   2.0000     -14.466222      -393.6459
   4   2.0000     -14.404699      -391.9718
   5   2.0000     -14.379254      -391.2794
   6   2.0000     -14.364568      -390.8798
   7   2.0000     -14.329246      -389.9186
   8   2.0000     -10.284721      -279.8615
   9   2.0000     -10.263103      -279.2732
  10   2.0000     -10.257672      -279.1255
  11   2.0000     -10.254555      -279.0406
  12   2.0000     -10.247770      -278.8560
  13   2.0000     -10.233264      -278.4613
  14   2.0000     -10.219336      -278.0823
  15   2.0000     -10.207753      -277.7671
  16   2.0000     -10.200544      -277.5709
  17   2.0000     -10.187224      -277.2085
  18   2.0000     -10.183552      -277.1085
  19   2.0000     -10.182799      -277.0881
  20   2.0000     -10.182468      -277.0790
  21   2.0000      -7.974728      -217.0034
  22   2.0000      -5.937668      -161.5722
  23   2.0000      -5.933707      -161.4644
  24   2.0000      -5.931794      -161.4123
  25   2.0000      -1.153867       -31.3983
  26   2.0000      -1.040541       -28.3146
  27   2.0000      -1.037556       -28.2333
  28   2.0000      -0.959427       -26.1073
  29   2.0000      -0.954966       -25.9860
  30   2.0000      -0.903376       -24.5821
  31   2.0000      -0.854305       -23.2468
  32   2.0000      -0.818625       -22.2759
  33   2.0000      -0.793577       -21.5943
  34   2.0000      -0.778259       -21.1775
  35   2.0000      -0.747749       -20.3473
  36   2.0000      -0.728241       -19.8165
  37   2.0000      -0.693388       -18.8681
  38   2.0000      -0.688008       -18.7216
  39   2.0000      -0.669236       -18.2108
  40   2.0000      -0.625381       -17.0175
  41   2.0000      -0.617503       -16.8031
  42   2.0000      -0.606349       -16.4996
  43   2.0000      -0.588367       -16.0103
  44   2.0000      -0.559235       -15.2176
  45   2.0000      -0.541147       -14.7254
  46   2.0000      -0.530585       -14.4380
  47   2.0000      -0.513997       -13.9866
  48   2.0000      -0.506517       -13.7830
  49   2.0000      -0.487358       -13.2617
  50   2.0000      -0.481564       -13.1040
  51   2.0000      -0.472985       -12.8706
  52   2.0000      -0.456510       -12.4223
  53   2.0000      -0.455937       -12.4067
  54   2.0000      -0.438673       -11.9369
  55   2.0000      -0.434685       -11.8284
  56   2.0000      -0.427676       -11.6377
  57   2.0000      -0.419723       -11.4212
  58   2.0000      -0.412858       -11.2344
  59   2.0000      -0.404077       -10.9955
  60   2.0000      -0.400871       -10.9083
  61   2.0000      -0.388714       -10.5775
  62   2.0000      -0.379714       -10.3325
  63   2.0000      -0.378729       -10.3057
  64   2.0000      -0.369988       -10.0679
  65   2.0000      -0.357730        -9.7343
  66   2.0000      -0.351331        -9.5602
  67   2.0000      -0.336070        -9.1449
  68   2.0000      -0.328948        -8.9511
  69   2.0000      -0.318688        -8.6719
  70   2.0000      -0.314579        -8.5601
  71   2.0000      -0.309916        -8.4333
  72   2.0000      -0.308156        -8.3853
  73   2.0000      -0.294285        -8.0079
  74   2.0000      -0.271266        -7.3815
  75   2.0000      -0.268822        -7.3150
  76   2.0000      -0.255295        -6.9469
  77   2.0000      -0.224158        -6.0996
  78   2.0000      -0.203983        -5.5506
  79   0.0000      -0.057780        -1.5723
  80   0.0000      -0.028303        -0.7702
  81   0.0000       0.003000         0.0816
  82   0.0000       0.014293         0.3889
  83   0.0000       0.039021         1.0618

MULLIKEN ATOMIC CHARGES
-----------------------
   0 C :   -0.444960
   1 C :   -0.148035
   2 N :   -0.023309
   3 N :   -0.059306
   4 N :   -0.320140
   5 C :    0.429309
   6 C :   -0.245586
   7 S :    0.295730
   8 C :   -0.015107
   9 C :    0.149279
  10 C :   -0.202219
  11 C :   -0.128502
  12 C :   -0.165572
  13 C :    0.379820
  14 O :   -0.514704
  15 C :   -0.197837
  16 C :   -0.246259
  17 N :   -0.408237
  18 C :    0.491671
  19 O :   -0.656189
  20 N :   -0.361286
  21 H :    0.171107
  22 H :    0.176991
  23 H :    0.160405
  24 H :    0.192813
  25 H :    0.185902
  26 H :    0.144906
  27 H :    0.137855
  28 H :    0.140548
  29 H :    0.152092
  30 H :    0.167795
  31 H :    0.151936
  32 H :    0.167429
  33 H :    0.441661
Sum of atomic charges:   -0.0000000

LOEWDIN ATOMIC CHARGES
----------------------
   0 C :   -0.362227
   1 C :   -0.153264
   2 N :    0.097812
   3 N :   -0.067677
   4 N :   -0.122098
   5 C :   -0.000046
   6 C :   -0.268373
   7 S :    0.423726
   8 C :   -0.112237
   9 C :   -0.023023
  10 C :   -0.142159
  11 C :   -0.119797
  12 C :   -0.140572
  13 C :    0.091806
  14 O :   -0.193586
  15 C :   -0.199821
  16 C :   -0.151753
  17 N :   -0.164755
  18 C :    0.100924
  19 O :   -0.337905
  20 N :   -0.159839
  21 H :    0.137468
  22 H :    0.140511
  23 H :    0.136569
  24 H :    0.152468
  25 H :    0.148717
  26 H :    0.138827
  27 H :    0.137425
  28 H :    0.142089
  29 H :    0.119012
  30 H :    0.134823
  31 H :    0.118944
  32 H :    0.153033
  33 H :    0.344979

  Mayer bond orders larger than 0.100000
B(  0-C ,  1-C ) :   1.0031 B(  0-C , 21-H ) :   0.9443 B(  0-C , 22-H ) :   0.9433
B(  0-C , 23-H ) :   0.9416 B(  1-C ,  2-N ) :   0.8974 B(  1-C , 24-H ) :   0.9256
B(  1-C , 25-H ) :   0.9274 B(  2-N ,  3-N ) :   1.2491 B(  2-N , 20-N ) :   1.2199
B(  3-N ,  4-N ) :   1.4264 B(  3-N , 20-N ) :   0.1313 B(  4-N ,  5-C ) :   1.2865
B(  5-C ,  6-C ) :   1.0573 B(  5-C , 20-N ) :   1.3584 B(  6-C ,  7-S ) :   1.0796
B(  6-C ,  8-C ) :   0.1204 B(  6-C , 18-C ) :   1.3804 B(  7-S ,  8-C ) :   1.1532
B(  8-C ,  9-C ) :   1.0238 B(  8-C , 17-N ) :   1.4281 B(  9-C , 10-C ) :   1.3953
B(  9-C , 16-C ) :   1.3889 B( 10-C , 11-C ) :   1.4369 B( 10-C , 26-H ) :   0.9161
B( 11-C , 12-C ) :   1.4498 B( 11-C , 27-H ) :   0.9286 B( 12-C , 13-C ) :   1.3899
B( 12-C , 28-H ) :   0.9196 B( 13-C , 14-O ) :   0.9180 B( 13-C , 16-C ) :   1.3441
B( 14-O , 15-C ) :   0.9159 B( 15-C , 29-H ) :   0.9303 B( 15-C , 30-H ) :   0.9450
B( 15-C , 31-H ) :   0.9303 B( 16-C , 32-H ) :   0.8974 B( 17-N , 18-C ) :   1.3193
B( 18-C , 19-O ) :   1.0099 B( 19-O , 33-H ) :   0.7194

FINAL SINGLE POINT ENERGY     -1324.923516773228

DIPOLE MOMENT
-------------

Method             : SCF
Type of density    : Electron Density
Multiplicity       :   1
Irrep              :   0
Energy             : -1324.9235167732283571 Eh
Relativity type    :
Basis              : AO
                                X                 Y                 Z
Electronic contribution:      0.574360117       7.614008418      -3.583221540
Nuclear contribution   :     -1.796545863      -8.452598404       3.668481817
                        -----------------------------------------
Total Dipole Moment    :     -1.222185745      -0.838589986       0.085260276
                        -----------------------------------------
Magnitude (a.u.)       :      1.484668473
Magnitude (Debye)      :      3.773727355

Rotational constants in cm-1:             0.029611             0.003563             0.003220
Rotational constants in MHz :           887.728109           106.811586            96.525885

                             ****ORCA TERMINATED NORMALLY****
TOTAL RUN TIME: 0 days 0 hours 3 minutes 1 seconds 401 msec
