                         Program Version 6.0.0  -   RELEASE  -
|  1> ! B3LYP 6-31G* SP
|  2>
|  3> * xyz 0 1
|  4> C 6.9590 1.4206 1.9995
|  5> C 6.0129 2.2077 1.1001
|  6> O 5.2920 1.3306 0.2368
|  7> C 4.2194 0.5394 0.6630
|  8> O 3.8051 0.6073 1.8532
|  9> N 3.5898 -0.3444 -0.2690
| 10> C 2.4634 -1.1935 0.1213
| 11> C 1.9336 -2.0081 -1.0644
| 12> C 1.3079 -1.1237 -2.1043
| 13> C 1.8894 -0.7023 -3.2964
| 14> N 1.0538 0.1283 -3.9605
| 15> C -0.0455 0.2399 -3.1945
| 16> C -1.1818 1.0013 -3.4553
| 17> C -2.2177 0.9846 -2.5045
| 18> C -2.1053 0.2188 -1.3204
| 19> O -3.1711 0.2466 -0.4096
| 20> C -3.1948 -0.4681 0.8226
| 21> C -4.4897 -0.1907 1.5281
| 22> C -5.6181 -0.9887 1.2769
| 23> C -6.8345 -0.7056 1.9063
| 24> C -6.9353 0.3815 2.7791
| 25> C -5.8211 1.1900 3.0204
| 26> C -4.6029 0.9102 2.3931
| 27> C -0.9343 -0.5444 -1.0887
| 28> C 0.0730 -0.5070 -2.0523
| 29> H 7.5501 2.1225 2.6247
| 30> H 6.3860 0.7447 2.6679
| 31> H 7.6552 0.8163 1.3802
| 32> H 6.6116 2.9042 0.4761
| 33> H 5.3101 2.8124 1.7137
| 34> H 3.9635 -0.3758 -1.2444
| 35> H 1.6479 -0.5634 0.5386
| 36> H 2.7980 -1.8955 0.9152
| 37> H 1.1711 -2.7286 -0.6985
| 38> H 2.7612 -2.5976 -1.5153
| 39> H 2.8723 -0.9816 -3.6530
| 40> H 1.2342 0.5943 -4.8774
| 41> H -1.2655 1.5899 -4.3596
| 42> H -3.1114 1.5688 -2.6831
| 43> H -3.0955 -1.5583 0.6271
| 44> H -2.3407 -0.1488 1.4592
| 45> H -5.5560 -1.8277 0.5949
| 46> H -7.6999 -1.3265 1.7143
| 47> H -7.8778 0.6002 3.2642
| 48> H -5.9024 2.0362 3.6904
| 49> H -3.7498 1.5506 2.5808
| 50> H -0.8095 -1.1425 -0.1966
| 51> *
| 52>
| 53>                          ****END OF INPUT****

CARTESIAN COORDINATES (ANGSTROEM)
---------------------------------
  C      6.959000    1.420600    1.999500
  C      6.012900    2.207700    1.100100
  O      5.292000    1.330600    0.236800
  C      4.219400    0.539400    0.663000
  O      3.805100    0.607300    1.853200
  N      3.589800   -0.344400   -0.269000
  C      2.463400   -1.193500    0.121300
  C      1.933600   -2.008100   -1.064400
  C      1.307900   -1.123700   -2.104300
  C      1.889400   -0.702300   -3.296400
  N      1.053800    0.128300   -3.960500
  C     -0.045500    0.239900   -3.194500
  C     -1.181800    1.001300   -3.455300
  C     -2.217700    0.984600   -2.504500
  C     -2.105300    0.218800   -1.320400
  O     -3.171100    0.246600   -0.409600
  C     -3.194800   -0.468100    0.822600
  C     -4.489700   -0.190700    1.528100
  C     -5.618100   -0.988700    1.276900
  C     -6.834500   -0.705600    1.906300
  C     -6.935300    0.381500    2.779100
  C     -5.821100    1.190000    3.020400
  C     -4.602900    0.910200    2.393100
  C     -0.934300   -0.544400   -1.088700
  C      0.073000   -0.507000   -2.052300
  H      7.550100    2.122500    2.624700
  H      6.386000    0.744700    2.667900
  H      7.655200    0.816300    1.380200
  H      6.611600    2.904200    0.476100
  H      5.310100    2.812400    1.713700
  H      3.963500   -0.375800   -1.244400
  H      1.647900   -0.563400    0.538600
  H      2.798000   -1.895500    0.915200
  H      1.171100   -2.728600   -0.698500
  H      2.761200   -2.597600   -1.515300
  H      2.872300   -0.981600   -3.653000
  H      1.234200    0.594300   -4.877400
  H     -1.265500    1.589900   -4.359600
  H     -3.111400    1.568800   -2.683100
  H     -3.095500   -1.558300    0.627100
  H     -2.340700   -0.148800    1.459200
  H     -5.556000   -1.827700    0.594900
  H     -7.699900   -1.326500    1.714300
  H     -7.877800    0.600200    3.264200
  H     -5.902400    2.036200    3.690400
  H     -3.749800    1.550600    2.580800
  H     -0.809500   -1.142500   -0.196600

 Total Charge           Charge          ....    0
 Multiplicity           Mult            ....    1
 Number of Electrons    NEL             ....  180
 Basis Dimension        Dim             ....  394

ORBITAL ENERGIES
----------------

  NO   OCC          E(Eh)            E(eV)
   0   2.0000     -19.165975      -521.5327
   1   2.0000     -19.149879      -521.0947
   2   2.0000     -19.096492      -519.6420
   3   2.0000     -14.374813      -391.1586
   4   2.0000     -14.350122      -390.4867
   5   2.0000     -10.325357      -280.9672
   6   2.0000     -10.231916      -278.4246
   7   2.0000     -10.231472      -278.4125
   8   2.0000     -10.230504      -278.3862
   9   2.0000     -10.211960      -277.8816
  10   2.0000     -10.206253      -277.7263
  11   2.0000     -10.196489      -277.4606
  12   2.0000     -10.189056      -277.2583
  13   2.0000     -10.185820      -277.1703
  14   2.0000     -10.179605      -277.0011
  15   2.0000     -10.179382      -276.9951
  16   2.0000     -10.179193      -276.9899
  17   2.0000     -10.178648      -276.9751
  18   2.0000     -10.178396      -276.9682
  19   2.0000     -10.178091      -276.9599
  20   2.0000     -10.170798      -276.7615
  21   2.0000     -10.167577      -276.6738
  22   2.0000     -10.164499      -276.5901
  23   2.0000     -10.163995      -276.5764
  24   2.0000     -10.161386      -276.5054
  25   2.0000      -1.062734       -28.9185
  26   2.0000      -1.030516       -28.0418
  27   2.0000      -0.993052       -27.0223
  28   2.0000      -0.972635       -26.4667
  29   2.0000      -0.895749       -24.3746
  30   2.0000      -0.848743       -23.0955
  31   2.0000      -0.833851       -22.6902
  32   2.0000      -0.801120       -21.7996
  33   2.0000      -0.767638       -20.8885
  34   2.0000      -0.756673       -20.5901
  35   2.0000      -0.738544       -20.0968
  36   2.0000      -0.738215       -20.0879
  37   2.0000      -0.724659       -19.7190
  38   2.0000      -0.706198       -19.2166
  39   2.0000      -0.674882       -18.3645
  40   2.0000      -0.651458       -17.7271
  41   2.0000      -0.622458       -16.9379
  42   2.0000      -0.611492       -16.6395
  43   2.0000      -0.600511       -16.3407
  44   2.0000      -0.588781       -16.0216
  45   2.0000      -0.576193       -15.6790
  46   2.0000      -0.559887       -15.2353
  47   2.0000      -0.556887       -15.1537
  48   2.0000      -0.538129       -14.6432
  49   2.0000      -0.519455       -14.1351
  50   2.0000      -0.508724       -13.8431
  51   2.0000      -0.503253       -13.6942
  52   2.0000      -0.480859       -13.0848
  53   2.0000      -0.471699       -12.8356
  54   2.0000      -0.468185       -12.7400
  55   2.0000      -0.463379       -12.6092
  56   2.0000      -0.458014       -12.4632
  57   2.0000      -0.451523       -12.2866
  58   2.0000      -0.439671       -11.9641
  59   2.0000      -0.436502       -11.8778
  60   2.0000      -0.430793       -11.7225
  61   2.0000      -0.424233       -11.5440
  62   2.0000      -0.418838       -11.3972
  63   2.0000      -0.414767       -11.2864
  64   2.0000      -0.411681       -11.2024
  65   2.0000      -0.409027       -11.1302
  66   2.0000      -0.401111       -10.9148
  67   2.0000      -0.390074       -10.6145
  68   2.0000      -0.386571       -10.5191
  69   2.0000      -0.377986       -10.2855
  70   2.0000      -0.375040       -10.2054
  71   2.0000      -0.361482        -9.8364
  72   2.0000      -0.356055        -9.6887
  73   2.0000      -0.354038        -9.6339
  74   2.0000      -0.352338        -9.5876
  75   2.0000      -0.348630        -9.4867
  76   2.0000      -0.344967        -9.3870
  77   2.0000      -0.334738        -9.1087
  78   2.0000      -0.332350        -9.0437
  79   2.0000      -0.319103        -8.6832
  80   2.0000      -0.301301        -8.1988
  81   2.0000      -0.285405        -7.7663
  82   2.0000      -0.271472        -7.3871
  83   2.0000      -0.268277        -7.3002
  84   2.0000      -0.245479        -6.6798
  85   2.0000      -0.244143        -6.6435
  86   2.0000      -0.242888        -6.6093
  87   2.0000      -0.236650        -6.4396
  88   2.0000      -0.197961        -5.3868
  89   2.0000      -0.189659        -5.1609
  90   0.0000      -0.005647        -0.1537
  91   0.0000      -0.003486        -0.0949
  92   0.0000       0.004261         0.1159
  93   0.0000       0.044394         1.2080
  94   0.0000       0.048056         1.3077

MULLIKEN ATOMIC CHARGES
-----------------------
   0 C :   -0.458004
   1 C :   -0.010552
   2 O :   -0.494200
   3 C :    0.739601
   4 O :   -0.500681
   5 N :   -0.619379
   6 C :   -0.064314
   7 C :   -0.392884
   8 C :    0.065303
   9 C :   -0.032843
  10 N :   -0.633252
  11 C :    0.287821
  12 C :   -0.176517
  13 C :   -0.190655
  14 C :    0.355403
  15 O :   -0.518456
  16 C :   -0.097558
  17 C :    0.138396
  18 C :   -0.155787
  19 C :   -0.130089
  20 C :   -0.120891
  21 C :   -0.130153
  22 C :   -0.155716
  23 C :   -0.297304
  24 C :    0.133408
  25 H :    0.138082
  26 H :    0.180512
  27 H :    0.145791
  28 H :    0.145456
  29 H :    0.156240
  30 H :    0.323138
  31 H :    0.168098
  32 H :    0.150999
  33 H :    0.154123
  34 H :    0.140424
  35 H :    0.131937
  36 H :    0.333650
  37 H :    0.119375
  38 H :    0.132040
  39 H :    0.129185
  40 H :    0.134257
  41 H :    0.130012
  42 H :    0.128419
  43 H :    0.128004
  44 H :    0.129516
  45 H :    0.133422
  46 H :    0.126623
Sum of atomic charges:    0.0000000

LOEWDIN ATOMIC CHARGES
----------------------
   0 C :   -0.375736
   1 C :   -0.086748
   2 O :   -0.195329
   3 C :    0.196723
   4 O :   -0.321480
   5 N :   -0.249532
   6 C :   -0.139142
   7 C :   -0.226261
   8 C :   -0.078499
   9 C :   -0.124299
  10 N :   -0.113807
  11 C :   -0.006808
  12 C :   -0.144257
  13 C :   -0.157035
  14 C :    0.079689
  15 O :   -0.190552
  16 C :   -0.079780
  17 C :   -0.029860
  18 C :   -0.120600
  19 C :   -0.129325
  20 C :   -0.126026
  21 C :   -0.128741
  22 C :   -0.119523
  23 C :   -0.188168
  24 C :   -0.039624
  25 H :    0.126835
  26 H :    0.141464
  27 H :    0.124946
  28 H :    0.124474
  29 H :    0.125197
  30 H :    0.250558
  31 H :    0.133056
  32 H :    0.123359
  33 H :    0.135475
  34 H :    0.126067
  35 H :    0.127068
  36 H :    0.266931
  37 H :    0.129416
  38 H :    0.139064
  39 H :    0.111948
  40 H :    0.114403
  41 H :    0.132960
  42 H :    0.131370
  43 H :    0.131320
  44 H :    0.131865
  45 H :    0.134495
  46 H :    0.132452

  Mayer bond orders larger than 0.100000
B(  0-C ,  1-C ) :   1.0127 B(  0-C , 25-H ) :   0.9427 B(  0-C , 26-H ) :   0.9388
B(  0-C , 27-H ) :   0.9493 B(  1-C ,  2-O ) :   0.8697 B(  1-C , 28-H ) :   0.9409
B(  1-C , 29-H ) :   0.9255 B(  2-O ,  3-C ) :   1.0016 B(  3-C ,  4-O ) :   1.7703
B(  3-C ,  5-N ) :   1.1035 B(  5-N ,  6-C ) :   0.9141 B(  5-N , 30-H ) :   0.8169
B(  6-C ,  7-C ) :   0.9799 B(  6-C , 31-H ) :   0.9230 B(  6-C , 32-H ) :   0.9289
B(  7-C ,  8-C ) :   0.9903 B(  7-C , 33-H ) :   0.9267 B(  7-C , 34-H ) :   0.9343
B(  8-C ,  9-C ) :   1.5199 B(  8-C , 24-C ) :   1.3239 B(  9-C , 10-N ) :   1.1014
B(  9-C , 35-H ) :   0.9286 B( 10-N , 11-C ) :   1.0021 B( 10-N , 36-H ) :   0.8372
B( 11-C , 12-C ) :   1.3458 B( 11-C , 24-C ) :   1.3191 B( 12-C , 13-C ) :   1.4815
B( 12-C , 37-H ) :   0.9239 B( 13-C , 14-C ) :   1.3371 B( 13-C , 38-H ) :   0.9210
B( 14-C , 15-O ) :   0.9050 B( 14-C , 23-C ) :   1.3854 B( 15-O , 16-C ) :   0.9054
B( 16-C , 17-C ) :   0.9898 B( 16-C , 39-H ) :   0.9118 B( 16-C , 40-H ) :   0.9112
B( 17-C , 18-C ) :   1.4371 B( 17-C , 22-C ) :   1.4371 B( 18-C , 19-C ) :   1.4408
B( 18-C , 41-H ) :   0.9252 B( 19-C , 20-C ) :   1.4531 B( 19-C , 42-H ) :   0.9297
B( 20-C , 21-C ) :   1.4531 B( 20-C , 43-H ) :   0.9305 B( 21-C , 22-C ) :   1.4407
B( 21-C , 44-H ) :   0.9296 B( 22-C , 45-H ) :   0.9246 B( 23-C , 24-C ) :   1.2953
B( 23-C , 46-H ) :   0.9104

FINAL SINGLE POINT ENERGY     -1109.851048653912

DIPOLE MOMENT
-------------

Method             : SCF
Type of density    : Electron Density
Multiplicity       :   1
Irrep              :   0
Energy             : -1109.8510486539119029 Eh
Relativity type    :
Basis              : AO
                                X                 Y                 Z
Electronic contribution:    -11.457134514       0.306826023      -9.578828795
Nuclear contribution   :     11.880144869      -0.484376592       8.194660335
                        -----------------------------------------
Total Dipole Moment    :      0.423010354      -0.177550569      -1.384168460
                        -----------------------------------------
Magnitude (a.u.)       :      1.458212704
Magnitude (Debye)      :      3.706482134

Rotational constants in cm-1:             0.009834             0.002803             0.002362
Rotational constants in MHz :           294.821791            84.039840            70.805343

                             ****ORCA TERMINATED NORMALLY****
TOTAL RUN TIME: 0 days 0 hours 3 minutes 27 seconds 433 msec
