                         Program Version 6.0.0  -   RELEASE  -
|  1> ! B3LYP 6-31G* SP
|  2>
|  3> * xyz 0 1
|  4> N 8.4756 2.1614 -0.6310
|  5> C 7.3698 1.8515 -0.4882
|  6> C 5.9942 1.4661 -0.3108
|  7> C 5.6443 0.1111 -0.2696
|  8> C 4.3082 -0.2644 -0.0970
|  9> C 3.3080 0.7147 0.0485
| 10> N 1.9242 0.3557 0.2038
| 11> C 1.4796 -0.8337 0.8811
| 12> O 2.2522 -1.4051 1.6994
| 13> N 0.1501 -1.3631 0.6663
| 14> C -0.2996 -2.4710 1.5359
| 15> C -1.7989 -2.7671 1.4131
| 16> C -2.2103 -2.8222 -0.0239
| 17> C -3.1784 -3.7315 -0.4703
| 18> C -3.5687 -3.7281 -1.8102
| 19> C -2.9963 -2.8043 -2.6864
| 20> N -2.0714 -1.9179 -2.2317
| 21> C -1.6645 -1.9051 -0.9315
| 22> C -0.6664 -0.8734 -0.4696
| 23> C -1.3810 0.4264 -0.1430
| 24> C -1.7867 1.2657 -1.1943
| 25> C -2.4626 2.4604 -0.9331
| 26> C -2.7350 2.8503 0.3884
| 27> C -3.5074 4.1137 0.6729
| 28> F -4.8554 3.8159 0.7463
| 29> F -3.1021 4.6695 1.8741
| 30> F -3.3062 5.0500 -0.3267
| 31> C -2.3589 1.9986 1.4395
| 32> C -1.6833 0.8034 1.1791
| 33> C 3.6648 2.0705 -0.0177
| 34> C 5.0012 2.4450 -0.1884
| 35> H 6.4029 -0.6550 -0.3786
| 36> H 4.0571 -1.3166 -0.1001
| 37> H 1.2104 1.0530 -0.1017
| 38> H 0.2755 -3.3870 1.2777
| 39> H -0.0889 -2.2207 2.5987
| 40> H -2.0154 -3.7325 1.9206
| 41> H -2.3870 -1.9768 1.9244
| 42> H -3.6290 -4.4382 0.2153
| 43> H -4.3118 -4.4304 -2.1652
| 44> H -3.2928 -2.7865 -3.7265
| 45> H 0.0169 -0.6964 -1.3311
| 46> H -1.5829 0.9911 -2.2220
| 47> H -2.7749 3.0775 -1.7662
| 48> H -2.5894 2.2570 2.4654
| 49> H -1.3955 0.1837 2.0161
| 50> H 2.9065 2.8382 0.0747
| 51> H 5.2592 3.4966 -0.2264
| 52> *
| 53>
| 54>                          ****END OF INPUT****

CARTESIAN COORDINATES (ANGSTROEM)
---------------------------------
  N      8.475600    2.161400   -0.631000
  C      7.369800    1.851500   -0.488200
  C      5.994200    1.466100   -0.310800
  C      5.644300    0.111100   -0.269600
  C      4.308200   -0.264400   -0.097000
  C      3.308000    0.714700    0.048500
  N      1.924200    0.355700    0.203800
  C      1.479600   -0.833700    0.881100
  O      2.252200   -1.405100    1.699400
  N      0.150100   -1.363100    0.666300
  C     -0.299600   -2.471000    1.535900
  C     -1.798900   -2.767100    1.413100
  C     -2.210300   -2.822200   -0.023900
  C     -3.178400   -3.731500   -0.470300
  C     -3.568700   -3.728100   -1.810200
  C     -2.996300   -2.804300   -2.686400
  N     -2.071400   -1.917900   -2.231700
  C     -1.664500   -1.905100   -0.931500
  C     -0.666400   -0.873400   -0.469600
  C     -1.381000    0.426400   -0.143000
  C     -1.786700    1.265700   -1.194300
  C     -2.462600    2.460400   -0.933100
  C     -2.735000    2.850300    0.388400
  C     -3.507400    4.113700    0.672900
  F     -4.855400    3.815900    0.746300
  F     -3.102100    4.669500    1.874100
  F     -3.306200    5.050000   -0.326700
  C     -2.358900    1.998600    1.439500
  C     -1.683300    0.803400    1.179100
  C      3.664800    2.070500   -0.017700
  C      5.001200    2.445000   -0.188400
  H      6.402900   -0.655000   -0.378600
  H      4.057100   -1.316600   -0.100100
  H      1.210400    1.053000   -0.101700
  H      0.275500   -3.387000    1.277700
  H     -0.088900   -2.220700    2.598700
  H     -2.015400   -3.732500    1.920600
  H     -2.387000   -1.976800    1.924400
  H     -3.629000   -4.438200    0.215300
  H     -4.311800   -4.430400   -2.165200
  H     -3.292800   -2.786500   -3.726500
  H      0.016900   -0.696400   -1.331100
  H     -1.582900    0.991100   -2.222000
  H     -2.774900    3.077500   -1.766200
  H     -2.589400    2.257000    2.465400
  H     -1.395500    0.183700    2.016100
  H      2.906500    2.838200    0.074700
  H      5.259200    3.496600   -0.226400

 Total Charge           Charge          ....    0
 Multiplicity           Mult            ....    1
 Number of Electrons    NEL             ....  218
 Basis Dimension        Dim             ....  468

ORBITAL ENERGIES
----------------

  NO   OCC          E(Eh)            E(eV)
   0   2.0000     -24.725239      -672.8080
   1   2.0000     -24.724585      -672.7902
   2   2.0000     -24.721010      -672.6929
   3   2.0000     -19.116550      -520.1878
   4   2.0000     -14.382119      -391.3574
   5   2.0000     -14.376068      -391.1927
   6   2.0000     -14.343642      -390.3103
   7   2.0000     -14.321609      -389.7108
   8   2.0000     -10.440550      -284.1018
   9   2.0000     -10.330515      -281.1076
  10   2.0000     -10.254463      -279.0381
  11   2.0000     -10.252393      -278.9818
  12   2.0000     -10.245178      -278.7855
  13   2.0000     -10.234403      -278.4923
  14   2.0000     -10.233310      -278.4625
  15   2.0000     -10.222881      -278.1787
  16   2.0000     -10.222493      -278.1682
  17   2.0000     -10.221274      -278.1350
  18   2.0000     -10.215108      -277.9672
  19   2.0000     -10.213919      -277.9349
  20   2.0000     -10.213467      -277.9226
  21   2.0000     -10.212755      -277.9032
  22   2.0000     -10.211985      -277.8822
  23   2.0000     -10.210808      -277.8502
  24   2.0000     -10.209920      -277.8260
  25   2.0000     -10.207570      -277.7621
  26   2.0000     -10.207315      -277.7552
  27   2.0000     -10.205660      -277.7101
  28   2.0000     -10.204990      -277.6919
  29   2.0000     -10.202369      -277.6206
  30   2.0000     -10.196948      -277.4731
  31   2.0000      -1.284603       -34.9558
  32   2.0000      -1.210262       -32.9329
  33   2.0000      -1.208722       -32.8910
  34   2.0000      -1.032583       -28.0980
  35   2.0000      -0.957103       -26.0441
  36   2.0000      -0.932994       -25.3881
  37   2.0000      -0.928867       -25.2757
  38   2.0000      -0.895793       -24.3758
  39   2.0000      -0.882583       -24.0163
  40   2.0000      -0.860914       -23.4267
  41   2.0000      -0.832845       -22.6629
  42   2.0000      -0.814935       -22.1755
  43   2.0000      -0.794301       -21.6140
  44   2.0000      -0.772360       -21.0170
  45   2.0000      -0.770233       -20.9591
  46   2.0000      -0.764725       -20.8092
  47   2.0000      -0.762940       -20.7606
  48   2.0000      -0.718519       -19.5519
  49   2.0000      -0.686390       -18.6776
  50   2.0000      -0.672245       -18.2927
  51   2.0000      -0.647332       -17.6148
  52   2.0000      -0.638937       -17.3863
  53   2.0000      -0.634177       -17.2568
  54   2.0000      -0.633111       -17.2278
  55   2.0000      -0.617263       -16.7966
  56   2.0000      -0.602412       -16.3925
  57   2.0000      -0.575546       -15.6614
  58   2.0000      -0.573603       -15.6085
  59   2.0000      -0.569523       -15.4975
  60   2.0000      -0.566206       -15.4072
  61   2.0000      -0.557676       -15.1751
  62   2.0000      -0.550112       -14.9693
  63   2.0000      -0.534489       -14.5442
  64   2.0000      -0.524503       -14.2724
  65   2.0000      -0.516961       -14.0672
  66   2.0000      -0.491726       -13.3805
  67   2.0000      -0.487397       -13.2627
  68   2.0000      -0.481882       -13.1127
  69   2.0000      -0.472547       -12.8586
  70   2.0000      -0.470664       -12.8074
  71   2.0000      -0.462342       -12.5810
  72   2.0000      -0.457249       -12.4424
  73   2.0000      -0.453858       -12.3501
  74   2.0000      -0.452014       -12.2999
  75   2.0000      -0.446886       -12.1604
  76   2.0000      -0.445432       -12.1208
  77   2.0000      -0.439219       -11.9518
  78   2.0000      -0.431648       -11.7457
  79   2.0000      -0.426730       -11.6119
  80   2.0000      -0.424166       -11.5422
  81   2.0000      -0.419340       -11.4108
  82   2.0000      -0.416250       -11.3267
  83   2.0000      -0.413010       -11.2386
  84   2.0000      -0.411010       -11.1842
  85   2.0000      -0.404155       -10.9976
  86   2.0000      -0.403207       -10.9718
  87   2.0000      -0.400115       -10.8877
  88   2.0000      -0.396001       -10.7757
  89   2.0000      -0.387913       -10.5556
  90   2.0000      -0.380234       -10.3467
  91   2.0000      -0.378486       -10.2991
  92   2.0000      -0.371076       -10.0975
  93   2.0000      -0.366774        -9.9804
  94   2.0000      -0.365879        -9.9561
  95   2.0000      -0.356679        -9.7057
  96   2.0000      -0.346062        -9.4168
  97   2.0000      -0.344951        -9.3866
  98   2.0000      -0.320523        -8.7219
  99   2.0000      -0.298360        -8.1188
 100   2.0000      -0.293261        -7.9800
 101   2.0000      -0.278951        -7.5907
 102   2.0000      -0.276244        -7.5170
 103   2.0000      -0.272991        -7.4285
 104   2.0000      -0.265608        -7.2276
 105   2.0000      -0.260468        -7.0877
 106   2.0000      -0.258328        -7.0295
 107   2.0000      -0.247285        -6.7290
 108   2.0000      -0.229600        -6.2477
 109   0.0000      -0.052174        -1.4197
 110   0.0000      -0.041116        -1.1188
 111   0.0000      -0.035673        -0.9707
 112   0.0000      -0.027057        -0.7362
 113   0.0000      -0.021866        -0.5950

MULLIKEN ATOMIC CHARGES
-----------------------
   0 N :   -0.310997
   1 C :    0.075336
   2 C :    0.117591
   3 C :   -0.148772
   4 C :   -0.140710
   5 C :    0.364357
   6 N :   -0.732690
   7 C :    0.696692
   8 O :   -0.487497
   9 N :   -0.468284
  10 C :   -0.103629
  11 C :   -0.385939
  12 C :    0.135754
  13 C :   -0.148301
  14 C :   -0.134132
  15 C :    0.014569
  16 N :   -0.419275
  17 C :    0.222735
  18 C :   -0.113783
  19 C :    0.127892
  20 C :   -0.170384
  21 C :   -0.161117
  22 C :   -0.015423
  23 C :    0.897729
  24 F :   -0.295650
  25 F :   -0.304686
  26 F :   -0.304966
  27 C :   -0.159583
  28 C :   -0.174598
  29 C :   -0.191818
  30 C :   -0.139215
  31 H :    0.159823
  32 H :    0.162465
  33 H :    0.339677
  34 H :    0.163557
  35 H :    0.168594
  36 H :    0.161066
  37 H :    0.167442
  38 H :    0.142272
  39 H :    0.139928
  40 H :    0.154631
  41 H :    0.176724
  42 H :    0.161023
  43 H :    0.158193
  44 H :    0.157297
  45 H :    0.148357
  46 H :    0.139814
  47 H :    0.157930
Sum of atomic charges:   -0.0000000

LOEWDIN ATOMIC CHARGES
----------------------
   0 N :   -0.104860
   1 C :   -0.009400
   2 C :   -0.067534
   3 C :   -0.095195
   4 C :   -0.124385
   5 C :    0.059975
   6 N :   -0.225133
   7 C :    0.168883
   8 O :   -0.301867
   9 N :   -0.114415
  10 C :   -0.137486
  11 C :   -0.231995
  12 C :   -0.030306
  13 C :   -0.104527
  14 C :   -0.139467
  15 C :   -0.067832
  16 N :   -0.138564
  17 C :    0.025952
  18 C :   -0.054777
  19 C :   -0.023532
  20 C :   -0.127136
  21 C :   -0.109512
  22 C :   -0.069992
  23 C :    0.310414
  24 F :   -0.113011
  25 F :   -0.113331
  26 F :   -0.112882
  27 C :   -0.109529
  28 C :   -0.135300
  29 C :   -0.147663
  30 C :   -0.095983
  31 H :    0.149145
  32 H :    0.151949
  33 H :    0.261435
  34 H :    0.130064
  35 H :    0.137313
  36 H :    0.140126
  37 H :    0.137846
  38 H :    0.138485
  39 H :    0.138539
  40 H :    0.137901
  41 H :    0.150456
  42 H :    0.147495
  43 H :    0.146332
  44 H :    0.145771
  45 H :    0.141390
  46 H :    0.137863
  47 H :    0.148279

  Mayer bond orders larger than 0.100000
B(  0-N ,  1-C ) :   3.0248 B(  1-C ,  2-C ) :   0.9856 B(  2-C ,  3-C ) :   1.3878
B(  2-C , 30-C ) :   1.4032 B(  3-C ,  4-C ) :   1.4468 B(  3-C , 31-H ) :   0.9222
B(  4-C ,  5-C ) :   1.4042 B(  4-C , 32-H ) :   0.9095 B(  5-C ,  6-N ) :   0.8948
B(  5-C , 29-C ) :   1.3929 B(  6-N ,  7-C ) :   0.9895 B(  6-N , 33-H ) :   0.8033
B(  7-C ,  8-O ) :   1.7887 B(  7-C ,  9-N ) :   1.0546 B(  9-N , 10-C ) :   0.9242
B(  9-N , 18-C ) :   0.9207 B( 10-C , 11-C ) :   0.9866 B( 10-C , 34-H ) :   0.9266
B( 10-C , 35-H ) :   0.9226 B( 11-C , 12-C ) :   0.9786 B( 11-C , 36-H ) :   0.9303
B( 11-C , 37-H ) :   0.9130 B( 12-C , 13-C ) :   1.4274 B( 12-C , 17-C ) :   1.4078
B( 13-C , 14-C ) :   1.4465 B( 13-C , 38-H ) :   0.9225 B( 14-C , 15-C ) :   1.4172
B( 14-C , 39-H ) :   0.9240 B( 15-C , 16-N ) :   1.4274 B( 15-C , 40-H ) :   0.9290
B( 16-N , 17-C ) :   1.3642 B( 17-C , 18-C ) :   0.9634 B( 18-C , 19-C ) :   0.9357
B( 18-C , 41-H ) :   0.9020 B( 19-C , 20-C ) :   1.4073 B( 19-C , 28-C ) :   1.4195
B( 20-C , 21-C ) :   1.4221 B( 20-C , 42-H ) :   0.9145 B( 21-C , 22-C ) :   1.4090
B( 21-C , 43-H ) :   0.9189 B( 22-C , 23-C ) :   0.9787 B( 22-C , 27-C ) :   1.4120
B( 23-C , 24-F ) :   0.9870 B( 23-C , 25-F ) :   0.9496 B( 23-C , 26-F ) :   0.9478
B( 27-C , 28-C ) :   1.4235 B( 27-C , 44-H ) :   0.9189 B( 28-C , 45-H ) :   0.9138
B( 29-C , 30-C ) :   1.4453 B( 29-C , 46-H ) :   0.9215 B( 30-C , 47-H ) :   0.9220

FINAL SINGLE POINT ENERGY     -1479.602792359179

DIPOLE MOMENT
-------------

Method             : SCF
Type of density    : Electron Density
Multiplicity       :   1
Irrep              :   0
Energy             : -1479.6027923591793751 Eh
Relativity type    :
Basis              : AO
                                X                 Y                 Z
Electronic contribution:    -10.299344097      28.781627501       1.804078232
Nuclear contribution   :      7.116153182     -30.356392896      -2.090484254
                        -----------------------------------------
Total Dipole Moment    :     -3.183190915      -1.574765395      -0.286406022
                        -----------------------------------------
Magnitude (a.u.)       :      3.562950864
Magnitude (Debye)      :      9.056301380

Rotational constants in cm-1:             0.005096             0.002804             0.002028
Rotational constants in MHz :           152.775778            84.067556            60.805372

                             ****ORCA TERMINATED NORMALLY****
TOTAL RUN TIME: 0 days 0 hours 8 minutes 31 seconds 348 msec
