                         Program Version 6.0.0  -   RELEASE  -
|  1> ! B3LYP 6-31G* SP
|  2>
|  3> * xyz 0 1
|  4> C -0.7362 -1.0327 -1.1068
|  5> C -1.4637 -1.5758 0.1027
|  6> C -0.9475 -1.3777 1.4057
|  7> N 0.2855 -0.6807 1.6219
|  8> C 0.2615 0.6787 2.1652
|  9> C -0.1837 1.6467 1.1047
| 10> C 0.7736 2.2714 0.2607
| 11> C 0.3642 3.1087 -0.7938
| 12> C -1.0024 3.2908 -0.9753
| 13> C -1.7266 4.0123 -1.8985
| 14> N -3.0446 3.8337 -1.6358
| 15> N -3.1594 3.0291 -0.5844
| 16> C -1.9276 2.6932 -0.1727
| 17> C -1.5636 1.8606 0.8813
| 18> S 1.7789 -1.5639 1.5427
| 19> O 2.2588 -1.8610 2.9357
| 20> O 1.5637 -2.8673 0.8243
| 21> C 2.9878 -0.6237 0.6729
| 22> C 3.8580 0.2237 1.3701
| 23> C 4.7883 1.0036 0.6773
| 24> C 4.8619 0.9461 -0.7262
| 25> C 5.8386 1.7753 -1.4657
| 26> O 6.6215 2.5454 -0.8460
| 27> O 5.9019 1.7135 -2.8554
| 28> C 3.9906 0.0881 -1.4192
| 29> C 3.0625 -0.6918 -0.7237
| 30> N -1.6297 -1.8372 2.4869
| 31> C -2.8041 -2.5035 2.3774
| 32> C -3.3594 -2.7454 1.1187
| 33> C -4.5732 -3.4403 1.0025
| 34> C -5.1256 -3.6818 -0.2556
| 35> C -4.4728 -3.2342 -1.4038
| 36> C -3.2640 -2.5404 -1.3030
| 37> C -2.6867 -2.2817 -0.0397
| 38> H -1.4103 -0.3634 -1.6816
| 39> H -0.4037 -1.8725 -1.7521
| 40> H 0.1552 -0.4350 -0.8407
| 41> H 1.2672 0.9662 2.5391
| 42> H -0.4252 0.7227 3.0386
| 43> H 1.8306 2.1011 0.4138
| 44> H 1.0866 3.5839 -1.4446
| 45> H -1.3341 4.6183 -2.7042
| 46> H -4.0661 2.7207 -0.1685
| 47> H -2.3176 1.3791 1.4916
| 48> H 3.8087 0.2922 2.4493
| 49> H 5.4449 1.6552 1.2400
| 50> H 6.5667 2.2773 -3.3716
| 51> H 4.0232 0.0201 -2.4993
| 52> H 2.3999 -1.3445 -1.2770
| 53> H -3.3008 -2.8459 3.2768
| 54> H -5.0933 -3.7963 1.8840
| 55> H -6.0617 -4.2184 -0.3409
| 56> H -4.9048 -3.4260 -2.3776
| 57> H -2.7915 -2.2164 -2.2201
| 58> *
| 59>
| 60>                          ****END OF INPUT****

CARTESIAN COORDINATES (ANGSTROEM)
---------------------------------
  C     -0.736200   -1.032700   -1.106800
  C     -1.463700   -1.575800    0.102700
  C     -0.947500   -1.377700    1.405700
  N      0.285500   -0.680700    1.621900
  C      0.261500    0.678700    2.165200
  C     -0.183700    1.646700    1.104700
  C      0.773600    2.271400    0.260700
  C      0.364200    3.108700   -0.793800
  C     -1.002400    3.290800   -0.975300
  C     -1.726600    4.012300   -1.898500
  N     -3.044600    3.833700   -1.635800
  N     -3.159400    3.029100   -0.584400
  C     -1.927600    2.693200   -0.172700
  C     -1.563600    1.860600    0.881300
  S      1.778900   -1.563900    1.542700
  O      2.258800   -1.861000    2.935700
  O      1.563700   -2.867300    0.824300
  C      2.987800   -0.623700    0.672900
  C      3.858000    0.223700    1.370100
  C      4.788300    1.003600    0.677300
  C      4.861900    0.946100   -0.726200
  C      5.838600    1.775300   -1.465700
  O      6.621500    2.545400   -0.846000
  O      5.901900    1.713500   -2.855400
  C      3.990600    0.088100   -1.419200
  C      3.062500   -0.691800   -0.723700
  N     -1.629700   -1.837200    2.486900
  C     -2.804100   -2.503500    2.377400
  C     -3.359400   -2.745400    1.118700
  C     -4.573200   -3.440300    1.002500
  C     -5.125600   -3.681800   -0.255600
  C     -4.472800   -3.234200   -1.403800
  C     -3.264000   -2.540400   -1.303000
  C     -2.686700   -2.281700   -0.039700
  H     -1.410300   -0.363400   -1.681600
  H     -0.403700   -1.872500   -1.752100
  H      0.155200   -0.435000   -0.840700
  H      1.267200    0.966200    2.539100
  H     -0.425200    0.722700    3.038600
  H      1.830600    2.101100    0.413800
  H      1.086600    3.583900   -1.444600
  H     -1.334100    4.618300   -2.704200
  H     -4.066100    2.720700   -0.168500
  H     -2.317600    1.379100    1.491600
  H      3.808700    0.292200    2.449300
  H      5.444900    1.655200    1.240000
  H      6.566700    2.277300   -3.371600
  H      4.023200    0.020100   -2.499300
  H      2.399900   -1.344500   -1.277000
  H     -3.300800   -2.845900    3.276800
  H     -5.093300   -3.796300    1.884000
  H     -6.061700   -4.218400   -0.340900
  H     -4.904800   -3.426000   -2.377600
  H     -2.791500   -2.216400   -2.220100

 Total Charge           Charge          ....    0
 Multiplicity           Mult            ....    1
 Number of Electrons    NEL             ....  246
 Basis Dimension        Dim             ....  520

ORBITAL ENERGIES
----------------

  NO   OCC          E(Eh)            E(eV)
   0   2.0000     -89.094671     -2424.3893
   1   2.0000     -19.200315      -522.4671
   2   2.0000     -19.142128      -520.8838
   3   2.0000     -19.122845      -520.3591
   4   2.0000     -19.118632      -520.2444
   5   2.0000     -14.408148      -392.0656
   6   2.0000     -14.366333      -390.9278
   7   2.0000     -14.355296      -390.6275
   8   2.0000     -14.328828      -389.9072
   9   2.0000     -10.339648      -281.3561
  10   2.0000     -10.256711      -279.0993
  11   2.0000     -10.246202      -278.8133
  12   2.0000     -10.237062      -278.5646
  13   2.0000     -10.231716      -278.4191
  14   2.0000     -10.224705      -278.2284
  15   2.0000     -10.224083      -278.2115
  16   2.0000     -10.222811      -278.1768
  17   2.0000     -10.222194      -278.1600
  18   2.0000     -10.221887      -278.1517
  19   2.0000     -10.217776      -278.0398
  20   2.0000     -10.208671      -277.7921
  21   2.0000     -10.205421      -277.7036
  22   2.0000     -10.201135      -277.5870
  23   2.0000     -10.200008      -277.5563
  24   2.0000     -10.199576      -277.5446
  25   2.0000     -10.197736      -277.4945
  26   2.0000     -10.197485      -277.4877
  27   2.0000     -10.195997      -277.4472
  28   2.0000     -10.195851      -277.4432
  29   2.0000     -10.193450      -277.3779
  30   2.0000     -10.192303      -277.3467
  31   2.0000     -10.188017      -277.2300
  32   2.0000     -10.180696      -277.0308
  33   2.0000     -10.178078      -276.9596
  34   2.0000      -8.130508      -221.2424
  35   2.0000      -6.095461      -165.8659
  36   2.0000      -6.093623      -165.8159
  37   2.0000      -6.093112      -165.8020
  38   2.0000      -1.084958       -29.5232
  39   2.0000      -1.079380       -29.3714
  40   2.0000      -1.060452       -28.8564
  41   2.0000      -0.999145       -27.1881
  42   2.0000      -0.959458       -26.1082
  43   2.0000      -0.957402       -26.0522
  44   2.0000      -0.912155       -24.8210
  45   2.0000      -0.894701       -24.3461
  46   2.0000      -0.865110       -23.5409
  47   2.0000      -0.860168       -23.4064
  48   2.0000      -0.828887       -22.5552
  49   2.0000      -0.811500       -22.0820
  50   2.0000      -0.806371       -21.9425
  51   2.0000      -0.784294       -21.3417
  52   2.0000      -0.781166       -21.2566
  53   2.0000      -0.772728       -21.0270
  54   2.0000      -0.747651       -20.3446
  55   2.0000      -0.742623       -20.2078
  56   2.0000      -0.717922       -19.5357
  57   2.0000      -0.704117       -19.1600
  58   2.0000      -0.686912       -18.6918
  59   2.0000      -0.655855       -17.8467
  60   2.0000      -0.644099       -17.5268
  61   2.0000      -0.641506       -17.4563
  62   2.0000      -0.639478       -17.4011
  63   2.0000      -0.623587       -16.9687
  64   2.0000      -0.618495       -16.8301
  65   2.0000      -0.601518       -16.3681
  66   2.0000      -0.595387       -16.2013
  67   2.0000      -0.589138       -16.0312
  68   2.0000      -0.561561       -15.2808
  69   2.0000      -0.551437       -15.0054
  70   2.0000      -0.539217       -14.6728
  71   2.0000      -0.531592       -14.4654
  72   2.0000      -0.513830       -13.9820
  73   2.0000      -0.503216       -13.6932
  74   2.0000      -0.501866       -13.6565
  75   2.0000      -0.494581       -13.4582
  76   2.0000      -0.482767       -13.1368
  77   2.0000      -0.477618       -12.9966
  78   2.0000      -0.471791       -12.8381
  79   2.0000      -0.469406       -12.7732
  80   2.0000      -0.465680       -12.6718
  81   2.0000      -0.462531       -12.5861
  82   2.0000      -0.456782       -12.4297
  83   2.0000      -0.453321       -12.3355
  84   2.0000      -0.448808       -12.2127
  85   2.0000      -0.447156       -12.1677
  86   2.0000      -0.445262       -12.1162
  87   2.0000      -0.444378       -12.0921
  88   2.0000      -0.431915       -11.7530
  89   2.0000      -0.429762       -11.6944
  90   2.0000      -0.425672       -11.5831
  91   2.0000      -0.419962       -11.4278
  92   2.0000      -0.415905       -11.3174
  93   2.0000      -0.404252       -11.0003
  94   2.0000      -0.401002       -10.9118
  95   2.0000      -0.395892       -10.7728
  96   2.0000      -0.393459       -10.7066
  97   2.0000      -0.389229       -10.5915
  98   2.0000      -0.383896       -10.4463
  99   2.0000      -0.372565       -10.1380
 100   2.0000      -0.371874       -10.1192
 101   2.0000      -0.367770       -10.0075
 102   2.0000      -0.358695        -9.7606
 103   2.0000      -0.352029        -9.5792
 104   2.0000      -0.349462        -9.5093
 105   2.0000      -0.347233        -9.4487
 106   2.0000      -0.324873        -8.8402
 107   2.0000      -0.321106        -8.7377
 108   2.0000      -0.307219        -8.3599
 109   2.0000      -0.296115        -8.0577
 110   2.0000      -0.294811        -8.0222
 111   2.0000      -0.290882        -7.9153
 112   2.0000      -0.286654        -7.8002
 113   2.0000      -0.281622        -7.6633
 114   2.0000      -0.281243        -7.6530
 115   2.0000      -0.278758        -7.5854
 116   2.0000      -0.271840        -7.3971
 117   2.0000      -0.268066        -7.2945
 118   2.0000      -0.252105        -6.8601
 119   2.0000      -0.247219        -6.7272
 120   2.0000      -0.240856        -6.5540
 121   2.0000      -0.221372        -6.0238
 122   2.0000      -0.218263        -5.9392
 123   0.0000      -0.088218        -2.4005
 124   0.0000      -0.060051        -1.6341
 125   0.0000      -0.037966        -1.0331
 126   0.0000      -0.035965        -0.9787
 127   0.0000      -0.028899        -0.7864

MULLIKEN ATOMIC CHARGES
-----------------------
   0 C :   -0.543733
   1 C :    0.125815
   2 C :    0.322321
   3 N :   -0.605736
   4 C :   -0.249333
   5 C :    0.154263
   6 C :   -0.197692
   7 C :   -0.196252
   8 C :    0.090345
   9 C :   -0.051348
  10 N :   -0.229079
  11 N :   -0.510860
  12 C :    0.355416
  13 C :   -0.214065
  14 S :    1.200644
  15 O :   -0.526024
  16 O :   -0.550081
  17 C :   -0.131961
  18 C :   -0.153625
  19 C :   -0.140951
  20 C :    0.082973
  21 C :    0.528714
  22 O :   -0.442170
  23 O :   -0.623460
  24 C :   -0.148836
  25 C :   -0.136178
  26 N :   -0.380858
  27 C :   -0.057245
  28 C :    0.136990
  29 C :   -0.203848
  30 C :   -0.126823
  31 C :   -0.121405
  32 C :   -0.197407
  33 C :    0.116111
  34 H :    0.160780
  35 H :    0.167451
  36 H :    0.172047
  37 H :    0.167210
  38 H :    0.184084
  39 H :    0.128554
  40 H :    0.133610
  41 H :    0.149322
  42 H :    0.351488
  43 H :    0.135342
  44 H :    0.189604
  45 H :    0.183530
  46 H :    0.435369
  47 H :    0.174573
  48 H :    0.186173
  49 H :    0.153227
  50 H :    0.139496
  51 H :    0.136022
  52 H :    0.137522
  53 H :    0.139976
Sum of atomic charges:    0.0000000

LOEWDIN ATOMIC CHARGES
----------------------
   0 C :   -0.361469
   1 C :    0.001255
   2 C :    0.031914
   3 N :   -0.279769
   4 C :   -0.144886
   5 C :   -0.031409
   6 C :   -0.150320
   7 C :   -0.118446
   8 C :   -0.063600
   9 C :   -0.127736
  10 N :   -0.118996
  11 N :   -0.074920
  12 C :   -0.001986
  13 C :   -0.151417
  14 S :    1.260810
  15 O :   -0.567095
  16 O :   -0.574501
  17 C :   -0.174372
  18 C :   -0.109028
  19 C :   -0.087914
  20 C :   -0.038998
  21 C :    0.179706
  22 O :   -0.258578
  23 O :   -0.334232
  24 C :   -0.098654
  25 C :   -0.099840
  26 N :   -0.122198
  27 C :   -0.061227
  28 C :   -0.028598
  29 C :   -0.112470
  30 C :   -0.126410
  31 C :   -0.118562
  32 C :   -0.122164
  33 C :   -0.008119
  34 H :    0.136404
  35 H :    0.139483
  36 H :    0.140106
  37 H :    0.139385
  38 H :    0.142584
  39 H :    0.133011
  40 H :    0.136127
  41 H :    0.141342
  42 H :    0.274283
  43 H :    0.135796
  44 H :    0.161360
  45 H :    0.161693
  46 H :    0.350645
  47 H :    0.155625
  48 H :    0.160241
  49 H :    0.137525
  50 H :    0.137275
  51 H :    0.135445
  52 H :    0.136452
  53 H :    0.139450

  Mayer bond orders larger than 0.100000
B(  0-C ,  1-C ) :   1.0057 B(  0-C , 34-H ) :   0.9258 B(  0-C , 35-H ) :   0.9230
B(  0-C , 36-H ) :   0.9194 B(  1-C ,  2-C ) :   1.4287 B(  1-C , 27-C ) :   0.1007
B(  1-C , 33-C ) :   1.2644 B(  2-C ,  3-N ) :   0.8880 B(  2-C , 26-N ) :   1.2882
B(  3-N ,  4-C ) :   0.9174 B(  3-N , 14-S ) :   0.8128 B(  4-C ,  5-C ) :   0.9394
B(  4-C , 37-H ) :   0.9228 B(  4-C , 38-H ) :   0.9176 B(  5-C ,  6-C ) :   1.3376
B(  5-C , 13-C ) :   1.4718 B(  6-C ,  7-C ) :   1.4849 B(  6-C , 39-H ) :   0.9187
B(  7-C ,  8-C ) :   1.3193 B(  7-C , 13-C ) :   0.1055 B(  7-C , 40-H ) :   0.9254
B(  8-C ,  9-C ) :   1.2578 B(  8-C , 12-C ) :   1.3345 B(  9-C , 10-N ) :   1.5057
B(  9-C , 41-H ) :   0.9335 B( 10-N , 11-N ) :   1.2188 B( 11-N , 12-C ) :   0.9342
B( 11-N , 42-H ) :   0.8309 B( 12-C , 13-C ) :   1.3095 B( 13-C , 43-H ) :   0.9149
B( 14-S , 15-O ) :   1.6712 B( 14-S , 16-O ) :   1.6168 B( 14-S , 17-C ) :   0.8079
B( 17-C , 18-C ) :   1.3802 B( 17-C , 25-C ) :   1.3954 B( 18-C , 19-C ) :   1.4131
B( 18-C , 44-H ) :   0.9073 B( 19-C , 20-C ) :   1.4008 B( 19-C , 45-H ) :   0.9089
B( 20-C , 21-C ) :   1.0072 B( 20-C , 24-C ) :   1.3825 B( 21-C , 22-O ) :   1.8642
B( 21-C , 23-O ) :   1.0261 B( 23-O , 46-H ) :   0.7410 B( 24-C , 25-C ) :   1.4172
B( 24-C , 47-H ) :   0.9144 B( 25-C , 48-H ) :   0.9069 B( 26-N , 27-C ) :   1.4971
B( 27-C , 28-C ) :   1.2361 B( 27-C , 49-H ) :   0.9264 B( 28-C , 29-C ) :   1.2838
B( 28-C , 33-C ) :   1.2908 B( 29-C , 30-C ) :   1.5121 B( 29-C , 32-C ) :   0.1062
B( 29-C , 50-H ) :   0.9232 B( 30-C , 31-C ) :   1.3531 B( 30-C , 51-H ) :   0.9293
B( 31-C , 32-C ) :   1.5082 B( 31-C , 52-H ) :   0.9291 B( 32-C , 33-C ) :   1.2947
B( 32-C , 53-H ) :   0.9160

FINAL SINGLE POINT ENERGY     -1881.728854195416

DIPOLE MOMENT
-------------

Method             : SCF
Type of density    : Electron Density
Multiplicity       :   1
Irrep              :   0
Energy             : -1881.7288541954158063 Eh
Relativity type    :
Basis              : AO
                                X                 Y                 Z
Electronic contribution:      9.622987977       0.108779554       5.707244128
Nuclear contribution   :    -10.873201492       0.789972948      -7.404573138
                        -----------------------------------------
Total Dipole Moment    :     -1.250213515       0.898752502      -1.697329010
                        -----------------------------------------
Magnitude (a.u.)       :      2.291662204
Magnitude (Debye)      :      5.824942408

Rotational constants in cm-1:             0.005542             0.002737             0.002180
Rotational constants in MHz :           166.130218            82.059045            65.359218

                             ****ORCA TERMINATED NORMALLY****
TOTAL RUN TIME: 0 days 0 hours 11 minutes 34 seconds 402 msec
