                         Program Version 6.0.0  -   RELEASE  -
|  1> ! B3LYP 6-31G* SP
|  2>
|  3> * xyz 0 1
|  4> N -5.4794 0.0456 -2.0610
|  5> C -4.6095 -0.0658 -0.8947
|  6> C -3.6541 -1.2482 -1.0619
|  7> C -2.7696 -1.3867 0.1409
|  8> C -3.0004 -2.1924 1.2517
|  9> N -2.0287 -2.0110 2.1751
| 10> C -1.1953 -1.0894 1.6613
| 11> C -0.0529 -0.5602 2.2554
| 12> C 0.6679 0.4170 1.5458
| 13> C 0.2352 0.8472 0.2599
| 14> O 0.9259 1.8181 -0.4828
| 15> C 2.1746 2.4046 -0.1140
| 16> C 3.2915 1.4006 -0.2241
| 17> C 3.4685 0.6711 -1.4117
| 18> C 4.5109 -0.2544 -1.5214
| 19> C 5.3881 -0.4515 -0.4515
| 20> C 5.2266 0.2795 0.7285
| 21> C 4.1856 1.2063 0.8424
| 22> C -0.9299 0.2905 -0.3030
| 23> C -1.6174 -0.6799 0.4245
| 24> H -6.1655 0.8122 -1.8736
| 25> H -4.8989 0.3597 -2.8727
| 26> H -5.2346 -0.2238 0.0120
| 27> H -4.0310 0.8768 -0.7650
| 28> H -3.0256 -1.1014 -1.9666
| 29> H -4.2397 -2.1831 -1.1991
| 30> H -3.8384 -2.8648 1.3808
| 31> H -1.9532 -2.4823 3.1038
| 32> H 0.2693 -0.8866 3.2359
| 33> H 1.5509 0.8350 2.0061
| 34> H 2.3887 3.2419 -0.8107
| 35> H 2.1027 2.8394 0.9065
| 36> H 2.7980 0.8175 -2.2495
| 37> H 4.6396 -0.8177 -2.4367
| 38> H 6.1946 -1.1681 -0.5381
| 39> H 5.9092 0.1292 1.5549
| 40> H 4.0755 1.7674 1.7620
| 41> H -1.2793 0.6078 -1.2772
| 42> *
| 43>
| 44>                          ****END OF INPUT****

CARTESIAN COORDINATES (ANGSTROEM)
---------------------------------
  N     -5.479400    0.045600   -2.061000
  C     -4.609500   -0.065800   -0.894700
  C     -3.654100   -1.248200   -1.061900
  C     -2.769600   -1.386700    0.140900
  C     -3.000400   -2.192400    1.251700
  N     -2.028700   -2.011000    2.175100
  C     -1.195300   -1.089400    1.661300
  C     -0.052900   -0.560200    2.255400
  C      0.667900    0.417000    1.545800
  C      0.235200    0.847200    0.259900
  O      0.925900    1.818100   -0.482800
  C      2.174600    2.404600   -0.114000
  C      3.291500    1.400600   -0.224100
  C      3.468500    0.671100   -1.411700
  C      4.510900   -0.254400   -1.521400
  C      5.388100   -0.451500   -0.451500
  C      5.226600    0.279500    0.728500
  C      4.185600    1.206300    0.842400
  C     -0.929900    0.290500   -0.303000
  C     -1.617400   -0.679900    0.424500
  H     -6.165500    0.812200   -1.873600
  H     -4.898900    0.359700   -2.872700
  H     -5.234600   -0.223800    0.012000
  H     -4.031000    0.876800   -0.765000
  H     -3.025600   -1.101400   -1.966600
  H     -4.239700   -2.183100   -1.199100
  H     -3.838400   -2.864800    1.380800
  H     -1.953200   -2.482300    3.103800
  H      0.269300   -0.886600    3.235900
  H      1.550900    0.835000    2.006100
  H      2.388700    3.241900   -0.810700
  H      2.102700    2.839400    0.906500
  H      2.798000    0.817500   -2.249500
  H      4.639600   -0.817700   -2.436700
  H      6.194600   -1.168100   -0.538100
  H      5.909200    0.129200    1.554900
  H      4.075500    1.767400    1.762000
  H     -1.279300    0.607800   -1.277200

 Total Charge           Charge          ....    0
 Multiplicity           Mult            ....    1
 Number of Electrons    NEL             ....  142
 Basis Dimension        Dim             ....  316

ORBITAL ENERGIES
----------------

  NO   OCC          E(Eh)            E(eV)
   0   2.0000     -19.148100      -521.0463
   1   2.0000     -14.365824      -390.9139
   2   2.0000     -14.295585      -389.0026
   3   2.0000     -10.232745      -278.4471
   4   2.0000     -10.226737      -278.2837
   5   2.0000     -10.194989      -277.4198
   6   2.0000     -10.188934      -277.2550
   7   2.0000     -10.187806      -277.2243
   8   2.0000     -10.184164      -277.1252
   9   2.0000     -10.178832      -276.9801
  10   2.0000     -10.178021      -276.9580
  11   2.0000     -10.177437      -276.9421
  12   2.0000     -10.176766      -276.9239
  13   2.0000     -10.175673      -276.8941
  14   2.0000     -10.171297      -276.7751
  15   2.0000     -10.166192      -276.6362
  16   2.0000     -10.165616      -276.6205
  17   2.0000     -10.160128      -276.4711
  18   2.0000     -10.153729      -276.2970
  19   2.0000     -10.152484      -276.2631
  20   2.0000      -1.027744       -27.9663
  21   2.0000      -0.984209       -26.7817
  22   2.0000      -0.864454       -23.5230
  23   2.0000      -0.846348       -23.0303
  24   2.0000      -0.827169       -22.5084
  25   2.0000      -0.788004       -21.4427
  26   2.0000      -0.764267       -20.7968
  27   2.0000      -0.737321       -20.0635
  28   2.0000      -0.723434       -19.6856
  29   2.0000      -0.721999       -19.6466
  30   2.0000      -0.690542       -18.7906
  31   2.0000      -0.670396       -18.2424
  32   2.0000      -0.613037       -16.6816
  33   2.0000      -0.600123       -16.3302
  34   2.0000      -0.596571       -16.2335
  35   2.0000      -0.589409       -16.0386
  36   2.0000      -0.568377       -15.4663
  37   2.0000      -0.544436       -14.8149
  38   2.0000      -0.530749       -14.4424
  39   2.0000      -0.510507       -13.8916
  40   2.0000      -0.493873       -13.4390
  41   2.0000      -0.478188       -13.0122
  42   2.0000      -0.467783       -12.7290
  43   2.0000      -0.460223       -12.5233
  44   2.0000      -0.453886       -12.3509
  45   2.0000      -0.443577       -12.0704
  46   2.0000      -0.437856       -11.9147
  47   2.0000      -0.425924       -11.5900
  48   2.0000      -0.421630       -11.4731
  49   2.0000      -0.417558       -11.3623
  50   2.0000      -0.414997       -11.2926
  51   2.0000      -0.409355       -11.1391
  52   2.0000      -0.404921       -11.0184
  53   2.0000      -0.384047       -10.4505
  54   2.0000      -0.377356       -10.2684
  55   2.0000      -0.367487        -9.9998
  56   2.0000      -0.361816        -9.8455
  57   2.0000      -0.350370        -9.5340
  58   2.0000      -0.346783        -9.4364
  59   2.0000      -0.340872        -9.2756
  60   2.0000      -0.334984        -9.1154
  61   2.0000      -0.332448        -9.0464
  62   2.0000      -0.322054        -8.7635
  63   2.0000      -0.295074        -8.0294
  64   2.0000      -0.282589        -7.6896
  65   2.0000      -0.259870        -7.0714
  66   2.0000      -0.243280        -6.6200
  67   2.0000      -0.237233        -6.4554
  68   2.0000      -0.220693        -6.0053
  69   2.0000      -0.192543        -5.2394
  70   2.0000      -0.179141        -4.8747
  71   0.0000      -0.002032        -0.0553
  72   0.0000       0.004009         0.1091
  73   0.0000       0.004881         0.1328
  74   0.0000       0.052436         1.4269
  75   0.0000       0.071838         1.9548

MULLIKEN ATOMIC CHARGES
-----------------------
   0 N :   -0.703688
   1 C :   -0.124689
   2 C :   -0.328785
   3 C :    0.043801
   4 C :   -0.027414
   5 N :   -0.633233
   6 C :    0.289364
   7 C :   -0.181853
   8 C :   -0.208933
   9 C :    0.354069
  10 O :   -0.528947
  11 C :   -0.102496
  12 C :    0.130027
  13 C :   -0.155067
  14 C :   -0.126038
  15 C :   -0.124723
  16 C :   -0.125916
  17 C :   -0.175584
  18 C :   -0.267457
  19 C :    0.137571
  20 H :    0.286920
  21 H :    0.285168
  22 H :    0.133682
  23 H :    0.119634
  24 H :    0.130663
  25 H :    0.144216
  26 H :    0.136524
  27 H :    0.330431
  28 H :    0.114514
  29 H :    0.122437
  30 H :    0.161081
  31 H :    0.134330
  32 H :    0.138393
  33 H :    0.128633
  34 H :    0.125938
  35 H :    0.125507
  36 H :    0.121584
  37 H :    0.120334
Sum of atomic charges:    0.0000000

LOEWDIN ATOMIC CHARGES
----------------------
   0 N :   -0.479757
   1 C :   -0.171154
   2 C :   -0.221975
   3 C :   -0.075371
   4 C :   -0.117825
   5 N :   -0.116348
   6 C :   -0.007675
   7 C :   -0.146916
   8 C :   -0.180848
   9 C :    0.078203
  10 O :   -0.192682
  11 C :   -0.082664
  12 C :   -0.038185
  13 C :   -0.119883
  14 C :   -0.126051
  15 C :   -0.130667
  16 C :   -0.129291
  17 C :   -0.136987
  18 C :   -0.163274
  19 C :   -0.039204
  20 H :    0.219880
  21 H :    0.218100
  22 H :    0.117128
  23 H :    0.097952
  24 H :    0.120661
  25 H :    0.130588
  26 H :    0.130494
  27 H :    0.264901
  28 H :    0.126343
  29 H :    0.132361
  30 H :    0.135902
  31 H :    0.113212
  32 H :    0.137205
  33 H :    0.131466
  34 H :    0.130271
  35 H :    0.130002
  36 H :    0.127432
  37 H :    0.134656

  Mayer bond orders larger than 0.100000
B(  0-N ,  1-C ) :   0.9861 B(  0-N , 20-H ) :   0.8678 B(  0-N , 21-H ) :   0.8673
B(  1-C ,  2-C ) :   0.9920 B(  1-C , 22-H ) :   0.9409 B(  1-C , 23-H ) :   0.9368
B(  2-C ,  3-C ) :   0.9904 B(  2-C , 24-H ) :   0.9293 B(  2-C , 25-H ) :   0.9335
B(  3-C ,  4-C ) :   1.5325 B(  3-C , 19-C ) :   1.3166 B(  4-C ,  5-N ) :   1.0925
B(  4-C , 26-H ) :   0.9290 B(  5-N ,  6-C ) :   1.0048 B(  5-N , 27-H ) :   0.8391
B(  6-C ,  7-C ) :   1.3587 B(  6-C , 19-C ) :   1.3105 B(  7-C ,  8-C ) :   1.4642
B(  7-C , 18-C ) :   0.1035 B(  7-C , 28-H ) :   0.9240 B(  8-C ,  9-C ) :   1.3131
B(  8-C , 29-H ) :   0.9161 B(  9-C , 10-O ) :   0.8698 B(  9-C , 18-C ) :   1.4213
B( 10-O , 11-C ) :   0.9209 B( 11-C , 12-C ) :   0.9616 B( 11-C , 30-H ) :   0.9269
B( 11-C , 31-H ) :   0.9201 B( 12-C , 13-C ) :   1.4257 B( 12-C , 17-C ) :   1.4344
B( 13-C , 14-C ) :   1.4462 B( 13-C , 32-H ) :   0.9231 B( 14-C , 15-C ) :   1.4456
B( 14-C , 33-H ) :   0.9302 B( 15-C , 16-C ) :   1.4609 B( 15-C , 34-H ) :   0.9308
B( 16-C , 17-C ) :   1.4365 B( 16-C , 35-H ) :   0.9300 B( 17-C , 36-H ) :   0.9236
B( 18-C , 19-C ) :   1.3067 B( 18-C , 37-H ) :   0.9179

FINAL SINGLE POINT ENERGY      -842.799175206223

DIPOLE MOMENT
-------------

Method             : SCF
Type of density    : Electron Density
Multiplicity       :   1
Irrep              :   0
Energy             :  -842.7991752062229125 Eh
Relativity type    :
Basis              : AO
                                X                 Y                 Z
Electronic contribution:      7.399179985      -0.789411871       4.708293462
Nuclear contribution   :     -7.065431194       0.719857671      -3.775429634
                        -----------------------------------------
Total Dipole Moment    :      0.333748791      -0.069554200       0.932863829
                        -----------------------------------------
Magnitude (a.u.)       :      0.993207413
Magnitude (Debye)      :      2.524532615

Rotational constants in cm-1:             0.022710             0.005205             0.004765
Rotational constants in MHz :           680.838852           156.055816           142.854722

                             ****ORCA TERMINATED NORMALLY****
TOTAL RUN TIME: 0 days 0 hours 3 minutes 55 seconds 872 msec
