                         Program Version 6.0.0  -   RELEASE  -
|  1> ! B3LYP 6-31G* SP
|  2>
|  3> * xyz 0 1
|  4> C 0.1933 -2.1070 -1.5209
|  5> C -0.7568 -2.0806 -0.3436
|  6> C -1.3308 -0.8636 0.0945
|  7> N -1.0481 0.3738 -0.5692
|  8> C -0.2081 1.3755 0.0873
|  9> C 1.2164 0.8971 0.1325
| 10> C 2.0689 1.1162 -0.9600
| 11> C 3.3701 0.6065 -0.9524
| 12> C 3.8301 -0.1454 0.1401
| 13> C 5.2397 -0.6679 0.1616
| 14> C 6.1619 0.3479 0.8460
| 15> C 7.6339 0.2249 0.4835
| 16> C 6.8074 1.3752 -0.0721
| 17> C 2.9779 -0.3617 1.2342
| 18> C 1.6769 0.1481 1.2263
| 19> S -1.9352 0.7918 -2.0002
| 20> O -2.6253 -0.4238 -2.5542
| 21> O -0.9844 1.3142 -3.0408
| 22> C -3.1408 2.0063 -1.5929
| 23> C -2.9903 3.3332 -2.0148
| 24> C -3.9445 4.2944 -1.6681
| 25> C -5.0618 3.9415 -0.8894
| 26> C -6.0752 4.9545 -0.5204
| 27> O -5.9469 6.1518 -0.8941
| 28> O -7.1829 4.5939 0.2429
| 29> C -5.2019 2.6090 -0.4635
| 30> C -4.2462 1.6501 -0.8118
| 31> N -2.1522 -0.8461 1.1766
| 32> C -2.4672 -1.9669 1.8690
| 33> C -1.9406 -3.2019 1.4829
| 34> C -2.2652 -4.3645 2.1989
| 35> C -1.7347 -5.5963 1.8145
| 36> C -0.8785 -5.6772 0.7164
| 37> C -0.5464 -4.5277 -0.0054
| 38> C -1.0722 -3.2696 0.3644
| 39> H 0.3611 -1.1077 -1.9671
| 40> H 1.1824 -2.4909 -1.1936
| 41> H -0.2161 -2.7625 -2.3178
| 42> H -0.5876 1.5676 1.1145
| 43> H -0.2599 2.3428 -0.4583
| 44> H 1.7228 1.6744 -1.8210
| 45> H 4.0168 0.7923 -1.8008
| 46> H 5.2791 -1.6209 0.7318
| 47> H 5.5726 -0.9005 -0.8747
| 48> H 5.9588 0.6815 1.8865
| 49> H 7.8933 -0.5487 -0.2713
| 50> H 8.3346 0.5258 1.2909
| 51> H 7.0153 2.3539 0.4096
| 52> H 6.5742 1.2826 -1.1546
| 53> H 3.3193 -0.9298 2.0907
| 54> H 1.0252 -0.0487 2.0686
| 55> H -2.1347 3.6279 -2.6084
| 56> H -3.8063 5.3130 -2.0082
| 57> H -7.8829 5.2795 0.5001
| 58> H -6.0480 2.3065 0.1405
| 59> H -4.3662 0.6295 -0.4698
| 60> H -3.1299 -1.8896 2.7221
| 61> H -2.9279 -4.3199 3.0551
| 62> H -1.9873 -6.4906 2.3694
| 63> H -0.4696 -6.6355 0.4225
| 64> H 0.1206 -4.6383 -0.8495
| 65> *
| 66>
| 67>                          ****END OF INPUT****

CARTESIAN COORDINATES (ANGSTROEM)
---------------------------------
  C      0.193300   -2.107000   -1.520900
  C     -0.756800   -2.080600   -0.343600
  C     -1.330800   -0.863600    0.094500
  N     -1.048100    0.373800   -0.569200
  C     -0.208100    1.375500    0.087300
  C      1.216400    0.897100    0.132500
  C      2.068900    1.116200   -0.960000
  C      3.370100    0.606500   -0.952400
  C      3.830100   -0.145400    0.140100
  C      5.239700   -0.667900    0.161600
  C      6.161900    0.347900    0.846000
  C      7.633900    0.224900    0.483500
  C      6.807400    1.375200   -0.072100
  C      2.977900   -0.361700    1.234200
  C      1.676900    0.148100    1.226300
  S     -1.935200    0.791800   -2.000200
  O     -2.625300   -0.423800   -2.554200
  O     -0.984400    1.314200   -3.040800
  C     -3.140800    2.006300   -1.592900
  C     -2.990300    3.333200   -2.014800
  C     -3.944500    4.294400   -1.668100
  C     -5.061800    3.941500   -0.889400
  C     -6.075200    4.954500   -0.520400
  O     -5.946900    6.151800   -0.894100
  O     -7.182900    4.593900    0.242900
  C     -5.201900    2.609000   -0.463500
  C     -4.246200    1.650100   -0.811800
  N     -2.152200   -0.846100    1.176600
  C     -2.467200   -1.966900    1.869000
  C     -1.940600   -3.201900    1.482900
  C     -2.265200   -4.364500    2.198900
  C     -1.734700   -5.596300    1.814500
  C     -0.878500   -5.677200    0.716400
  C     -0.546400   -4.527700   -0.005400
  C     -1.072200   -3.269600    0.364400
  H      0.361100   -1.107700   -1.967100
  H      1.182400   -2.490900   -1.193600
  H     -0.216100   -2.762500   -2.317800
  H     -0.587600    1.567600    1.114500
  H     -0.259900    2.342800   -0.458300
  H      1.722800    1.674400   -1.821000
  H      4.016800    0.792300   -1.800800
  H      5.279100   -1.620900    0.731800
  H      5.572600   -0.900500   -0.874700
  H      5.958800    0.681500    1.886500
  H      7.893300   -0.548700   -0.271300
  H      8.334600    0.525800    1.290900
  H      7.015300    2.353900    0.409600
  H      6.574200    1.282600   -1.154600
  H      3.319300   -0.929800    2.090700
  H      1.025200   -0.048700    2.068600
  H     -2.134700    3.627900   -2.608400
  H     -3.806300    5.313000   -2.008200
  H     -7.882900    5.279500    0.500100
  H     -6.048000    2.306500    0.140500
  H     -4.366200    0.629500   -0.469800
  H     -3.129900   -1.889600    2.722100
  H     -2.927900   -4.319900    3.055100
  H     -1.987300   -6.490600    2.369400
  H     -0.469600   -6.635500    0.422500
  H      0.120600   -4.638300   -0.849500

 Total Charge           Charge          ....    0
 Multiplicity           Mult            ....    1
 Number of Electrons    NEL             ....  256
 Basis Dimension        Dim             ....  546

ORBITAL ENERGIES
----------------

  NO   OCC          E(Eh)            E(eV)
   0   2.0000     -89.093037     -2424.3448
   1   2.0000     -19.192889      -522.2651
   2   2.0000     -19.134023      -520.6632
   3   2.0000     -19.123938      -520.3888
   4   2.0000     -19.122416      -520.3474
   5   2.0000     -14.365036      -390.8925
   6   2.0000     -14.330525      -389.9534
   7   2.0000     -10.331536      -281.1354
   8   2.0000     -10.253735      -279.0183
   9   2.0000     -10.236326      -278.5446
  10   2.0000     -10.226815      -278.2858
  11   2.0000     -10.225590      -278.2525
  12   2.0000     -10.222992      -278.1818
  13   2.0000     -10.214666      -277.9552
  14   2.0000     -10.213989      -277.9368
  15   2.0000     -10.212208      -277.8883
  16   2.0000     -10.211941      -277.8810
  17   2.0000     -10.205632      -277.7094
  18   2.0000     -10.202961      -277.6367
  19   2.0000     -10.198548      -277.5166
  20   2.0000     -10.196182      -277.4522
  21   2.0000     -10.195668      -277.4382
  22   2.0000     -10.194501      -277.4065
  23   2.0000     -10.193453      -277.3780
  24   2.0000     -10.186973      -277.2016
  25   2.0000     -10.184618      -277.1375
  26   2.0000     -10.184310      -277.1292
  27   2.0000     -10.182311      -277.0748
  28   2.0000     -10.179083      -276.9869
  29   2.0000     -10.177206      -276.9358
  30   2.0000     -10.176577      -276.9187
  31   2.0000     -10.176196      -276.9084
  32   2.0000     -10.176033      -276.9039
  33   2.0000     -10.175344      -276.8852
  34   2.0000     -10.167978      -276.6847
  35   2.0000      -8.128828      -221.1967
  36   2.0000      -6.093784      -165.8203
  37   2.0000      -6.091927      -165.7698
  38   2.0000      -6.091468      -165.7573
  39   2.0000      -1.080266       -29.3955
  40   2.0000      -1.077301       -29.3148
  41   2.0000      -0.991392       -26.9772
  42   2.0000      -0.960681       -26.1415
  43   2.0000      -0.957825       -26.0638
  44   2.0000      -0.910787       -24.7838
  45   2.0000      -0.884832       -24.0775
  46   2.0000      -0.862490       -23.4695
  47   2.0000      -0.856885       -23.3170
  48   2.0000      -0.842140       -22.9158
  49   2.0000      -0.805075       -21.9072
  50   2.0000      -0.800372       -21.7792
  51   2.0000      -0.779890       -21.2219
  52   2.0000      -0.771543       -20.9947
  53   2.0000      -0.770356       -20.9625
  54   2.0000      -0.740539       -20.1511
  55   2.0000      -0.738390       -20.0926
  56   2.0000      -0.721477       -19.6324
  57   2.0000      -0.703679       -19.1481
  58   2.0000      -0.687151       -18.6983
  59   2.0000      -0.660038       -17.9605
  60   2.0000      -0.649971       -17.6866
  61   2.0000      -0.641455       -17.4549
  62   2.0000      -0.631389       -17.1810
  63   2.0000      -0.614229       -16.7140
  64   2.0000      -0.604059       -16.4373
  65   2.0000      -0.592268       -16.1164
  66   2.0000      -0.590743       -16.0749
  67   2.0000      -0.581159       -15.8141
  68   2.0000      -0.575188       -15.6517
  69   2.0000      -0.558795       -15.2056
  70   2.0000      -0.555949       -15.1282
  71   2.0000      -0.536194       -14.5906
  72   2.0000      -0.530824       -14.4444
  73   2.0000      -0.512935       -13.9577
  74   2.0000      -0.499143       -13.5824
  75   2.0000      -0.496755       -13.5174
  76   2.0000      -0.488721       -13.2988
  77   2.0000      -0.481979       -13.1153
  78   2.0000      -0.476357       -12.9623
  79   2.0000      -0.471384       -12.8270
  80   2.0000      -0.466902       -12.7050
  81   2.0000      -0.459230       -12.4963
  82   2.0000      -0.456953       -12.4343
  83   2.0000      -0.451334       -12.2814
  84   2.0000      -0.446027       -12.1370
  85   2.0000      -0.445087       -12.1114
  86   2.0000      -0.442490       -12.0408
  87   2.0000      -0.441502       -12.0139
  88   2.0000      -0.438224       -11.9247
  89   2.0000      -0.428038       -11.6475
  90   2.0000      -0.423556       -11.5256
  91   2.0000      -0.419164       -11.4060
  92   2.0000      -0.415058       -11.2943
  93   2.0000      -0.413612       -11.2550
  94   2.0000      -0.407204       -11.0806
  95   2.0000      -0.398480       -10.8432
  96   2.0000      -0.396590       -10.7918
  97   2.0000      -0.390435       -10.6243
  98   2.0000      -0.386689       -10.5223
  99   2.0000      -0.380667       -10.3585
 100   2.0000      -0.376357       -10.2412
 101   2.0000      -0.374570       -10.1926
 102   2.0000      -0.368223       -10.0199
 103   2.0000      -0.364563        -9.9203
 104   2.0000      -0.363778        -9.8989
 105   2.0000      -0.362061        -9.8522
 106   2.0000      -0.351879        -9.5751
 107   2.0000      -0.348235        -9.4760
 108   2.0000      -0.347789        -9.4638
 109   2.0000      -0.338528        -9.2118
 110   2.0000      -0.334143        -9.0925
 111   2.0000      -0.321850        -8.7580
 112   2.0000      -0.317256        -8.6330
 113   2.0000      -0.303503        -8.2587
 114   2.0000      -0.296343        -8.0639
 115   2.0000      -0.285882        -7.7793
 116   2.0000      -0.279056        -7.5935
 117   2.0000      -0.276846        -7.5334
 118   2.0000      -0.273626        -7.4457
 119   2.0000      -0.273212        -7.4345
 120   2.0000      -0.270589        -7.3631
 121   2.0000      -0.270240        -7.3536
 122   2.0000      -0.264054        -7.1853
 123   2.0000      -0.253392        -6.8952
 124   2.0000      -0.248694        -6.7673
 125   2.0000      -0.244083        -6.6418
 126   2.0000      -0.228935        -6.2296
 127   2.0000      -0.219908        -5.9840
 128   0.0000      -0.078439        -2.1344
 129   0.0000      -0.058355        -1.5879
 130   0.0000      -0.030510        -0.8302
 131   0.0000      -0.024831        -0.6757
 132   0.0000      -0.003861        -0.1051

MULLIKEN ATOMIC CHARGES
-----------------------
   0 C :   -0.543144
   1 C :    0.135944
   2 C :    0.307776
   3 N :   -0.606905
   4 C :   -0.242219
   5 C :    0.163646
   6 C :   -0.173442
   7 C :   -0.171885
   8 C :    0.179305
   9 C :   -0.369562
  10 C :   -0.068910
  11 C :   -0.314292
  12 C :   -0.301346
  13 C :   -0.179296
  14 C :   -0.172682
  15 S :    1.222674
  16 O :   -0.547771
  17 O :   -0.556607
  18 C :   -0.124809
  19 C :   -0.153433
  20 C :   -0.139412
  21 C :    0.082658
  22 C :    0.527389
  23 O :   -0.445813
  24 O :   -0.623910
  25 C :   -0.149124
  26 C :   -0.134333
  27 N :   -0.403321
  28 C :   -0.061319
  29 C :    0.140081
  30 C :   -0.204658
  31 C :   -0.125868
  32 C :   -0.121212
  33 C :   -0.193768
  34 C :    0.116200
  35 H :    0.202076
  36 H :    0.157942
  37 H :    0.169456
  38 H :    0.169826
  39 H :    0.168969
  40 H :    0.151597
  41 H :    0.124250
  42 H :    0.140150
  43 H :    0.137141
  44 H :    0.142280
  45 H :    0.145339
  46 H :    0.144286
  47 H :    0.145771
  48 H :    0.145443
  49 H :    0.121914
  50 H :    0.131112
  51 H :    0.185180
  52 H :    0.178778
  53 H :    0.433067
  54 H :    0.171534
  55 H :    0.185977
  56 H :    0.148188
  57 H :    0.136639
  58 H :    0.135105
  59 H :    0.137448
  60 H :    0.143899
Sum of atomic charges:   -0.0000000

LOEWDIN ATOMIC CHARGES
----------------------
   0 C :   -0.360698
   1 C :    0.011418
   2 C :    0.025007
   3 N :   -0.278352
   4 C :   -0.145965
   5 C :   -0.038988
   6 C :   -0.121878
   7 C :   -0.132313
   8 C :   -0.010683
   9 C :   -0.212110
  10 C :   -0.130951
  11 C :   -0.260621
  12 C :   -0.256452
  13 C :   -0.138442
  14 C :   -0.130779
  15 S :    1.263139
  16 O :   -0.569844
  17 O :   -0.579581
  18 C :   -0.174970
  19 C :   -0.108824
  20 C :   -0.087265
  21 C :   -0.040559
  22 C :    0.179918
  23 O :   -0.262028
  24 O :   -0.335204
  25 C :   -0.099053
  26 C :   -0.095994
  27 N :   -0.140077
  28 C :   -0.067025
  29 C :   -0.027654
  30 C :   -0.114009
  31 C :   -0.125575
  32 C :   -0.118294
  33 C :   -0.117864
  34 C :   -0.006176
  35 H :    0.153998
  36 H :    0.135817
  37 H :    0.142495
  38 H :    0.132853
  39 H :    0.141507
  40 H :    0.141655
  41 H :    0.129939
  42 H :    0.124747
  43 H :    0.126105
  44 H :    0.131011
  45 H :    0.129614
  46 H :    0.130073
  47 H :    0.131288
  48 H :    0.128854
  49 H :    0.128964
  50 H :    0.132438
  51 H :    0.160546
  52 H :    0.159507
  53 H :    0.349051
  54 H :    0.154254
  55 H :    0.160320
  56 H :    0.134799
  57 H :    0.135907
  58 H :    0.135029
  59 H :    0.136429
  60 H :    0.141545

  Mayer bond orders larger than 0.100000
B(  0-C ,  1-C ) :   1.0102 B(  0-C , 35-H ) :   0.9159 B(  0-C , 36-H ) :   0.9247
B(  0-C , 37-H ) :   0.9231 B(  1-C ,  2-C ) :   1.4333 B(  1-C , 28-C ) :   0.1002
B(  1-C , 34-C ) :   1.2616 B(  2-C ,  3-N ) :   0.8935 B(  2-C , 27-N ) :   1.2760
B(  3-N ,  4-C ) :   0.9157 B(  3-N , 15-S ) :   0.8113 B(  4-C ,  5-C ) :   0.9590
B(  4-C , 38-H ) :   0.9198 B(  4-C , 39-H ) :   0.9202 B(  5-C ,  6-C ) :   1.4288
B(  5-C , 14-C ) :   1.4356 B(  6-C ,  7-C ) :   1.4274 B(  6-C , 40-H ) :   0.9155
B(  7-C ,  8-C ) :   1.4258 B(  7-C , 41-H ) :   0.9247 B(  8-C ,  9-C ) :   0.9720
B(  8-C , 13-C ) :   1.4320 B(  9-C , 10-C ) :   1.0057 B(  9-C , 42-H ) :   0.9308
B(  9-C , 43-H ) :   0.9315 B( 10-C , 11-C ) :   0.9462 B( 10-C , 12-C ) :   0.9576
B( 10-C , 44-H ) :   0.9334 B( 11-C , 12-C ) :   0.9623 B( 11-C , 45-H ) :   0.9452
B( 11-C , 46-H ) :   0.9467 B( 12-C , 47-H ) :   0.9467 B( 12-C , 48-H ) :   0.9449
B( 13-C , 14-C ) :   1.4220 B( 13-C , 49-H ) :   0.9253 B( 14-C , 50-H ) :   0.9219
B( 15-S , 16-O ) :   1.6428 B( 15-S , 17-O ) :   1.6106 B( 15-S , 18-C ) :   0.8108
B( 18-C , 19-C ) :   1.3893 B( 18-C , 26-C ) :   1.3907 B( 19-C , 20-C ) :   1.4137
B( 19-C , 51-H ) :   0.9089 B( 20-C , 21-C ) :   1.4054 B( 20-C , 52-H ) :   0.9101
B( 21-C , 22-C ) :   1.0087 B( 21-C , 25-C ) :   1.3787 B( 22-C , 23-O ) :   1.8623
B( 22-C , 24-O ) :   1.0239 B( 24-O , 53-H ) :   0.7425 B( 25-C , 26-C ) :   1.4275
B( 25-C , 54-H ) :   0.9154 B( 26-C , 55-H ) :   0.9062 B( 27-N , 28-C ) :   1.4931
B( 28-C , 29-C ) :   1.2420 B( 28-C , 56-H ) :   0.9270 B( 29-C , 30-C ) :   1.2833
B( 29-C , 34-C ) :   1.2910 B( 30-C , 31-C ) :   1.5128 B( 30-C , 33-C ) :   0.1061
B( 30-C , 57-H ) :   0.9237 B( 31-C , 32-C ) :   1.3526 B( 31-C , 58-H ) :   0.9294
B( 32-C , 33-C ) :   1.5076 B( 32-C , 59-H ) :   0.9292 B( 33-C , 34-C ) :   1.2964
B( 33-C , 60-H ) :   0.9149

FINAL SINGLE POINT ENERGY     -1890.129400032343

DIPOLE MOMENT
-------------

Method             : SCF
Type of density    : Electron Density
Multiplicity       :   1
Irrep              :   0
Energy             : -1890.1294000323430282 Eh
Relativity type    :
Basis              : AO
                                X                 Y                 Z
Electronic contribution:    -41.856059250      10.942954094      -6.045944224
Nuclear contribution   :     42.022954655     -11.886616790       8.048482396
                        -----------------------------------------
Total Dipole Moment    :      0.166895404      -0.943662696       2.002538172
                        -----------------------------------------
Magnitude (a.u.)       :      2.220025336
Magnitude (Debye)      :      5.642855958

Rotational constants in cm-1:             0.004329             0.002103             0.001582
Rotational constants in MHz :           129.784547            63.045467            47.426735

                             ****ORCA TERMINATED NORMALLY****
TOTAL RUN TIME: 0 days 0 hours 11 minutes 19 seconds 296 msec
