                         Program Version 6.0.0  -   RELEASE  -
|  1> ! B3LYP 6-31G* SP
|  2>
|  3> * xyz 0 1
|  4> C 5.1484 -2.7864 -0.8114
|  5> N 5.6279 -1.5349 -0.2183
|  6> C 4.7644 -0.7374 0.6343
|  7> O 3.6094 -1.1383 0.9422
|  8> C 5.2700 0.5655 1.1194
|  9> C 6.4946 1.0255 0.7591
| 10> N 6.7254 2.2583 1.2460
| 11> C 5.5798 2.5205 1.9276
| 12> N 4.6766 1.5083 1.8710
| 13> C 3.3303 1.5062 2.4431
| 14> C 2.2999 1.7292 1.3763
| 15> O 2.5385 2.5429 0.4444
| 16> N 1.0202 1.0855 1.4761
| 17> C 0.0488 1.0535 0.4226
| 18> N -1.2282 0.6682 0.6263
| 19> C -1.9608 0.6763 -0.5237
| 20> C -3.4026 0.3182 -0.5248
| 21> C -4.0779 -0.0038 -1.7129
| 22> C -5.4380 -0.3226 -1.6954
| 23> C -6.1733 -0.3321 -0.4907
| 24> C -7.6781 -0.6733 -0.5188
| 25> C -8.3350 -0.6345 0.8823
| 26> C -8.4203 0.3455 -1.4117
| 27> C -7.8741 -2.0950 -1.0907
| 28> C -5.4805 -0.0205 0.7016
| 29> C -4.1192 0.2957 0.6817
| 30> C -1.2464 1.0674 -1.6618
| 31> S 0.3342 1.4064 -1.1984
| 32> N 7.3493 0.2608 -0.0813
| 33> C 8.6084 0.5993 -0.7037
| 34> C 8.8936 -0.6379 -1.5867
| 35> N 7.7270 -1.5132 -1.4322
| 36> C 6.9135 -0.9795 -0.5885
| 37> H 4.5704 -2.5631 -1.7336
| 38> H 4.4980 -3.3318 -0.0956
| 39> H 5.9997 -3.4555 -1.0657
| 40> H 5.4037 3.4524 2.4504
| 41> H 3.2379 2.3108 3.2040
| 42> H 3.1496 0.5373 2.9560
| 43> H 0.7686 0.6240 2.3789
| 44> H -3.5601 -0.0255 -2.6616
| 45> H -5.9138 -0.5625 -2.6367
| 46> H -9.4173 -0.8813 0.8176
| 47> H -7.8637 -1.3780 1.5613
| 48> H -8.2511 0.3789 1.3314
| 49> H -8.2543 1.3797 -1.0376
| 50> H -8.0719 0.2954 -2.4646
| 51> H -9.5143 0.1459 -1.4142
| 52> H -7.5214 -2.1663 -2.1411
| 53> H -7.3112 -2.8367 -0.4826
| 54> H -8.9495 -2.3787 -1.0823
| 55> H -5.9725 -0.0105 1.6625
| 56> H -3.6304 0.5383 1.6175
| 57> H -1.6285 1.1654 -2.6688
| 58> H 8.4938 1.5146 -1.3234
| 59> H 9.3958 0.7380 0.0692
| 60> H 9.0103 -0.3483 -2.6533
| 61> H 9.8064 -1.1661 -1.2365
| 62> *
| 63>
| 64>                          ****END OF INPUT****

CARTESIAN COORDINATES (ANGSTROEM)
---------------------------------
  C      5.148400   -2.786400   -0.811400
  N      5.627900   -1.534900   -0.218300
  C      4.764400   -0.737400    0.634300
  O      3.609400   -1.138300    0.942200
  C      5.270000    0.565500    1.119400
  C      6.494600    1.025500    0.759100
  N      6.725400    2.258300    1.246000
  C      5.579800    2.520500    1.927600
  N      4.676600    1.508300    1.871000
  C      3.330300    1.506200    2.443100
  C      2.299900    1.729200    1.376300
  O      2.538500    2.542900    0.444400
  N      1.020200    1.085500    1.476100
  C      0.048800    1.053500    0.422600
  N     -1.228200    0.668200    0.626300
  C     -1.960800    0.676300   -0.523700
  C     -3.402600    0.318200   -0.524800
  C     -4.077900   -0.003800   -1.712900
  C     -5.438000   -0.322600   -1.695400
  C     -6.173300   -0.332100   -0.490700
  C     -7.678100   -0.673300   -0.518800
  C     -8.335000   -0.634500    0.882300
  C     -8.420300    0.345500   -1.411700
  C     -7.874100   -2.095000   -1.090700
  C     -5.480500   -0.020500    0.701600
  C     -4.119200    0.295700    0.681700
  C     -1.246400    1.067400   -1.661800
  S      0.334200    1.406400   -1.198400
  N      7.349300    0.260800   -0.081300
  C      8.608400    0.599300   -0.703700
  C      8.893600   -0.637900   -1.586700
  N      7.727000   -1.513200   -1.432200
  C      6.913500   -0.979500   -0.588500
  H      4.570400   -2.563100   -1.733600
  H      4.498000   -3.331800   -0.095600
  H      5.999700   -3.455500   -1.065700
  H      5.403700    3.452400    2.450400
  H      3.237900    2.310800    3.204000
  H      3.149600    0.537300    2.956000
  H      0.768600    0.624000    2.378900
  H     -3.560100   -0.025500   -2.661600
  H     -5.913800   -0.562500   -2.636700
  H     -9.417300   -0.881300    0.817600
  H     -7.863700   -1.378000    1.561300
  H     -8.251100    0.378900    1.331400
  H     -8.254300    1.379700   -1.037600
  H     -8.071900    0.295400   -2.464600
  H     -9.514300    0.145900   -1.414200
  H     -7.521400   -2.166300   -2.141100
  H     -7.311200   -2.836700   -0.482600
  H     -8.949500   -2.378700   -1.082300
  H     -5.972500   -0.010500    1.662500
  H     -3.630400    0.538300    1.617500
  H     -1.628500    1.165400   -2.668800
  H      8.493800    1.514600   -1.323400
  H      9.395800    0.738000    0.069200
  H      9.010300   -0.348300   -2.653300
  H      9.806400   -1.166100   -1.236500

 Total Charge           Charge          ....    0
 Multiplicity           Mult            ....    1
 Number of Electrons    NEL             ....  244
 Basis Dimension        Dim             ....  516

ORBITAL ENERGIES
----------------

  NO   OCC          E(Eh)            E(eV)
   0   2.0000     -88.897898     -2419.0348
   1   2.0000     -19.141804      -520.8750
   2   2.0000     -19.120746      -520.3020
   3   2.0000     -14.419395      -392.3717
   4   2.0000     -14.398199      -391.7949
   5   2.0000     -14.387141      -391.4940
   6   2.0000     -14.374250      -391.1432
   7   2.0000     -14.330819      -389.9614
   8   2.0000     -14.326685      -389.8489
   9   2.0000     -14.291670      -388.8961
  10   2.0000     -10.321866      -280.8722
  11   2.0000     -10.306156      -280.4448
  12   2.0000     -10.288251      -279.9575
  13   2.0000     -10.285621      -279.8860
  14   2.0000     -10.269815      -279.4559
  15   2.0000     -10.259854      -279.1848
  16   2.0000     -10.254593      -279.0416
  17   2.0000     -10.221506      -278.1413
  18   2.0000     -10.220861      -278.1238
  19   2.0000     -10.218497      -278.0594
  20   2.0000     -10.213401      -277.9208
  21   2.0000     -10.207430      -277.7583
  22   2.0000     -10.200001      -277.5561
  23   2.0000     -10.194125      -277.3962
  24   2.0000     -10.187433      -277.2142
  25   2.0000     -10.184570      -277.1362
  26   2.0000     -10.178397      -276.9683
  27   2.0000     -10.175431      -276.8875
  28   2.0000     -10.173391      -276.8320
  29   2.0000     -10.172450      -276.8064
  30   2.0000     -10.166611      -276.6475
  31   2.0000     -10.165697      -276.6227
  32   2.0000     -10.165602      -276.6201
  33   2.0000      -7.974219      -216.9895
  34   2.0000      -5.937339      -161.5632
  35   2.0000      -5.933093      -161.4477
  36   2.0000      -5.931208      -161.3964
  37   2.0000      -1.059954       -28.8428
  38   2.0000      -1.039688       -28.2913
  39   2.0000      -1.021903       -27.8074
  40   2.0000      -1.002526       -27.2801
  41   2.0000      -0.974402       -26.5148
  42   2.0000      -0.924960       -25.1694
  43   2.0000      -0.917883       -24.9769
  44   2.0000      -0.913752       -24.8644
  45   2.0000      -0.868540       -23.6342
  46   2.0000      -0.850429       -23.1413
  47   2.0000      -0.810774       -22.0623
  48   2.0000      -0.801890       -21.8205
  49   2.0000      -0.794855       -21.6291
  50   2.0000      -0.769329       -20.9345
  51   2.0000      -0.753203       -20.4957
  52   2.0000      -0.742641       -20.2083
  53   2.0000      -0.736494       -20.0410
  54   2.0000      -0.707078       -19.2406
  55   2.0000      -0.704374       -19.1670
  56   2.0000      -0.675045       -18.3689
  57   2.0000      -0.674402       -18.3514
  58   2.0000      -0.652109       -17.7448
  59   2.0000      -0.643935       -17.5224
  60   2.0000      -0.626171       -17.0390
  61   2.0000      -0.618185       -16.8217
  62   2.0000      -0.602858       -16.4046
  63   2.0000      -0.598448       -16.2846
  64   2.0000      -0.592440       -16.1211
  65   2.0000      -0.578838       -15.7510
  66   2.0000      -0.571286       -15.5455
  67   2.0000      -0.558891       -15.2082
  68   2.0000      -0.539953       -14.6929
  69   2.0000      -0.532314       -14.4850
  70   2.0000      -0.530191       -14.4272
  71   2.0000      -0.508904       -13.8480
  72   2.0000      -0.499018       -13.5790
  73   2.0000      -0.495994       -13.4967
  74   2.0000      -0.489572       -13.3219
  75   2.0000      -0.477980       -13.0065
  76   2.0000      -0.465903       -12.6779
  77   2.0000      -0.459399       -12.5009
  78   2.0000      -0.454498       -12.3675
  79   2.0000      -0.451287       -12.2801
  80   2.0000      -0.447864       -12.1870
  81   2.0000      -0.447118       -12.1667
  82   2.0000      -0.444639       -12.0993
  83   2.0000      -0.442899       -12.0519
  84   2.0000      -0.430996       -11.7280
  85   2.0000      -0.428620       -11.6633
  86   2.0000      -0.424348       -11.5471
  87   2.0000      -0.418192       -11.3796
  88   2.0000      -0.415544       -11.3075
  89   2.0000      -0.413539       -11.2530
  90   2.0000      -0.409861       -11.1529
  91   2.0000      -0.407110       -11.0780
  92   2.0000      -0.391516       -10.6537
  93   2.0000      -0.388230       -10.5643
  94   2.0000      -0.387579       -10.5466
  95   2.0000      -0.384678       -10.4676
  96   2.0000      -0.383025       -10.4226
  97   2.0000      -0.379469       -10.3259
  98   2.0000      -0.379176       -10.3179
  99   2.0000      -0.369426       -10.0526
 100   2.0000      -0.362912        -9.8753
 101   2.0000      -0.358033        -9.7426
 102   2.0000      -0.351824        -9.5736
 103   2.0000      -0.350992        -9.5510
 104   2.0000      -0.341601        -9.2954
 105   2.0000      -0.325238        -8.8502
 106   2.0000      -0.314683        -8.5630
 107   2.0000      -0.313012        -8.5175
 108   2.0000      -0.308442        -8.3931
 109   2.0000      -0.304987        -8.2991
 110   2.0000      -0.298154        -8.1132
 111   2.0000      -0.286249        -7.7892
 112   2.0000      -0.274808        -7.4779
 113   2.0000      -0.270796        -7.3687
 114   2.0000      -0.268283        -7.3003
 115   2.0000      -0.262056        -7.1309
 116   2.0000      -0.253827        -6.9070
 117   2.0000      -0.245068        -6.6686
 118   2.0000      -0.243652        -6.6301
 119   2.0000      -0.239690        -6.5223
 120   2.0000      -0.202722        -5.5163
 121   2.0000      -0.193586        -5.2677
 122   0.0000      -0.043779        -1.1913
 123   0.0000      -0.029995        -0.8162
 124   0.0000      -0.017775        -0.4837
 125   0.0000       0.005218         0.1420
 126   0.0000       0.017453         0.4749

MULLIKEN ATOMIC CHARGES
-----------------------
   0 C :   -0.310694
   1 N :   -0.528588
   2 C :    0.561592
   3 O :   -0.512079
   4 C :    0.195637
   5 C :    0.393242
   6 N :   -0.426138
   7 C :    0.167279
   8 N :   -0.397633
   9 C :   -0.256911
  10 C :    0.585167
  11 O :   -0.446970
  12 N :   -0.640943
  13 C :    0.262944
  14 N :   -0.432201
  15 C :    0.209061
  16 C :    0.124408
  17 C :   -0.181918
  18 C :   -0.188865
  19 C :    0.167802
  20 C :    0.036891
  21 C :   -0.451223
  22 C :   -0.434135
  23 C :   -0.434288
  24 C :   -0.192303
  25 C :   -0.169552
  26 C :   -0.401309
  27 S :    0.317851
  28 N :   -0.552605
  29 C :   -0.139054
  30 C :   -0.165332
  31 N :   -0.454330
  32 C :    0.632468
  33 H :    0.172848
  34 H :    0.184444
  35 H :    0.193116
  36 H :    0.172034
  37 H :    0.199669
  38 H :    0.202761
  39 H :    0.355772
  40 H :    0.121631
  41 H :    0.123694
  42 H :    0.138461
  43 H :    0.141467
  44 H :    0.141379
  45 H :    0.144248
  46 H :    0.137555
  47 H :    0.135177
  48 H :    0.137722
  49 H :    0.144753
  50 H :    0.135041
  51 H :    0.125892
  52 H :    0.143179
  53 H :    0.180862
  54 H :    0.164178
  55 H :    0.162306
  56 H :    0.153505
  57 H :    0.151033
Sum of atomic charges:   -0.0000000

LOEWDIN ATOMIC CHARGES
----------------------
   0 C :   -0.262133
   1 N :   -0.072581
   2 C :    0.143444
   3 O :   -0.305828
   4 C :   -0.092105
   5 C :    0.043204
   6 N :   -0.174338
   7 C :   -0.034475
   8 N :    0.057549
   9 C :   -0.163920
  10 C :    0.143970
  11 O :   -0.253338
  12 N :   -0.191904
  13 C :   -0.080744
  14 N :   -0.183125
  15 C :   -0.003938
  16 C :   -0.024028
  17 C :   -0.126155
  18 C :   -0.131814
  19 C :   -0.002154
  20 C :   -0.035420
  21 C :   -0.347825
  22 C :   -0.342391
  23 C :   -0.342378
  24 C :   -0.139835
  25 C :   -0.116297
  26 C :   -0.349339
  27 S :    0.427777
  28 N :   -0.063746
  29 C :   -0.150975
  30 C :   -0.156176
  31 N :   -0.250819
  32 C :    0.106069
  33 H :    0.135596
  34 H :    0.146509
  35 H :    0.152079
  36 H :    0.146999
  37 H :    0.160838
  38 H :    0.157779
  39 H :    0.276017
  40 H :    0.128920
  41 H :    0.128871
  42 H :    0.123135
  43 H :    0.122025
  44 H :    0.122023
  45 H :    0.124773
  46 H :    0.119678
  47 H :    0.119678
  48 H :    0.119730
  49 H :    0.125020
  50 H :    0.119617
  51 H :    0.133130
  52 H :    0.140982
  53 H :    0.160858
  54 H :    0.130272
  55 H :    0.130313
  56 H :    0.126562
  57 H :    0.124363

  Mayer bond orders larger than 0.100000
B(  0-C ,  1-N ) :   0.9301 B(  0-C , 33-H ) :   0.9385 B(  0-C , 34-H ) :   0.9293
B(  0-C , 35-H ) :   0.9258 B(  1-N ,  2-C ) :   0.9753 B(  1-N , 32-C ) :   0.9663
B(  2-C ,  3-O ) :   1.7316 B(  2-C ,  4-C ) :   1.0571 B(  4-C ,  5-C ) :   1.3622
B(  4-C ,  8-N ) :   1.0325 B(  5-C ,  6-N ) :   1.3405 B(  5-C , 28-N ) :   0.9449
B(  6-N ,  7-C ) :   1.4824 B(  7-C ,  8-N ) :   1.2301 B(  7-C , 36-H ) :   0.9276
B(  8-N ,  9-C ) :   0.9678 B(  9-C , 10-C ) :   0.9132 B(  9-C , 37-H ) :   0.9119
B(  9-C , 38-H ) :   0.9062 B( 10-C , 11-O ) :   1.8444 B( 10-C , 12-N ) :   1.0340
B( 12-N , 13-C ) :   0.9368 B( 12-N , 39-H ) :   0.8097 B( 13-C , 14-N ) :   1.4835
B( 13-C , 26-C ) :   0.1120 B( 13-C , 27-S ) :   1.1839 B( 14-N , 15-C ) :   1.2878
B( 15-C , 16-C ) :   1.0492 B( 15-C , 26-C ) :   1.5142 B( 16-C , 17-C ) :   1.4000
B( 16-C , 25-C ) :   1.4077 B( 17-C , 18-C ) :   1.4389 B( 17-C , 40-H ) :   0.9209
B( 18-C , 19-C ) :   1.3918 B( 18-C , 41-H ) :   0.9218 B( 19-C , 20-C ) :   0.9720
B( 19-C , 24-C ) :   1.4271 B( 20-C , 21-C ) :   0.9996 B( 20-C , 22-C ) :   0.9903
B( 20-C , 23-C ) :   0.9900 B( 21-C , 42-H ) :   0.9432 B( 21-C , 43-H ) :   0.9409
B( 21-C , 44-H ) :   0.9409 B( 22-C , 45-H ) :   0.9469 B( 22-C , 46-H ) :   0.9426
B( 22-C , 47-H ) :   0.9431 B( 23-C , 48-H ) :   0.9426 B( 23-C , 49-H ) :   0.9468
B( 23-C , 50-H ) :   0.9432 B( 24-C , 25-C ) :   1.4012 B( 24-C , 51-H ) :   0.9192
B( 25-C , 52-H ) :   0.9150 B( 26-C , 27-S ) :   1.1157 B( 26-C , 53-H ) :   0.9018
B( 28-N , 29-C ) :   0.9522 B( 28-N , 32-C ) :   1.0256 B( 29-C , 30-C ) :   0.9600
B( 29-C , 54-H ) :   0.9317 B( 29-C , 55-H ) :   0.9344 B( 30-C , 31-N ) :   1.0199
B( 30-C , 56-H ) :   0.9342 B( 30-C , 57-H ) :   0.9325 B( 31-N , 32-C ) :   1.7173

FINAL SINGLE POINT ENERGY     -1822.464936578229

DIPOLE MOMENT
-------------

Method             : SCF
Type of density    : Electron Density
Multiplicity       :   1
Irrep              :   0
Energy             : -1822.4649365782286168 Eh
Relativity type    :
Basis              : AO
                                X                 Y                 Z
Electronic contribution:     51.472544218      14.147235613       6.981651463
Nuclear contribution   :    -51.708879524     -13.996251269      -6.032212833
                        -----------------------------------------
Total Dipole Moment    :     -0.236335306       0.150984344       0.949438630
                        -----------------------------------------
Magnitude (a.u.)       :      0.989992102
Magnitude (Debye)      :      2.516359944

Rotational constants in cm-1:             0.011744             0.001211             0.001162
Rotational constants in MHz :           352.089675            36.317114            34.821702

                             ****ORCA TERMINATED NORMALLY****
TOTAL RUN TIME: 0 days 0 hours 5 minutes 38 seconds 459 msec
