                         Program Version 6.0.0  -   RELEASE  -
|  1> ! B3LYP 6-31G* SP
|  2>
|  3> * xyz 0 1
|  4> O 2.2207 -2.7342 0.3425
|  5> C 1.8091 -1.5437 0.2965
|  6> C 0.3730 -1.2846 0.0608
|  7> S -0.4927 0.0146 0.6907
|  8> C -1.9739 -0.4876 0.0610
|  9> C -3.2714 0.2209 0.2268
| 10> C -3.3246 1.4260 0.9562
| 11> C -4.5327 2.1070 1.1232
| 12> C -5.7056 1.5993 0.5669
| 13> C -5.6745 0.4084 -0.1585
| 14> C -4.4681 -0.2866 -0.3344
| 15> O -4.4665 -1.4753 -1.0643
| 16> N -1.8240 -1.6432 -0.6262
| 17> C -0.5390 -2.0894 -0.6331
| 18> O -0.1986 -3.2549 -1.3172
| 19> N 2.7380 -0.4630 0.5029
| 20> C 4.1398 -0.7319 0.8449
| 21> C 4.9678 0.5391 0.6325
| 22> C 4.5677 1.2288 -0.6845
| 23> C 3.0331 1.2444 -0.8908
| 24> O 2.3580 0.8274 0.2757
| 25> H -2.4339 1.8490 1.4012
| 26> H -4.5586 3.0314 1.6857
| 27> H -6.6402 2.1293 0.6980
| 28> H -6.5918 0.0236 -0.5860
| 29> H -5.3145 -1.8517 -1.4721
| 30> H 0.7567 -3.5710 -1.4151
| 31> H 4.2146 -1.0706 1.9003
| 32> H 4.5408 -1.5275 0.1793
| 33> H 6.0515 0.2929 0.6219
| 34> H 4.7810 1.2371 1.4782
| 35> H 4.9597 2.2691 -0.6796
| 36> H 5.0440 0.6944 -1.5353
| 37> H 2.7495 0.5961 -1.7516
| 38> H 2.7056 2.2760 -1.1394
| 39> *
| 40>
| 41>                          ****END OF INPUT****

CARTESIAN COORDINATES (ANGSTROEM)
---------------------------------
  O      2.220700   -2.734200    0.342500
  C      1.809100   -1.543700    0.296500
  C      0.373000   -1.284600    0.060800
  S     -0.492700    0.014600    0.690700
  C     -1.973900   -0.487600    0.061000
  C     -3.271400    0.220900    0.226800
  C     -3.324600    1.426000    0.956200
  C     -4.532700    2.107000    1.123200
  C     -5.705600    1.599300    0.566900
  C     -5.674500    0.408400   -0.158500
  C     -4.468100   -0.286600   -0.334400
  O     -4.466500   -1.475300   -1.064300
  N     -1.824000   -1.643200   -0.626200
  C     -0.539000   -2.089400   -0.633100
  O     -0.198600   -3.254900   -1.317200
  N      2.738000   -0.463000    0.502900
  C      4.139800   -0.731900    0.844900
  C      4.967800    0.539100    0.632500
  C      4.567700    1.228800   -0.684500
  C      3.033100    1.244400   -0.890800
  O      2.358000    0.827400    0.275700
  H     -2.433900    1.849000    1.401200
  H     -4.558600    3.031400    1.685700
  H     -6.640200    2.129300    0.698000
  H     -6.591800    0.023600   -0.586000
  H     -5.314500   -1.851700   -1.472100
  H      0.756700   -3.571000   -1.415100
  H      4.214600   -1.070600    1.900300
  H      4.540800   -1.527500    0.179300
  H      6.051500    0.292900    0.621900
  H      4.781000    1.237100    1.478200
  H      4.959700    2.269100   -0.679600
  H      5.044000    0.694400   -1.535300
  H      2.749500    0.596100   -1.751600
  H      2.705600    2.276000   -1.139400

 Total Charge           Charge          ....    0
 Multiplicity           Mult            ....    1
 Number of Electrons    NEL             ....  160
 Basis Dimension        Dim             ....  326

ORBITAL ENERGIES
----------------

  NO   OCC          E(Eh)            E(eV)
   0   2.0000     -88.887495     -2418.7517
   1   2.0000     -19.200341      -522.4678
   2   2.0000     -19.161978      -521.4239
   3   2.0000     -19.156843      -521.2842
   4   2.0000     -19.112532      -520.0784
   5   2.0000     -14.400736      -391.8639
   6   2.0000     -14.316777      -389.5793
   7   2.0000     -10.297390      -280.2062
   8   2.0000     -10.275403      -279.6079
   9   2.0000     -10.257823      -279.1296
  10   2.0000     -10.249039      -278.8905
  11   2.0000     -10.238835      -278.6129
  12   2.0000     -10.221098      -278.1302
  13   2.0000     -10.208259      -277.7808
  14   2.0000     -10.204526      -277.6793
  15   2.0000     -10.194881      -277.4168
  16   2.0000     -10.193192      -277.3708
  17   2.0000     -10.191729      -277.3310
  18   2.0000     -10.189452      -277.2691
  19   2.0000     -10.185576      -277.1636
  20   2.0000     -10.181406      -277.0501
  21   2.0000      -7.964574      -216.7271
  22   2.0000      -5.927523      -161.2961
  23   2.0000      -5.923477      -161.1860
  24   2.0000      -5.921651      -161.1363
  25   2.0000      -1.122707       -30.5504
  26   2.0000      -1.028777       -27.9945
  27   2.0000      -1.026983       -27.9456
  28   2.0000      -1.006920       -27.3997
  29   2.0000      -0.947233       -25.7755
  30   2.0000      -0.864317       -23.5193
  31   2.0000      -0.854351       -23.2481
  32   2.0000      -0.812634       -22.1129
  33   2.0000      -0.798762       -21.7354
  34   2.0000      -0.776606       -21.1325
  35   2.0000      -0.741231       -20.1699
  36   2.0000      -0.723405       -19.6848
  37   2.0000      -0.703326       -19.1385
  38   2.0000      -0.670969       -18.2580
  39   2.0000      -0.639323       -17.3969
  40   2.0000      -0.620712       -16.8904
  41   2.0000      -0.614273       -16.7152
  42   2.0000      -0.588810       -16.0223
  43   2.0000      -0.562258       -15.2998
  44   2.0000      -0.543576       -14.7915
  45   2.0000      -0.537736       -14.6325
  46   2.0000      -0.531599       -14.4656
  47   2.0000      -0.515774       -14.0349
  48   2.0000      -0.508951       -13.8493
  49   2.0000      -0.488799       -13.3009
  50   2.0000      -0.486078       -13.2268
  51   2.0000      -0.450917       -12.2701
  52   2.0000      -0.447777       -12.1846
  53   2.0000      -0.439573       -11.9614
  54   2.0000      -0.435631       -11.8541
  55   2.0000      -0.432207       -11.7609
  56   2.0000      -0.427720       -11.6388
  57   2.0000      -0.425854       -11.5881
  58   2.0000      -0.404692       -11.0122
  59   2.0000      -0.402319       -10.9477
  60   2.0000      -0.394893       -10.7456
  61   2.0000      -0.389889       -10.6094
  62   2.0000      -0.380335       -10.3494
  63   2.0000      -0.374178       -10.1819
  64   2.0000      -0.366794        -9.9810
  65   2.0000      -0.360371        -9.8062
  66   2.0000      -0.347502        -9.4560
  67   2.0000      -0.343406        -9.3446
  68   2.0000      -0.334021        -9.0892
  69   2.0000      -0.328518        -8.9394
  70   2.0000      -0.326318        -8.8796
  71   2.0000      -0.323511        -8.8032
  72   2.0000      -0.298732        -8.1289
  73   2.0000      -0.278173        -7.5695
  74   2.0000      -0.256984        -6.9929
  75   2.0000      -0.251557        -6.8452
  76   2.0000      -0.246888        -6.7182
  77   2.0000      -0.229305        -6.2397
  78   2.0000      -0.228121        -6.2075
  79   2.0000      -0.200827        -5.4648
  80   0.0000      -0.053512        -1.4561
  81   0.0000       0.000816         0.0222
  82   0.0000       0.006949         0.1891
  83   0.0000       0.046078         1.2539
  84   0.0000       0.049819         1.3557

MULLIKEN ATOMIC CHARGES
-----------------------
   0 O :   -0.499604
   1 C :    0.506431
   2 C :   -0.274358
   3 S :    0.282312
   4 C :   -0.017510
   5 C :    0.118742
   6 C :   -0.198885
   7 C :   -0.141003
   8 C :   -0.115731
   9 C :   -0.199985
  10 C :    0.346193
  11 O :   -0.633632
  12 N :   -0.376679
  13 C :    0.504164
  14 O :   -0.644018
  15 N :   -0.204822
  16 C :   -0.110969
  17 C :   -0.284106
  18 C :   -0.297366
  19 C :   -0.013369
  20 O :   -0.363897
  21 H :    0.154329
  22 H :    0.129843
  23 H :    0.133539
  24 H :    0.124696
  25 H :    0.413669
  26 H :    0.436450
  27 H :    0.162155
  28 H :    0.168022
  29 H :    0.151826
  30 H :    0.155389
  31 H :    0.147534
  32 H :    0.144378
  33 H :    0.141957
  34 H :    0.154305
Sum of atomic charges:   -0.0000000

LOEWDIN ATOMIC CHARGES
----------------------
   0 O :   -0.302751
   1 C :    0.127707
   2 C :   -0.291427
   3 S :    0.396910
   4 C :   -0.110378
   5 C :   -0.051343
   6 C :   -0.113778
   7 C :   -0.148971
   8 C :   -0.115308
   9 C :   -0.169616
  10 C :    0.109178
  11 O :   -0.317762
  12 N :   -0.147330
  13 C :    0.110938
  14 O :   -0.331912
  15 N :   -0.010966
  16 C :   -0.152664
  17 C :   -0.232735
  18 C :   -0.250647
  19 C :   -0.103573
  20 O :   -0.142223
  21 H :    0.144356
  22 H :    0.133130
  23 H :    0.134707
  24 H :    0.131995
  25 H :    0.334184
  26 H :    0.347374
  27 H :    0.131338
  28 H :    0.135380
  29 H :    0.133811
  30 H :    0.127944
  31 H :    0.127961
  32 H :    0.125075
  33 H :    0.113319
  34 H :    0.128074

  Mayer bond orders larger than 0.100000
B(  0-O ,  1-C ) :   1.7552 B(  1-C ,  2-C ) :   0.9905 B(  1-C , 15-N ) :   1.0423
B(  2-C ,  3-S ) :   1.0724 B(  2-C ,  4-C ) :   0.1133 B(  2-C , 13-C ) :   1.3755
B(  3-S ,  4-C ) :   1.1529 B(  4-C ,  5-C ) :   1.0116 B(  4-C , 12-N ) :   1.4266
B(  5-C ,  6-C ) :   1.3947 B(  5-C , 10-C ) :   1.3291 B(  6-C ,  7-C ) :   1.4576
B(  6-C , 21-H ) :   0.9143 B(  7-C ,  8-C ) :   1.4307 B(  7-C , 22-H ) :   0.9296
B(  8-C ,  9-C ) :   1.4531 B(  8-C , 23-H ) :   0.9283 B(  9-C , 10-C ) :   1.3627
B(  9-C , 24-H ) :   0.9241 B( 10-C , 11-O ) :   0.9604 B( 11-O , 25-H ) :   0.7654
B( 12-N , 13-C ) :   1.3252 B( 13-C , 14-O ) :   1.0247 B( 14-O , 26-H ) :   0.7302
B( 15-N , 16-C ) :   0.9062 B( 15-N , 20-O ) :   0.9421 B( 16-C , 17-C ) :   0.9944
B( 16-C , 27-H ) :   0.9286 B( 16-C , 28-H ) :   0.9224 B( 17-C , 18-C ) :   1.0044
B( 17-C , 29-H ) :   0.9400 B( 17-C , 30-H ) :   0.9376 B( 18-C , 19-C ) :   0.9709
B( 18-C , 31-H ) :   0.9457 B( 18-C , 32-H ) :   0.9432 B( 19-C , 20-O ) :   0.8963
B( 19-C , 33-H ) :   0.9326 B( 19-C , 34-H ) :   0.9429

FINAL SINGLE POINT ENERGY     -1349.784743073842

DIPOLE MOMENT
-------------

Method             : SCF
Type of density    : Electron Density
Multiplicity       :   1
Irrep              :   0
Energy             : -1349.7847430738422645 Eh
Relativity type    :
Basis              : AO
                                X                 Y                 Z
Electronic contribution:    -14.625678962      -8.614148357       0.971866008
Nuclear contribution   :     14.866636003      10.198864421      -1.329455380
                        -----------------------------------------
Total Dipole Moment    :      0.240957041       1.584716064      -0.357589373
                        -----------------------------------------
Magnitude (a.u.)       :      1.642332322
Magnitude (Debye)      :      4.174477013

Rotational constants in cm-1:             0.020924             0.004791             0.004126
Rotational constants in MHz :           627.294757           143.621293           123.687505

                             ****ORCA TERMINATED NORMALLY****
TOTAL RUN TIME: 0 days 0 hours 4 minutes 35 seconds 539 msec
