                         Program Version 6.0.0  -   RELEASE  -
|  1> ! B3LYP 6-31G* SP
|  2>
|  3> * xyz 0 1
|  4> C 1.6979 3.2075 1.8711
|  5> C 1.3341 2.3925 0.6198
|  6> C 0.1571 2.9696 -0.1547
|  7> C -0.9703 3.5185 0.4915
|  8> C -2.0690 3.9589 -0.2523
|  9> C -2.0609 3.8565 -1.6449
| 10> F -3.1324 4.2750 -2.3623
| 11> C -0.9515 3.3156 -2.2976
| 12> C 0.1501 2.8743 -1.5595
| 13> N 1.1311 0.9626 0.9572
| 14> C -0.1231 0.5178 1.5998
| 15> C -1.2450 0.2899 0.6076
| 16> C -2.5727 0.3902 1.0508
| 17> C -3.6322 0.1996 0.1626
| 18> C -3.3811 -0.1034 -1.1765
| 19> C -2.0619 -0.2297 -1.6405
| 20> C -1.7984 -0.5394 -3.0630
| 21> O -0.6152 -0.6292 -3.4888
| 22> O -2.8568 -0.7316 -3.9472
| 23> C -0.9988 -0.0450 -0.7382
| 24> C 2.2762 0.0736 0.9095
| 25> O 3.4386 0.5580 0.9857
| 26> C 2.1464 -1.3941 0.7617
| 27> C 3.1975 -2.2991 0.8385
| 28> N 2.6812 -3.5164 0.6225
| 29> C 3.2876 -4.7299 0.5921
| 30> C 2.4944 -5.8583 0.3351
| 31> C 1.1114 -5.6987 0.1182
| 32> C 0.5292 -4.4208 0.1584
| 33> C 1.3663 -3.3380 0.4191
| 34> N 0.9889 -2.0471 0.4913
| 35> H 2.6672 2.8540 2.2817
| 36> H 0.9355 3.1058 2.6690
| 37> H 1.8054 4.2819 1.6091
| 38> H 2.2187 2.4802 -0.0514
| 39> H -1.0187 3.5874 1.5688
| 40> H -2.9325 4.3702 0.2543
| 41> H -0.9482 3.2270 -3.3764
| 42> H 0.9897 2.4346 -2.0837
| 43> H 0.0363 -0.4073 2.1916
| 44> H -0.4414 1.2781 2.3428
| 45> H -2.7885 0.6298 2.0847
| 46> H -4.6524 0.2913 0.5128
| 47> H -4.2204 -0.2384 -1.8471
| 48> H -2.6879 -0.9386 -4.9243
| 49> H 0.0193 -0.1315 -1.0932
| 50> H 4.2419 -2.0861 1.0301
| 51> H 4.3531 -4.8258 0.7611
| 52> H 2.9416 -6.8432 0.3034
| 53> H 0.4940 -6.5653 -0.0803
| 54> H -0.5319 -4.2836 -0.0076
| 55> *
| 56>
| 57>                          ****END OF INPUT****

CARTESIAN COORDINATES (ANGSTROEM)
---------------------------------
  C      1.697900    3.207500    1.871100
  C      1.334100    2.392500    0.619800
  C      0.157100    2.969600   -0.154700
  C     -0.970300    3.518500    0.491500
  C     -2.069000    3.958900   -0.252300
  C     -2.060900    3.856500   -1.644900
  F     -3.132400    4.275000   -2.362300
  C     -0.951500    3.315600   -2.297600
  C      0.150100    2.874300   -1.559500
  N      1.131100    0.962600    0.957200
  C     -0.123100    0.517800    1.599800
  C     -1.245000    0.289900    0.607600
  C     -2.572700    0.390200    1.050800
  C     -3.632200    0.199600    0.162600
  C     -3.381100   -0.103400   -1.176500
  C     -2.061900   -0.229700   -1.640500
  C     -1.798400   -0.539400   -3.063000
  O     -0.615200   -0.629200   -3.488800
  O     -2.856800   -0.731600   -3.947200
  C     -0.998800   -0.045000   -0.738200
  C      2.276200    0.073600    0.909500
  O      3.438600    0.558000    0.985700
  C      2.146400   -1.394100    0.761700
  C      3.197500   -2.299100    0.838500
  N      2.681200   -3.516400    0.622500
  C      3.287600   -4.729900    0.592100
  C      2.494400   -5.858300    0.335100
  C      1.111400   -5.698700    0.118200
  C      0.529200   -4.420800    0.158400
  C      1.366300   -3.338000    0.419100
  N      0.988900   -2.047100    0.491300
  H      2.667200    2.854000    2.281700
  H      0.935500    3.105800    2.669000
  H      1.805400    4.281900    1.609100
  H      2.218700    2.480200   -0.051400
  H     -1.018700    3.587400    1.568800
  H     -2.932500    4.370200    0.254300
  H     -0.948200    3.227000   -3.376400
  H      0.989700    2.434600   -2.083700
  H      0.036300   -0.407300    2.191600
  H     -0.441400    1.278100    2.342800
  H     -2.788500    0.629800    2.084700
  H     -4.652400    0.291300    0.512800
  H     -4.220400   -0.238400   -1.847100
  H     -2.687900   -0.938600   -4.924300
  H      0.019300   -0.131500   -1.093200
  H      4.241900   -2.086100    1.030100
  H      4.353100   -4.825800    0.761100
  H      2.941600   -6.843200    0.303400
  H      0.494000   -6.565300   -0.080300
  H     -0.531900   -4.283600   -0.007600

 Total Charge           Charge          ....    0
 Multiplicity           Mult            ....    1
 Number of Electrons    NEL             ....  218
 Basis Dimension        Dim             ....  474

ORBITAL ENERGIES
----------------

  NO   OCC          E(Eh)            E(eV)
   0   2.0000     -24.690331      -671.8581
   1   2.0000     -19.172815      -521.7188
   2   2.0000     -19.111490      -520.0501
   3   2.0000     -19.106192      -519.9059
   4   2.0000     -14.427125      -392.5820
   5   2.0000     -14.348033      -390.4298
   6   2.0000     -14.311441      -389.4341
   7   2.0000     -10.307896      -280.4921
   8   2.0000     -10.284699      -279.8609
   9   2.0000     -10.260207      -279.1944
  10   2.0000     -10.246320      -278.8166
  11   2.0000     -10.245850      -278.8037
  12   2.0000     -10.217984      -278.0455
  13   2.0000     -10.217414      -278.0300
  14   2.0000     -10.214429      -277.9487
  15   2.0000     -10.211394      -277.8662
  16   2.0000     -10.208894      -277.7981
  17   2.0000     -10.203149      -277.6418
  18   2.0000     -10.202571      -277.6261
  19   2.0000     -10.191648      -277.3288
  20   2.0000     -10.185322      -277.1567
  21   2.0000     -10.184926      -277.1459
  22   2.0000     -10.184699      -277.1398
  23   2.0000     -10.182346      -277.0757
  24   2.0000     -10.182154      -277.0705
  25   2.0000     -10.180885      -277.0360
  26   2.0000     -10.180483      -277.0250
  27   2.0000     -10.178784      -276.9788
  28   2.0000     -10.176797      -276.9247
  29   2.0000     -10.176679      -276.9215
  30   2.0000     -10.163103      -276.5521
  31   2.0000      -1.203534       -32.7498
  32   2.0000      -1.064460       -28.9654
  33   2.0000      -1.056842       -28.7581
  34   2.0000      -1.006184       -27.3797
  35   2.0000      -0.969971       -26.3942
  36   2.0000      -0.919246       -25.0140
  37   2.0000      -0.911042       -24.7907
  38   2.0000      -0.849764       -23.1233
  39   2.0000      -0.847483       -23.0612
  40   2.0000      -0.840793       -22.8791
  41   2.0000      -0.780690       -21.2436
  42   2.0000      -0.771742       -21.0002
  43   2.0000      -0.759574       -20.6691
  44   2.0000      -0.745685       -20.2911
  45   2.0000      -0.744270       -20.2526
  46   2.0000      -0.742672       -20.2091
  47   2.0000      -0.712156       -19.3788
  48   2.0000      -0.683599       -18.6017
  49   2.0000      -0.672046       -18.2873
  50   2.0000      -0.651368       -17.7246
  51   2.0000      -0.646615       -17.5953
  52   2.0000      -0.625713       -17.0265
  53   2.0000      -0.619707       -16.8631
  54   2.0000      -0.610599       -16.6152
  55   2.0000      -0.586578       -15.9616
  56   2.0000      -0.579699       -15.7744
  57   2.0000      -0.577283       -15.7087
  58   2.0000      -0.542384       -14.7590
  59   2.0000      -0.538979       -14.6664
  60   2.0000      -0.529988       -14.4217
  61   2.0000      -0.512387       -13.9428
  62   2.0000      -0.505174       -13.7465
  63   2.0000      -0.501165       -13.6374
  64   2.0000      -0.483868       -13.1667
  65   2.0000      -0.483027       -13.1438
  66   2.0000      -0.478990       -13.0340
  67   2.0000      -0.477141       -12.9837
  68   2.0000      -0.466539       -12.6952
  69   2.0000      -0.460203       -12.5228
  70   2.0000      -0.450901       -12.2696
  71   2.0000      -0.446117       -12.1395
  72   2.0000      -0.444840       -12.1047
  73   2.0000      -0.441296       -12.0083
  74   2.0000      -0.437058       -11.8930
  75   2.0000      -0.435065       -11.8387
  76   2.0000      -0.424655       -11.5554
  77   2.0000      -0.419539       -11.4162
  78   2.0000      -0.418585       -11.3903
  79   2.0000      -0.415967       -11.3190
  80   2.0000      -0.405602       -11.0370
  81   2.0000      -0.400161       -10.8889
  82   2.0000      -0.394644       -10.7388
  83   2.0000      -0.389175       -10.5900
  84   2.0000      -0.385571       -10.4919
  85   2.0000      -0.381220       -10.3735
  86   2.0000      -0.378600       -10.3022
  87   2.0000      -0.368857       -10.0371
  88   2.0000      -0.365894        -9.9565
  89   2.0000      -0.357488        -9.7278
  90   2.0000      -0.350330        -9.5330
  91   2.0000      -0.346767        -9.4360
  92   2.0000      -0.340426        -9.2635
  93   2.0000      -0.334886        -9.1127
  94   2.0000      -0.331340        -9.0162
  95   2.0000      -0.330774        -9.0008
  96   2.0000      -0.326272        -8.8783
  97   2.0000      -0.323299        -8.7974
  98   2.0000      -0.293625        -7.9899
  99   2.0000      -0.280701        -7.6383
 100   2.0000      -0.254725        -6.9314
 101   2.0000      -0.254320        -6.9204
 102   2.0000      -0.248987        -6.7753
 103   2.0000      -0.246758        -6.7146
 104   2.0000      -0.244147        -6.6436
 105   2.0000      -0.235891        -6.4189
 106   2.0000      -0.222252        -6.0478
 107   2.0000      -0.219979        -5.9859
 108   2.0000      -0.209530        -5.7016
 109   0.0000      -0.053296        -1.4503
 110   0.0000      -0.038618        -1.0508
 111   0.0000      -0.014907        -0.4057
 112   0.0000      -0.007283        -0.1982
 113   0.0000       0.003672         0.0999

MULLIKEN ATOMIC CHARGES
-----------------------
   0 C :   -0.452412
   1 C :   -0.039408
   2 C :    0.133686
   3 C :   -0.151768
   4 C :   -0.205638
   5 C :    0.413323
   6 F :   -0.320401
   7 C :   -0.206346
   8 C :   -0.157727
   9 N :   -0.428769
  10 C :   -0.223271
  11 C :    0.165271
  12 C :   -0.164923
  13 C :   -0.131083
  14 C :   -0.162783
  15 C :    0.074498
  16 C :    0.516292
  17 O :   -0.461623
  18 O :   -0.627667
  19 C :   -0.146164
  20 C :    0.481652
  21 O :   -0.489056
  22 C :    0.150252
  23 C :   -0.039625
  24 N :   -0.372056
  25 C :    0.028068
  26 C :   -0.171117
  27 C :   -0.123627
  28 C :   -0.172855
  29 C :    0.456709
  30 N :   -0.482661
  31 H :    0.175033
  32 H :    0.132774
  33 H :    0.145179
  34 H :    0.167067
  35 H :    0.129015
  36 H :    0.138714
  37 H :    0.147037
  38 H :    0.149186
  39 H :    0.185217
  40 H :    0.147434
  41 H :    0.118543
  42 H :    0.126448
  43 H :    0.147878
  44 H :    0.423585
  45 H :    0.160255
  46 H :    0.178717
  47 H :    0.176752
  48 H :    0.151441
  49 H :    0.142768
  50 H :    0.168185
Sum of atomic charges:   -0.0000000

LOEWDIN ATOMIC CHARGES
----------------------
   0 C :   -0.362875
   1 C :   -0.046182
   2 C :   -0.032642
   3 C :   -0.121623
   4 C :   -0.155627
   5 C :    0.117970
   6 F :   -0.105822
   7 C :   -0.153766
   8 C :   -0.111386
   9 N :   -0.095861
  10 C :   -0.146018
  11 C :   -0.019622
  12 C :   -0.118298
  13 C :   -0.136032
  14 C :   -0.111669
  15 C :   -0.063080
  16 C :    0.178314
  17 O :   -0.278354
  18 O :   -0.340605
  19 C :   -0.069499
  20 C :    0.139620
  21 O :   -0.287387
  22 C :   -0.038295
  23 C :   -0.135658
  24 N :    0.112463
  25 C :   -0.084966
  26 C :   -0.143687
  27 C :   -0.136584
  28 C :   -0.112141
  29 C :    0.027330
  30 N :   -0.174404
  31 H :    0.140335
  32 H :    0.115878
  33 H :    0.127418
  34 H :    0.144692
  35 H :    0.132509
  36 H :    0.140377
  37 H :    0.144416
  38 H :    0.141465
  39 H :    0.150251
  40 H :    0.123829
  41 H :    0.127225
  42 H :    0.130703
  43 H :    0.142139
  44 H :    0.342459
  45 H :    0.153731
  46 H :    0.155788
  47 H :    0.151310
  48 H :    0.145318
  49 H :    0.139013
  50 H :    0.157528

  Mayer bond orders larger than 0.100000
B(  0-C ,  1-C ) :   0.9853 B(  0-C , 31-H ) :   0.9360 B(  0-C , 32-H ) :   0.9402
B(  0-C , 33-H ) :   0.9439 B(  1-C ,  2-C ) :   0.9683 B(  1-C ,  9-N ) :   0.9250
B(  1-C , 34-H ) :   0.9135 B(  2-C ,  3-C ) :   1.4194 B(  2-C ,  8-C ) :   1.4212
B(  3-C ,  4-C ) :   1.4192 B(  3-C , 35-H ) :   0.9215 B(  4-C ,  5-C ) :   1.3946
B(  4-C , 36-H ) :   0.9217 B(  5-C ,  6-F ) :   0.9155 B(  5-C ,  7-C ) :   1.3897
B(  7-C ,  8-C ) :   1.4229 B(  7-C , 37-H ) :   0.9200 B(  8-C , 38-H ) :   0.9211
B(  9-N , 10-C ) :   0.9497 B(  9-N , 20-C ) :   1.0385 B( 10-C , 11-C ) :   0.9512
B( 10-C , 39-H ) :   0.9081 B( 10-C , 40-H ) :   0.9189 B( 11-C , 12-C ) :   1.4125
B( 11-C , 19-C ) :   1.4091 B( 12-C , 13-C ) :   1.4317 B( 12-C , 41-H ) :   0.9264
B( 13-C , 14-C ) :   1.4392 B( 13-C , 42-H ) :   0.9305 B( 14-C , 15-C ) :   1.3765
B( 14-C , 43-H ) :   0.9194 B( 15-C , 16-C ) :   1.0142 B( 15-C , 19-C ) :   1.3795
B( 16-C , 17-O ) :   1.8500 B( 16-C , 18-O ) :   1.0133 B( 18-O , 44-H ) :   0.7480
B( 19-C , 45-H ) :   0.8948 B( 20-C , 21-O ) :   1.7789 B( 20-C , 22-C ) :   0.9945
B( 22-C , 23-C ) :   1.4200 B( 22-C , 30-N ) :   1.3182 B( 23-C , 24-N ) :   1.1373
B( 23-C , 46-H ) :   0.9157 B( 24-N , 25-C ) :   1.1109 B( 24-N , 29-C ) :   1.0498
B( 25-C , 26-C ) :   1.5768 B( 25-C , 28-C ) :   0.1084 B( 25-C , 47-H ) :   0.9224
B( 26-C , 27-C ) :   1.3144 B( 26-C , 48-H ) :   0.9298 B( 27-C , 28-C ) :   1.5230
B( 27-C , 49-H ) :   0.9291 B( 28-C , 29-C ) :   1.3059 B( 28-C , 50-H ) :   0.9192
B( 29-C , 30-N ) :   1.3649

FINAL SINGLE POINT ENERGY     -1415.511324947005

DIPOLE MOMENT
-------------

Method             : SCF
Type of density    : Electron Density
Multiplicity       :   1
Irrep              :   0
Energy             : -1415.5113249470052779 Eh
Relativity type    :
Basis              : AO
                                X                 Y                 Z
Electronic contribution:     -4.371850897      -0.116536078     -11.220062715
Nuclear contribution   :      4.139573936      -1.616983102      11.945358084
                        -----------------------------------------
Total Dipole Moment    :     -0.232276961      -1.733519180       0.725295370
                        -----------------------------------------
Magnitude (a.u.)       :      1.893434632
Magnitude (Debye)      :      4.812728361

Rotational constants in cm-1:             0.007741             0.003558             0.002857
Rotational constants in MHz :           232.064592           106.653135            85.654991

                             ****ORCA TERMINATED NORMALLY****
TOTAL RUN TIME: 0 days 0 hours 5 minutes 37 seconds 13 msec
