                         Program Version 6.0.0  -   RELEASE  -
|  1> ! B3LYP 6-31G* SP
|  2>
|  3> * xyz 0 1
|  4> C -1.4276 -0.2959 2.0914
|  5> C -0.4769 -1.1962 1.3331
|  6> C 0.3835 -0.6672 0.3416
|  7> N 0.3781 0.7285 0.0189
|  8> C -0.2133 1.1796 -1.2407
|  9> C -1.7008 1.0447 -1.1777
| 10> C -2.4068 -0.1404 -1.3827
| 11> C -3.7710 -0.0073 -1.0940
| 12> C -4.7470 -1.0112 -1.1734
| 13> Cl -4.3490 -2.6450 -1.6853
| 14> C -6.0716 -0.6929 -0.8239
| 15> C -6.4070 0.6065 -0.3979
| 16> C -5.4223 1.6013 -0.3129
| 17> C -4.1177 1.2678 -0.6662
| 18> S -2.7534 2.2451 -0.6213
| 19> S 1.3175 1.8268 0.9779
| 20> O 1.6694 1.1916 2.2945
| 21> O 0.5107 3.0660 1.2490
| 22> C 2.7960 2.2244 0.1121
| 23> C 3.7955 1.2555 -0.0329
| 24> C 4.9669 1.5507 -0.7362
| 25> C 5.1529 2.8220 -1.3089
| 26> C 6.3902 3.1403 -2.0550
| 27> O 7.2938 2.2720 -2.1932
| 28> O 6.5677 4.4034 -2.6138
| 29> C 4.1419 3.7884 -1.1648
| 30> C 2.9708 3.4901 -0.4614
| 31> N 1.2095 -1.4900 -0.3554
| 32> C 1.2588 -2.8260 -0.1379
| 33> C 0.4332 -3.4115 0.8249
| 34> C 0.4741 -4.7971 1.0438
| 35> C -0.3578 -5.3812 1.9993
| 36> C -1.2341 -4.5900 2.7413
| 37> C -1.2849 -3.2089 2.5343
| 38> C -0.4509 -2.5948 1.5736
| 39> H -2.4749 -0.6042 1.8881
| 40> H -1.2233 -0.3666 3.1802
| 41> H -1.3365 0.7705 1.8076
| 42> H 0.1864 0.5749 -2.0833
| 43> H 0.0491 2.2416 -1.4364
| 44> H -1.9384 -1.0653 -1.6945
| 45> H -6.8423 -1.4512 -0.8780
| 46> H -7.4295 0.8377 -0.1290
| 47> H -5.6702 2.5998 0.0233
| 48> H 3.6660 0.2698 0.3962
| 49> H 5.7252 0.7836 -0.8326
| 50> H 7.4110 4.6316 -3.1264
| 51> H 4.2532 4.7746 -1.5976
| 52> H 2.2020 4.2462 -0.3695
| 53> H 1.9401 -3.4298 -0.7243
| 54> H 1.1468 -5.4273 0.4745
| 55> H -0.3241 -6.4504 2.1641
| 56> H -1.8784 -5.0485 3.4805
| 57> H -1.9807 -2.6358 3.1313
| 58> *
| 59>
| 60>                          ****END OF INPUT****

CARTESIAN COORDINATES (ANGSTROEM)
---------------------------------
  C     -1.427600   -0.295900    2.091400
  C     -0.476900   -1.196200    1.333100
  C      0.383500   -0.667200    0.341600
  N      0.378100    0.728500    0.018900
  C     -0.213300    1.179600   -1.240700
  C     -1.700800    1.044700   -1.177700
  C     -2.406800   -0.140400   -1.382700
  C     -3.771000   -0.007300   -1.094000
  C     -4.747000   -1.011200   -1.173400
  Cl    -4.349000   -2.645000   -1.685300
  C     -6.071600   -0.692900   -0.823900
  C     -6.407000    0.606500   -0.397900
  C     -5.422300    1.601300   -0.312900
  C     -4.117700    1.267800   -0.666200
  S     -2.753400    2.245100   -0.621300
  S      1.317500    1.826800    0.977900
  O      1.669400    1.191600    2.294500
  O      0.510700    3.066000    1.249000
  C      2.796000    2.224400    0.112100
  C      3.795500    1.255500   -0.032900
  C      4.966900    1.550700   -0.736200
  C      5.152900    2.822000   -1.308900
  C      6.390200    3.140300   -2.055000
  O      7.293800    2.272000   -2.193200
  O      6.567700    4.403400   -2.613800
  C      4.141900    3.788400   -1.164800
  C      2.970800    3.490100   -0.461400
  N      1.209500   -1.490000   -0.355400
  C      1.258800   -2.826000   -0.137900
  C      0.433200   -3.411500    0.824900
  C      0.474100   -4.797100    1.043800
  C     -0.357800   -5.381200    1.999300
  C     -1.234100   -4.590000    2.741300
  C     -1.284900   -3.208900    2.534300
  C     -0.450900   -2.594800    1.573600
  H     -2.474900   -0.604200    1.888100
  H     -1.223300   -0.366600    3.180200
  H     -1.336500    0.770500    1.807600
  H      0.186400    0.574900   -2.083300
  H      0.049100    2.241600   -1.436400
  H     -1.938400   -1.065300   -1.694500
  H     -6.842300   -1.451200   -0.878000
  H     -7.429500    0.837700   -0.129000
  H     -5.670200    2.599800    0.023300
  H      3.666000    0.269800    0.396200
  H      5.725200    0.783600   -0.832600
  H      7.411000    4.631600   -3.126400
  H      4.253200    4.774600   -1.597600
  H      2.202000    4.246200   -0.369500
  H      1.940100   -3.429800   -0.724300
  H      1.146800   -5.427300    0.474500
  H     -0.324100   -6.450400    2.164100
  H     -1.878400   -5.048500    3.480500
  H     -1.980700   -2.635800    3.131300

 Total Charge           Charge          ....    0
 Multiplicity           Mult            ....    1
 Number of Electrons    NEL             ....  270
 Basis Dimension        Dim             ....  540

ORBITAL ENERGIES
----------------

  NO   OCC          E(Eh)            E(eV)
   0   2.0000    -101.531090     -2762.8014
   1   2.0000     -89.097713     -2424.4720
   2   2.0000     -88.889048     -2418.7940
   3   2.0000     -19.194866      -522.3188
   4   2.0000     -19.136312      -520.7255
   5   2.0000     -19.128085      -520.5016
   6   2.0000     -19.127052      -520.4736
   7   2.0000     -14.372897      -391.1064
   8   2.0000     -14.333287      -390.0286
   9   2.0000     -10.333672      -281.1935
  10   2.0000     -10.257274      -279.1146
  11   2.0000     -10.247505      -278.8488
  12   2.0000     -10.245974      -278.8071
  13   2.0000     -10.239518      -278.6315
  14   2.0000     -10.229579      -278.3610
  15   2.0000     -10.225169      -278.2410
  16   2.0000     -10.220343      -278.1097
  17   2.0000     -10.217705      -278.0379
  18   2.0000     -10.216937      -278.0170
  19   2.0000     -10.216133      -277.9951
  20   2.0000     -10.215101      -277.9670
  21   2.0000     -10.214575      -277.9527
  22   2.0000     -10.209101      -277.8038
  23   2.0000     -10.204985      -277.6917
  24   2.0000     -10.200238      -277.5626
  25   2.0000     -10.198886      -277.5258
  26   2.0000     -10.197883      -277.4985
  27   2.0000     -10.197122      -277.4778
  28   2.0000     -10.196765      -277.4681
  29   2.0000     -10.196047      -277.4486
  30   2.0000     -10.195642      -277.4375
  31   2.0000     -10.195603      -277.4365
  32   2.0000     -10.194750      -277.4133
  33   2.0000     -10.187560      -277.2176
  34   2.0000     -10.171921      -276.7921
  35   2.0000      -9.462603      -257.4905
  36   2.0000      -8.133539      -221.3249
  37   2.0000      -7.966570      -216.7814
  38   2.0000      -7.225641      -196.6197
  39   2.0000      -7.216262      -196.3645
  40   2.0000      -7.215934      -196.3555
  41   2.0000      -6.098561      -165.9503
  42   2.0000      -6.096608      -165.8971
  43   2.0000      -6.096129      -165.8841
  44   2.0000      -5.929830      -161.3589
  45   2.0000      -5.925789      -161.2489
  46   2.0000      -5.922971      -161.1722
  47   2.0000      -1.084873       -29.5209
  48   2.0000      -1.079403       -29.3720
  49   2.0000      -0.993530       -27.0353
  50   2.0000      -0.965743       -26.2792
  51   2.0000      -0.963075       -26.2066
  52   2.0000      -0.922351       -25.0984
  53   2.0000      -0.911782       -24.8108
  54   2.0000      -0.887816       -24.1587
  55   2.0000      -0.872318       -23.7370
  56   2.0000      -0.863694       -23.5023
  57   2.0000      -0.827048       -22.5051
  58   2.0000      -0.808070       -21.9887
  59   2.0000      -0.803075       -21.8528
  60   2.0000      -0.777568       -21.1587
  61   2.0000      -0.773681       -21.0529
  62   2.0000      -0.765720       -20.8363
  63   2.0000      -0.763487       -20.7755
  64   2.0000      -0.740819       -20.1587
  65   2.0000      -0.719674       -19.5833
  66   2.0000      -0.708495       -19.2791
  67   2.0000      -0.698813       -19.0157
  68   2.0000      -0.684745       -18.6329
  69   2.0000      -0.652717       -17.7613
  70   2.0000      -0.643417       -17.5083
  71   2.0000      -0.636459       -17.3189
  72   2.0000      -0.619588       -16.8598
  73   2.0000      -0.605863       -16.4864
  74   2.0000      -0.596107       -16.2209
  75   2.0000      -0.594183       -16.1685
  76   2.0000      -0.591481       -16.0950
  77   2.0000      -0.566741       -15.4218
  78   2.0000      -0.559860       -15.2346
  79   2.0000      -0.540258       -14.7012
  80   2.0000      -0.532210       -14.4822
  81   2.0000      -0.518837       -14.1183
  82   2.0000      -0.508964       -13.8496
  83   2.0000      -0.501355       -13.6426
  84   2.0000      -0.490881       -13.3575
  85   2.0000      -0.485145       -13.2015
  86   2.0000      -0.482504       -13.1296
  87   2.0000      -0.479534       -13.0488
  88   2.0000      -0.470900       -12.8138
  89   2.0000      -0.467960       -12.7338
  90   2.0000      -0.458845       -12.4858
  91   2.0000      -0.450835       -12.2678
  92   2.0000      -0.447603       -12.1799
  93   2.0000      -0.445494       -12.1225
  94   2.0000      -0.442186       -12.0325
  95   2.0000      -0.440407       -11.9841
  96   2.0000      -0.434314       -11.8183
  97   2.0000      -0.429686       -11.6923
  98   2.0000      -0.427824       -11.6417
  99   2.0000      -0.423785       -11.5318
 100   2.0000      -0.417510       -11.3610
 101   2.0000      -0.414690       -11.2843
 102   2.0000      -0.413232       -11.2446
 103   2.0000      -0.404511       -11.0073
 104   2.0000      -0.399760       -10.8780
 105   2.0000      -0.392656       -10.6847
 106   2.0000      -0.389603       -10.6016
 107   2.0000      -0.383574       -10.4376
 108   2.0000      -0.377545       -10.2735
 109   2.0000      -0.372528       -10.1370
 110   2.0000      -0.367869       -10.0102
 111   2.0000      -0.366211        -9.9651
 112   2.0000      -0.364627        -9.9220
 113   2.0000      -0.359221        -9.7749
 114   2.0000      -0.353904        -9.6302
 115   2.0000      -0.349914        -9.5216
 116   2.0000      -0.343750        -9.3539
 117   2.0000      -0.329541        -8.9673
 118   2.0000      -0.321112        -8.7379
 119   2.0000      -0.319427        -8.6920
 120   2.0000      -0.311273        -8.4702
 121   2.0000      -0.306873        -8.3504
 122   2.0000      -0.300605        -8.1799
 123   2.0000      -0.288243        -7.8435
 124   2.0000      -0.283123        -7.7042
 125   2.0000      -0.277859        -7.5609
 126   2.0000      -0.276929        -7.5356
 127   2.0000      -0.276567        -7.5258
 128   2.0000      -0.272756        -7.4221
 129   2.0000      -0.266470        -7.2510
 130   2.0000      -0.258458        -7.0330
 131   2.0000      -0.254350        -6.9212
 132   2.0000      -0.241649        -6.5756
 133   2.0000      -0.223465        -6.0808
 134   2.0000      -0.212812        -5.7909
 135   0.0000      -0.081164        -2.2086
 136   0.0000      -0.060429        -1.6444
 137   0.0000      -0.038796        -1.0557
 138   0.0000      -0.032561        -0.8860
 139   0.0000      -0.027785        -0.7561

MULLIKEN ATOMIC CHARGES
-----------------------
   0 C :   -0.549538
   1 C :    0.136512
   2 C :    0.302206
   3 N :   -0.605733
   4 C :   -0.211270
   5 C :   -0.117219
   6 C :   -0.167551
   7 C :    0.150728
   8 C :   -0.126504
   9 Cl:   -0.007533
  10 C :   -0.154792
  11 C :   -0.109072
  12 C :   -0.174880
  13 C :   -0.115645
  14 S :    0.257220
  15 S :    1.220817
  16 O :   -0.544978
  17 O :   -0.551957
  18 C :   -0.125586
  19 C :   -0.134301
  20 C :   -0.141978
  21 C :    0.083021
  22 C :    0.527913
  23 O :   -0.444602
  24 O :   -0.623918
  25 C :   -0.146248
  26 C :   -0.153822
  27 N :   -0.403549
  28 C :   -0.059741
  29 C :    0.140627
  30 C :   -0.203584
  31 C :   -0.124477
  32 C :   -0.119783
  33 C :   -0.191942
  34 C :    0.117149
  35 H :    0.161642
  36 H :    0.171105
  37 H :    0.206001
  38 H :    0.190853
  39 H :    0.177482
  40 H :    0.163256
  41 H :    0.148269
  42 H :    0.139801
  43 H :    0.146286
  44 H :    0.188564
  45 H :    0.180494
  46 H :    0.433754
  47 H :    0.171945
  48 H :    0.183994
  49 H :    0.151236
  50 H :    0.138471
  51 H :    0.136767
  52 H :    0.139132
  53 H :    0.144961
Sum of atomic charges:   -0.0000000

LOEWDIN ATOMIC CHARGES
----------------------
   0 C :   -0.361713
   1 C :    0.011568
   2 C :    0.020428
   3 N :   -0.279966
   4 C :   -0.146852
   5 C :   -0.185833
   6 C :   -0.161629
   7 C :   -0.051357
   8 C :   -0.084804
   9 Cl:    0.037918
  10 C :   -0.140851
  11 C :   -0.128519
  12 C :   -0.132045
  13 C :   -0.167022
  14 S :    0.401369
  15 S :    1.263393
  16 O :   -0.566443
  17 O :   -0.575317
  18 C :   -0.176071
  19 C :   -0.095341
  20 C :   -0.085236
  21 C :   -0.039587
  22 C :    0.179859
  23 O :   -0.260821
  24 O :   -0.334965
  25 C :   -0.100253
  26 C :   -0.109537
  27 N :   -0.141396
  28 C :   -0.064899
  29 C :   -0.026609
  30 C :   -0.112889
  31 C :   -0.123332
  32 C :   -0.116098
  33 C :   -0.116488
  34 C :   -0.005859
  35 H :    0.137253
  36 H :    0.143509
  37 H :    0.153366
  38 H :    0.147188
  39 H :    0.148343
  40 H :    0.149731
  41 H :    0.143021
  42 H :    0.139028
  43 H :    0.141745
  44 H :    0.161992
  45 H :    0.160501
  46 H :    0.349520
  47 H :    0.154310
  48 H :    0.159370
  49 H :    0.136316
  50 H :    0.136812
  51 H :    0.135859
  52 H :    0.137309
  53 H :    0.142027

  Mayer bond orders larger than 0.100000
B(  0-C ,  1-C ) :   1.0088 B(  0-C , 35-H ) :   0.9226 B(  0-C , 36-H ) :   0.9231
B(  0-C , 37-H ) :   0.9139 B(  1-C ,  2-C ) :   1.4322 B(  1-C , 34-C ) :   1.2621
B(  2-C ,  3-N ) :   0.8865 B(  2-C , 27-N ) :   1.2792 B(  3-N ,  4-C ) :   0.9263
B(  3-N , 15-S ) :   0.8050 B(  4-C ,  5-C ) :   0.9763 B(  4-C , 38-H ) :   0.9154
B(  4-C , 39-H ) :   0.9167 B(  5-C ,  6-C ) :   1.5643 B(  5-C , 14-S ) :   1.1128
B(  6-C ,  7-C ) :   1.2602 B(  6-C , 40-H ) :   0.9105 B(  7-C ,  8-C ) :   1.2794
B(  7-C , 13-C ) :   1.3352 B(  8-C ,  9-Cl) :   1.0318 B(  8-C , 10-C ) :   1.4433
B( 10-C , 11-C ) :   1.3857 B( 10-C , 41-H ) :   0.9243 B( 11-C , 12-C ) :   1.4855
B( 11-C , 42-H ) :   0.9292 B( 12-C , 13-C ) :   1.3378 B( 12-C , 43-H ) :   0.9236
B( 13-C , 14-S ) :   1.0583 B( 15-S , 16-O ) :   1.6440 B( 15-S , 17-O ) :   1.6166
B( 15-S , 18-C ) :   0.8121 B( 18-C , 19-C ) :   1.3786 B( 18-C , 26-C ) :   1.4001
B( 19-C , 20-C ) :   1.4315 B( 19-C , 44-H ) :   0.9057 B( 20-C , 21-C ) :   1.3961
B( 20-C , 45-H ) :   0.9098 B( 21-C , 22-C ) :   1.0083 B( 21-C , 25-C ) :   1.3887
B( 22-C , 23-O ) :   1.8629 B( 22-C , 24-O ) :   1.0245 B( 24-O , 46-H ) :   0.7421
B( 25-C , 26-C ) :   1.4094 B( 25-C , 47-H ) :   0.9151 B( 26-C , 48-H ) :   0.9093
B( 27-N , 28-C ) :   1.4914 B( 28-C , 29-C ) :   1.2427 B( 28-C , 49-H ) :   0.9263
B( 29-C , 30-C ) :   1.2835 B( 29-C , 34-C ) :   1.2912 B( 30-C , 31-C ) :   1.5125
B( 30-C , 33-C ) :   0.1061 B( 30-C , 50-H ) :   0.9234 B( 31-C , 32-C ) :   1.3529
B( 31-C , 51-H ) :   0.9291 B( 32-C , 33-C ) :   1.5074 B( 32-C , 52-H ) :   0.9288
B( 33-C , 34-C ) :   1.2970 B( 33-C , 53-H ) :   0.9149

FINAL SINGLE POINT ENERGY     -2668.051787770627

DIPOLE MOMENT
-------------

Method             : SCF
Type of density    : Electron Density
Multiplicity       :   1
Irrep              :   0
Energy             : -2668.0517877706274703 Eh
Relativity type    :
Basis              : AO
                                X                 Y                 Z
Electronic contribution:     -2.803253131       3.955149183      -8.564741809
Nuclear contribution   :      2.323391040      -4.459888935       7.708964769
                        -----------------------------------------
Total Dipole Moment    :     -0.479862091      -0.504739752      -0.855777040
                        -----------------------------------------
Magnitude (a.u.)       :      1.103351343
Magnitude (Debye)      :      2.804496237

Rotational constants in cm-1:             0.004954             0.001989             0.001630
Rotational constants in MHz :           148.526329            59.622758            48.881004

                             ****ORCA TERMINATED NORMALLY****
TOTAL RUN TIME: 0 days 0 hours 7 minutes 8 seconds 141 msec
