                         Program Version 6.0.0  -   RELEASE  -
|  1> ! B3LYP 6-31G* SP
|  2>
|  3> * xyz 0 1
|  4> C -3.1256 -0.6728 -2.0797
|  5> C -2.4725 0.3781 -1.1735
|  6> O -1.4133 0.9933 -1.8561
|  7> C -2.0164 -0.2508 0.1505
|  8> C -0.6612 -0.6360 0.3761
|  9> N 0.3628 -0.4577 -0.6129
| 10> C 1.4854 0.4436 -0.3252
| 11> C 1.0085 1.8576 -0.1223
| 12> C 0.5760 2.2858 1.1417
| 13> C 0.0954 3.5857 1.3225
| 14> C 0.0339 4.4775 0.2342
| 15> O -0.4406 5.7932 0.3572
| 16> C -0.8987 6.3939 1.5665
| 17> F 0.1166 6.4076 2.5061
| 18> F -1.9893 5.7008 2.0601
| 19> F -1.2800 7.6953 1.3039
| 20> C 0.4602 4.0439 -1.0267
| 21> C 0.9451 2.7458 -1.2060
| 22> S 0.5950 -1.7151 -1.7895
| 23> O -0.4022 -2.8198 -1.5752
| 24> O 0.4032 -1.1488 -3.1684
| 25> C 2.2122 -2.3899 -1.6165
| 26> C 3.1945 -2.1539 -2.5867
| 27> C 4.4831 -2.6706 -2.4234
| 28> C 4.8084 -3.4285 -1.2837
| 29> C 6.1712 -3.9763 -1.1054
| 30> O 7.0608 -3.7712 -1.9743
| 31> O 6.4841 -4.7256 0.0253
| 32> C 3.8185 -3.6566 -0.3121
| 33> C 2.5310 -3.1380 -0.4776
| 34> N -0.2924 -1.1702 1.5688
| 35> C -1.1615 -1.3776 2.5816
| 36> C -2.5066 -1.0496 2.4278
| 37> C -3.4050 -1.2798 3.4824
| 38> C -4.7536 -0.9650 3.3379
| 39> C -5.2182 -0.4267 2.1408
| 40> C -4.3372 -0.1917 1.0823
| 41> C -2.9564 -0.4888 1.2034
| 42> H -2.3719 -1.3997 -2.4410
| 43> H -3.5822 -0.1756 -2.9618
| 44> H -3.9239 -1.2271 -1.5440
| 45> H -3.2151 1.1753 -0.9509
| 46> H -1.8100 1.5639 -2.5656
| 47> H 2.0219 0.0895 0.5820
| 48> H 2.2214 0.4203 -1.1582
| 49> H 0.6096 1.6119 1.9888
| 50> H -0.2268 3.8824 2.3105
| 51> H 0.4130 4.7174 -1.8733
| 52> H 1.2572 2.4282 -2.1937
| 53> H 2.9686 -1.5655 -3.4666
| 54> H 5.2247 -2.4739 -3.1874
| 55> H 7.4139 -5.1060 0.1562
| 56> H 4.0387 -4.2315 0.5783
| 57> H 1.7831 -3.3146 0.2853
| 58> H -0.7972 -1.8073 3.5066
| 59> H -3.0620 -1.7041 4.4187
| 60> H -5.4421 -1.1442 4.1538
| 61> H -6.2689 -0.1919 2.0296
| 62> H -4.7669 0.2115 0.1787
| 63> *
| 64>
| 65>                          ****END OF INPUT****

CARTESIAN COORDINATES (ANGSTROEM)
---------------------------------
  C     -3.125600   -0.672800   -2.079700
  C     -2.472500    0.378100   -1.173500
  O     -1.413300    0.993300   -1.856100
  C     -2.016400   -0.250800    0.150500
  C     -0.661200   -0.636000    0.376100
  N      0.362800   -0.457700   -0.612900
  C      1.485400    0.443600   -0.325200
  C      1.008500    1.857600   -0.122300
  C      0.576000    2.285800    1.141700
  C      0.095400    3.585700    1.322500
  C      0.033900    4.477500    0.234200
  O     -0.440600    5.793200    0.357200
  C     -0.898700    6.393900    1.566500
  F      0.116600    6.407600    2.506100
  F     -1.989300    5.700800    2.060100
  F     -1.280000    7.695300    1.303900
  C      0.460200    4.043900   -1.026700
  C      0.945100    2.745800   -1.206000
  S      0.595000   -1.715100   -1.789500
  O     -0.402200   -2.819800   -1.575200
  O      0.403200   -1.148800   -3.168400
  C      2.212200   -2.389900   -1.616500
  C      3.194500   -2.153900   -2.586700
  C      4.483100   -2.670600   -2.423400
  C      4.808400   -3.428500   -1.283700
  C      6.171200   -3.976300   -1.105400
  O      7.060800   -3.771200   -1.974300
  O      6.484100   -4.725600    0.025300
  C      3.818500   -3.656600   -0.312100
  C      2.531000   -3.138000   -0.477600
  N     -0.292400   -1.170200    1.568800
  C     -1.161500   -1.377600    2.581600
  C     -2.506600   -1.049600    2.427800
  C     -3.405000   -1.279800    3.482400
  C     -4.753600   -0.965000    3.337900
  C     -5.218200   -0.426700    2.140800
  C     -4.337200   -0.191700    1.082300
  C     -2.956400   -0.488800    1.203400
  H     -2.371900   -1.399700   -2.441000
  H     -3.582200   -0.175600   -2.961800
  H     -3.923900   -1.227100   -1.544000
  H     -3.215100    1.175300   -0.950900
  H     -1.810000    1.563900   -2.565600
  H      2.021900    0.089500    0.582000
  H      2.221400    0.420300   -1.158200
  H      0.609600    1.611900    1.988800
  H     -0.226800    3.882400    2.310500
  H      0.413000    4.717400   -1.873300
  H      1.257200    2.428200   -2.193700
  H      2.968600   -1.565500   -3.466600
  H      5.224700   -2.473900   -3.187400
  H      7.413900   -5.106000    0.156200
  H      4.038700   -4.231500    0.578300
  H      1.783100   -3.314600    0.285300
  H     -0.797200   -1.807300    3.506600
  H     -3.062000   -1.704100    4.418700
  H     -5.442100   -1.144200    4.153800
  H     -6.268900   -0.191900    2.029600
  H     -4.766900    0.211500    0.178700

 Total Charge           Charge          ....    0
 Multiplicity           Mult            ....    1
 Number of Electrons    NEL             ....  282
 Basis Dimension        Dim             ....  578

ORBITAL ENERGIES
----------------

  NO   OCC          E(Eh)            E(eV)
   0   2.0000     -89.089554     -2424.2500
   1   2.0000     -24.739730      -673.2023
   2   2.0000     -24.737418      -673.1394
   3   2.0000     -24.736903      -673.1254
   4   2.0000     -19.209667      -522.7216
   5   2.0000     -19.194327      -522.3042
   6   2.0000     -19.135534      -520.7043
   7   2.0000     -19.129930      -520.5519
   8   2.0000     -19.119297      -520.2625
   9   2.0000     -19.117366      -520.2100
  10   2.0000     -14.361031      -390.7835
  11   2.0000     -14.334095      -390.0506
  12   2.0000     -10.501906      -285.7714
  13   2.0000     -10.333008      -281.1754
  14   2.0000     -10.263877      -279.2943
  15   2.0000     -10.260823      -279.2112
  16   2.0000     -10.237605      -278.5794
  17   2.0000     -10.237457      -278.5754
  18   2.0000     -10.228692      -278.3369
  19   2.0000     -10.227293      -278.2988
  20   2.0000     -10.227148      -278.2948
  21   2.0000     -10.215988      -277.9912
  22   2.0000     -10.215713      -277.9837
  23   2.0000     -10.213895      -277.9342
  24   2.0000     -10.213871      -277.9336
  25   2.0000     -10.212297      -277.8907
  26   2.0000     -10.211619      -277.8723
  27   2.0000     -10.202887      -277.6347
  28   2.0000     -10.199650      -277.5466
  29   2.0000     -10.199413      -277.5401
  30   2.0000     -10.198164      -277.5062
  31   2.0000     -10.197148      -277.4785
  32   2.0000     -10.191664      -277.3293
  33   2.0000     -10.191141      -277.3150
  34   2.0000     -10.190673      -277.3023
  35   2.0000     -10.190045      -277.2852
  36   2.0000     -10.189582      -277.2726
  37   2.0000     -10.158935      -276.4387
  38   2.0000      -8.125475      -221.1054
  39   2.0000      -6.090357      -165.7270
  40   2.0000      -6.088561      -165.6782
  41   2.0000      -6.088163      -165.6673
  42   2.0000      -1.302473       -35.4421
  43   2.0000      -1.223193       -33.2848
  44   2.0000      -1.222812       -33.2744
  45   2.0000      -1.079667       -29.3792
  46   2.0000      -1.079062       -29.3628
  47   2.0000      -1.076478       -29.2925
  48   2.0000      -1.015864       -27.6431
  49   2.0000      -0.993040       -27.0220
  50   2.0000      -0.960305       -26.1312
  51   2.0000      -0.954880       -25.9836
  52   2.0000      -0.911679       -24.8081
  53   2.0000      -0.886385       -24.1198
  54   2.0000      -0.866275       -23.5726
  55   2.0000      -0.857909       -23.3449
  56   2.0000      -0.807036       -21.9606
  57   2.0000      -0.801874       -21.8201
  58   2.0000      -0.782565       -21.2947
  59   2.0000      -0.774790       -21.0831
  60   2.0000      -0.772531       -21.0216
  61   2.0000      -0.753223       -20.4962
  62   2.0000      -0.744548       -20.2602
  63   2.0000      -0.726978       -19.7821
  64   2.0000      -0.721192       -19.6246
  65   2.0000      -0.699672       -19.0390
  66   2.0000      -0.674737       -18.3605
  67   2.0000      -0.661162       -17.9911
  68   2.0000      -0.650821       -17.7097
  69   2.0000      -0.634283       -17.2597
  70   2.0000      -0.628613       -17.1054
  71   2.0000      -0.627421       -17.0730
  72   2.0000      -0.619330       -16.8528
  73   2.0000      -0.612683       -16.6720
  74   2.0000      -0.594520       -16.1777
  75   2.0000      -0.592480       -16.1222
  76   2.0000      -0.588910       -16.0251
  77   2.0000      -0.582146       -15.8410
  78   2.0000      -0.569108       -15.4862
  79   2.0000      -0.556118       -15.1327
  80   2.0000      -0.541348       -14.7308
  81   2.0000      -0.536162       -14.5897
  82   2.0000      -0.515479       -14.0269
  83   2.0000      -0.508485       -13.8366
  84   2.0000      -0.496800       -13.5186
  85   2.0000      -0.490503       -13.3473
  86   2.0000      -0.488565       -13.2945
  87   2.0000      -0.481830       -13.1113
  88   2.0000      -0.475562       -12.9407
  89   2.0000      -0.471176       -12.8214
  90   2.0000      -0.468189       -12.7401
  91   2.0000      -0.467044       -12.7089
  92   2.0000      -0.465805       -12.6752
  93   2.0000      -0.460255       -12.5242
  94   2.0000      -0.458273       -12.4703
  95   2.0000      -0.455611       -12.3978
  96   2.0000      -0.446210       -12.1420
  97   2.0000      -0.443948       -12.0804
  98   2.0000      -0.443352       -12.0642
  99   2.0000      -0.442429       -12.0391
 100   2.0000      -0.439977       -11.9724
 101   2.0000      -0.433938       -11.8081
 102   2.0000      -0.432239       -11.7618
 103   2.0000      -0.427266       -11.6265
 104   2.0000      -0.424887       -11.5618
 105   2.0000      -0.421329       -11.4649
 106   2.0000      -0.416796       -11.3416
 107   2.0000      -0.414827       -11.2880
 108   2.0000      -0.410472       -11.1695
 109   2.0000      -0.408614       -11.1190
 110   2.0000      -0.404164       -10.9979
 111   2.0000      -0.402108       -10.9419
 112   2.0000      -0.389055       -10.5867
 113   2.0000      -0.384376       -10.4594
 114   2.0000      -0.381515       -10.3816
 115   2.0000      -0.378570       -10.3014
 116   2.0000      -0.372059       -10.1242
 117   2.0000      -0.368281       -10.0214
 118   2.0000      -0.366769        -9.9803
 119   2.0000      -0.365178        -9.9370
 120   2.0000      -0.355564        -9.6754
 121   2.0000      -0.353973        -9.6321
 122   2.0000      -0.343242        -9.3401
 123   2.0000      -0.340752        -9.2723
 124   2.0000      -0.325458        -8.8562
 125   2.0000      -0.318906        -8.6779
 126   2.0000      -0.316026        -8.5995
 127   2.0000      -0.301312        -8.1991
 128   2.0000      -0.297809        -8.1038
 129   2.0000      -0.288331        -7.8459
 130   2.0000      -0.278448        -7.5770
 131   2.0000      -0.275627        -7.5002
 132   2.0000      -0.272689        -7.4202
 133   2.0000      -0.271446        -7.3864
 134   2.0000      -0.265634        -7.2283
 135   2.0000      -0.259263        -7.0549
 136   2.0000      -0.256296        -6.9742
 137   2.0000      -0.250603        -6.8193
 138   2.0000      -0.238782        -6.4976
 139   2.0000      -0.232017        -6.3135
 140   2.0000      -0.224085        -6.0977
 141   0.0000      -0.080695        -2.1958
 142   0.0000      -0.063313        -1.7228
 143   0.0000      -0.034160        -0.9295
 144   0.0000      -0.027140        -0.7385
 145   0.0000      -0.008385        -0.2282

MULLIKEN ATOMIC CHARGES
-----------------------
   0 C :   -0.470348
   1 C :    0.094052
   2 O :   -0.612256
   3 C :    0.085017
   4 C :    0.316676
   5 N :   -0.568577
   6 C :   -0.239985
   7 C :    0.171539
   8 C :   -0.170961
   9 C :   -0.193452
  10 C :    0.352083
  11 O :   -0.546658
  12 C :    1.085327
  13 F :   -0.291575
  14 F :   -0.292338
  15 F :   -0.280063
  16 C :   -0.182205
  17 C :   -0.136550
  18 S :    1.226697
  19 O :   -0.561633
  20 O :   -0.542711
  21 C :   -0.134982
  22 C :   -0.150434
  23 C :   -0.140054
  24 C :    0.083222
  25 C :    0.527289
  26 O :   -0.444843
  27 O :   -0.623585
  28 C :   -0.148941
  29 C :   -0.139769
  30 N :   -0.399917
  31 C :   -0.055911
  32 C :    0.140481
  33 C :   -0.202768
  34 C :   -0.124964
  35 C :   -0.122008
  36 C :   -0.196851
  37 C :    0.112869
  38 H :    0.217876
  39 H :    0.125330
  40 H :    0.137416
  41 H :    0.116579
  42 H :    0.395406
  43 H :    0.164246
  44 H :    0.164312
  45 H :    0.146730
  46 H :    0.148822
  47 H :    0.143558
  48 H :    0.145795
  49 H :    0.187784
  50 H :    0.179376
  51 H :    0.433498
  52 H :    0.171839
  53 H :    0.189637
  54 H :    0.150677
  55 H :    0.139071
  56 H :    0.136909
  57 H :    0.139534
  58 H :    0.144696
Sum of atomic charges:   -0.0000000

LOEWDIN ATOMIC CHARGES
----------------------
   0 C :   -0.375538
   1 C :   -0.015530
   2 O :   -0.371076
   3 C :    0.003908
   4 C :    0.042326
   5 N :   -0.266237
   6 C :   -0.146060
   7 C :   -0.028242
   8 C :   -0.120618
   9 C :   -0.163329
  10 C :    0.085661
  11 O :   -0.161049
  12 C :    0.358746
  13 F :   -0.105177
  14 F :   -0.105741
  15 F :   -0.088381
  16 C :   -0.147055
  17 C :   -0.100329
  18 S :    1.260384
  19 O :   -0.577838
  20 O :   -0.571310
  21 C :   -0.174646
  22 C :   -0.107462
  23 C :   -0.087360
  24 C :   -0.040185
  25 C :    0.179317
  26 O :   -0.261082
  27 O :   -0.334681
  28 C :   -0.099463
  29 C :   -0.099673
  30 N :   -0.138647
  31 C :   -0.061955
  32 C :   -0.027351
  33 C :   -0.111614
  34 C :   -0.125361
  35 C :   -0.116606
  36 C :   -0.124286
  37 C :   -0.001277
  38 H :    0.158070
  39 H :    0.116581
  40 H :    0.123455
  41 H :    0.107128
  42 H :    0.315068
  43 H :    0.127686
  44 H :    0.139620
  45 H :    0.140430
  46 H :    0.140254
  47 H :    0.142492
  48 H :    0.141479
  49 H :    0.161803
  50 H :    0.159749
  51 H :    0.349373
  52 H :    0.154284
  53 H :    0.161289
  54 H :    0.135953
  55 H :    0.137225
  56 H :    0.135941
  57 H :    0.137511
  58 H :    0.139425

  Mayer bond orders larger than 0.100000
B(  0-C ,  1-C ) :   0.9716 B(  0-C , 38-H ) :   0.9119 B(  0-C , 39-H ) :   0.9436
B(  0-C , 40-H ) :   0.9343 B(  1-C ,  2-O ) :   0.9306 B(  1-C ,  3-C ) :   0.9749
B(  1-C , 41-H ) :   0.9199 B(  2-O , 42-H ) :   0.7820 B(  3-C ,  4-C ) :   1.4335
B(  3-C , 31-C ) :   0.1009 B(  3-C , 37-C ) :   1.2488 B(  4-C ,  5-N ) :   0.9278
B(  4-C , 30-N ) :   1.2627 B(  5-N ,  6-C ) :   0.9254 B(  5-N , 18-S ) :   0.8059
B(  6-C ,  7-C ) :   0.9675 B(  6-C , 43-H ) :   0.9163 B(  6-C , 44-H ) :   0.9207
B(  7-C ,  8-C ) :   1.4416 B(  7-C , 17-C ) :   1.4324 B(  8-C ,  9-C ) :   1.4224
B(  8-C , 45-H ) :   0.9158 B(  9-C , 10-C ) :   1.3979 B(  9-C , 46-H ) :   0.9103
B( 10-C , 11-O ) :   0.8206 B( 10-C , 16-C ) :   1.4138 B( 11-O , 12-C ) :   0.9937
B( 12-C , 13-F ) :   0.9689 B( 12-C , 14-F ) :   0.9672 B( 12-C , 15-F ) :   1.0071
B( 16-C , 17-C ) :   1.4399 B( 16-C , 47-H ) :   0.9193 B( 17-C , 48-H ) :   0.9204
B( 18-S , 19-O ) :   1.5957 B( 18-S , 20-O ) :   1.6441 B( 18-S , 21-C ) :   0.8072
B( 21-C , 22-C ) :   1.3884 B( 21-C , 29-C ) :   1.3918 B( 22-C , 23-C ) :   1.4139
B( 22-C , 49-H ) :   0.9080 B( 23-C , 24-C ) :   1.4035 B( 23-C , 50-H ) :   0.9100
B( 24-C , 25-C ) :   1.0083 B( 24-C , 28-C ) :   1.3806 B( 25-C , 26-O ) :   1.8633
B( 25-C , 27-O ) :   1.0247 B( 27-O , 51-H ) :   0.7422 B( 28-C , 29-C ) :   1.4242
B( 28-C , 52-H ) :   0.9154 B( 29-C , 53-H ) :   0.9048 B( 30-N , 31-C ) :   1.4914
B( 31-C , 32-C ) :   1.2443 B( 31-C , 54-H ) :   0.9260 B( 32-C , 33-C ) :   1.2801
B( 32-C , 37-C ) :   1.2909 B( 33-C , 34-C ) :   1.5157 B( 33-C , 36-C ) :   0.1050
B( 33-C , 55-H ) :   0.9234 B( 34-C , 35-C ) :   1.3526 B( 34-C , 56-H ) :   0.9288
B( 35-C , 36-C ) :   1.5149 B( 35-C , 57-H ) :   0.9283 B( 36-C , 37-C ) :   1.2849
B( 36-C , 58-H ) :   0.9134

FINAL SINGLE POINT ENERGY     -2260.767706761390

DIPOLE MOMENT
-------------

Method             : SCF
Type of density    : Electron Density
Multiplicity       :   1
Irrep              :   0
Energy             : -2260.7677067613904001 Eh
Relativity type    :
Basis              : AO
                                X                 Y                 Z
Electronic contribution:      7.249848985      31.386748675       9.137898982
Nuclear contribution   :     -7.684402340     -31.370969602      -7.463940142
                        -----------------------------------------
Total Dipole Moment    :     -0.434553356       0.015779073       1.673958840
                        -----------------------------------------
Magnitude (a.u.)       :      1.729515480
Magnitude (Debye)      :      4.396078988

Rotational constants in cm-1:             0.003941             0.001777             0.001458
Rotational constants in MHz :           118.162400            53.271907            43.703221

                             ****ORCA TERMINATED NORMALLY****
TOTAL RUN TIME: 0 days 0 hours 8 minutes 21 seconds 992 msec
