                         Program Version 6.0.0  -   RELEASE  -
|  1> ! B3LYP 6-31G* SP
|  2>
|  3> * xyz 0 1
|  4> C -2.0641 -1.2215 -3.6282
|  5> C -1.6075 0.0290 -2.8850
|  6> N -1.2266 -0.3068 -1.5031
|  7> C 0.0166 -1.0023 -1.2782
|  8> O 1.0174 -0.7397 -1.9996
|  9> C 0.1336 -2.0385 -0.2281
| 10> C -0.9193 -2.9479 -0.0344
| 11> C -0.8299 -3.9345 0.9488
| 12> C 0.3112 -4.0255 1.7456
| 13> C 1.3661 -3.1280 1.5652
| 14> C 1.2863 -2.1228 0.5807
| 15> O 2.3145 -1.1851 0.3965
| 16> C 3.4771 -1.0803 1.2126
| 17> C 4.2698 0.1275 0.7854
| 18> C 5.5045 -0.0463 0.1354
| 19> C 6.2450 1.0608 -0.2864
| 20> C 5.7599 2.3516 -0.0710
| 21> C 4.5307 2.5407 0.5646
| 22> C 3.7785 1.4378 0.9928
| 23> C 2.5060 1.6707 1.6343
| 24> N 1.4858 1.8558 2.1483
| 25> C -1.9702 0.2404 -0.3490
| 26> C -3.4653 -0.1260 -0.4068
| 27> C -4.1972 0.3164 0.8760
| 28> C -3.6081 1.5942 1.5118
| 29> C -2.9358 2.5005 0.4647
| 30> N -2.4618 3.7328 1.0964
| 31> C -1.7563 1.7704 -0.2248
| 32> H -2.9298 -1.6802 -3.1054
| 33> H -2.3701 -0.9516 -4.6607
| 34> H -1.2376 -1.9612 -3.6829
| 35> H -0.7468 0.4874 -3.4182
| 36> H -2.4295 0.7741 -2.9072
| 37> H -1.8042 -2.9039 -0.6564
| 38> H -1.6446 -4.6332 1.0893
| 39> H 0.3790 -4.7935 2.5054
| 40> H 2.2372 -3.2219 2.1988
| 41> H 3.1832 -0.9644 2.2785
| 42> H 4.0814 -2.0088 1.1179
| 43> H 5.8960 -1.0394 -0.0469
| 44> H 7.1958 0.9174 -0.7835
| 45> H 6.3356 3.2071 -0.4002
| 46> H 4.1645 3.5487 0.7198
| 47> H -1.5788 -0.2134 0.5895
| 48> H -3.5839 -1.2229 -0.5355
| 49> H -3.9475 0.3677 -1.2769
| 50> H -4.1553 -0.5047 1.6246
| 51> H -5.2690 0.4854 0.6326
| 52> H -2.8558 1.3103 2.2811
| 53> H -4.4213 2.1485 2.0290
| 54> H -3.6954 2.7613 -0.3087
| 55> H -2.0526 4.3448 0.3531
| 56> H -3.2898 4.2511 1.4709
| 57> H -1.6018 2.2315 -1.2234
| 58> H -0.8196 1.9406 0.3507
| 59> *
| 60>
| 61>                          ****END OF INPUT****

CARTESIAN COORDINATES (ANGSTROEM)
---------------------------------
  C     -2.064100   -1.221500   -3.628200
  C     -1.607500    0.029000   -2.885000
  N     -1.226600   -0.306800   -1.503100
  C      0.016600   -1.002300   -1.278200
  O      1.017400   -0.739700   -1.999600
  C      0.133600   -2.038500   -0.228100
  C     -0.919300   -2.947900   -0.034400
  C     -0.829900   -3.934500    0.948800
  C      0.311200   -4.025500    1.745600
  C      1.366100   -3.128000    1.565200
  C      1.286300   -2.122800    0.580700
  O      2.314500   -1.185100    0.396500
  C      3.477100   -1.080300    1.212600
  C      4.269800    0.127500    0.785400
  C      5.504500   -0.046300    0.135400
  C      6.245000    1.060800   -0.286400
  C      5.759900    2.351600   -0.071000
  C      4.530700    2.540700    0.564600
  C      3.778500    1.437800    0.992800
  C      2.506000    1.670700    1.634300
  N      1.485800    1.855800    2.148300
  C     -1.970200    0.240400   -0.349000
  C     -3.465300   -0.126000   -0.406800
  C     -4.197200    0.316400    0.876000
  C     -3.608100    1.594200    1.511800
  C     -2.935800    2.500500    0.464700
  N     -2.461800    3.732800    1.096400
  C     -1.756300    1.770400   -0.224800
  H     -2.929800   -1.680200   -3.105400
  H     -2.370100   -0.951600   -4.660700
  H     -1.237600   -1.961200   -3.682900
  H     -0.746800    0.487400   -3.418200
  H     -2.429500    0.774100   -2.907200
  H     -1.804200   -2.903900   -0.656400
  H     -1.644600   -4.633200    1.089300
  H      0.379000   -4.793500    2.505400
  H      2.237200   -3.221900    2.198800
  H      3.183200   -0.964400    2.278500
  H      4.081400   -2.008800    1.117900
  H      5.896000   -1.039400   -0.046900
  H      7.195800    0.917400   -0.783500
  H      6.335600    3.207100   -0.400200
  H      4.164500    3.548700    0.719800
  H     -1.578800   -0.213400    0.589500
  H     -3.583900   -1.222900   -0.535500
  H     -3.947500    0.367700   -1.276900
  H     -4.155300   -0.504700    1.624600
  H     -5.269000    0.485400    0.632600
  H     -2.855800    1.310300    2.281100
  H     -4.421300    2.148500    2.029000
  H     -3.695400    2.761300   -0.308700
  H     -2.052600    4.344800    0.353100
  H     -3.289800    4.251100    1.470900
  H     -1.601800    2.231500   -1.223400
  H     -0.819600    1.940600    0.350700

 Total Charge           Charge          ....    0
 Multiplicity           Mult            ....    1
 Number of Electrons    NEL             ....  202
 Basis Dimension        Dim             ....  446

ORBITAL ENERGIES
----------------

  NO   OCC          E(Eh)            E(eV)
   0   2.0000     -19.164703      -521.4981
   1   2.0000     -19.093094      -519.5495
   2   2.0000     -14.328136      -389.8884
   3   2.0000     -14.326111      -389.8333
   4   2.0000     -14.292739      -388.9252
   5   2.0000     -10.269070      -279.4356
   6   2.0000     -10.253377      -279.0086
   7   2.0000     -10.248690      -278.8810
   8   2.0000     -10.232015      -278.4273
   9   2.0000     -10.217456      -278.0311
  10   2.0000     -10.217128      -278.0222
  11   2.0000     -10.207826      -277.7691
  12   2.0000     -10.206725      -277.7391
  13   2.0000     -10.203131      -277.6413
  14   2.0000     -10.202701      -277.6296
  15   2.0000     -10.201457      -277.5958
  16   2.0000     -10.199750      -277.5493
  17   2.0000     -10.193285      -277.3734
  18   2.0000     -10.191916      -277.3361
  19   2.0000     -10.187664      -277.2204
  20   2.0000     -10.187390      -277.2130
  21   2.0000     -10.184379      -277.1310
  22   2.0000     -10.177858      -276.9536
  23   2.0000     -10.167913      -276.6830
  24   2.0000     -10.166864      -276.6544
  25   2.0000     -10.161720      -276.5145
  26   2.0000     -10.161627      -276.5119
  27   2.0000     -10.157533      -276.4005
  28   2.0000      -1.046406       -28.4742
  29   2.0000      -0.991161       -26.9708
  30   2.0000      -0.901984       -24.5442
  31   2.0000      -0.898256       -24.4428
  32   2.0000      -0.873674       -23.7739
  33   2.0000      -0.866788       -23.5865
  34   2.0000      -0.851442       -23.1689
  35   2.0000      -0.793646       -21.5962
  36   2.0000      -0.791057       -21.5258
  37   2.0000      -0.776293       -21.1240
  38   2.0000      -0.760930       -20.7060
  39   2.0000      -0.741809       -20.1856
  40   2.0000      -0.740016       -20.1369
  41   2.0000      -0.709775       -19.3140
  42   2.0000      -0.700086       -19.0503
  43   2.0000      -0.693528       -18.8718
  44   2.0000      -0.645063       -17.5531
  45   2.0000      -0.635529       -17.2936
  46   2.0000      -0.619592       -16.8600
  47   2.0000      -0.610604       -16.6154
  48   2.0000      -0.598773       -16.2935
  49   2.0000      -0.592391       -16.1198
  50   2.0000      -0.584965       -15.9177
  51   2.0000      -0.551063       -14.9952
  52   2.0000      -0.544496       -14.8165
  53   2.0000      -0.520871       -14.1736
  54   2.0000      -0.509701       -13.8697
  55   2.0000      -0.501103       -13.6357
  56   2.0000      -0.500148       -13.6097
  57   2.0000      -0.491457       -13.3732
  58   2.0000      -0.475535       -12.9400
  59   2.0000      -0.469692       -12.7810
  60   2.0000      -0.468366       -12.7449
  61   2.0000      -0.458282       -12.4705
  62   2.0000      -0.453277       -12.3343
  63   2.0000      -0.448944       -12.2164
  64   2.0000      -0.442400       -12.0383
  65   2.0000      -0.438324       -11.9274
  66   2.0000      -0.429894       -11.6980
  67   2.0000      -0.427589       -11.6353
  68   2.0000      -0.422541       -11.4979
  69   2.0000      -0.416126       -11.3234
  70   2.0000      -0.404230       -10.9996
  71   2.0000      -0.395753       -10.7690
  72   2.0000      -0.386759       -10.5242
  73   2.0000      -0.384329       -10.4581
  74   2.0000      -0.379979       -10.3397
  75   2.0000      -0.373913       -10.1747
  76   2.0000      -0.371467       -10.1081
  77   2.0000      -0.368066       -10.0156
  78   2.0000      -0.363742        -9.8979
  79   2.0000      -0.358489        -9.7550
  80   2.0000      -0.357427        -9.7261
  81   2.0000      -0.353866        -9.6292
  82   2.0000      -0.349841        -9.5196
  83   2.0000      -0.344982        -9.3875
  84   2.0000      -0.341566        -9.2945
  85   2.0000      -0.336495        -9.1565
  86   2.0000      -0.334384        -9.0991
  87   2.0000      -0.330214        -8.9856
  88   2.0000      -0.327123        -8.9015
  89   2.0000      -0.315408        -8.5827
  90   2.0000      -0.311641        -8.4802
  91   2.0000      -0.306804        -8.3485
  92   2.0000      -0.295473        -8.0402
  93   2.0000      -0.292203        -7.9512
  94   2.0000      -0.266760        -7.2589
  95   2.0000      -0.260133        -7.0786
  96   2.0000      -0.250546        -6.8177
  97   2.0000      -0.227991        -6.2040
  98   2.0000      -0.219205        -5.9649
  99   2.0000      -0.216533        -5.8922
 100   2.0000      -0.201705        -5.4887
 101   0.0000      -0.048107        -1.3091
 102   0.0000      -0.028217        -0.7678
 103   0.0000      -0.021656        -0.5893
 104   0.0000       0.006364         0.1732
 105   0.0000       0.044554         1.2124

MULLIKEN ATOMIC CHARGES
-----------------------
   0 C :   -0.439706
   1 C :   -0.128169
   2 N :   -0.419063
   3 C :    0.450071
   4 O :   -0.459973
   5 C :    0.023905
   6 C :   -0.161900
   7 C :   -0.137214
   8 C :   -0.116146
   9 C :   -0.205861
  10 C :    0.356722
  11 O :   -0.492791
  12 C :   -0.109451
  13 C :    0.153191
  14 C :   -0.178846
  15 C :   -0.109169
  16 C :   -0.126213
  17 C :   -0.137619
  18 C :    0.099052
  19 C :    0.092389
  20 N :   -0.312105
  21 C :    0.017095
  22 C :   -0.268405
  23 C :   -0.269457
  24 C :   -0.262878
  25 C :    0.047131
  26 N :   -0.704959
  27 C :   -0.289034
  28 H :    0.141024
  29 H :    0.134025
  30 H :    0.161377
  31 H :    0.166607
  32 H :    0.138993
  33 H :    0.147728
  34 H :    0.126822
  35 H :    0.133836
  36 H :    0.137373
  37 H :    0.151138
  38 H :    0.142875
  39 H :    0.145689
  40 H :    0.143264
  41 H :    0.144247
  42 H :    0.158846
  43 H :    0.154335
  44 H :    0.131487
  45 H :    0.128517
  46 H :    0.132994
  47 H :    0.126796
  48 H :    0.152807
  49 H :    0.119338
  50 H :    0.092485
  51 H :    0.284406
  52 H :    0.281808
  53 H :    0.128329
  54 H :    0.182256
Sum of atomic charges:    0.0000000

LOEWDIN ATOMIC CHARGES
----------------------
   0 C :   -0.365157
   1 C :   -0.155427
   2 N :   -0.112649
   3 C :    0.142523
   4 O :   -0.264282
   5 C :   -0.065273
   6 C :   -0.110280
   7 C :   -0.149137
   8 C :   -0.112857
   9 C :   -0.172603
  10 C :    0.114841
  11 O :   -0.166159
  12 C :   -0.080646
  13 C :    0.001315
  14 C :   -0.116702
  15 C :   -0.109655
  16 C :   -0.120882
  17 C :   -0.095802
  18 C :   -0.042646
  19 C :   -0.002087
  20 N :   -0.093730
  21 C :   -0.054853
  22 C :   -0.238112
  23 C :   -0.232536
  24 C :   -0.232726
  25 C :   -0.076538
  26 N :   -0.462327
  27 C :   -0.239461
  28 H :    0.119900
  29 H :    0.121810
  30 H :    0.131077
  31 H :    0.132669
  32 H :    0.121322
  33 H :    0.140666
  34 H :    0.131365
  35 H :    0.134448
  36 H :    0.136144
  37 H :    0.124765
  38 H :    0.119339
  39 H :    0.140446
  40 H :    0.139024
  41 H :    0.139916
  42 H :    0.147829
  43 H :    0.134469
  44 H :    0.118770
  45 H :    0.114103
  46 H :    0.119312
  47 H :    0.116784
  48 H :    0.128061
  49 H :    0.115898
  50 H :    0.087212
  51 H :    0.218846
  52 H :    0.216444
  53 H :    0.118955
  54 H :    0.144269

  Mayer bond orders larger than 0.100000
B(  0-C ,  1-C ) :   1.0081 B(  0-C , 28-H ) :   0.9491 B(  0-C , 29-H ) :   0.9451
B(  0-C , 30-H ) :   0.9459 B(  1-C ,  2-N ) :   0.9345 B(  1-C , 31-H ) :   0.9220
B(  1-C , 32-H ) :   0.9340 B(  2-N ,  3-C ) :   1.0538 B(  2-N , 21-C ) :   0.9444
B(  3-C ,  4-O ) :   1.8218 B(  3-C ,  5-C ) :   0.9463 B(  5-C ,  6-C ) :   1.4168
B(  5-C , 10-C ) :   1.3414 B(  6-C ,  7-C ) :   1.4330 B(  6-C , 33-H ) :   0.9135
B(  7-C ,  8-C ) :   1.4500 B(  7-C , 34-H ) :   0.9299 B(  8-C ,  9-C ) :   1.4364
B(  8-C , 35-H ) :   0.9295 B(  9-C , 10-C ) :   1.3529 B(  9-C , 36-H ) :   0.9179
B( 10-C , 11-O ) :   0.9467 B( 11-O , 12-C ) :   0.9011 B( 12-C , 13-C ) :   0.9903
B( 12-C , 37-H ) :   0.9002 B( 12-C , 38-H ) :   0.9128 B( 13-C , 14-C ) :   1.4381
B( 13-C , 18-C ) :   1.3923 B( 14-C , 15-C ) :   1.4270 B( 14-C , 39-H ) :   0.9198
B( 15-C , 16-C ) :   1.4493 B( 15-C , 40-H ) :   0.9276 B( 16-C , 17-C ) :   1.4345
B( 16-C , 41-H ) :   0.9272 B( 17-C , 18-C ) :   1.3980 B( 17-C , 42-H ) :   0.9223
B( 18-C , 19-C ) :   0.9814 B( 19-C , 20-N ) :   2.9752 B( 21-C , 22-C ) :   0.9967
B( 21-C , 27-C ) :   0.9768 B( 21-C , 43-H ) :   0.9178 B( 22-C , 23-C ) :   0.9931
B( 22-C , 44-H ) :   0.9360 B( 22-C , 45-H ) :   0.9354 B( 23-C , 24-C ) :   0.9907
B( 23-C , 46-H ) :   0.9476 B( 23-C , 47-H ) :   0.9472 B( 24-C , 25-C ) :   1.0019
B( 24-C , 48-H ) :   0.9358 B( 24-C , 49-H ) :   0.9424 B( 25-C , 26-N ) :   0.9818
B( 25-C , 27-C ) :   0.9758 B( 25-C , 50-H ) :   0.9300 B( 26-N , 51-H ) :   0.8632
B( 26-N , 52-H ) :   0.8624 B( 27-C , 53-H ) :   0.9342 B( 27-C , 54-H ) :   0.9147

FINAL SINGLE POINT ENERGY     -1206.596303786553

DIPOLE MOMENT
-------------

Method             : SCF
Type of density    : Electron Density
Multiplicity       :   1
Irrep              :   0
Energy             : -1206.5963037865526530 Eh
Relativity type    :
Basis              : AO
                                X                 Y                 Z
Electronic contribution:     29.541585790      -4.465594975       6.148866352
Nuclear contribution   :    -29.018409323       4.299058786      -6.134503377
                        -----------------------------------------
Total Dipole Moment    :      0.523176467      -0.166536189       0.014362975
                        -----------------------------------------
Magnitude (a.u.)       :      0.549230565
Magnitude (Debye)      :      1.396033151

Rotational constants in cm-1:             0.007432             0.004045             0.003368
Rotational constants in MHz :           222.812201           121.260000           100.979069

                             ****ORCA TERMINATED NORMALLY****
TOTAL RUN TIME: 0 days 0 hours 7 minutes 34 seconds 790 msec
