                         Program Version 6.0.0  -   RELEASE  -
|  1> ! B3LYP 6-31G* SP
|  2>
|  3> * xyz 0 1
|  4> C -2.7964 -5.2361 3.5243
|  5> C -2.2448 -4.2578 2.5298
|  6> C -1.7241 -4.7111 1.3117
|  7> C -1.1749 -3.8107 0.3957
|  8> C -1.1226 -2.4300 0.6854
|  9> C -0.5705 -1.4880 -0.2214
| 10> C 0.0152 -1.9337 -1.5434
| 11> C -0.5529 -0.1236 0.1526
| 12> N 0.0010 0.8773 -0.7092
| 13> C 1.2684 1.5178 -0.3578
| 14> C 2.3965 0.5355 -0.5094
| 15> C 3.0176 0.3608 -1.7544
| 16> C 4.0150 -0.6050 -1.9147
| 17> C 4.3986 -1.4187 -0.8422
| 18> O 5.4022 -2.3759 -1.0618
| 19> C 5.8963 -3.2897 -0.0850
| 20> F 6.8720 -4.0786 -0.6626
| 21> F 6.4522 -2.5987 0.9772
| 22> F 4.8732 -4.1046 0.3659
| 23> C 3.7675 -1.2497 0.4057
| 24> C 2.7724 -0.2817 0.5670
| 25> S -0.9711 1.5267 -1.9912
| 26> O -2.1459 0.6266 -2.2558
| 27> O -0.1468 1.6140 -3.2454
| 28> C -1.5557 3.1170 -1.5181
| 29> C -1.0664 4.2737 -2.1380
| 30> C -1.5233 5.5334 -1.7384
| 31> C -2.4731 5.6536 -0.7087
| 32> C -2.9521 6.9882 -0.2863
| 33> O -3.8004 7.0985 0.6399
| 34> O -2.4694 8.1367 -0.9087
| 35> C -2.9559 4.4875 -0.0872
| 36> C -2.4981 3.2296 -0.4894
| 37> N -1.0438 0.2597 1.3595
| 38> C -1.5756 -0.6202 2.2411
| 39> C -1.6321 -1.9807 1.9284
| 40> C -2.1820 -2.8935 2.8416
| 41> H -1.9770 -5.5977 4.1799
| 42> H -3.2559 -6.1046 3.0057
| 43> H -3.5789 -4.7589 4.1521
| 44> H -1.7434 -5.7668 1.0684
| 45> H -0.7917 -4.2102 -0.5335
| 46> H 0.4199 -1.0962 -2.1449
| 47> H 0.8515 -2.6417 -1.3611
| 48> H -0.7693 -2.4314 -2.1518
| 49> H 1.2197 1.8964 0.6864
| 50> H 1.4507 2.4003 -1.0089
| 51> H 2.7238 0.9662 -2.6027
| 52> H 4.4878 -0.7277 -2.8809
| 53> H 4.0317 -1.8620 1.2561
| 54> H 2.2853 -0.1776 1.5289
| 55> H -0.3284 4.2046 -2.9270
| 56> H -1.1293 6.4120 -2.2342
| 57> H -2.7902 9.0553 -0.6268
| 58> H -3.6851 4.5466 0.7111
| 59> H -2.8760 2.3426 0.0041
| 60> H -1.9533 -0.2533 3.1874
| 61> H -2.5620 -2.5445 3.7953
| 62> *
| 63>
| 64>                          ****END OF INPUT****

CARTESIAN COORDINATES (ANGSTROEM)
---------------------------------
  C     -2.796400   -5.236100    3.524300
  C     -2.244800   -4.257800    2.529800
  C     -1.724100   -4.711100    1.311700
  C     -1.174900   -3.810700    0.395700
  C     -1.122600   -2.430000    0.685400
  C     -0.570500   -1.488000   -0.221400
  C      0.015200   -1.933700   -1.543400
  C     -0.552900   -0.123600    0.152600
  N      0.001000    0.877300   -0.709200
  C      1.268400    1.517800   -0.357800
  C      2.396500    0.535500   -0.509400
  C      3.017600    0.360800   -1.754400
  C      4.015000   -0.605000   -1.914700
  C      4.398600   -1.418700   -0.842200
  O      5.402200   -2.375900   -1.061800
  C      5.896300   -3.289700   -0.085000
  F      6.872000   -4.078600   -0.662600
  F      6.452200   -2.598700    0.977200
  F      4.873200   -4.104600    0.365900
  C      3.767500   -1.249700    0.405700
  C      2.772400   -0.281700    0.567000
  S     -0.971100    1.526700   -1.991200
  O     -2.145900    0.626600   -2.255800
  O     -0.146800    1.614000   -3.245400
  C     -1.555700    3.117000   -1.518100
  C     -1.066400    4.273700   -2.138000
  C     -1.523300    5.533400   -1.738400
  C     -2.473100    5.653600   -0.708700
  C     -2.952100    6.988200   -0.286300
  O     -3.800400    7.098500    0.639900
  O     -2.469400    8.136700   -0.908700
  C     -2.955900    4.487500   -0.087200
  C     -2.498100    3.229600   -0.489400
  N     -1.043800    0.259700    1.359500
  C     -1.575600   -0.620200    2.241100
  C     -1.632100   -1.980700    1.928400
  C     -2.182000   -2.893500    2.841600
  H     -1.977000   -5.597700    4.179900
  H     -3.255900   -6.104600    3.005700
  H     -3.578900   -4.758900    4.152100
  H     -1.743400   -5.766800    1.068400
  H     -0.791700   -4.210200   -0.533500
  H      0.419900   -1.096200   -2.144900
  H      0.851500   -2.641700   -1.361100
  H     -0.769300   -2.431400   -2.151800
  H      1.219700    1.896400    0.686400
  H      1.450700    2.400300   -1.008900
  H      2.723800    0.966200   -2.602700
  H      4.487800   -0.727700   -2.880900
  H      4.031700   -1.862000    1.256100
  H      2.285300   -0.177600    1.528900
  H     -0.328400    4.204600   -2.927000
  H     -1.129300    6.412000   -2.234200
  H     -2.790200    9.055300   -0.626800
  H     -3.685100    4.546600    0.711100
  H     -2.876000    2.342600    0.004100
  H     -1.953300   -0.253300    3.187400
  H     -2.562000   -2.544500    3.795300

 Total Charge           Charge          ....    0
 Multiplicity           Mult            ....    1
 Number of Electrons    NEL             ....  274
 Basis Dimension        Dim             ....  564

ORBITAL ENERGIES
----------------

  NO   OCC          E(Eh)            E(eV)
   0   2.0000     -89.096190     -2424.4306
   1   2.0000     -24.741198      -673.2422
   2   2.0000     -24.739150      -673.1865
   3   2.0000     -24.738872      -673.1789
   4   2.0000     -19.212355      -522.7948
   5   2.0000     -19.194405      -522.3063
   6   2.0000     -19.135893      -520.7141
   7   2.0000     -19.127302      -520.4804
   8   2.0000     -19.125605      -520.4342
   9   2.0000     -14.369084      -391.0027
  10   2.0000     -14.331979      -389.9930
  11   2.0000     -10.503837      -285.8239
  12   2.0000     -10.333233      -281.1816
  13   2.0000     -10.268051      -279.4079
  14   2.0000     -10.254672      -279.0438
  15   2.0000     -10.238837      -278.6129
  16   2.0000     -10.232355      -278.4365
  17   2.0000     -10.228905      -278.3427
  18   2.0000     -10.223398      -278.1928
  19   2.0000     -10.216971      -278.0179
  20   2.0000     -10.216283      -277.9992
  21   2.0000     -10.214453      -277.9494
  22   2.0000     -10.213942      -277.9355
  23   2.0000     -10.207482      -277.7597
  24   2.0000     -10.203801      -277.6596
  25   2.0000     -10.202583      -277.6264
  26   2.0000     -10.198729      -277.5215
  27   2.0000     -10.196056      -277.4488
  28   2.0000     -10.195614      -277.4368
  29   2.0000     -10.195248      -277.4268
  30   2.0000     -10.194971      -277.4193
  31   2.0000     -10.194746      -277.4131
  32   2.0000     -10.194300      -277.4010
  33   2.0000     -10.193128      -277.3691
  34   2.0000     -10.192711      -277.3578
  35   2.0000     -10.186969      -277.2015
  36   2.0000     -10.170995      -276.7668
  37   2.0000      -8.132008      -221.2832
  38   2.0000      -6.096976      -165.9071
  39   2.0000      -6.095104      -165.8562
  40   2.0000      -6.094629      -165.8433
  41   2.0000      -1.304084       -35.4859
  42   2.0000      -1.224863       -33.3302
  43   2.0000      -1.224382       -33.3171
  44   2.0000      -1.083531       -29.4844
  45   2.0000      -1.082301       -29.4509
  46   2.0000      -1.078954       -29.3598
  47   2.0000      -0.993103       -27.0237
  48   2.0000      -0.963748       -26.2249
  49   2.0000      -0.960865       -26.1465
  50   2.0000      -0.913645       -24.8615
  51   2.0000      -0.887084       -24.1388
  52   2.0000      -0.867117       -23.5955
  53   2.0000      -0.861933       -23.4544
  54   2.0000      -0.810131       -22.0448
  55   2.0000      -0.804571       -21.8935
  56   2.0000      -0.789179       -21.4747
  57   2.0000      -0.776816       -21.1382
  58   2.0000      -0.773006       -21.0346
  59   2.0000      -0.757486       -20.6123
  60   2.0000      -0.753066       -20.4920
  61   2.0000      -0.727736       -19.8027
  62   2.0000      -0.713119       -19.4050
  63   2.0000      -0.693508       -18.8713
  64   2.0000      -0.691112       -18.8061
  65   2.0000      -0.675127       -18.3711
  66   2.0000      -0.648185       -17.6380
  67   2.0000      -0.640005       -17.4154
  68   2.0000      -0.633292       -17.2328
  69   2.0000      -0.632270       -17.2049
  70   2.0000      -0.619877       -16.8677
  71   2.0000      -0.609332       -16.5808
  72   2.0000      -0.596245       -16.2246
  73   2.0000      -0.593190       -16.1415
  74   2.0000      -0.591634       -16.0992
  75   2.0000      -0.586845       -15.9689
  76   2.0000      -0.572280       -15.5725
  77   2.0000      -0.556935       -15.1550
  78   2.0000      -0.538885       -14.6638
  79   2.0000      -0.528498       -14.3812
  80   2.0000      -0.513128       -13.9629
  81   2.0000      -0.499882       -13.6025
  82   2.0000      -0.493558       -13.4304
  83   2.0000      -0.487194       -13.2572
  84   2.0000      -0.484582       -13.1861
  85   2.0000      -0.481193       -13.0939
  86   2.0000      -0.476157       -12.9569
  87   2.0000      -0.469891       -12.7864
  88   2.0000      -0.468852       -12.7581
  89   2.0000      -0.467934       -12.7331
  90   2.0000      -0.459362       -12.4999
  91   2.0000      -0.457860       -12.4590
  92   2.0000      -0.451560       -12.2876
  93   2.0000      -0.447695       -12.1824
  94   2.0000      -0.445316       -12.1177
  95   2.0000      -0.445039       -12.1101
  96   2.0000      -0.440104       -11.9759
  97   2.0000      -0.439199       -11.9512
  98   2.0000      -0.434649       -11.8274
  99   2.0000      -0.432970       -11.7817
 100   2.0000      -0.429464       -11.6863
 101   2.0000      -0.428109       -11.6494
 102   2.0000      -0.423022       -11.5110
 103   2.0000      -0.420051       -11.4302
 104   2.0000      -0.416464       -11.3326
 105   2.0000      -0.413340       -11.2476
 106   2.0000      -0.408519       -11.1164
 107   2.0000      -0.406074       -11.0498
 108   2.0000      -0.402995       -10.9660
 109   2.0000      -0.390878       -10.6363
 110   2.0000      -0.388386       -10.5685
 111   2.0000      -0.385887       -10.5005
 112   2.0000      -0.382976       -10.4213
 113   2.0000      -0.380411       -10.3515
 114   2.0000      -0.374250       -10.1838
 115   2.0000      -0.370892       -10.0925
 116   2.0000      -0.365506        -9.9459
 117   2.0000      -0.362118        -9.8537
 118   2.0000      -0.348417        -9.4809
 119   2.0000      -0.347450        -9.4546
 120   2.0000      -0.345170        -9.3926
 121   2.0000      -0.344797        -9.3824
 122   2.0000      -0.325008        -8.8439
 123   2.0000      -0.319138        -8.6842
 124   2.0000      -0.306110        -8.3297
 125   2.0000      -0.299715        -8.1556
 126   2.0000      -0.286088        -7.7848
 127   2.0000      -0.280776        -7.6403
 128   2.0000      -0.276258        -7.5174
 129   2.0000      -0.274453        -7.4682
 130   2.0000      -0.272002        -7.4016
 131   2.0000      -0.261902        -7.1267
 132   2.0000      -0.260553        -7.0900
 133   2.0000      -0.255742        -6.9591
 134   2.0000      -0.251694        -6.8490
 135   2.0000      -0.237614        -6.4658
 136   2.0000      -0.219430        -5.9710
 137   0.0000      -0.080408        -2.1880
 138   0.0000      -0.059463        -1.6181
 139   0.0000      -0.031980        -0.8702
 140   0.0000      -0.027041        -0.7358
 141   0.0000      -0.013816        -0.3759

MULLIKEN ATOMIC CHARGES
-----------------------
   0 C :   -0.526567
   1 C :    0.173881
   2 C :   -0.164293
   3 C :   -0.194957
   4 C :    0.116655
   5 C :    0.134974
   6 C :   -0.543412
   7 C :    0.301044
   8 N :   -0.607927
   9 C :   -0.240723
  10 C :    0.161165
  11 C :   -0.164796
  12 C :   -0.172671
  13 C :    0.351903
  14 O :   -0.544848
  15 C :    1.085776
  16 F :   -0.278918
  17 F :   -0.291503
  18 F :   -0.292244
  19 C :   -0.192175
  20 C :   -0.171223
  21 S :    1.223353
  22 O :   -0.545431
  23 O :   -0.558757
  24 C :   -0.125236
  25 C :   -0.153369
  26 C :   -0.146293
  27 C :    0.082662
  28 C :    0.527761
  29 O :   -0.445081
  30 O :   -0.624095
  31 C :   -0.142187
  32 C :   -0.135145
  33 N :   -0.404369
  34 C :   -0.063674
  35 C :    0.145698
  36 C :   -0.257363
  37 H :    0.169925
  38 H :    0.157640
  39 H :    0.158909
  40 H :    0.132795
  41 H :    0.144008
  42 H :    0.198554
  43 H :    0.157562
  44 H :    0.171455
  45 H :    0.172641
  46 H :    0.170517
  47 H :    0.164046
  48 H :    0.151320
  49 H :    0.151663
  50 H :    0.146119
  51 H :    0.182866
  52 H :    0.171453
  53 H :    0.433523
  54 H :    0.180007
  55 H :    0.188694
  56 H :    0.148810
  57 H :    0.129879
Sum of atomic charges:    0.0000000

LOEWDIN ATOMIC CHARGES
----------------------
   0 C :   -0.352197
   1 C :   -0.015671
   2 C :   -0.120661
   3 C :   -0.114692
   4 C :   -0.010560
   5 C :    0.010989
   6 C :   -0.360759
   7 C :    0.018671
   8 N :   -0.278894
   9 C :   -0.145954
  10 C :   -0.038023
  11 C :   -0.113127
  12 C :   -0.140313
  13 C :    0.086199
  14 O :   -0.159688
  15 C :    0.359347
  16 F :   -0.087383
  17 F :   -0.105198
  18 F :   -0.105711
  19 C :   -0.161636
  20 C :   -0.121859
  21 S :    1.263060
  22 O :   -0.567620
  23 O :   -0.581258
  24 C :   -0.175495
  25 C :   -0.109421
  26 C :   -0.100441
  27 C :   -0.040066
  28 C :    0.179843
  29 O :   -0.261269
  30 O :   -0.335202
  31 C :   -0.085540
  32 C :   -0.095765
  33 N :   -0.141071
  34 C :   -0.068646
  35 C :   -0.025364
  36 C :   -0.123437
  37 H :    0.141362
  38 H :    0.133747
  39 H :    0.134495
  40 H :    0.135389
  41 H :    0.141630
  42 H :    0.152072
  43 H :    0.135358
  44 H :    0.143569
  45 H :    0.134258
  46 H :    0.142413
  47 H :    0.149004
  48 H :    0.146355
  49 H :    0.141637
  50 H :    0.140150
  51 H :    0.159015
  52 H :    0.154027
  53 H :    0.349369
  54 H :    0.160255
  55 H :    0.161928
  56 H :    0.135058
  57 H :    0.133720

  Mayer bond orders larger than 0.100000
B(  0-C ,  1-C ) :   0.9857 B(  0-C , 37-H ) :   0.9319 B(  0-C , 38-H ) :   0.9440
B(  0-C , 39-H ) :   0.9454 B(  1-C ,  2-C ) :   1.3389 B(  1-C , 36-C ) :   1.4902
B(  2-C ,  3-C ) :   1.4973 B(  2-C , 40-H ) :   0.9254 B(  3-C ,  4-C ) :   1.2928
B(  3-C , 36-C ) :   0.1022 B(  3-C , 41-H ) :   0.9142 B(  4-C ,  5-C ) :   1.2631
B(  4-C , 35-C ) :   1.2909 B(  5-C ,  6-C ) :   1.0092 B(  5-C ,  7-C ) :   1.4309
B(  6-C , 42-H ) :   0.9175 B(  6-C , 43-H ) :   0.9247 B(  6-C , 44-H ) :   0.9232
B(  7-C ,  8-N ) :   0.8902 B(  7-C , 33-N ) :   1.2760 B(  8-N ,  9-C ) :   0.9195
B(  8-N , 21-S ) :   0.8087 B(  9-C , 10-C ) :   0.9598 B(  9-C , 45-H ) :   0.9187
B(  9-C , 46-H ) :   0.9198 B( 10-C , 11-C ) :   1.4298 B( 10-C , 20-C ) :   1.4366
B( 11-C , 12-C ) :   1.4372 B( 11-C , 47-H ) :   0.9133 B( 12-C , 13-C ) :   1.4135
B( 12-C , 48-H ) :   0.9182 B( 13-C , 14-O ) :   0.8238 B( 13-C , 19-C ) :   1.3944
B( 14-O , 15-C ) :   0.9919 B( 15-C , 16-F ) :   1.0083 B( 15-C , 17-F ) :   0.9681
B( 15-C , 18-F ) :   0.9677 B( 19-C , 20-C ) :   1.4262 B( 19-C , 49-H ) :   0.9096
B( 20-C , 50-H ) :   0.9195 B( 21-S , 22-O ) :   1.6460 B( 21-S , 23-O ) :   1.6082
B( 21-S , 24-C ) :   0.8114 B( 24-C , 25-C ) :   1.4010 B( 24-C , 32-C ) :   1.3785
B( 25-C , 26-C ) :   1.4090 B( 25-C , 51-H ) :   0.9096 B( 26-C , 27-C ) :   1.3887
B( 26-C , 52-H ) :   0.9152 B( 27-C , 28-C ) :   1.0086 B( 27-C , 31-C ) :   1.3956
B( 28-C , 29-O ) :   1.8626 B( 28-C , 30-O ) :   1.0241 B( 30-O , 53-H ) :   0.7422
B( 31-C , 32-C ) :   1.4322 B( 31-C , 54-H ) :   0.9100 B( 32-C , 55-H ) :   0.9052
B( 33-N , 34-C ) :   1.4921 B( 34-C , 35-C ) :   1.2375 B( 34-C , 56-H ) :   0.9268
B( 35-C , 36-C ) :   1.2704 B( 36-C , 57-H ) :   0.9195

FINAL SINGLE POINT ENERGY     -2185.613858221128

DIPOLE MOMENT
-------------

Method             : SCF
Type of density    : Electron Density
Multiplicity       :   1
Irrep              :   0
Energy             : -2185.6138582211283392 Eh
Relativity type    :
Basis              : AO
                                X                 Y                 Z
Electronic contribution:     32.922266274      -1.351321251      -6.520990471
Nuclear contribution   :    -32.725367598       1.415060096       7.870599325
                        -----------------------------------------
Total Dipole Moment    :      0.196898676       0.063738844       1.349608854
                        -----------------------------------------
Magnitude (a.u.)       :      1.365384850
Magnitude (Debye)      :      3.470532481

Rotational constants in cm-1:             0.004076             0.001727             0.001350
Rotational constants in MHz :           122.201475            51.782815            40.479472

                             ****ORCA TERMINATED NORMALLY****
TOTAL RUN TIME: 0 days 0 hours 7 minutes 49 seconds 902 msec
