                         Program Version 6.0.0  -   RELEASE  -
|  1> ! B3LYP 6-31G* SP
|  2>
|  3> * xyz 0 1
|  4> C -1.1239 -0.8429 2.9070
|  5> C -2.0892 -1.5987 1.9986
|  6> N -1.9160 -1.1892 0.5941
|  7> C -1.0585 -1.9549 -0.2878
|  8> O -1.1552 -1.8312 -1.5377
|  9> C -0.0302 -2.8691 0.2361
| 10> C -0.3423 -4.2209 0.4401
| 11> C 0.6327 -5.1034 0.9090
| 12> C 1.9279 -4.6446 1.1618
| 13> C 2.2523 -3.3013 0.9492
| 14> C 1.2736 -2.3995 0.4843
| 15> O 1.5550 -1.0415 0.2632
| 16> C 2.8258 -0.4296 0.4781
| 17> C 2.6993 1.0602 0.2690
| 18> C 1.8131 1.7628 1.1134
| 19> C 1.6376 3.1398 0.9690
| 20> C 2.3448 3.8378 -0.0094
| 21> C 3.2546 3.1644 -0.8423
| 22> C 3.4562 1.7789 -0.7006
| 23> C 4.4733 1.1018 -1.5873
| 24> C -2.5720 0.0580 0.1363
| 25> C -3.6222 -0.2106 -0.9785
| 26> C -3.2837 0.4772 -2.3129
| 27> C -3.0367 1.9894 -2.1473
| 28> C -2.2041 2.3496 -0.8812
| 29> N -1.2000 3.3779 -1.1765
| 30> C -1.5211 1.1205 -0.2542
| 31> H -1.2209 -1.2206 3.9471
| 32> H -1.3604 0.2427 2.8983
| 33> H -0.0767 -0.9922 2.5689
| 34> H -1.9318 -2.6913 2.1164
| 35> H -3.1324 -1.4005 2.3268
| 36> H -1.3430 -4.5876 0.2409
| 37> H 0.3854 -6.1451 1.0712
| 38> H 2.6834 -5.3320 1.5195
| 39> H 3.2652 -2.9766 1.1459
| 40> H 3.1569 -0.6065 1.5256
| 41> H 3.5660 -0.8993 -0.2021
| 42> H 1.2677 1.2400 1.8866
| 43> H 0.9553 3.6667 1.6249
| 44> H 2.2039 4.9053 -0.1227
| 45> H 3.8018 3.7305 -1.5879
| 46> H 5.2173 0.5571 -0.9599
| 47> H 3.9611 0.3917 -2.2726
| 48> H 5.0401 1.8369 -2.2054
| 49> H -3.1367 0.4985 0.9904
| 50> H -3.7435 -1.3035 -1.1504
| 51> H -4.6167 0.1637 -0.6423
| 52> H -4.1204 0.3202 -3.0271
| 53> H -2.3791 0.0081 -2.7582
| 54> H -4.0251 2.5106 -2.0908
| 55> H -2.5306 2.3610 -3.0729
| 56> H -2.9023 2.7636 -0.1170
| 57> H -0.5429 3.0214 -1.9075
| 58> H -1.6845 4.2191 -1.5716
| 59> H -0.9705 1.4317 0.6585
| 60> H -0.7774 0.7052 -0.9684
| 61> *
| 62>
| 63>                          ****END OF INPUT****

CARTESIAN COORDINATES (ANGSTROEM)
---------------------------------
  C     -1.123900   -0.842900    2.907000
  C     -2.089200   -1.598700    1.998600
  N     -1.916000   -1.189200    0.594100
  C     -1.058500   -1.954900   -0.287800
  O     -1.155200   -1.831200   -1.537700
  C     -0.030200   -2.869100    0.236100
  C     -0.342300   -4.220900    0.440100
  C      0.632700   -5.103400    0.909000
  C      1.927900   -4.644600    1.161800
  C      2.252300   -3.301300    0.949200
  C      1.273600   -2.399500    0.484300
  O      1.555000   -1.041500    0.263200
  C      2.825800   -0.429600    0.478100
  C      2.699300    1.060200    0.269000
  C      1.813100    1.762800    1.113400
  C      1.637600    3.139800    0.969000
  C      2.344800    3.837800   -0.009400
  C      3.254600    3.164400   -0.842300
  C      3.456200    1.778900   -0.700600
  C      4.473300    1.101800   -1.587300
  C     -2.572000    0.058000    0.136300
  C     -3.622200   -0.210600   -0.978500
  C     -3.283700    0.477200   -2.312900
  C     -3.036700    1.989400   -2.147300
  C     -2.204100    2.349600   -0.881200
  N     -1.200000    3.377900   -1.176500
  C     -1.521100    1.120500   -0.254200
  H     -1.220900   -1.220600    3.947100
  H     -1.360400    0.242700    2.898300
  H     -0.076700   -0.992200    2.568900
  H     -1.931800   -2.691300    2.116400
  H     -3.132400   -1.400500    2.326800
  H     -1.343000   -4.587600    0.240900
  H      0.385400   -6.145100    1.071200
  H      2.683400   -5.332000    1.519500
  H      3.265200   -2.976600    1.145900
  H      3.156900   -0.606500    1.525600
  H      3.566000   -0.899300   -0.202100
  H      1.267700    1.240000    1.886600
  H      0.955300    3.666700    1.624900
  H      2.203900    4.905300   -0.122700
  H      3.801800    3.730500   -1.587900
  H      5.217300    0.557100   -0.959900
  H      3.961100    0.391700   -2.272600
  H      5.040100    1.836900   -2.205400
  H     -3.136700    0.498500    0.990400
  H     -3.743500   -1.303500   -1.150400
  H     -4.616700    0.163700   -0.642300
  H     -4.120400    0.320200   -3.027100
  H     -2.379100    0.008100   -2.758200
  H     -4.025100    2.510600   -2.090800
  H     -2.530600    2.361000   -3.072900
  H     -2.902300    2.763600   -0.117000
  H     -0.542900    3.021400   -1.907500
  H     -1.684500    4.219100   -1.571600
  H     -0.970500    1.431700    0.658500
  H     -0.777400    0.705200   -0.968400

 Total Charge           Charge          ....    0
 Multiplicity           Mult            ....    1
 Number of Electrons    NEL             ....  198
 Basis Dimension        Dim             ....  438

ORBITAL ENERGIES
----------------

  NO   OCC          E(Eh)            E(eV)
   0   2.0000     -19.166421      -521.5448
   1   2.0000     -19.099591      -519.7263
   2   2.0000     -14.339781      -390.2053
   3   2.0000     -14.290262      -388.8578
   4   2.0000     -10.277246      -279.6581
   5   2.0000     -10.252418      -278.9825
   6   2.0000     -10.239810      -278.6394
   7   2.0000     -10.211381      -277.8658
   8   2.0000     -10.209364      -277.8109
   9   2.0000     -10.194287      -277.4007
  10   2.0000     -10.191618      -277.3280
  11   2.0000     -10.190171      -277.2887
  12   2.0000     -10.188726      -277.2493
  13   2.0000     -10.186860      -277.1986
  14   2.0000     -10.186030      -277.1760
  15   2.0000     -10.185039      -277.1490
  16   2.0000     -10.178737      -276.9775
  17   2.0000     -10.178120      -276.9607
  18   2.0000     -10.175109      -276.8788
  19   2.0000     -10.174600      -276.8650
  20   2.0000     -10.173815      -276.8436
  21   2.0000     -10.170860      -276.7632
  22   2.0000     -10.168059      -276.6869
  23   2.0000     -10.158228      -276.4194
  24   2.0000     -10.156867      -276.3824
  25   2.0000     -10.155121      -276.3349
  26   2.0000     -10.151418      -276.2341
  27   2.0000      -1.046114       -28.4662
  28   2.0000      -0.999511       -27.1981
  29   2.0000      -0.904761       -24.6198
  30   2.0000      -0.863428       -23.4951
  31   2.0000      -0.855049       -23.2671
  32   2.0000      -0.844329       -22.9754
  33   2.0000      -0.789055       -21.4713
  34   2.0000      -0.773281       -21.0421
  35   2.0000      -0.761475       -20.7208
  36   2.0000      -0.756427       -20.5834
  37   2.0000      -0.741186       -20.1687
  38   2.0000      -0.733739       -19.9661
  39   2.0000      -0.712347       -19.3839
  40   2.0000      -0.692589       -18.8463
  41   2.0000      -0.687949       -18.7200
  42   2.0000      -0.665050       -18.0969
  43   2.0000      -0.638084       -17.3631
  44   2.0000      -0.613601       -16.6969
  45   2.0000      -0.607732       -16.5372
  46   2.0000      -0.598095       -16.2750
  47   2.0000      -0.588130       -16.0038
  48   2.0000      -0.583474       -15.8771
  49   2.0000      -0.564190       -15.3524
  50   2.0000      -0.546717       -14.8769
  51   2.0000      -0.525534       -14.3005
  52   2.0000      -0.509044       -13.8518
  53   2.0000      -0.495326       -13.4785
  54   2.0000      -0.490569       -13.3491
  55   2.0000      -0.478266       -13.0143
  56   2.0000      -0.477514       -12.9938
  57   2.0000      -0.471538       -12.8312
  58   2.0000      -0.465760       -12.6740
  59   2.0000      -0.460591       -12.5333
  60   2.0000      -0.449677       -12.2363
  61   2.0000      -0.443191       -12.0598
  62   2.0000      -0.437778       -11.9125
  63   2.0000      -0.431996       -11.7552
  64   2.0000      -0.429277       -11.6812
  65   2.0000      -0.419468       -11.4143
  66   2.0000      -0.416748       -11.3403
  67   2.0000      -0.411538       -11.1985
  68   2.0000      -0.405914       -11.0455
  69   2.0000      -0.400367       -10.8945
  70   2.0000      -0.396805       -10.7976
  71   2.0000      -0.393013       -10.6944
  72   2.0000      -0.381604       -10.3840
  73   2.0000      -0.378515       -10.2999
  74   2.0000      -0.375891       -10.2285
  75   2.0000      -0.374245       -10.1837
  76   2.0000      -0.367525       -10.0009
  77   2.0000      -0.363918        -9.9027
  78   2.0000      -0.358105        -9.7445
  79   2.0000      -0.354091        -9.6353
  80   2.0000      -0.347292        -9.4503
  81   2.0000      -0.343208        -9.3392
  82   2.0000      -0.340811        -9.2739
  83   2.0000      -0.339217        -9.2306
  84   2.0000      -0.337563        -9.1856
  85   2.0000      -0.332552        -9.0492
  86   2.0000      -0.321076        -8.7369
  87   2.0000      -0.312128        -8.4934
  88   2.0000      -0.310228        -8.4417
  89   2.0000      -0.304619        -8.2891
  90   2.0000      -0.290562        -7.9066
  91   2.0000      -0.285215        -7.7611
  92   2.0000      -0.258049        -7.0219
  93   2.0000      -0.237760        -6.4698
  94   2.0000      -0.232397        -6.3238
  95   2.0000      -0.231661        -6.3038
  96   2.0000      -0.218344        -5.9415
  97   2.0000      -0.211754        -5.7621
  98   2.0000      -0.207559        -5.6480
  99   0.0000      -0.008105        -0.2206
 100   0.0000      -0.004263        -0.1160
 101   0.0000       0.005842         0.1590
 102   0.0000       0.010829         0.2947
 103   0.0000       0.015523         0.4224

MULLIKEN ATOMIC CHARGES
-----------------------
   0 C :   -0.438364
   1 C :   -0.151655
   2 N :   -0.407979
   3 C :    0.459149
   4 O :   -0.470089
   5 C :    0.020578
   6 C :   -0.151234
   7 C :   -0.134790
   8 C :   -0.121079
   9 C :   -0.208095
  10 C :    0.356894
  11 O :   -0.518048
  12 C :   -0.105720
  13 C :    0.079153
  14 C :   -0.160264
  15 C :   -0.099009
  16 C :   -0.114925
  17 C :   -0.188178
  18 C :    0.132992
  19 C :   -0.533771
  20 C :    0.042291
  21 C :   -0.261839
  22 C :   -0.262096
  23 C :   -0.274741
  24 C :    0.036486
  25 N :   -0.708047
  26 C :   -0.269643
  27 H :    0.133456
  28 H :    0.145942
  29 H :    0.165923
  30 H :    0.152940
  31 H :    0.145268
  32 H :    0.142476
  33 H :    0.127544
  34 H :    0.132050
  35 H :    0.138434
  36 H :    0.139050
  37 H :    0.142574
  38 H :    0.135723
  39 H :    0.128607
  40 H :    0.125569
  41 H :    0.121670
  42 H :    0.153084
  43 H :    0.169318
  44 H :    0.153855
  45 H :    0.126838
  46 H :    0.152598
  47 H :    0.112240
  48 H :    0.117657
  49 H :    0.166741
  50 H :    0.114225
  51 H :    0.116905
  52 H :    0.112628
  53 H :    0.290530
  54 H :    0.282012
  55 H :    0.144096
  56 H :    0.162075
Sum of atomic charges:    0.0000000

LOEWDIN ATOMIC CHARGES
----------------------
   0 C :   -0.370784
   1 C :   -0.159373
   2 N :   -0.097265
   3 C :    0.152264
   4 O :   -0.273330
   5 C :   -0.056473
   6 C :   -0.115065
   7 C :   -0.146008
   8 C :   -0.120812
   9 C :   -0.172091
  10 C :    0.097133
  11 O :   -0.181907
  12 C :   -0.082262
  13 C :   -0.041362
  14 C :   -0.116961
  15 C :   -0.120721
  16 C :   -0.119426
  17 C :   -0.140231
  18 C :   -0.019665
  19 C :   -0.354933
  20 C :   -0.046025
  21 C :   -0.231835
  22 C :   -0.236265
  23 C :   -0.246343
  24 C :   -0.080027
  25 N :   -0.461941
  26 C :   -0.231779
  27 H :    0.121030
  28 H :    0.122588
  29 H :    0.131811
  30 H :    0.128624
  31 H :    0.121772
  32 H :    0.139462
  33 H :    0.131921
  34 H :    0.133678
  35 H :    0.136764
  36 H :    0.117127
  37 H :    0.119786
  38 H :    0.133592
  39 H :    0.133275
  40 H :    0.131075
  41 H :    0.128585
  42 H :    0.130192
  43 H :    0.138934
  44 H :    0.130846
  45 H :    0.120946
  46 H :    0.133307
  47 H :    0.108352
  48 H :    0.115760
  49 H :    0.131836
  50 H :    0.109481
  51 H :    0.112876
  52 H :    0.108359
  53 H :    0.221208
  54 H :    0.216800
  55 H :    0.128128
  56 H :    0.135370

  Mayer bond orders larger than 0.100000
B(  0-C ,  1-C ) :   1.0004 B(  0-C , 27-H ) :   0.9429 B(  0-C , 28-H ) :   0.9471
B(  0-C , 29-H ) :   0.9365 B(  1-C ,  2-N ) :   0.9618 B(  1-C , 30-H ) :   0.9302
B(  1-C , 31-H ) :   0.9347 B(  2-N ,  3-C ) :   1.0915 B(  2-N ,  4-O ) :   0.1038
B(  2-N , 20-C ) :   0.9026 B(  3-C ,  4-O ) :   1.7928 B(  3-C ,  5-C ) :   0.9023
B(  5-C ,  6-C ) :   1.4332 B(  5-C , 10-C ) :   1.3790 B(  6-C ,  7-C ) :   1.4338
B(  6-C , 32-H ) :   0.9242 B(  7-C ,  8-C ) :   1.4549 B(  7-C , 33-H ) :   0.9290
B(  8-C ,  9-C ) :   1.4362 B(  8-C , 34-H ) :   0.9299 B(  9-C , 10-C ) :   1.3498
B(  9-C , 35-H ) :   0.9172 B( 10-C , 11-O ) :   0.9272 B( 11-O , 12-C ) :   0.8849
B( 12-C , 13-C ) :   0.9957 B( 12-C , 36-H ) :   0.9092 B( 12-C , 37-H ) :   0.9107
B( 13-C , 14-C ) :   1.4081 B( 13-C , 18-C ) :   1.4219 B( 14-C , 15-C ) :   1.4378
B( 14-C , 38-H ) :   0.9197 B( 15-C , 16-C ) :   1.4538 B( 15-C , 39-H ) :   0.9287
B( 16-C , 17-C ) :   1.4365 B( 16-C , 40-H ) :   0.9299 B( 17-C , 18-C ) :   1.4318
B( 17-C , 41-H ) :   0.9241 B( 18-C , 19-C ) :   0.9836 B( 19-C , 42-H ) :   0.9374
B( 19-C , 43-H ) :   0.9319 B( 19-C , 44-H ) :   0.9454 B( 20-C , 21-C ) :   0.9663
B( 20-C , 26-C ) :   0.9919 B( 20-C , 45-H ) :   0.9317 B( 21-C , 22-C ) :   1.0171
B( 21-C , 46-H ) :   0.9378 B( 21-C , 47-H ) :   0.9424 B( 22-C , 23-C ) :   1.0015
B( 22-C , 48-H ) :   0.9403 B( 22-C , 49-H ) :   0.9242 B( 23-C , 24-C ) :   0.9635
B( 23-C , 50-H ) :   0.9444 B( 23-C , 51-H ) :   0.9442 B( 24-C , 25-N ) :   0.9997
B( 24-C , 26-C ) :   0.9971 B( 24-C , 52-H ) :   0.9330 B( 25-N , 53-H ) :   0.8562
B( 25-N , 54-H ) :   0.8666 B( 26-C , 55-H ) :   0.9228 B( 26-C , 56-H ) :   0.9186

FINAL SINGLE POINT ENERGY     -1153.687025144201

DIPOLE MOMENT
-------------

Method             : SCF
Type of density    : Electron Density
Multiplicity       :   1
Irrep              :   0
Energy             : -1153.6870251442007884 Eh
Relativity type    :
Basis              : AO
                                X                 Y                 Z
Electronic contribution:      8.945234404     -11.884120700       0.740224557
Nuclear contribution   :     -8.561196647      11.968347445       0.162613023
                        -----------------------------------------
Total Dipole Moment    :      0.384037757       0.084226745       0.902837580
                        -----------------------------------------
Magnitude (a.u.)       :      0.984730846
Magnitude (Debye)      :      2.502986895

Rotational constants in cm-1:             0.006909             0.005923             0.003827
Rotational constants in MHz :           207.137815           177.561851           114.735349

                             ****ORCA TERMINATED NORMALLY****
TOTAL RUN TIME: 0 days 0 hours 8 minutes 7 seconds 614 msec
