                         Program Version 6.0.0  -   RELEASE  -
|  1> ! B3LYP 6-31G* SP
|  2>
|  3> * xyz 0 1
|  4> C -2.8462 -2.5740 -2.7565
|  5> C -3.1856 -2.1307 -1.5298
|  6> C -3.9056 -3.1022 -0.6269
|  7> C -2.8286 -0.7269 -1.0082
|  8> C -2.3062 0.2347 -2.1045
|  9> C -2.0317 1.6621 -1.5495
| 10> C -3.1720 2.6324 -1.9100
| 11> C -1.7193 1.6273 -0.0032
| 12> O -2.9629 1.5904 0.7277
| 13> C -3.5975 0.3014 0.7897
| 14> C -4.8284 0.4209 1.6989
| 15> C -5.5621 -0.8863 1.8527
| 16> C -5.2164 -1.7761 2.8837
| 17> C -5.8703 -3.0062 3.0011
| 18> C -6.8689 -3.3583 2.0892
| 19> C -7.2160 -2.4806 1.0589
| 20> C -6.5650 -1.2492 0.9379
| 21> O -2.7108 -0.6587 1.3013
| 22> C -1.8629 -0.8277 0.2129
| 23> C -0.8765 0.3483 0.3273
| 24> C 0.3898 0.1480 -0.4865
| 25> C 1.4907 0.9330 -0.3858
| 26> C 2.7383 0.5574 -1.1526
| 27> O 3.7786 0.1877 -0.2509
| 28> C 3.7505 -0.9852 0.5126
| 29> O 2.8045 -1.8111 0.3941
| 30> C 4.8820 -1.2845 1.4410
| 31> C 5.9109 -2.1276 0.7401
| 32> C 5.8525 -3.5260 0.8209
| 33> C 6.7882 -4.3091 0.1436
| 34> C 7.7859 -3.7094 -0.6313
| 35> O 8.7039 -4.5240 -1.2938
| 36> C 7.8496 -2.3073 -0.7364
| 37> O 8.8557 -1.7319 -1.5290
| 38> C 9.0235 -0.3322 -1.7301
| 39> C 6.9026 -1.5227 -0.0480
| 40> C 1.5353 2.1887 0.4742
| 41> C 0.4775 3.2108 0.0029
| 42> O 0.4910 3.3355 -1.3975
| 43> C 0.6064 4.5913 0.5628
| 44> O 1.6870 5.2214 0.7122
| 45> C -0.7241 5.1503 0.7672
| 46> C -1.0287 6.5657 1.1396
| 47> C -1.6275 4.1835 0.6525
| 48> C -0.9320 2.8579 0.5532
| 49> O -3.9877 -0.1258 -0.4930
| 50> H -2.3099 -1.9715 -3.4776
| 51> H -3.1087 -3.5805 -3.0698
| 52> H -4.0405 -2.6928 0.3899
| 53> H -4.9056 -3.3370 -1.0481
| 54> H -3.3185 -4.0406 -0.5338
| 55> H -3.0374 0.2774 -2.9423
| 56> H -1.3632 -0.1704 -2.5298
| 57> H -1.1586 2.0045 -2.1218
| 58> H -2.9065 3.6694 -1.6260
| 59> H -4.1217 2.3502 -1.4101
| 60> H -3.3416 2.6306 -3.0079
| 61> H -5.5169 1.1878 1.2814
| 62> H -4.5088 0.7900 2.6979
| 63> H -4.4362 -1.5208 3.5895
| 64> H -5.5989 -3.6887 3.7957
| 65> H -7.3717 -4.3124 2.1796
| 66> H -7.9855 -2.7569 0.3500
| 67> H -6.8350 -0.5834 0.1281
| 68> H -1.3393 -1.8069 0.2848
| 69> H -0.5489 0.3772 1.3926
| 70> H 0.4412 -0.7377 -1.1146
| 71> H 2.5593 -0.2684 -1.8758
| 72> H 3.0742 1.4358 -1.7422
| 73> H 4.4971 -1.8087 2.3432
| 74> H 5.3385 -0.3320 1.7874
| 75> H 5.0815 -4.0096 1.4080
| 76> H 6.7358 -5.3878 0.2172
| 77> H 9.4466 -4.1449 -1.8688
| 78> H 9.8907 -0.1632 -2.4010
| 79> H 9.2210 0.1719 -0.7606
| 80> H 8.1165 0.0961 -2.2066
| 81> H 6.9263 -0.4436 -0.1212
| 82> H 1.3961 1.9196 1.5435
| 83> H 2.5426 2.6540 0.3963
| 84> H 1.4051 3.6163 -1.6682
| 85> H -0.2579 7.2438 0.7176
| 86> H -1.0346 6.6635 2.2452
| 87> H -2.0209 6.8656 0.7404
| 88> H -2.6866 4.3198 0.8314
| 89> H -0.7902 2.6093 1.6334
| 90> *
| 91>
| 92>                          ****END OF INPUT****

CARTESIAN COORDINATES (ANGSTROEM)
---------------------------------
  C     -2.846200   -2.574000   -2.756500
  C     -3.185600   -2.130700   -1.529800
  C     -3.905600   -3.102200   -0.626900
  C     -2.828600   -0.726900   -1.008200
  C     -2.306200    0.234700   -2.104500
  C     -2.031700    1.662100   -1.549500
  C     -3.172000    2.632400   -1.910000
  C     -1.719300    1.627300   -0.003200
  O     -2.962900    1.590400    0.727700
  C     -3.597500    0.301400    0.789700
  C     -4.828400    0.420900    1.698900
  C     -5.562100   -0.886300    1.852700
  C     -5.216400   -1.776100    2.883700
  C     -5.870300   -3.006200    3.001100
  C     -6.868900   -3.358300    2.089200
  C     -7.216000   -2.480600    1.058900
  C     -6.565000   -1.249200    0.937900
  O     -2.710800   -0.658700    1.301300
  C     -1.862900   -0.827700    0.212900
  C     -0.876500    0.348300    0.327300
  C      0.389800    0.148000   -0.486500
  C      1.490700    0.933000   -0.385800
  C      2.738300    0.557400   -1.152600
  O      3.778600    0.187700   -0.250900
  C      3.750500   -0.985200    0.512600
  O      2.804500   -1.811100    0.394100
  C      4.882000   -1.284500    1.441000
  C      5.910900   -2.127600    0.740100
  C      5.852500   -3.526000    0.820900
  C      6.788200   -4.309100    0.143600
  C      7.785900   -3.709400   -0.631300
  O      8.703900   -4.524000   -1.293800
  C      7.849600   -2.307300   -0.736400
  O      8.855700   -1.731900   -1.529000
  C      9.023500   -0.332200   -1.730100
  C      6.902600   -1.522700   -0.048000
  C      1.535300    2.188700    0.474200
  C      0.477500    3.210800    0.002900
  O      0.491000    3.335500   -1.397500
  C      0.606400    4.591300    0.562800
  O      1.687000    5.221400    0.712200
  C     -0.724100    5.150300    0.767200
  C     -1.028700    6.565700    1.139600
  C     -1.627500    4.183500    0.652500
  C     -0.932000    2.857900    0.553200
  O     -3.987700   -0.125800   -0.493000
  H     -2.309900   -1.971500   -3.477600
  H     -3.108700   -3.580500   -3.069800
  H     -4.040500   -2.692800    0.389900
  H     -4.905600   -3.337000   -1.048100
  H     -3.318500   -4.040600   -0.533800
  H     -3.037400    0.277400   -2.942300
  H     -1.363200   -0.170400   -2.529800
  H     -1.158600    2.004500   -2.121800
  H     -2.906500    3.669400   -1.626000
  H     -4.121700    2.350200   -1.410100
  H     -3.341600    2.630600   -3.007900
  H     -5.516900    1.187800    1.281400
  H     -4.508800    0.790000    2.697900
  H     -4.436200   -1.520800    3.589500
  H     -5.598900   -3.688700    3.795700
  H     -7.371700   -4.312400    2.179600
  H     -7.985500   -2.756900    0.350000
  H     -6.835000   -0.583400    0.128100
  H     -1.339300   -1.806900    0.284800
  H     -0.548900    0.377200    1.392600
  H      0.441200   -0.737700   -1.114600
  H      2.559300   -0.268400   -1.875800
  H      3.074200    1.435800   -1.742200
  H      4.497100   -1.808700    2.343200
  H      5.338500   -0.332000    1.787400
  H      5.081500   -4.009600    1.408000
  H      6.735800   -5.387800    0.217200
  H      9.446600   -4.144900   -1.868800
  H      9.890700   -0.163200   -2.401000
  H      9.221000    0.171900   -0.760600
  H      8.116500    0.096100   -2.206600
  H      6.926300   -0.443600   -0.121200
  H      1.396100    1.919600    1.543500
  H      2.542600    2.654000    0.396300
  H      1.405100    3.616300   -1.668200
  H     -0.257900    7.243800    0.717600
  H     -1.034600    6.663500    2.245200
  H     -2.020900    6.865600    0.740400
  H     -2.686600    4.319800    0.831400
  H     -0.790200    2.609300    1.633400

 Total Charge           Charge          ....    0
 Multiplicity           Mult            ....    1
 Number of Electrons    NEL             ....  334
 Basis Dimension        Dim             ....  724

ORBITAL ENERGIES
----------------

  NO   OCC          E(Eh)            E(eV)
   0   2.0000     -19.183373      -522.0061
   1   2.0000     -19.171819      -521.6917
   2   2.0000     -19.161906      -521.4220
   3   2.0000     -19.160219      -521.3761
   4   2.0000     -19.159336      -521.3520
   5   2.0000     -19.155777      -521.2552
   6   2.0000     -19.151347      -521.1347
   7   2.0000     -19.131777      -520.6021
   8   2.0000     -19.123829      -520.3858
   9   2.0000     -10.331836      -281.1436
  10   2.0000     -10.316038      -280.7137
  11   2.0000     -10.259287      -279.1694
  12   2.0000     -10.250588      -278.9327
  13   2.0000     -10.249051      -278.8909
  14   2.0000     -10.246300      -278.8160
  15   2.0000     -10.245881      -278.8046
  16   2.0000     -10.245268      -278.7879
  17   2.0000     -10.243628      -278.7433
  18   2.0000     -10.239835      -278.6401
  19   2.0000     -10.235633      -278.5257
  20   2.0000     -10.201017      -277.5838
  21   2.0000     -10.200781      -277.5774
  22   2.0000     -10.196724      -277.4670
  23   2.0000     -10.191763      -277.3320
  24   2.0000     -10.190975      -277.3105
  25   2.0000     -10.190578      -277.2997
  26   2.0000     -10.190200      -277.2895
  27   2.0000     -10.185440      -277.1599
  28   2.0000     -10.184152      -277.1249
  29   2.0000     -10.183671      -277.1118
  30   2.0000     -10.183483      -277.1067
  31   2.0000     -10.182989      -277.0932
  32   2.0000     -10.180975      -277.0384
  33   2.0000     -10.179363      -276.9945
  34   2.0000     -10.178164      -276.9619
  35   2.0000     -10.177287      -276.9381
  36   2.0000     -10.174595      -276.8648
  37   2.0000     -10.174356      -276.8583
  38   2.0000     -10.174024      -276.8493
  39   2.0000     -10.173575      -276.8370
  40   2.0000     -10.173212      -276.8272
  41   2.0000     -10.172572      -276.8098
  42   2.0000     -10.171491      -276.7803
  43   2.0000     -10.157422      -276.3975
  44   2.0000     -10.156508      -276.3726
  45   2.0000     -10.156142      -276.3627
  46   2.0000      -1.133261       -30.8376
  47   2.0000      -1.076223       -29.2855
  48   2.0000      -1.051697       -28.6181
  49   2.0000      -1.049184       -28.5497
  50   2.0000      -1.022680       -27.8285
  51   2.0000      -1.019907       -27.7531
  52   2.0000      -1.018578       -27.7169
  53   2.0000      -1.006900       -27.3991
  54   2.0000      -0.988028       -26.8856
  55   2.0000      -0.869980       -23.6734
  56   2.0000      -0.852360       -23.1939
  57   2.0000      -0.850280       -23.1373
  58   2.0000      -0.839631       -22.8475
  59   2.0000      -0.816223       -22.2106
  60   2.0000      -0.788875       -21.4664
  61   2.0000      -0.783572       -21.3221
  62   2.0000      -0.774177       -21.0664
  63   2.0000      -0.765473       -20.8296
  64   2.0000      -0.757403       -20.6100
  65   2.0000      -0.750460       -20.4210
  66   2.0000      -0.733833       -19.9686
  67   2.0000      -0.729400       -19.8480
  68   2.0000      -0.724675       -19.7194
  69   2.0000      -0.709999       -19.3201
  70   2.0000      -0.706089       -19.2137
  71   2.0000      -0.691097       -18.8057
  72   2.0000      -0.683744       -18.6056
  73   2.0000      -0.676592       -18.4110
  74   2.0000      -0.667034       -18.1509
  75   2.0000      -0.659294       -17.9403
  76   2.0000      -0.644440       -17.5361
  77   2.0000      -0.626767       -17.0552
  78   2.0000      -0.610715       -16.6184
  79   2.0000      -0.605402       -16.4738
  80   2.0000      -0.599986       -16.3264
  81   2.0000      -0.595770       -16.2117
  82   2.0000      -0.594233       -16.1699
  83   2.0000      -0.579447       -15.7676
  84   2.0000      -0.573161       -15.5965
  85   2.0000      -0.564924       -15.3724
  86   2.0000      -0.553995       -15.0750
  87   2.0000      -0.546316       -14.8660
  88   2.0000      -0.544021       -14.8036
  89   2.0000      -0.541308       -14.7297
  90   2.0000      -0.519226       -14.1288
  91   2.0000      -0.514522       -14.0009
  92   2.0000      -0.507951       -13.8221
  93   2.0000      -0.503256       -13.6943
  94   2.0000      -0.492350       -13.3975
  95   2.0000      -0.490716       -13.3531
  96   2.0000      -0.486594       -13.2409
  97   2.0000      -0.485150       -13.2016
  98   2.0000      -0.478683       -13.0256
  99   2.0000      -0.474933       -12.9236
 100   2.0000      -0.468166       -12.7394
 101   2.0000      -0.467151       -12.7118
 102   2.0000      -0.465785       -12.6747
 103   2.0000      -0.457722       -12.4552
 104   2.0000      -0.450719       -12.2647
 105   2.0000      -0.448277       -12.1982
 106   2.0000      -0.447090       -12.1659
 107   2.0000      -0.444295       -12.0899
 108   2.0000      -0.443015       -12.0551
 109   2.0000      -0.440347       -11.9824
 110   2.0000      -0.437613       -11.9081
 111   2.0000      -0.431899       -11.7526
 112   2.0000      -0.428796       -11.6681
 113   2.0000      -0.424826       -11.5601
 114   2.0000      -0.421268       -11.4633
 115   2.0000      -0.417589       -11.3632
 116   2.0000      -0.413918       -11.2633
 117   2.0000      -0.411896       -11.2083
 118   2.0000      -0.410549       -11.1716
 119   2.0000      -0.405812       -11.0427
 120   2.0000      -0.402802       -10.9608
 121   2.0000      -0.399422       -10.8688
 122   2.0000      -0.397793       -10.8245
 123   2.0000      -0.395979       -10.7751
 124   2.0000      -0.393038       -10.6951
 125   2.0000      -0.391447       -10.6518
 126   2.0000      -0.386745       -10.5239
 127   2.0000      -0.382993       -10.4218
 128   2.0000      -0.378417       -10.2972
 129   2.0000      -0.378275       -10.2934
 130   2.0000      -0.374889       -10.2012
 131   2.0000      -0.371061       -10.0971
 132   2.0000      -0.367644       -10.0041
 133   2.0000      -0.362789        -9.8720
 134   2.0000      -0.360005        -9.7962
 135   2.0000      -0.358265        -9.7489
 136   2.0000      -0.355227        -9.6662
 137   2.0000      -0.352055        -9.5799
 138   2.0000      -0.345556        -9.4031
 139   2.0000      -0.343850        -9.3566
 140   2.0000      -0.340295        -9.2599
 141   2.0000      -0.335975        -9.1424
 142   2.0000      -0.334074        -9.0906
 143   2.0000      -0.332286        -9.0420
 144   2.0000      -0.331958        -9.0330
 145   2.0000      -0.331583        -9.0228
 146   2.0000      -0.329486        -8.9658
 147   2.0000      -0.324973        -8.8430
 148   2.0000      -0.320930        -8.7329
 149   2.0000      -0.319523        -8.6947
 150   2.0000      -0.314043        -8.5455
 151   2.0000      -0.310307        -8.4439
 152   2.0000      -0.305300        -8.3076
 153   2.0000      -0.298918        -8.1340
 154   2.0000      -0.289900        -7.8886
 155   2.0000      -0.286823        -7.8048
 156   2.0000      -0.278914        -7.5896
 157   2.0000      -0.263927        -7.1818
 158   2.0000      -0.252912        -6.8821
 159   2.0000      -0.248591        -6.7645
 160   2.0000      -0.240156        -6.5350
 161   2.0000      -0.238319        -6.4850
 162   2.0000      -0.234539        -6.3821
 163   2.0000      -0.234274        -6.3749
 164   2.0000      -0.232114        -6.3161
 165   2.0000      -0.231040        -6.2869
 166   2.0000      -0.204217        -5.5570
 167   0.0000      -0.056990        -1.5508
 168   0.0000      -0.012220        -0.3325
 169   0.0000      -0.001063        -0.0289
 170   0.0000       0.005658         0.1540
 171   0.0000       0.005729         0.1559

MULLIKEN ATOMIC CHARGES
-----------------------
   0 C :   -0.394806
   1 C :    0.192048
   2 C :   -0.529212
   3 C :    0.245611
   4 C :   -0.316447
   5 C :   -0.090818
   6 C :   -0.453047
   7 C :    0.307946
   8 O :   -0.550564
   9 C :    0.768930
  10 C :   -0.417347
  11 C :    0.156720
  12 C :   -0.161250
  13 C :   -0.129700
  14 C :   -0.124987
  15 C :   -0.130955
  16 C :   -0.155262
  17 O :   -0.471843
  18 C :    0.000721
  19 C :   -0.146263
  20 C :   -0.144914
  21 C :    0.158572
  22 C :   -0.099239
  23 O :   -0.474102
  24 C :    0.603853
  25 O :   -0.458904
  26 C :   -0.425423
  27 C :    0.143138
  28 C :   -0.166002
  29 C :   -0.172064
  30 C :    0.340580
  31 O :   -0.676031
  32 C :    0.311902
  33 O :   -0.531009
  34 C :   -0.193539
  35 C :   -0.254333
  36 C :   -0.397629
  37 C :    0.271101
  38 O :   -0.635175
  39 C :    0.339244
  40 O :   -0.462932
  41 C :    0.127360
  42 C :   -0.517129
  43 C :   -0.134140
  44 C :   -0.216632
  45 O :   -0.504824
  46 H :    0.134259
  47 H :    0.133703
  48 H :    0.185544
  49 H :    0.161751
  50 H :    0.149301
  51 H :    0.150594
  52 H :    0.134045
  53 H :    0.169754
  54 H :    0.138581
  55 H :    0.159210
  56 H :    0.132810
  57 H :    0.162910
  58 H :    0.160002
  59 H :    0.129083
  60 H :    0.125788
  61 H :    0.124226
  62 H :    0.125286
  63 H :    0.130707
  64 H :    0.162035
  65 H :    0.155830
  66 H :    0.145451
  67 H :    0.160047
  68 H :    0.140336
  69 H :    0.185649
  70 H :    0.162963
  71 H :    0.136368
  72 H :    0.144789
  73 H :    0.424801
  74 H :    0.167983
  75 H :    0.150174
  76 H :    0.151169
  77 H :    0.136440
  78 H :    0.157329
  79 H :    0.159768
  80 H :    0.405534
  81 H :    0.171482
  82 H :    0.165550
  83 H :    0.155142
  84 H :    0.161801
  85 H :    0.160598
Sum of atomic charges:    0.0000000

LOEWDIN ATOMIC CHARGES
----------------------
   0 C :   -0.289273
   1 C :   -0.021779
   2 C :   -0.363457
   3 C :    0.058495
   4 C :   -0.226838
   5 C :   -0.137093
   6 C :   -0.356837
   7 C :    0.090368
   8 O :   -0.220048
   9 C :    0.205453
  10 C :   -0.221323
  11 C :   -0.018842
  12 C :   -0.127841
  13 C :   -0.131697
  14 C :   -0.132893
  15 C :   -0.131963
  16 C :   -0.124487
  17 O :   -0.175299
  18 C :   -0.016321
  19 C :   -0.136127
  20 C :   -0.124570
  21 C :   -0.043432
  22 C :   -0.083366
  23 O :   -0.179641
  24 C :    0.193383
  25 O :   -0.269488
  26 C :   -0.233939
  27 C :   -0.031436
  28 C :   -0.134017
  29 C :   -0.143907
  30 C :    0.068728
  31 O :   -0.349183
  32 C :    0.053888
  33 O :   -0.206327
  34 C :   -0.197878
  35 C :   -0.170097
  36 C :   -0.235848
  37 C :    0.047647
  38 O :   -0.354093
  39 C :    0.115151
  40 O :   -0.244748
  41 C :   -0.065521
  42 C :   -0.352210
  43 C :   -0.069581
  44 C :   -0.112446
  45 O :   -0.174637
  46 H :    0.125493
  47 H :    0.127592
  48 H :    0.143633
  49 H :    0.139992
  50 H :    0.131315
  51 H :    0.132811
  52 H :    0.121277
  53 H :    0.144971
  54 H :    0.121219
  55 H :    0.128432
  56 H :    0.119855
  57 H :    0.142653
  58 H :    0.141358
  59 H :    0.132551
  60 H :    0.130231
  61 H :    0.129469
  62 H :    0.129883
  63 H :    0.133418
  64 H :    0.135806
  65 H :    0.140298
  66 H :    0.136218
  67 H :    0.129232
  68 H :    0.123531
  69 H :    0.156073
  70 H :    0.140524
  71 H :    0.137780
  72 H :    0.145519
  73 H :    0.339898
  74 H :    0.134806
  75 H :    0.117936
  76 H :    0.118420
  77 H :    0.137205
  78 H :    0.137197
  79 H :    0.135417
  80 H :    0.323278
  81 H :    0.142305
  82 H :    0.140754
  83 H :    0.135523
  84 H :    0.145935
  85 H :    0.145563

  Mayer bond orders larger than 0.100000
B(  0-C ,  1-C ) :   1.9157 B(  0-C , 46-H ) :   0.9224 B(  0-C , 47-H ) :   0.9327
B(  1-C ,  2-C ) :   0.9834 B(  1-C ,  3-C ) :   1.0061 B(  2-C , 48-H ) :   0.9220
B(  2-C , 49-H ) :   0.9385 B(  2-C , 50-H ) :   0.9417 B(  3-C ,  4-C ) :   0.9964
B(  3-C , 18-C ) :   0.9247 B(  3-C , 45-O ) :   0.8679 B(  4-C ,  5-C ) :   0.9512
B(  4-C , 51-H ) :   0.9250 B(  4-C , 52-H ) :   0.9205 B(  5-C ,  6-C ) :   1.0075
B(  5-C ,  7-C ) :   0.9668 B(  5-C , 53-H ) :   0.8995 B(  6-C , 54-H ) :   0.9393
B(  6-C , 55-H ) :   0.9392 B(  6-C , 56-H ) :   0.9464 B(  7-C ,  8-O ) :   0.8360
B(  7-C , 19-C ) :   0.9455 B(  7-C , 44-C ) :   0.9685 B(  8-O ,  9-C ) :   0.9059
B(  9-C , 10-C ) :   0.9657 B(  9-C , 17-O ) :   0.9453 B(  9-C , 45-O ) :   0.9300
B( 10-C , 11-C ) :   0.9761 B( 10-C , 57-H ) :   0.9249 B( 10-C , 58-H ) :   0.9252
B( 11-C , 12-C ) :   1.4309 B( 11-C , 16-C ) :   1.4352 B( 12-C , 13-C ) :   1.4371
B( 12-C , 59-H ) :   0.9243 B( 13-C , 14-C ) :   1.4526 B( 13-C , 60-H ) :   0.9302
B( 14-C , 15-C ) :   1.4511 B( 14-C , 61-H ) :   0.9311 B( 15-C , 16-C ) :   1.4372
B( 15-C , 62-H ) :   0.9303 B( 16-C , 63-H ) :   0.9239 B( 17-O , 18-C ) :   0.9065
B( 18-C , 19-C ) :   0.9483 B( 18-C , 64-H ) :   0.9208 B( 19-C , 20-C ) :   0.9795
B( 19-C , 65-H ) :   0.9037 B( 20-C , 21-C ) :   1.8646 B( 20-C , 66-H ) :   0.9101
B( 21-C , 22-C ) :   0.9842 B( 21-C , 36-C ) :   0.9758 B( 22-C , 23-O ) :   0.8570
B( 22-C , 67-H ) :   0.9208 B( 22-C , 68-H ) :   0.9277 B( 23-O , 24-C ) :   1.0107
B( 24-C , 25-O ) :   1.8598 B( 24-C , 26-C ) :   0.9567 B( 26-C , 27-C ) :   0.9750
B( 26-C , 69-H ) :   0.9220 B( 26-C , 70-H ) :   0.9172 B( 27-C , 28-C ) :   1.4396
B( 27-C , 35-C ) :   1.4046 B( 28-C , 29-C ) :   1.4265 B( 28-C , 71-H ) :   0.9224
B( 29-C , 30-C ) :   1.4233 B( 29-C , 72-H ) :   0.9174 B( 30-C , 31-O ) :   0.9245
B( 30-C , 32-C ) :   1.3078 B( 31-O , 73-H ) :   0.7541 B( 32-C , 33-O ) :   0.8985
B( 32-C , 35-C ) :   1.3614 B( 33-O , 34-C ) :   0.9151 B( 34-C , 74-H ) :   0.9453
B( 34-C , 75-H ) :   0.9300 B( 34-C , 76-H ) :   0.9299 B( 35-C , 77-H ) :   0.9112
B( 36-C , 37-C ) :   0.9588 B( 36-C , 78-H ) :   0.9162 B( 36-C , 79-H ) :   0.9161
B( 37-C , 38-O ) :   0.9054 B( 37-C , 39-C ) :   0.8851 B( 37-C , 44-C ) :   0.9463
B( 38-O , 80-H ) :   0.7686 B( 39-C , 40-O ) :   1.8586 B( 39-C , 41-C ) :   1.0499
B( 41-C , 42-C ) :   1.0046 B( 41-C , 43-C ) :   1.7230 B( 42-C , 81-H ) :   0.9363
B( 42-C , 82-H ) :   0.9347 B( 42-C , 83-H ) :   0.9443 B( 43-C , 44-C ) :   0.9811
B( 43-C , 84-H ) :   0.9202 B( 44-C , 85-H ) :   0.8950

FINAL SINGLE POINT ENERGY     -2109.634940385450

DIPOLE MOMENT
-------------

Method             : SCF
Type of density    : Electron Density
Multiplicity       :   1
Irrep              :   0
Energy             : -2109.6349403854501361 Eh
Relativity type    :
Basis              : AO
                                X                 Y                 Z
Electronic contribution:     16.985531375      -4.099184377       7.112480024
Nuclear contribution   :    -16.305652974       4.658982859      -7.485732222
                        -----------------------------------------
Total Dipole Moment    :      0.679878400       0.559798483      -0.373252198
                        -----------------------------------------
Magnitude (a.u.)       :      0.956517739
Magnitude (Debye)      :      2.431274875

Rotational constants in cm-1:             0.003175             0.001145             0.000928
Rotational constants in MHz :            95.174567            34.316582            27.818428

                             ****ORCA TERMINATED NORMALLY****
TOTAL RUN TIME: 0 days 0 hours 20 minutes 14 seconds 857 msec
