                         Program Version 6.0.0  -   RELEASE  -
|  1> ! B3LYP 6-31G* SP
|  2>
|  3> * xyz -1 1
|  4> C -3.8421 -1.0010 1.1964
|  5> C -2.8791 -2.1317 0.9121
|  6> C -1.6066 -1.8726 0.3479
|  7> N -1.1937 -0.5411 0.0227
|  8> C -0.6062 0.3196 1.0525
|  9> C 0.8350 0.6226 0.7411
| 10> C 1.2520 1.9430 0.5253
| 11> C 2.5851 2.2181 0.2229
| 12> C 3.5341 1.1927 0.1271
| 13> O 4.8484 1.5992 -0.1729
| 14> C 6.0109 0.7802 -0.2413
| 15> C 7.2275 1.6692 -0.5216
| 16> C 7.9462 2.2072 0.7076
| 17> C 8.5652 1.0811 -0.1059
| 18> C 3.1135 -0.1517 0.3426
| 19> Cl 4.1594 -1.5617 0.2189
| 20> C 1.7738 -0.4148 0.6591
| 21> S -1.3696 0.0199 -1.6124
| 22> O -2.1959 -0.9582 -2.4012
| 23> O -0.0173 0.1282 -2.2578
| 24> C -2.1835 1.5807 -1.6208
| 25> C -3.5732 1.6455 -1.4602
| 26> C -4.2217 2.8825 -1.4193
| 27> C -3.4886 4.0737 -1.5404
| 28> C -4.1717 5.3852 -1.4883
| 29> O -5.4184 5.4548 -1.3231
| 30> O -3.4439 6.5602 -1.6145
| 31> C -2.0938 4.0019 -1.7081
| 32> C -1.4465 2.7632 -1.7480
| 33> N -0.7551 -2.8953 0.0884
| 34> C -1.0664 -4.1865 0.3510
| 35> C -2.3106 -4.5121 0.8922
| 36> C -2.6454 -5.8514 1.1442
| 37> C -3.9044 -6.1783 1.6480
| 38> C -4.8299 -5.1727 1.9181
| 39> C -4.5059 -3.8334 1.6881
| 40> C -3.2414 -3.4791 1.1695
| 41> H -4.1579 -1.0319 2.2589
| 42> H -4.7317 -1.0969 0.5410
| 43> H -3.4038 -0.0016 1.0235
| 44> H -1.2027 1.2539 1.1285
| 45> H -0.6561 -0.1800 2.0461
| 46> H 0.5469 2.7612 0.5919
| 47> H 2.8853 3.2477 0.0576
| 48> H 5.9109 0.0667 -1.0848
| 49> H 6.1338 0.2281 0.7165
| 50> H 7.2640 2.3069 -1.4259
| 51> H 7.5495 1.8787 1.6962
| 52> H 8.4301 3.1934 0.5592
| 53> H 9.4201 1.4018 -0.7382
| 54> H 8.5307 0.0877 0.3913
| 55> H 1.4606 -1.4398 0.8382
| 56> H -4.1539 0.7383 -1.3597
| 57> H -5.2962 2.9057 -1.2886
| 58> H -1.5020 4.9019 -1.8021
| 59> H -0.3714 2.7298 -1.8690
| 60> H -0.3427 -4.9592 0.1251
| 61> H -1.9367 -6.6441 0.9420
| 62> H -4.1588 -7.2152 1.8271
| 63> H -5.8027 -5.4300 2.3126
| 64> H -5.2560 -3.0901 1.9107
| 65> *
| 66>
| 67>                          ****END OF INPUT****

CARTESIAN COORDINATES (ANGSTROEM)
---------------------------------
  C     -3.842100   -1.001000    1.196400
  C     -2.879100   -2.131700    0.912100
  C     -1.606600   -1.872600    0.347900
  N     -1.193700   -0.541100    0.022700
  C     -0.606200    0.319600    1.052500
  C      0.835000    0.622600    0.741100
  C      1.252000    1.943000    0.525300
  C      2.585100    2.218100    0.222900
  C      3.534100    1.192700    0.127100
  O      4.848400    1.599200   -0.172900
  C      6.010900    0.780200   -0.241300
  C      7.227500    1.669200   -0.521600
  C      7.946200    2.207200    0.707600
  C      8.565200    1.081100   -0.105900
  C      3.113500   -0.151700    0.342600
  Cl     4.159400   -1.561700    0.218900
  C      1.773800   -0.414800    0.659100
  S     -1.369600    0.019900   -1.612400
  O     -2.195900   -0.958200   -2.401200
  O     -0.017300    0.128200   -2.257800
  C     -2.183500    1.580700   -1.620800
  C     -3.573200    1.645500   -1.460200
  C     -4.221700    2.882500   -1.419300
  C     -3.488600    4.073700   -1.540400
  C     -4.171700    5.385200   -1.488300
  O     -5.418400    5.454800   -1.323100
  O     -3.443900    6.560200   -1.614500
  C     -2.093800    4.001900   -1.708100
  C     -1.446500    2.763200   -1.748000
  N     -0.755100   -2.895300    0.088400
  C     -1.066400   -4.186500    0.351000
  C     -2.310600   -4.512100    0.892200
  C     -2.645400   -5.851400    1.144200
  C     -3.904400   -6.178300    1.648000
  C     -4.829900   -5.172700    1.918100
  C     -4.505900   -3.833400    1.688100
  C     -3.241400   -3.479100    1.169500
  H     -4.157900   -1.031900    2.258900
  H     -4.731700   -1.096900    0.541000
  H     -3.403800   -0.001600    1.023500
  H     -1.202700    1.253900    1.128500
  H     -0.656100   -0.180000    2.046100
  H      0.546900    2.761200    0.591900
  H      2.885300    3.247700    0.057600
  H      5.910900    0.066700   -1.084800
  H      6.133800    0.228100    0.716500
  H      7.264000    2.306900   -1.425900
  H      7.549500    1.878700    1.696200
  H      8.430100    3.193400    0.559200
  H      9.420100    1.401800   -0.738200
  H      8.530700    0.087700    0.391300
  H      1.460600   -1.439800    0.838200
  H     -4.153900    0.738300   -1.359700
  H     -5.296200    2.905700   -1.288600
  H     -1.502000    4.901900   -1.802100
  H     -0.371400    2.729800   -1.869000
  H     -0.342700   -4.959200    0.125100
  H     -1.936700   -6.644100    0.942000
  H     -4.158800   -7.215200    1.827100
  H     -5.802700   -5.430000    2.312600
  H     -5.256000   -3.090100    1.910700

 Total Charge           Charge          ....   -1
 Multiplicity           Mult            ....    1
 Number of Electrons    NEL             ....  280
 Basis Dimension        Dim             ....  574

ORBITAL ENERGIES
----------------

  NO   OCC          E(Eh)            E(eV)
   0   2.0000    -101.459796     -2760.8614
   1   2.0000     -88.997371     -2421.7416
   2   2.0000     -19.096774      -519.6496
   3   2.0000     -19.026647      -517.7414
   4   2.0000     -19.021851      -517.6109
   5   2.0000     -18.907978      -514.5122
   6   2.0000     -18.887221      -513.9474
   7   2.0000     -14.279495      -388.5648
   8   2.0000     -14.262830      -388.1113
   9   2.0000     -10.189057      -277.2583
  10   2.0000     -10.188735      -277.2496
  11   2.0000     -10.175882      -276.8998
  12   2.0000     -10.172744      -276.8144
  13   2.0000     -10.158911      -276.4380
  14   2.0000     -10.158096      -276.4159
  15   2.0000     -10.143640      -276.0225
  16   2.0000     -10.142174      -275.9826
  17   2.0000     -10.139674      -275.9145
  18   2.0000     -10.139294      -275.9042
  19   2.0000     -10.138237      -275.8755
  20   2.0000     -10.137884      -275.8659
  21   2.0000     -10.137090      -275.8442
  22   2.0000     -10.136472      -275.8274
  23   2.0000     -10.134178      -275.7650
  24   2.0000     -10.130825      -275.6738
  25   2.0000     -10.117302      -275.3058
  26   2.0000     -10.117203      -275.3031
  27   2.0000     -10.116858      -275.2937
  28   2.0000     -10.116298      -275.2785
  29   2.0000     -10.113861      -275.2121
  30   2.0000     -10.113025      -275.1894
  31   2.0000     -10.096502      -274.7398
  32   2.0000     -10.093388      -274.6551
  33   2.0000     -10.093334      -274.6536
  34   2.0000     -10.077058      -274.2107
  35   2.0000     -10.075825      -274.1771
  36   2.0000     -10.074302      -274.1357
  37   2.0000      -9.391671      -255.5604
  38   2.0000      -8.032936      -218.5873
  39   2.0000      -7.154722      -194.6899
  40   2.0000      -7.145249      -194.4321
  41   2.0000      -7.144979      -194.4248
  42   2.0000      -5.998464      -163.2265
  43   2.0000      -5.995889      -163.1564
  44   2.0000      -5.995148      -163.1363
  45   2.0000      -0.983598       -26.7651
  46   2.0000      -0.976268       -26.5656
  47   2.0000      -0.887073       -24.1385
  48   2.0000      -0.861763       -23.4498
  49   2.0000      -0.839167       -22.8349
  50   2.0000      -0.817873       -22.2555
  51   2.0000      -0.811797       -22.0901
  52   2.0000      -0.802932       -21.8489
  53   2.0000      -0.800592       -21.7852
  54   2.0000      -0.764323       -20.7983
  55   2.0000      -0.758390       -20.6368
  56   2.0000      -0.743035       -20.2190
  57   2.0000      -0.716264       -19.4905
  58   2.0000      -0.701620       -19.0921
  59   2.0000      -0.698967       -19.0199
  60   2.0000      -0.680488       -18.5170
  61   2.0000      -0.666679       -18.1412
  62   2.0000      -0.661040       -17.9878
  63   2.0000      -0.648503       -17.6467
  64   2.0000      -0.645481       -17.5644
  65   2.0000      -0.630403       -17.1541
  66   2.0000      -0.602357       -16.3910
  67   2.0000      -0.586932       -15.9712
  68   2.0000      -0.582524       -15.8513
  69   2.0000      -0.547610       -14.9012
  70   2.0000      -0.540258       -14.7012
  71   2.0000      -0.536452       -14.5976
  72   2.0000      -0.533746       -14.5240
  73   2.0000      -0.519963       -14.1489
  74   2.0000      -0.510076       -13.8799
  75   2.0000      -0.503324       -13.6961
  76   2.0000      -0.497206       -13.5297
  77   2.0000      -0.471015       -12.8170
  78   2.0000      -0.462292       -12.5796
  79   2.0000      -0.456074       -12.4104
  80   2.0000      -0.441688       -12.0190
  81   2.0000      -0.437928       -11.9166
  82   2.0000      -0.437838       -11.9142
  83   2.0000      -0.420498       -11.4423
  84   2.0000      -0.415657       -11.3106
  85   2.0000      -0.413416       -11.2496
  86   2.0000      -0.403792       -10.9877
  87   2.0000      -0.392332       -10.6759
  88   2.0000      -0.389063       -10.5869
  89   2.0000      -0.386771       -10.5246
  90   2.0000      -0.380633       -10.3576
  91   2.0000      -0.373436       -10.1617
  92   2.0000      -0.371700       -10.1145
  93   2.0000      -0.366276        -9.9669
  94   2.0000      -0.365366        -9.9421
  95   2.0000      -0.356122        -9.6906
  96   2.0000      -0.355095        -9.6626
  97   2.0000      -0.343492        -9.3469
  98   2.0000      -0.339496        -9.2381
  99   2.0000      -0.337939        -9.1958
 100   2.0000      -0.333635        -9.0787
 101   2.0000      -0.324993        -8.8435
 102   2.0000      -0.322171        -8.7667
 103   2.0000      -0.321097        -8.7375
 104   2.0000      -0.319474        -8.6933
 105   2.0000      -0.317350        -8.6355
 106   2.0000      -0.316143        -8.6027
 107   2.0000      -0.309657        -8.4262
 108   2.0000      -0.303923        -8.2702
 109   2.0000      -0.293870        -7.9966
 110   2.0000      -0.290788        -7.9127
 111   2.0000      -0.290583        -7.9072
 112   2.0000      -0.282242        -7.6802
 113   2.0000      -0.274821        -7.4783
 114   2.0000      -0.273143        -7.4326
 115   2.0000      -0.264194        -7.1891
 116   2.0000      -0.248306        -6.7568
 117   2.0000      -0.245712        -6.6862
 118   2.0000      -0.236772        -6.4429
 119   2.0000      -0.234595        -6.3837
 120   2.0000      -0.230314        -6.2672
 121   2.0000      -0.229424        -6.2429
 122   2.0000      -0.224421        -6.1068
 123   2.0000      -0.217847        -5.9279
 124   2.0000      -0.212689        -5.7876
 125   2.0000      -0.209325        -5.6960
 126   2.0000      -0.200147        -5.4463
 127   2.0000      -0.194297        -5.2871
 128   2.0000      -0.187518        -5.1026
 129   2.0000      -0.182950        -4.9783
 130   2.0000      -0.178593        -4.8598
 131   2.0000      -0.171994        -4.6802
 132   2.0000      -0.161896        -4.4054
 133   2.0000      -0.158714        -4.3188
 134   2.0000      -0.151880        -4.1329
 135   2.0000      -0.143285        -3.8990
 136   2.0000      -0.132189        -3.5970
 137   2.0000      -0.062455        -1.6995
 138   2.0000      -0.040704        -1.1076
 139   2.0000      -0.023939        -0.6514
 140   0.0000       0.000522         0.0142
 141   0.0000       0.032870         0.8944
 142   0.0000       0.061496         1.6734
 143   0.0000       0.064226         1.7477
 144   0.0000       0.072288         1.9670

MULLIKEN ATOMIC CHARGES
-----------------------
   0 C :   -0.545815
   1 C :    0.108699
   2 C :    0.317269
   3 N :   -0.608067
   4 C :   -0.253623
   5 C :    0.177260
   6 C :   -0.172253
   7 C :   -0.172466
   8 C :    0.368434
   9 O :   -0.527016
  10 C :   -0.019303
  11 C :   -0.100209
  12 C :   -0.299560
  13 C :   -0.318140
  14 C :   -0.143015
  15 Cl:   -0.034582
  16 C :   -0.144550
  17 S :    1.192774
  18 O :   -0.561993
  19 O :   -0.543715
  20 C :   -0.154943
  21 C :   -0.153997
  22 C :   -0.159663
  23 C :    0.106390
  24 C :    0.410557
  25 O :   -0.551816
  26 O :   -0.655744
  27 C :   -0.154335
  28 C :   -0.163258
  29 N :   -0.364097
  30 C :   -0.055582
  31 C :    0.138976
  32 C :   -0.203756
  33 C :   -0.128143
  34 C :   -0.123246
  35 C :   -0.197319
  36 C :    0.121401
  37 H :    0.148414
  38 H :    0.173939
  39 H :    0.189333
  40 H :    0.170833
  41 H :    0.163601
  42 H :    0.148550
  43 H :    0.142378
  44 H :    0.150001
  45 H :    0.132111
  46 H :    0.150337
  47 H :    0.149472
  48 H :    0.142179
  49 H :    0.142367
  50 H :    0.146650
  51 H :    0.164999
  52 H :    0.140507
  53 H :    0.145704
  54 H :    0.152499
  55 H :    0.158973
  56 H :    0.143740
  57 H :    0.128714
  58 H :    0.121237
  59 H :    0.125070
  60 H :    0.136841
Sum of atomic charges:   -1.0000000

LOEWDIN ATOMIC CHARGES
----------------------
   0 C :   -0.360706
   1 C :   -0.009850
   2 C :    0.041101
   3 N :   -0.295288
   4 C :   -0.146721
   5 C :   -0.040015
   6 C :   -0.122695
   7 C :   -0.143199
   8 C :    0.085534
   9 O :   -0.192920
  10 C :   -0.081719
  11 C :   -0.141285
  12 C :   -0.254455
  13 C :   -0.259490
  14 C :   -0.122354
  15 Cl:    0.022544
  16 C :   -0.110563
  17 S :    1.264440
  18 O :   -0.590165
  19 O :   -0.578511
  20 C :   -0.218356
  21 C :   -0.125815
  22 C :   -0.114972
  23 C :   -0.002687
  24 C :    0.070064
  25 O :   -0.377595
  26 O :   -0.503460
  27 C :   -0.110372
  28 C :   -0.129279
  29 N :   -0.114214
  30 C :   -0.064090
  31 C :   -0.029667
  32 C :   -0.114698
  33 C :   -0.135327
  34 C :   -0.125293
  35 C :   -0.123453
  36 C :   -0.006453
  37 H :    0.130078
  38 H :    0.143190
  39 H :    0.147937
  40 H :    0.132136
  41 H :    0.139652
  42 H :    0.140797
  43 H :    0.144010
  44 H :    0.120135
  45 H :    0.115198
  46 H :    0.135062
  47 H :    0.131790
  48 H :    0.129395
  49 H :    0.129713
  50 H :    0.129894
  51 H :    0.151435
  52 H :    0.136665
  53 H :    0.146091
  54 H :    0.150338
  55 H :    0.145353
  56 H :    0.133200
  57 H :    0.132442
  58 H :    0.128579
  59 H :    0.130764
  60 H :    0.138126

  Mayer bond orders larger than 0.100000
B(  0-C ,  1-C ) :   1.0013 B(  0-C , 37-H ) :   0.9296 B(  0-C , 38-H ) :   0.9246
B(  0-C , 39-H ) :   0.9227 B(  1-C ,  2-C ) :   1.4304 B(  1-C , 30-C ) :   0.1055
B(  1-C , 36-C ) :   1.2646 B(  2-C ,  3-N ) :   0.9186 B(  2-C , 29-N ) :   1.2870
B(  3-N ,  4-C ) :   0.9334 B(  3-N , 17-S ) :   0.7698 B(  4-C ,  5-C ) :   0.9601
B(  4-C , 40-H ) :   0.9186 B(  4-C , 41-H ) :   0.9223 B(  5-C ,  6-C ) :   1.4303
B(  5-C , 16-C ) :   1.4300 B(  6-C ,  7-C ) :   1.4328 B(  6-C , 42-H ) :   0.9141
B(  7-C ,  8-C ) :   1.4027 B(  7-C , 43-H ) :   0.9179 B(  8-C ,  9-O ) :   0.9198
B(  8-C , 14-C ) :   1.3065 B(  9-O , 10-C ) :   0.8798 B( 10-C , 11-C ) :   1.0233
B( 10-C , 44-H ) :   0.9190 B( 10-C , 45-H ) :   0.9176 B( 11-C , 12-C ) :   0.9554
B( 11-C , 13-C ) :   0.9422 B( 11-C , 46-H ) :   0.9323 B( 12-C , 13-C ) :   0.9632
B( 12-C , 47-H ) :   0.9455 B( 12-C , 48-H ) :   0.9479 B( 13-C , 49-H ) :   0.9468
B( 13-C , 50-H ) :   0.9442 B( 14-C , 15-Cl) :   0.9924 B( 14-C , 16-C ) :   1.4031
B( 16-C , 51-H ) :   0.8988 B( 17-S , 18-O ) :   1.6274 B( 17-S , 19-O ) :   1.6518
B( 17-S , 20-C ) :   0.8397 B( 20-C , 21-C ) :   1.3609 B( 20-C , 28-C ) :   1.3651
B( 21-C , 22-C ) :   1.4152 B( 21-C , 52-H ) :   0.9189 B( 22-C , 23-C ) :   1.3861
B( 22-C , 53-H ) :   0.9070 B( 23-C , 24-C ) :   0.9266 B( 23-C , 27-C ) :   1.4037
B( 24-C , 25-O ) :   1.7074 B( 24-C , 26-O ) :   1.5525 B( 25-O , 26-O ) :   0.1482
B( 27-C , 28-C ) :   1.3953 B( 27-C , 54-H ) :   0.9020 B( 28-C , 55-H ) :   0.9131
B( 29-N , 30-C ) :   1.4932 B( 30-C , 31-C ) :   1.2338 B( 30-C , 56-H ) :   0.9285
B( 31-C , 32-C ) :   1.2845 B( 31-C , 36-C ) :   1.2904 B( 32-C , 33-C ) :   1.5140
B( 32-C , 35-C ) :   0.1070 B( 32-C , 57-H ) :   0.9244 B( 33-C , 34-C ) :   1.3524
B( 33-C , 58-H ) :   0.9315 B( 34-C , 35-C ) :   1.5105 B( 34-C , 59-H ) :   0.9311
B( 35-C , 36-C ) :   1.2936 B( 35-C , 60-H ) :   0.9162

FINAL SINGLE POINT ENERGY     -2424.254894029459

DIPOLE MOMENT
-------------

Method             : SCF
Type of density    : Electron Density
Multiplicity       :   1
Irrep              :   0
Energy             : -2424.2548940294591375 Eh
Relativity type    :
Basis              : AO
                                X                 Y                 Z
Electronic contribution:     -8.524131792      -5.572085322      -8.736132915
Nuclear contribution   :     13.546054023      -2.701427658      12.878301430
                        -----------------------------------------
Total Dipole Moment    :      5.021922231      -8.273512980       4.142168514
                        -----------------------------------------
Magnitude (a.u.)       :     10.527501125
Magnitude (Debye)      :     26.758781304

Rotational constants in cm-1:             0.002982             0.002057             0.001293
Rotational constants in MHz :            89.392381            61.670985            38.753768

                             ****ORCA TERMINATED NORMALLY****
TOTAL RUN TIME: 0 days 0 hours 12 minutes 22 seconds 659 msec
