                         Program Version 6.0.0  -   RELEASE  -
|  1> ! B3LYP 6-31G* SP
|  2>
|  3> * xyz 0 1
|  4> C 5.4428 -0.7441 -0.6331
|  5> C 4.9211 0.1006 0.5235
|  6> O 3.5118 -0.0620 0.6697
|  7> C 2.5738 0.5337 -0.1815
|  8> O 2.9477 1.3038 -1.1076
|  9> C 1.1410 0.2681 0.0070
| 10> S -0.0995 0.9146 -0.9276
| 11> C -1.3199 0.1266 -0.0670
| 12> C -2.7726 0.2253 -0.3383
| 13> C -3.6898 -0.4864 0.4573
| 14> C -5.0626 -0.3982 0.2073
| 15> C -5.5352 0.3992 -0.8371
| 16> C -4.6356 1.1106 -1.6344
| 17> F -5.0957 1.8845 -2.6481
| 18> C -3.2611 1.0260 -1.3885
| 19> N -0.7966 -0.6275 0.9282
| 20> C 0.5610 -0.5518 0.9717
| 21> O 1.3016 -1.2509 1.9192
| 22> H 5.1817 -1.8112 -0.4705
| 23> H 6.5472 -0.6491 -0.6962
| 24> H 5.0006 -0.4031 -1.5924
| 25> H 5.4143 -0.2345 1.4602
| 26> H 5.1737 1.1716 0.3649
| 27> H -3.3475 -1.1111 1.2728
| 28> H -5.7608 -0.9490 0.8243
| 29> H -6.5987 0.4650 -1.0278
| 30> H -2.5853 1.5870 -2.0206
| 31> H 0.8423 -1.8378 2.6050
| 32> *
| 33>
| 34>                          ****END OF INPUT****

CARTESIAN COORDINATES (ANGSTROEM)
---------------------------------
  C      5.442800   -0.744100   -0.633100
  C      4.921100    0.100600    0.523500
  O      3.511800   -0.062000    0.669700
  C      2.573800    0.533700   -0.181500
  O      2.947700    1.303800   -1.107600
  C      1.141000    0.268100    0.007000
  S     -0.099500    0.914600   -0.927600
  C     -1.319900    0.126600   -0.067000
  C     -2.772600    0.225300   -0.338300
  C     -3.689800   -0.486400    0.457300
  C     -5.062600   -0.398200    0.207300
  C     -5.535200    0.399200   -0.837100
  C     -4.635600    1.110600   -1.634400
  F     -5.095700    1.884500   -2.648100
  C     -3.261100    1.026000   -1.388500
  N     -0.796600   -0.627500    0.928200
  C      0.561000   -0.551800    0.971700
  O      1.301600   -1.250900    1.919200
  H      5.181700   -1.811200   -0.470500
  H      6.547200   -0.649100   -0.696200
  H      5.000600   -0.403100   -1.592400
  H      5.414300   -0.234500    1.460200
  H      5.173700    1.171600    0.364900
  H     -3.347500   -1.111100    1.272800
  H     -5.760800   -0.949000    0.824300
  H     -6.598700    0.465000   -1.027800
  H     -2.585300    1.587000   -2.020600
  H      0.842300   -1.837800    2.605000

 Total Charge           Charge          ....    0
 Multiplicity           Mult            ....    1
 Number of Electrons    NEL             ....  138
 Basis Dimension        Dim             ....  276

ORBITAL ENERGIES
----------------

  NO   OCC          E(Eh)            E(eV)
   0   2.0000     -88.912850     -2419.4416
   1   2.0000     -24.708900      -672.3634
   2   2.0000     -19.183821      -522.0183
   3   2.0000     -19.171733      -521.6894
   4   2.0000     -19.119814      -520.2766
   5   2.0000     -14.343518      -390.3070
   6   2.0000     -10.321033      -280.8496
   7   2.0000     -10.296342      -280.1777
   8   2.0000     -10.283395      -279.8254
   9   2.0000     -10.271925      -279.5133
  10   2.0000     -10.233737      -278.4741
  11   2.0000     -10.227045      -278.2920
  12   2.0000     -10.226857      -278.2869
  13   2.0000     -10.207867      -277.7702
  14   2.0000     -10.204595      -277.6811
  15   2.0000     -10.203306      -277.6461
  16   2.0000     -10.199949      -277.5547
  17   2.0000     -10.167650      -276.6758
  18   2.0000      -7.989238      -217.3982
  19   2.0000      -5.952285      -161.9699
  20   2.0000      -5.948223      -161.8594
  21   2.0000      -5.946225      -161.8050
  22   2.0000      -1.221932       -33.2505
  23   2.0000      -1.069101       -29.0917
  24   2.0000      -1.052511       -28.6403
  25   2.0000      -0.985286       -26.8110
  26   2.0000      -0.970524       -26.4093
  27   2.0000      -0.875188       -23.8151
  28   2.0000      -0.825063       -22.4511
  29   2.0000      -0.796166       -21.6648
  30   2.0000      -0.761680       -20.7264
  31   2.0000      -0.760786       -20.7020
  32   2.0000      -0.736780       -20.0488
  33   2.0000      -0.669020       -18.2050
  34   2.0000      -0.641790       -17.4640
  35   2.0000      -0.631161       -17.1748
  36   2.0000      -0.609573       -16.5873
  37   2.0000      -0.592934       -16.1346
  38   2.0000      -0.554963       -15.1013
  39   2.0000      -0.544973       -14.8295
  40   2.0000      -0.533053       -14.5051
  41   2.0000      -0.508353       -13.8330
  42   2.0000      -0.501212       -13.6387
  43   2.0000      -0.481178       -13.0935
  44   2.0000      -0.469922       -12.7872
  45   2.0000      -0.465245       -12.6599
  46   2.0000      -0.460454       -12.5296
  47   2.0000      -0.454375       -12.3642
  48   2.0000      -0.445139       -12.1128
  49   2.0000      -0.434806       -11.8317
  50   2.0000      -0.427742       -11.6394
  51   2.0000      -0.405261       -11.0277
  52   2.0000      -0.391513       -10.6536
  53   2.0000      -0.387901       -10.5553
  54   2.0000      -0.384719       -10.4687
  55   2.0000      -0.382889       -10.4190
  56   2.0000      -0.371062       -10.0971
  57   2.0000      -0.370908       -10.0929
  58   2.0000      -0.360374        -9.8063
  59   2.0000      -0.356299        -9.6954
  60   2.0000      -0.352587        -9.5944
  61   2.0000      -0.319682        -8.6990
  62   2.0000      -0.296676        -8.0730
  63   2.0000      -0.291770        -7.9395
  64   2.0000      -0.278232        -7.5711
  65   2.0000      -0.275653        -7.5009
  66   2.0000      -0.256932        -6.9915
  67   2.0000      -0.255181        -6.9438
  68   2.0000      -0.226477        -6.1628
  69   0.0000      -0.077118        -2.0985
  70   0.0000      -0.013835        -0.3765
  71   0.0000      -0.010796        -0.2938
  72   0.0000       0.017763         0.4833
  73   0.0000       0.037662         1.0248

MULLIKEN ATOMIC CHARGES
-----------------------
   0 C :   -0.459818
   1 C :   -0.017566
   2 O :   -0.469196
   3 C :    0.598011
   4 O :   -0.478206
   5 C :   -0.262877
   6 S :    0.324124
   7 C :   -0.018326
   8 C :    0.156189
   9 C :   -0.158302
  10 C :   -0.116388
  11 C :   -0.198749
  12 C :    0.413459
  13 F :   -0.313598
  14 C :   -0.278240
  15 N :   -0.427724
  16 C :    0.506408
  17 O :   -0.628832
  18 H :    0.151681
  19 H :    0.140683
  20 H :    0.177892
  21 H :    0.150636
  22 H :    0.154870
  23 H :    0.162018
  24 H :    0.147867
  25 H :    0.151678
  26 H :    0.165821
  27 H :    0.426486
Sum of atomic charges:   -0.0000000

LOEWDIN ATOMIC CHARGES
----------------------
   0 C :   -0.374965
   1 C :   -0.089426
   2 O :   -0.166502
   3 C :    0.183633
   4 O :   -0.279528
   5 C :   -0.269807
   6 S :    0.446669
   7 C :   -0.105357
   8 C :   -0.022781
   9 C :   -0.112864
  10 C :   -0.116306
  11 C :   -0.147002
  12 C :    0.120894
  13 F :   -0.099690
  14 C :   -0.150167
  15 N :   -0.187366
  16 C :    0.106210
  17 O :   -0.319945
  18 H :    0.127857
  19 H :    0.128148
  20 H :    0.139943
  21 H :    0.127455
  22 H :    0.124535
  23 H :    0.150101
  24 H :    0.141484
  25 H :    0.146698
  26 H :    0.152594
  27 H :    0.345485

  Mayer bond orders larger than 0.100000
B(  0-C ,  1-C ) :   1.0112 B(  0-C , 18-H ) :   0.9482 B(  0-C , 19-H ) :   0.9427
B(  0-C , 20-H ) :   0.9402 B(  1-C ,  2-O ) :   0.8704 B(  1-C , 21-H ) :   0.9397
B(  1-C , 22-H ) :   0.9251 B(  2-O ,  3-C ) :   1.0214 B(  3-C ,  4-O ) :   1.7529
B(  3-C ,  5-C ) :   1.0492 B(  5-C ,  6-S ) :   1.0857 B(  5-C ,  7-C ) :   0.1149
B(  5-C , 16-C ) :   1.3886 B(  6-S ,  7-C ) :   1.1745 B(  7-C ,  8-C ) :   1.0237
B(  7-C , 15-N ) :   1.4320 B(  8-C ,  9-C ) :   1.4083 B(  8-C , 14-C ) :   1.3557
B(  9-C , 10-C ) :   1.4341 B(  9-C , 23-H ) :   0.9118 B( 10-C , 11-C ) :   1.4232
B( 10-C , 24-H ) :   0.9283 B( 11-C , 12-C ) :   1.3870 B( 11-C , 25-H ) :   0.9196
B( 12-C , 13-F ) :   0.9168 B( 12-C , 14-C ) :   1.3933 B( 14-C , 26-H ) :   0.9062
B( 15-N , 16-C ) :   1.2920 B( 16-C , 17-O ) :   1.0122 B( 17-O , 27-H ) :   0.7537

FINAL SINGLE POINT ENERGY     -1241.197864500517

DIPOLE MOMENT
-------------

Method             : SCF
Type of density    : Electron Density
Multiplicity       :   1
Irrep              :   0
Energy             : -1241.1978645005174258 Eh
Relativity type    :
Basis              : AO
                                X                 Y                 Z
Electronic contribution:    -18.498111243       6.683153022      -4.687459828
Nuclear contribution   :     17.796600846      -7.589570358       5.643925254
                        -----------------------------------------
Total Dipole Moment    :     -0.701510398      -0.906417336       0.956465426
                        -----------------------------------------
Magnitude (a.u.)       :      1.492827966
Magnitude (Debye)      :      3.794467137

Rotational constants in cm-1:             0.036967             0.005172             0.004608
Rotational constants in MHz :          1108.251735           155.039873           138.132922

                             ****ORCA TERMINATED NORMALLY****
TOTAL RUN TIME: 0 days 0 hours 2 minutes 51 seconds 273 msec
