                         Program Version 6.0.0  -   RELEASE  -
|  1> ! B3LYP 6-31G* SP
|  2>
|  3> * xyz 0 1
|  4> C -5.1989 -1.6190 -0.8369
|  5> C -3.7098 -1.6029 -0.6939
|  6> N -2.9515 -2.7231 -0.6432
|  7> C -1.6807 -2.3012 -0.5253
|  8> C -0.5386 -3.0910 -0.4213
|  9> C 0.7017 -2.4418 -0.2917
| 10> C 0.7838 -1.0302 -0.2663
| 11> O 2.0496 -0.4427 -0.1291
| 12> C 2.2836 0.9618 -0.0803
| 13> C 3.7544 1.2105 0.0811
| 14> C 4.5822 1.3216 -1.0483
| 15> C 5.9587 1.5157 -0.8955
| 16> C 6.5187 1.5867 0.3832
| 17> C 5.7033 1.4604 1.5114
| 18> C 4.3262 1.2672 1.3629
| 19> C -0.3987 -0.2579 -0.3767
| 20> C -1.6136 -0.9318 -0.5057
| 21> C -2.9091 -0.4613 -0.6220
| 22> C -3.3645 0.9724 -0.6012
| 23> C -3.7165 1.4378 0.8153
| 24> N -2.5196 1.5293 1.6476
| 25> H -5.5818 -2.6594 -0.7783
| 26> H -5.6630 -1.0231 -0.0242
| 27> H -5.4829 -1.1862 -1.8185
| 28> H -3.2841 -3.7126 -0.6821
| 29> H -0.6024 -4.1714 -0.4359
| 30> H 1.6041 -3.0337 -0.2073
| 31> H 1.9190 1.4366 -1.0175
| 32> H 1.7284 1.4064 0.7747
| 33> H 4.1625 1.2580 -2.0447
| 34> H 6.5920 1.6072 -1.7686
| 35> H 7.5844 1.7352 0.4998
| 36> H 6.1389 1.5089 2.5010
| 37> H 3.7069 1.1619 2.2450
| 38> H -0.3759 0.8228 -0.3589
| 39> H -4.2618 1.0769 -1.2477
| 40> H -2.5772 1.6297 -1.0282
| 41> H -4.1856 2.4437 0.7448
| 42> H -4.4568 0.7488 1.2801
| 43> H -2.7821 2.0276 2.5285
| 44> H -2.2433 0.5620 1.9331
| 45> *
| 46>
| 47>                          ****END OF INPUT****

CARTESIAN COORDINATES (ANGSTROEM)
---------------------------------
  C     -5.198900   -1.619000   -0.836900
  C     -3.709800   -1.602900   -0.693900
  N     -2.951500   -2.723100   -0.643200
  C     -1.680700   -2.301200   -0.525300
  C     -0.538600   -3.091000   -0.421300
  C      0.701700   -2.441800   -0.291700
  C      0.783800   -1.030200   -0.266300
  O      2.049600   -0.442700   -0.129100
  C      2.283600    0.961800   -0.080300
  C      3.754400    1.210500    0.081100
  C      4.582200    1.321600   -1.048300
  C      5.958700    1.515700   -0.895500
  C      6.518700    1.586700    0.383200
  C      5.703300    1.460400    1.511400
  C      4.326200    1.267200    1.362900
  C     -0.398700   -0.257900   -0.376700
  C     -1.613600   -0.931800   -0.505700
  C     -2.909100   -0.461300   -0.622000
  C     -3.364500    0.972400   -0.601200
  C     -3.716500    1.437800    0.815300
  N     -2.519600    1.529300    1.647600
  H     -5.581800   -2.659400   -0.778300
  H     -5.663000   -1.023100   -0.024200
  H     -5.482900   -1.186200   -1.818500
  H     -3.284100   -3.712600   -0.682100
  H     -0.602400   -4.171400   -0.435900
  H      1.604100   -3.033700   -0.207300
  H      1.919000    1.436600   -1.017500
  H      1.728400    1.406400    0.774700
  H      4.162500    1.258000   -2.044700
  H      6.592000    1.607200   -1.768600
  H      7.584400    1.735200    0.499800
  H      6.138900    1.508900    2.501000
  H      3.706900    1.161900    2.245000
  H     -0.375900    0.822800   -0.358900
  H     -4.261800    1.076900   -1.247700
  H     -2.577200    1.629700   -1.028200
  H     -4.185600    2.443700    0.744800
  H     -4.456800    0.748800    1.280100
  H     -2.782100    2.027600    2.528500
  H     -2.243300    0.562000    1.933100

 Total Charge           Charge          ....    0
 Multiplicity           Mult            ....    1
 Number of Electrons    NEL             ....  150
 Basis Dimension        Dim             ....  334

ORBITAL ENERGIES
----------------

  NO   OCC          E(Eh)            E(eV)
   0   2.0000     -19.140930      -520.8512
   1   2.0000     -14.364425      -390.8759
   2   2.0000     -14.297199      -389.0466
   3   2.0000     -10.222833      -278.1774
   4   2.0000     -10.219980      -278.0998
   5   2.0000     -10.201704      -277.6025
   6   2.0000     -10.192161      -277.3428
   7   2.0000     -10.184644      -277.1383
   8   2.0000     -10.183965      -277.1198
   9   2.0000     -10.181261      -277.0462
  10   2.0000     -10.175994      -276.9029
  11   2.0000     -10.175561      -276.8911
  12   2.0000     -10.175481      -276.8889
  13   2.0000     -10.175082      -276.8781
  14   2.0000     -10.175011      -276.8761
  15   2.0000     -10.167858      -276.6815
  16   2.0000     -10.167411      -276.6693
  17   2.0000     -10.159111      -276.4435
  18   2.0000     -10.153374      -276.2873
  19   2.0000     -10.150354      -276.2052
  20   2.0000     -10.147562      -276.1292
  21   2.0000      -1.021428       -27.7945
  22   2.0000      -0.984469       -26.7888
  23   2.0000      -0.866114       -23.5681
  24   2.0000      -0.844375       -22.9766
  25   2.0000      -0.823167       -22.3995
  26   2.0000      -0.788908       -21.4673
  27   2.0000      -0.764143       -20.7934
  28   2.0000      -0.742096       -20.1935
  29   2.0000      -0.734912       -19.9980
  30   2.0000      -0.720810       -19.6142
  31   2.0000      -0.706163       -19.2157
  32   2.0000      -0.678930       -18.4746
  33   2.0000      -0.654903       -17.8208
  34   2.0000      -0.610641       -16.6164
  35   2.0000      -0.596709       -16.2373
  36   2.0000      -0.588183       -16.0053
  37   2.0000      -0.571367       -15.5477
  38   2.0000      -0.566065       -15.4034
  39   2.0000      -0.539442       -14.6790
  40   2.0000      -0.521157       -14.1814
  41   2.0000      -0.504389       -13.7251
  42   2.0000      -0.498008       -13.5515
  43   2.0000      -0.477370       -12.9899
  44   2.0000      -0.462236       -12.5781
  45   2.0000      -0.458925       -12.4880
  46   2.0000      -0.454964       -12.3802
  47   2.0000      -0.446422       -12.1478
  48   2.0000      -0.436422       -11.8756
  49   2.0000      -0.430785       -11.7222
  50   2.0000      -0.419858       -11.4249
  51   2.0000      -0.414984       -11.2923
  52   2.0000      -0.407651       -11.0927
  53   2.0000      -0.404028       -10.9941
  54   2.0000      -0.401075       -10.9138
  55   2.0000      -0.396555       -10.7908
  56   2.0000      -0.394560       -10.7365
  57   2.0000      -0.373822       -10.1722
  58   2.0000      -0.371744       -10.1157
  59   2.0000      -0.362304        -9.8588
  60   2.0000      -0.351468        -9.5639
  61   2.0000      -0.349203        -9.5023
  62   2.0000      -0.340673        -9.2702
  63   2.0000      -0.340343        -9.2612
  64   2.0000      -0.331892        -9.0312
  65   2.0000      -0.327769        -8.9190
  66   2.0000      -0.318836        -8.6760
  67   2.0000      -0.291687        -7.9372
  68   2.0000      -0.274496        -7.4694
  69   2.0000      -0.256985        -6.9929
  70   2.0000      -0.240506        -6.5445
  71   2.0000      -0.238824        -6.4987
  72   2.0000      -0.224051        -6.0967
  73   2.0000      -0.184085        -5.0092
  74   2.0000      -0.175029        -4.7628
  75   0.0000       0.000753         0.0205
  76   0.0000       0.006818         0.1855
  77   0.0000       0.008506         0.2315
  78   0.0000       0.056249         1.5306
  79   0.0000       0.067445         1.8353

MULLIKEN ATOMIC CHARGES
-----------------------
   0 C :   -0.524717
   1 C :    0.254312
   2 N :   -0.674087
   3 C :    0.288529
   4 C :   -0.188866
   5 C :   -0.193040
   6 C :    0.351046
   7 O :   -0.521585
   8 C :   -0.096570
   9 C :    0.139113
  10 C :   -0.155606
  11 C :   -0.130326
  12 C :   -0.121469
  13 C :   -0.130346
  14 C :   -0.155249
  15 C :   -0.299008
  16 C :    0.113361
  17 C :    0.011030
  18 C :   -0.317254
  19 C :   -0.128334
  20 N :   -0.705890
  21 H :    0.137966
  22 H :    0.168810
  23 H :    0.169754
  24 H :    0.325428
  25 H :    0.111964
  26 H :    0.124317
  27 H :    0.129168
  28 H :    0.136792
  29 H :    0.130240
  30 H :    0.127068
  31 H :    0.126177
  32 H :    0.126833
  33 H :    0.130247
  34 H :    0.143158
  35 H :    0.123183
  36 H :    0.148332
  37 H :    0.126373
  38 H :    0.109572
  39 H :    0.287591
  40 H :    0.301981
Sum of atomic charges:   -0.0000000

LOEWDIN ATOMIC CHARGES
----------------------
   0 C :   -0.359010
   1 C :   -0.010627
   2 N :   -0.114880
   3 C :   -0.012865
   4 C :   -0.150064
   5 C :   -0.165589
   6 C :    0.074447
   7 O :   -0.193483
   8 C :   -0.079583
   9 C :   -0.028108
  10 C :   -0.120514
  11 C :   -0.129835
  12 C :   -0.127543
  13 C :   -0.129905
  14 C :   -0.120254
  15 C :   -0.188649
  16 C :   -0.040714
  17 C :   -0.092666
  18 C :   -0.224668
  19 C :   -0.168152
  20 N :   -0.478503
  21 H :    0.126285
  22 H :    0.138639
  23 H :    0.140180
  24 H :    0.263254
  25 H :    0.125894
  26 H :    0.135422
  27 H :    0.112237
  28 H :    0.115728
  29 H :    0.133147
  30 H :    0.130679
  31 H :    0.130429
  32 H :    0.130593
  33 H :    0.133199
  34 H :    0.139634
  35 H :    0.120904
  36 H :    0.132362
  37 H :    0.112431
  38 H :    0.092627
  39 H :    0.219965
  40 H :    0.227557

  Mayer bond orders larger than 0.100000
B(  0-C ,  1-C ) :   1.0081 B(  0-C , 21-H ) :   0.9463 B(  0-C , 22-H ) :   0.9325
B(  0-C , 23-H ) :   0.9330 B(  1-C ,  2-N ) :   1.0758 B(  1-C , 17-C ) :   1.5031
B(  2-N ,  3-C ) :   0.9919 B(  2-N , 24-H ) :   0.8375 B(  3-C ,  4-C ) :   1.3509
B(  3-C , 16-C ) :   1.3142 B(  4-C ,  5-C ) :   1.4734 B(  4-C , 25-H ) :   0.9244
B(  5-C ,  6-C ) :   1.3406 B(  5-C , 26-H ) :   0.9222 B(  6-C ,  7-O ) :   0.8977
B(  6-C , 15-C ) :   1.3799 B(  7-O ,  8-C ) :   0.9076 B(  8-C ,  9-C ) :   0.9875
B(  8-C , 27-H ) :   0.9119 B(  8-C , 28-H ) :   0.9110 B(  9-C , 10-C ) :   1.4378
B(  9-C , 14-C ) :   1.4375 B( 10-C , 11-C ) :   1.4400 B( 10-C , 29-H ) :   0.9251
B( 11-C , 12-C ) :   1.4534 B( 11-C , 30-H ) :   0.9300 B( 12-C , 13-C ) :   1.4531
B( 12-C , 31-H ) :   0.9308 B( 13-C , 14-C ) :   1.4402 B( 13-C , 32-H ) :   0.9300
B( 14-C , 33-H ) :   0.9251 B( 15-C , 16-C ) :   1.3035 B( 15-C , 34-H ) :   0.9017
B( 16-C , 17-C ) :   1.2952 B( 17-C , 18-C ) :   1.0194 B( 18-C , 19-C ) :   0.9847
B( 18-C , 35-H ) :   0.9300 B( 18-C , 36-H ) :   0.9228 B( 19-C , 20-N ) :   1.0086
B( 19-C , 37-H ) :   0.9399 B( 19-C , 38-H ) :   0.9334 B( 20-N , 39-H ) :   0.8680
B( 20-N , 40-H ) :   0.8527

FINAL SINGLE POINT ENERGY      -882.091183902144

DIPOLE MOMENT
-------------

Method             : SCF
Type of density    : Electron Density
Multiplicity       :   1
Irrep              :   0
Energy             :  -882.0911839021435981 Eh
Relativity type    :
Basis              : AO
                                X                 Y                 Z
Electronic contribution:     12.150882949      -6.821504033      -2.312434264
Nuclear contribution   :    -13.321885269       6.362883055       2.576440226
                        -----------------------------------------
Total Dipole Moment    :     -1.171002321      -0.458620978       0.264005962
                        -----------------------------------------
Magnitude (a.u.)       :      1.285020928
Magnitude (Debye)      :      3.266263624

Rotational constants in cm-1:             0.023468             0.004223             0.003808
Rotational constants in MHz :           703.552770           126.600343           114.162956

                             ****ORCA TERMINATED NORMALLY****
TOTAL RUN TIME: 0 days 0 hours 3 minutes 46 seconds 411 msec
