                         Program Version 6.0.0  -   RELEASE  -
|  1> ! B3LYP 6-31G* SP
|  2>
|  3> * xyz 0 1
|  4> N -2.6795 1.2173 -2.1596
|  5> C -2.8764 0.1900 -1.1872
|  6> O -3.8698 -0.5801 -1.3117
|  7> C -2.0144 0.0933 0.0581
|  8> C -1.8380 -1.3298 0.5774
|  9> C -1.7785 -2.4477 -0.2836
| 10> C -1.5596 -3.7283 0.2297
| 11> C -1.4073 -3.9149 1.6055
| 12> C -1.4826 -2.8224 2.4725
| 13> C -1.6977 -1.5381 1.9637
| 14> N -0.7220 0.8402 -0.0568
| 15> C -0.6497 2.1573 0.5608
| 16> O -1.4110 2.4370 1.5258
| 17> C 0.3059 3.2029 0.1140
| 18> C 0.5957 3.4021 -1.2482
| 19> C 1.4952 4.3983 -1.6415
| 20> C 2.1097 5.2085 -0.6836
| 21> C 1.8190 5.0297 0.6684
| 22> C 0.9166 4.0386 1.0673
| 23> C 0.5406 0.2454 -0.5842
| 24> C 0.4130 -0.4224 -1.9726
| 25> C 1.1389 -1.7765 -1.8830
| 26> C 1.4286 -1.9405 -0.4336
| 27> C 1.9989 -3.0545 0.1943
| 28> Cl 2.4100 -4.4990 -0.7175
| 29> C 2.2405 -3.0000 1.5772
| 30> C 1.9327 -1.8374 2.3049
| 31> C 1.3674 -0.7306 1.6560
| 32> C 1.0924 -0.8206 0.2872
| 33> H -1.9380 1.9452 -2.0527
| 34> H -3.3119 1.2706 -2.9902
| 35> H -2.6530 0.5895 0.8205
| 36> H -1.8880 -2.3359 -1.3534
| 37> H -1.5023 -4.5759 -0.4410
| 38> H -1.2287 -4.9064 1.9997
| 39> H -1.3641 -2.9689 3.5393
| 40> H -1.7318 -0.7004 2.6504
| 41> H 0.1406 2.7836 -2.0079
| 42> H 1.7183 4.5391 -2.6892
| 43> H 2.8088 5.9761 -0.9903
| 44> H 2.2942 5.6596 1.4111
| 45> H 0.7102 3.9104 2.1221
| 46> H 1.3480 1.0005 -0.6540
| 47> H -0.6339 -0.5869 -2.2688
| 48> H 0.8832 0.2127 -2.7515
| 49> H 0.4993 -2.6053 -2.2561
| 50> H 2.0909 -1.7487 -2.4531
| 51> H 2.6740 -3.8499 2.0874
| 52> H 2.1313 -1.7959 3.3687
| 53> H 1.1343 0.1691 2.2094
| 54> *
| 55>
| 56>                          ****END OF INPUT****

CARTESIAN COORDINATES (ANGSTROEM)
---------------------------------
  N     -2.679500    1.217300   -2.159600
  C     -2.876400    0.190000   -1.187200
  O     -3.869800   -0.580100   -1.311700
  C     -2.014400    0.093300    0.058100
  C     -1.838000   -1.329800    0.577400
  C     -1.778500   -2.447700   -0.283600
  C     -1.559600   -3.728300    0.229700
  C     -1.407300   -3.914900    1.605500
  C     -1.482600   -2.822400    2.472500
  C     -1.697700   -1.538100    1.963700
  N     -0.722000    0.840200   -0.056800
  C     -0.649700    2.157300    0.560800
  O     -1.411000    2.437000    1.525800
  C      0.305900    3.202900    0.114000
  C      0.595700    3.402100   -1.248200
  C      1.495200    4.398300   -1.641500
  C      2.109700    5.208500   -0.683600
  C      1.819000    5.029700    0.668400
  C      0.916600    4.038600    1.067300
  C      0.540600    0.245400   -0.584200
  C      0.413000   -0.422400   -1.972600
  C      1.138900   -1.776500   -1.883000
  C      1.428600   -1.940500   -0.433600
  C      1.998900   -3.054500    0.194300
  Cl     2.410000   -4.499000   -0.717500
  C      2.240500   -3.000000    1.577200
  C      1.932700   -1.837400    2.304900
  C      1.367400   -0.730600    1.656000
  C      1.092400   -0.820600    0.287200
  H     -1.938000    1.945200   -2.052700
  H     -3.311900    1.270600   -2.990200
  H     -2.653000    0.589500    0.820500
  H     -1.888000   -2.335900   -1.353400
  H     -1.502300   -4.575900   -0.441000
  H     -1.228700   -4.906400    1.999700
  H     -1.364100   -2.968900    3.539300
  H     -1.731800   -0.700400    2.650400
  H      0.140600    2.783600   -2.007900
  H      1.718300    4.539100   -2.689200
  H      2.808800    5.976100   -0.990300
  H      2.294200    5.659600    1.411100
  H      0.710200    3.910400    2.122100
  H      1.348000    1.000500   -0.654000
  H     -0.633900   -0.586900   -2.268800
  H      0.883200    0.212700   -2.751500
  H      0.499300   -2.605300   -2.256100
  H      2.090900   -1.748700   -2.453100
  H      2.674000   -3.849900    2.087400
  H      2.131300   -1.795900    3.368700
  H      1.134300    0.169100    2.209400

 Total Charge           Charge          ....    0
 Multiplicity           Mult            ....    1
 Number of Electrons    NEL             ....  212
 Basis Dimension        Dim             ....  452

ORBITAL ENERGIES
----------------

  NO   OCC          E(Eh)            E(eV)
   0   2.0000    -101.525350     -2762.6452
   1   2.0000     -19.121917      -520.3338
   2   2.0000     -19.106719      -519.9203
   3   2.0000     -14.366763      -390.9395
   4   2.0000     -14.355492      -390.6328
   5   2.0000     -10.298115      -280.2260
   6   2.0000     -10.292120      -280.0628
   7   2.0000     -10.238708      -278.6094
   8   2.0000     -10.238582      -278.6060
   9   2.0000     -10.232464      -278.4395
  10   2.0000     -10.213562      -277.9252
  11   2.0000     -10.207243      -277.7532
  12   2.0000     -10.201775      -277.6044
  13   2.0000     -10.201556      -277.5985
  14   2.0000     -10.201332      -277.5924
  15   2.0000     -10.199182      -277.5339
  16   2.0000     -10.190146      -277.2880
  17   2.0000     -10.189763      -277.2775
  18   2.0000     -10.189281      -277.2644
  19   2.0000     -10.187193      -277.2076
  20   2.0000     -10.185657      -277.1658
  21   2.0000     -10.184819      -277.1430
  22   2.0000     -10.184181      -277.1257
  23   2.0000     -10.183390      -277.1041
  24   2.0000     -10.175871      -276.8995
  25   2.0000     -10.174840      -276.8715
  26   2.0000     -10.174792      -276.8702
  27   2.0000     -10.174187      -276.8537
  28   2.0000     -10.173254      -276.8283
  29   2.0000      -9.456898      -257.3353
  30   2.0000      -7.219841      -196.4618
  31   2.0000      -7.210645      -196.2116
  32   2.0000      -7.210246      -196.2008
  33   2.0000      -1.022185       -27.8151
  34   2.0000      -1.006447       -27.3868
  35   2.0000      -0.929301       -25.2876
  36   2.0000      -0.888366       -24.1737
  37   2.0000      -0.875371       -23.8201
  38   2.0000      -0.869494       -23.6601
  39   2.0000      -0.847378       -23.0583
  40   2.0000      -0.841524       -22.8990
  41   2.0000      -0.808015       -21.9872
  42   2.0000      -0.780967       -21.2512
  43   2.0000      -0.763352       -20.7719
  44   2.0000      -0.761042       -20.7090
  45   2.0000      -0.740816       -20.1586
  46   2.0000      -0.734562       -19.9885
  47   2.0000      -0.723469       -19.6866
  48   2.0000      -0.704061       -19.1585
  49   2.0000      -0.687816       -18.7164
  50   2.0000      -0.641825       -17.4649
  51   2.0000      -0.621927       -16.9235
  52   2.0000      -0.611724       -16.6458
  53   2.0000      -0.603324       -16.4173
  54   2.0000      -0.594394       -16.1743
  55   2.0000      -0.585836       -15.9414
  56   2.0000      -0.581139       -15.8136
  57   2.0000      -0.575382       -15.6570
  58   2.0000      -0.555532       -15.1168
  59   2.0000      -0.538171       -14.6444
  60   2.0000      -0.524158       -14.2631
  61   2.0000      -0.510435       -13.8897
  62   2.0000      -0.506498       -13.7825
  63   2.0000      -0.496098       -13.4995
  64   2.0000      -0.479115       -13.0374
  65   2.0000      -0.474515       -12.9122
  66   2.0000      -0.466981       -12.7072
  67   2.0000      -0.465651       -12.6710
  68   2.0000      -0.456306       -12.4167
  69   2.0000      -0.455166       -12.3857
  70   2.0000      -0.450849       -12.2682
  71   2.0000      -0.440764       -11.9938
  72   2.0000      -0.437315       -11.9000
  73   2.0000      -0.427597       -11.6355
  74   2.0000      -0.423661       -11.5284
  75   2.0000      -0.418981       -11.4011
  76   2.0000      -0.416200       -11.3254
  77   2.0000      -0.410325       -11.1655
  78   2.0000      -0.406435       -11.0596
  79   2.0000      -0.398050       -10.8315
  80   2.0000      -0.394106       -10.7242
  81   2.0000      -0.388073       -10.5600
  82   2.0000      -0.373769       -10.1708
  83   2.0000      -0.371000       -10.0954
  84   2.0000      -0.364756        -9.9255
  85   2.0000      -0.361477        -9.8363
  86   2.0000      -0.358824        -9.7641
  87   2.0000      -0.355504        -9.6737
  88   2.0000      -0.352827        -9.6009
  89   2.0000      -0.350598        -9.5403
  90   2.0000      -0.346432        -9.4269
  91   2.0000      -0.344325        -9.3696
  92   2.0000      -0.336313        -9.1515
  93   2.0000      -0.329639        -8.9699
  94   2.0000      -0.317687        -8.6447
  95   2.0000      -0.306929        -8.3520
  96   2.0000      -0.276052        -7.5118
  97   2.0000      -0.267914        -7.2903
  98   2.0000      -0.264871        -7.2075
  99   2.0000      -0.259176        -7.0525
 100   2.0000      -0.257229        -6.9996
 101   2.0000      -0.248524        -6.7627
 102   2.0000      -0.248046        -6.7497
 103   2.0000      -0.230510        -6.2725
 104   2.0000      -0.224004        -6.0955
 105   2.0000      -0.219027        -5.9600
 106   0.0000      -0.050528        -1.3749
 107   0.0000      -0.023734        -0.6458
 108   0.0000      -0.017699        -0.4816
 109   0.0000      -0.012141        -0.3304
 110   0.0000       0.007215         0.1963

MULLIKEN ATOMIC CHARGES
-----------------------
   0 N :   -0.778241
   1 C :    0.561216
   2 O :   -0.474215
   3 C :   -0.144542
   4 C :    0.154529
   5 C :   -0.151353
   6 C :   -0.132642
   7 C :   -0.118344
   8 C :   -0.119080
   9 C :   -0.171439
  10 N :   -0.461038
  11 C :    0.443515
  12 O :   -0.467458
  13 C :    0.079368
  14 C :   -0.173618
  15 C :   -0.130804
  16 C :   -0.115236
  17 C :   -0.130004
  18 C :   -0.144308
  19 C :   -0.073959
  20 C :   -0.321120
  21 C :   -0.348556
  22 C :    0.133997
  23 C :   -0.125176
  24 Cl:   -0.022461
  25 C :   -0.135276
  26 C :   -0.118288
  27 C :   -0.179709
  28 C :    0.148595
  29 H :    0.345773
  30 H :    0.349121
  31 H :    0.230557
  32 H :    0.133205
  33 H :    0.131693
  34 H :    0.125999
  35 H :    0.125258
  36 H :    0.139896
  37 H :    0.135904
  38 H :    0.137639
  39 H :    0.139734
  40 H :    0.141881
  41 H :    0.158861
  42 H :    0.180575
  43 H :    0.168250
  44 H :    0.138151
  45 H :    0.162078
  46 H :    0.159935
  47 H :    0.143053
  48 H :    0.132544
  49 H :    0.135539
Sum of atomic charges:   -0.0000000

LOEWDIN ATOMIC CHARGES
----------------------
   0 N :   -0.401267
   1 C :    0.135045
   2 O :   -0.288535
   3 C :   -0.067969
   4 C :   -0.017525
   5 C :   -0.118048
   6 C :   -0.128625
   7 C :   -0.123044
   8 C :   -0.125822
   9 C :   -0.119054
  10 N :   -0.108917
  11 C :    0.136061
  12 O :   -0.273818
  13 C :   -0.049025
  14 C :   -0.128666
  15 C :   -0.128490
  16 C :   -0.114923
  17 C :   -0.124280
  18 C :   -0.095661
  19 C :   -0.053517
  20 C :   -0.237404
  21 C :   -0.223011
  22 C :   -0.023011
  23 C :   -0.088439
  24 Cl:    0.029085
  25 C :   -0.131902
  26 C :   -0.123998
  27 C :   -0.123671
  28 C :   -0.025258
  29 H :    0.247561
  30 H :    0.264827
  31 H :    0.185950
  32 H :    0.133763
  33 H :    0.133019
  34 H :    0.130550
  35 H :    0.130199
  36 H :    0.135969
  37 H :    0.130378
  38 H :    0.135860
  39 H :    0.136792
  40 H :    0.138005
  41 H :    0.148754
  42 H :    0.150896
  43 H :    0.135935
  44 H :    0.123290
  45 H :    0.135915
  46 H :    0.136123
  47 H :    0.140611
  48 H :    0.134463
  49 H :    0.134829

  Mayer bond orders larger than 0.100000
B(  0-N ,  1-C ) :   1.0675 B(  0-N , 29-H ) :   0.8008 B(  0-N , 30-H ) :   0.8243
B(  1-C ,  2-O ) :   1.8312 B(  1-C ,  3-C ) :   0.9119 B(  3-C ,  4-C ) :   0.9609
B(  3-C , 10-N ) :   0.8836 B(  3-C , 31-H ) :   0.8743 B(  4-C ,  5-C ) :   1.4302
B(  4-C ,  9-C ) :   1.4226 B(  5-C ,  6-C ) :   1.4366 B(  5-C , 32-H ) :   0.9136
B(  6-C ,  7-C ) :   1.4487 B(  6-C , 33-H ) :   0.9287 B(  7-C ,  8-C ) :   1.4545
B(  7-C , 34-H ) :   0.9304 B(  8-C ,  9-C ) :   1.4369 B(  8-C , 35-H ) :   0.9302
B(  9-C , 36-H ) :   0.9203 B( 10-N , 11-C ) :   1.0285 B( 10-N , 19-C ) :   0.9338
B( 11-C , 12-O ) :   1.7916 B( 11-C , 13-C ) :   0.9658 B( 13-C , 14-C ) :   1.3875
B( 13-C , 18-C ) :   1.4123 B( 14-C , 15-C ) :   1.4394 B( 14-C , 37-H ) :   0.9136
B( 15-C , 16-C ) :   1.4519 B( 15-C , 38-H ) :   0.9285 B( 16-C , 17-C ) :   1.4445
B( 16-C , 39-H ) :   0.9286 B( 17-C , 18-C ) :   1.4356 B( 17-C , 40-H ) :   0.9281
B( 18-C , 41-H ) :   0.9171 B( 19-C , 20-C ) :   0.9726 B( 19-C , 28-C ) :   0.9557
B( 19-C , 42-H ) :   0.9066 B( 20-C , 21-C ) :   0.9781 B( 20-C , 43-H ) :   0.9270
B( 20-C , 44-H ) :   0.9453 B( 21-C , 22-C ) :   0.9968 B( 21-C , 45-H ) :   0.9252
B( 21-C , 46-H ) :   0.9260 B( 22-C , 23-C ) :   1.3592 B( 22-C , 28-C ) :   1.4799
B( 23-C , 24-Cl) :   1.0198 B( 23-C , 25-C ) :   1.4119 B( 25-C , 26-C ) :   1.4308
B( 25-C , 47-H ) :   0.9252 B( 26-C , 27-C ) :   1.4382 B( 26-C , 48-H ) :   0.9294
B( 27-C , 28-C ) :   1.4034 B( 27-C , 49-H ) :   0.9208

FINAL SINGLE POINT ENERGY     -1646.523132711523

DIPOLE MOMENT
-------------

Method             : SCF
Type of density    : Electron Density
Multiplicity       :   1
Irrep              :   0
Energy             : -1646.5231327115234308 Eh
Relativity type    :
Basis              : AO
                                X                 Y                 Z
Electronic contribution:      3.189890469     -11.946890453       1.376027154
Nuclear contribution   :     -1.496055817      13.197784298      -2.002022806
                        -----------------------------------------
Total Dipole Moment    :      1.693834652       1.250893845      -0.625995653
                        -----------------------------------------
Magnitude (a.u.)       :      2.196743453
Magnitude (Debye)      :      5.583678115

Rotational constants in cm-1:             0.008101             0.004156             0.003566
Rotational constants in MHz :           242.874708           124.597726           106.907094

                             ****ORCA TERMINATED NORMALLY****
TOTAL RUN TIME: 0 days 0 hours 8 minutes 29 seconds 673 msec
