                         Program Version 6.0.0  -   RELEASE  -
|  1> ! B3LYP 6-31G* SP
|  2>
|  3> * xyz 0 1
|  4> C -0.4291 -2.1500 -2.3360
|  5> C -1.0218 -1.1881 -1.2957
|  6> C -2.1766 -1.7862 -0.5032
|  7> C -3.2317 -0.9515 -0.0900
|  8> C -4.2879 -1.4600 0.6705
|  9> C -4.3069 -2.8091 1.0289
| 10> F -5.3320 -3.3005 1.7678
| 11> C -3.2681 -3.6514 0.6276
| 12> C -2.2079 -3.1471 -0.1317
| 13> N 0.0362 -0.6645 -0.4065
| 14> C 0.3170 0.7786 -0.3978
| 15> C -0.7810 1.5225 0.3115
| 16> C -0.9869 1.3246 1.6847
| 17> C -2.0273 1.9832 2.3416
| 18> C -2.8689 2.8464 1.6363
| 19> C -2.6755 3.0625 0.2601
| 20> C -3.5688 3.9702 -0.4934
| 21> O -4.5170 4.5621 0.0899
| 22> O -3.3713 4.1783 -1.8561
| 23> C -1.6241 2.3965 -0.3950
| 24> C 0.7712 -1.5446 0.4716
| 25> O 0.1465 -2.2277 1.3258
| 26> C 2.2826 -1.6413 0.4496
| 27> C 2.9313 -0.7410 1.5297
| 28> C 3.9090 0.0752 0.7741
| 29> C 4.7557 1.0555 1.2978
| 30> C 5.6152 1.7410 0.4260
| 31> C 5.6149 1.4402 -0.9477
| 32> C 4.7548 0.4532 -1.4529
| 33> C 3.9075 -0.2177 -0.5673
| 34> C 2.9317 -1.2767 -0.9119
| 35> H 0.1584 -2.9593 -1.8546
| 36> H -1.2388 -2.5999 -2.9491
| 37> H 0.2490 -1.5918 -3.0155
| 38> H -1.4420 -0.3463 -1.8928
| 39> H -3.2432 0.0950 -0.3608
| 40> H -5.0921 -0.8054 0.9815
| 41> H -3.2801 -4.6965 0.9091
| 42> H -1.4105 -3.8212 -0.4111
| 43> H 1.2741 0.9998 0.1132
| 44> H 0.4366 1.1374 -1.4433
| 45> H -0.3469 0.6535 2.2436
| 46> H -2.1843 1.8217 3.4002
| 47> H -3.6709 3.3432 2.1679
| 48> H -3.9786 4.7955 -2.3819
| 49> H -1.4678 2.5433 -1.4568
| 50> H 2.5522 -2.6980 0.6759
| 51> H 3.4613 -1.3559 2.2886
| 52> H 2.1969 -0.0797 2.0386
| 53> H 4.7490 1.2842 2.3556
| 54> H 6.2790 2.5038 0.8119
| 55> H 6.2788 1.9716 -1.6171
| 56> H 4.7482 0.2181 -2.5094
| 57> H 2.2145 -0.8928 -1.6640
| 58> H 3.4664 -2.1531 -1.3378
| 59> *
| 60>
| 61>                          ****END OF INPUT****

CARTESIAN COORDINATES (ANGSTROEM)
---------------------------------
  C     -0.429100   -2.150000   -2.336000
  C     -1.021800   -1.188100   -1.295700
  C     -2.176600   -1.786200   -0.503200
  C     -3.231700   -0.951500   -0.090000
  C     -4.287900   -1.460000    0.670500
  C     -4.306900   -2.809100    1.028900
  F     -5.332000   -3.300500    1.767800
  C     -3.268100   -3.651400    0.627600
  C     -2.207900   -3.147100   -0.131700
  N      0.036200   -0.664500   -0.406500
  C      0.317000    0.778600   -0.397800
  C     -0.781000    1.522500    0.311500
  C     -0.986900    1.324600    1.684700
  C     -2.027300    1.983200    2.341600
  C     -2.868900    2.846400    1.636300
  C     -2.675500    3.062500    0.260100
  C     -3.568800    3.970200   -0.493400
  O     -4.517000    4.562100    0.089900
  O     -3.371300    4.178300   -1.856100
  C     -1.624100    2.396500   -0.395000
  C      0.771200   -1.544600    0.471600
  O      0.146500   -2.227700    1.325800
  C      2.282600   -1.641300    0.449600
  C      2.931300   -0.741000    1.529700
  C      3.909000    0.075200    0.774100
  C      4.755700    1.055500    1.297800
  C      5.615200    1.741000    0.426000
  C      5.614900    1.440200   -0.947700
  C      4.754800    0.453200   -1.452900
  C      3.907500   -0.217700   -0.567300
  C      2.931700   -1.276700   -0.911900
  H      0.158400   -2.959300   -1.854600
  H     -1.238800   -2.599900   -2.949100
  H      0.249000   -1.591800   -3.015500
  H     -1.442000   -0.346300   -1.892800
  H     -3.243200    0.095000   -0.360800
  H     -5.092100   -0.805400    0.981500
  H     -3.280100   -4.696500    0.909100
  H     -1.410500   -3.821200   -0.411100
  H      1.274100    0.999800    0.113200
  H      0.436600    1.137400   -1.443300
  H     -0.346900    0.653500    2.243600
  H     -2.184300    1.821700    3.400200
  H     -3.670900    3.343200    2.167900
  H     -3.978600    4.795500   -2.381900
  H     -1.467800    2.543300   -1.456800
  H      2.552200   -2.698000    0.675900
  H      3.461300   -1.355900    2.288600
  H      2.196900   -0.079700    2.038600
  H      4.749000    1.284200    2.355600
  H      6.279000    2.503800    0.811900
  H      6.278800    1.971600   -1.617100
  H      4.748200    0.218100   -2.509400
  H      2.214500   -0.892800   -1.664000
  H      3.466400   -2.153100   -1.337800

 Total Charge           Charge          ....    0
 Multiplicity           Mult            ....    1
 Number of Electrons    NEL             ....  220
 Basis Dimension        Dim             ....  482

ORBITAL ENERGIES
----------------

  NO   OCC          E(Eh)            E(eV)
   0   2.0000     -24.684391      -671.6964
   1   2.0000     -19.185405      -522.0614
   2   2.0000     -19.123842      -520.3862
   3   2.0000     -19.122490      -520.3494
   4   2.0000     -14.339412      -390.1952
   5   2.0000     -10.321894      -280.8730
   6   2.0000     -10.291961      -280.0585
   7   2.0000     -10.253757      -279.0189
   8   2.0000     -10.229782      -278.3665
   9   2.0000     -10.229206      -278.3508
  10   2.0000     -10.211205      -277.8610
  11   2.0000     -10.200725      -277.5758
  12   2.0000     -10.200665      -277.5742
  13   2.0000     -10.198369      -277.5117
  14   2.0000     -10.197127      -277.4779
  15   2.0000     -10.196009      -277.4475
  16   2.0000     -10.193561      -277.3809
  17   2.0000     -10.192926      -277.3636
  18   2.0000     -10.185334      -277.1570
  19   2.0000     -10.184754      -277.1412
  20   2.0000     -10.184289      -277.1286
  21   2.0000     -10.183680      -277.1120
  22   2.0000     -10.183118      -277.0967
  23   2.0000     -10.182648      -277.0839
  24   2.0000     -10.181996      -277.0662
  25   2.0000     -10.180282      -277.0195
  26   2.0000     -10.179706      -277.0039
  27   2.0000     -10.177894      -276.9546
  28   2.0000     -10.176383      -276.9134
  29   2.0000     -10.174923      -276.8737
  30   2.0000     -10.174854      -276.8718
  31   2.0000      -1.198016       -32.5997
  32   2.0000      -1.069288       -29.0968
  33   2.0000      -1.017879       -27.6979
  34   2.0000      -0.982480       -26.7346
  35   2.0000      -0.922203       -25.0944
  36   2.0000      -0.879368       -23.9288
  37   2.0000      -0.866122       -23.5684
  38   2.0000      -0.844658       -22.9843
  39   2.0000      -0.816327       -22.2134
  40   2.0000      -0.790746       -21.5173
  41   2.0000      -0.769432       -20.9373
  42   2.0000      -0.762604       -20.7515
  43   2.0000      -0.760838       -20.7034
  44   2.0000      -0.739479       -20.1223
  45   2.0000      -0.729949       -19.8629
  46   2.0000      -0.715919       -19.4811
  47   2.0000      -0.699494       -19.0342
  48   2.0000      -0.685653       -18.6576
  49   2.0000      -0.662014       -18.0143
  50   2.0000      -0.648075       -17.6350
  51   2.0000      -0.622925       -16.9507
  52   2.0000      -0.614843       -16.7307
  53   2.0000      -0.605411       -16.4741
  54   2.0000      -0.596338       -16.2272
  55   2.0000      -0.583926       -15.8894
  56   2.0000      -0.580768       -15.8035
  57   2.0000      -0.572849       -15.5880
  58   2.0000      -0.537159       -14.6168
  59   2.0000      -0.529394       -14.4056
  60   2.0000      -0.524843       -14.2817
  61   2.0000      -0.505515       -13.7558
  62   2.0000      -0.499949       -13.6043
  63   2.0000      -0.496455       -13.5092
  64   2.0000      -0.487686       -13.2706
  65   2.0000      -0.474880       -12.9221
  66   2.0000      -0.471269       -12.8239
  67   2.0000      -0.466037       -12.6815
  68   2.0000      -0.457716       -12.4551
  69   2.0000      -0.454936       -12.3795
  70   2.0000      -0.450461       -12.2577
  71   2.0000      -0.445698       -12.1280
  72   2.0000      -0.440288       -11.9808
  73   2.0000      -0.438261       -11.9257
  74   2.0000      -0.435845       -11.8599
  75   2.0000      -0.429009       -11.6739
  76   2.0000      -0.425648       -11.5825
  77   2.0000      -0.420457       -11.4412
  78   2.0000      -0.417548       -11.3621
  79   2.0000      -0.414896       -11.2899
  80   2.0000      -0.410209       -11.1624
  81   2.0000      -0.404112       -10.9964
  82   2.0000      -0.399264       -10.8645
  83   2.0000      -0.397211       -10.8087
  84   2.0000      -0.387447       -10.5430
  85   2.0000      -0.383214       -10.4278
  86   2.0000      -0.379766       -10.3340
  87   2.0000      -0.378705       -10.3051
  88   2.0000      -0.366257        -9.9664
  89   2.0000      -0.361370        -9.8334
  90   2.0000      -0.360233        -9.8024
  91   2.0000      -0.354529        -9.6472
  92   2.0000      -0.351111        -9.5542
  93   2.0000      -0.347582        -9.4582
  94   2.0000      -0.343867        -9.3571
  95   2.0000      -0.338690        -9.2162
  96   2.0000      -0.335792        -9.1374
  97   2.0000      -0.335133        -9.1194
  98   2.0000      -0.326063        -8.8726
  99   2.0000      -0.323643        -8.8068
 100   2.0000      -0.305464        -8.3121
 101   2.0000      -0.264207        -7.1894
 102   2.0000      -0.262745        -7.1496
 103   2.0000      -0.260842        -7.0979
 104   2.0000      -0.251824        -6.8525
 105   2.0000      -0.245885        -6.6909
 106   2.0000      -0.239385        -6.5140
 107   2.0000      -0.237944        -6.4748
 108   2.0000      -0.223696        -6.0871
 109   2.0000      -0.211915        -5.7665
 110   0.0000      -0.055210        -1.5023
 111   0.0000      -0.026204        -0.7131
 112   0.0000      -0.011673        -0.3177
 113   0.0000      -0.008169        -0.2223
 114   0.0000       0.006013         0.1636

MULLIKEN ATOMIC CHARGES
-----------------------
   0 C :   -0.448127
   1 C :   -0.074045
   2 C :    0.181948
   3 C :   -0.167511
   4 C :   -0.213631
   5 C :    0.408184
   6 F :   -0.322781
   7 C :   -0.215182
   8 C :   -0.126044
   9 N :   -0.404303
  10 C :   -0.275965
  11 C :    0.180801
  12 C :   -0.144044
  13 C :   -0.129929
  14 C :   -0.152048
  15 C :    0.082472
  16 C :    0.520618
  17 O :   -0.453694
  18 O :   -0.627636
  19 C :   -0.227483
  20 C :    0.495907
  21 O :   -0.435614
  22 C :   -0.162305
  23 C :   -0.369446
  24 C :    0.127309
  25 C :   -0.187018
  26 C :   -0.131238
  27 C :   -0.131296
  28 C :   -0.184732
  29 C :    0.123704
  30 C :   -0.364593
  31 H :    0.151804
  32 H :    0.155146
  33 H :    0.143044
  34 H :    0.146967
  35 H :    0.136981
  36 H :    0.139399
  37 H :    0.137571
  38 H :    0.128797
  39 H :    0.175505
  40 H :    0.144564
  41 H :    0.154208
  42 H :    0.145264
  43 H :    0.166811
  44 H :    0.429006
  45 H :    0.151350
  46 H :    0.172247
  47 H :    0.166121
  48 H :    0.159461
  49 H :    0.125544
  50 H :    0.127760
  51 H :    0.127216
  52 H :    0.122443
  53 H :    0.167626
  54 H :    0.152889
Sum of atomic charges:   -0.0000000

LOEWDIN ATOMIC CHARGES
----------------------
   0 C :   -0.359188
   1 C :   -0.044673
   2 C :   -0.027826
   3 C :   -0.123595
   4 C :   -0.161240
   5 C :    0.113332
   6 F :   -0.108413
   7 C :   -0.159032
   8 C :   -0.107413
   9 N :   -0.131674
  10 C :   -0.147814
  11 C :   -0.031210
  12 C :   -0.097141
  13 C :   -0.122453
  14 C :   -0.091593
  15 C :   -0.059677
  16 C :    0.177632
  17 O :   -0.270224
  18 O :   -0.339975
  19 C :   -0.118347
  20 C :    0.149979
  21 O :   -0.238282
  22 C :   -0.132762
  23 C :   -0.211442
  24 C :   -0.036191
  25 C :   -0.132273
  26 C :   -0.130578
  27 C :   -0.129359
  28 C :   -0.134028
  29 C :   -0.029883
  30 C :   -0.229064
  31 H :    0.125718
  32 H :    0.132366
  33 H :    0.123780
  34 H :    0.132050
  35 H :    0.136843
  36 H :    0.140785
  37 H :    0.140155
  38 H :    0.133750
  39 H :    0.143213
  40 H :    0.119066
  41 H :    0.141595
  42 H :    0.140187
  43 H :    0.153195
  44 H :    0.346138
  45 H :    0.142874
  46 H :    0.151712
  47 H :    0.139580
  48 H :    0.129916
  49 H :    0.130935
  50 H :    0.131359
  51 H :    0.131014
  52 H :    0.129693
  53 H :    0.135656
  54 H :    0.132826

  Mayer bond orders larger than 0.100000
B(  0-C ,  1-C ) :   0.9984 B(  0-C , 31-H ) :   0.9390 B(  0-C , 32-H ) :   0.9397
B(  0-C , 33-H ) :   0.9427 B(  1-C ,  2-C ) :   0.9566 B(  1-C ,  9-N ) :   0.9304
B(  1-C , 34-H ) :   0.9243 B(  2-C ,  3-C ) :   1.4314 B(  2-C ,  8-C ) :   1.4196
B(  3-C ,  4-C ) :   1.4206 B(  3-C , 35-H ) :   0.9144 B(  4-C ,  5-C ) :   1.3964
B(  4-C , 36-H ) :   0.9215 B(  5-C ,  6-F ) :   0.9125 B(  5-C ,  7-C ) :   1.3904
B(  7-C ,  8-C ) :   1.4277 B(  7-C , 37-H ) :   0.9219 B(  8-C , 38-H ) :   0.9211
B(  9-N , 10-C ) :   0.9696 B(  9-N , 20-C ) :   1.0091 B( 10-C , 11-C ) :   0.9394
B( 10-C , 39-H ) :   0.9156 B( 10-C , 40-H ) :   0.9242 B( 11-C , 12-C ) :   1.4130
B( 11-C , 19-C ) :   1.4131 B( 12-C , 13-C ) :   1.4357 B( 12-C , 41-H ) :   0.9146
B( 13-C , 14-C ) :   1.4238 B( 13-C , 42-H ) :   0.9275 B( 14-C , 15-C ) :   1.4107
B( 14-C , 43-H ) :   0.9125 B( 15-C , 16-C ) :   1.0119 B( 15-C , 19-C ) :   1.3557
B( 16-C , 17-O ) :   1.8580 B( 16-C , 18-O ) :   1.0151 B( 18-O , 44-H ) :   0.7448
B( 19-C , 45-H ) :   0.9109 B( 20-C , 21-O ) :   1.8498 B( 20-C , 22-C ) :   0.9635
B( 22-C , 23-C ) :   0.9683 B( 22-C , 30-C ) :   0.9694 B( 22-C , 46-H ) :   0.9226
B( 23-C , 24-C ) :   0.9540 B( 23-C , 47-H ) :   0.9272 B( 23-C , 48-H ) :   0.9262
B( 24-C , 25-C ) :   1.3987 B( 24-C , 29-C ) :   1.4994 B( 25-C , 26-C ) :   1.4463
B( 25-C , 49-H ) :   0.9272 B( 26-C , 27-C ) :   1.4297 B( 26-C , 50-H ) :   0.9307
B( 27-C , 28-C ) :   1.4471 B( 27-C , 51-H ) :   0.9308 B( 28-C , 29-C ) :   1.4022
B( 28-C , 52-H ) :   0.9278 B( 29-C , 30-C ) :   0.9601 B( 30-C , 53-H ) :   0.9141
B( 30-C , 54-H ) :   0.9288

FINAL SINGLE POINT ENERGY     -1384.617926488990

DIPOLE MOMENT
-------------

Method             : SCF
Type of density    : Electron Density
Multiplicity       :   1
Irrep              :   0
Energy             : -1384.6179264889897240 Eh
Relativity type    :
Basis              : AO
                                X                 Y                 Z
Electronic contribution:    -22.775229617       1.249500844       8.368174057
Nuclear contribution   :     24.508488429      -0.902973730      -9.557827916
                        -----------------------------------------
Total Dipole Moment    :      1.733258812       0.346527114      -1.189653859
                        -----------------------------------------
Magnitude (a.u.)       :      2.130620439
Magnitude (Debye)      :      5.415606771

Rotational constants in cm-1:             0.005886             0.003363             0.002498
Rotational constants in MHz :           176.454490           100.831243            74.878864

                             ****ORCA TERMINATED NORMALLY****
TOTAL RUN TIME: 0 days 0 hours 6 minutes 26 seconds 92 msec
