                         Program Version 6.0.0  -   RELEASE  -
|  1> ! B3LYP 6-31G* SP
|  2>
|  3> * xyz 0 1
|  4> C 7.8567 -3.7022 -0.3271
|  5> C 6.7675 -2.7375 -0.0067
|  6> N 5.7156 -2.5059 -0.8298
|  7> C 4.9031 -1.5462 -0.3192
|  8> C 3.7273 -1.1061 -0.9267
|  9> C 2.9526 -0.1156 -0.2813
| 10> C 1.6663 0.3621 -0.9010
| 11> N 0.5338 0.0955 -0.0102
| 12> C -0.2114 1.1735 0.5681
| 13> N -0.0093 1.4693 1.8785
| 14> C -0.7051 2.4368 2.5229
| 15> C -1.6873 3.1641 1.8464
| 16> C -2.4301 4.1466 2.5189
| 17> C -3.4250 4.8572 1.8460
| 18> C -3.6797 4.6018 0.5003
| 19> C -2.9387 3.6348 -0.1857
| 20> C -1.9384 2.8895 0.4785
| 21> C -1.1962 1.8705 -0.1733
| 22> C -1.4747 1.5105 -1.6175
| 23> S 0.0348 -1.5296 0.3449
| 24> O 0.9404 -2.5143 -0.3429
| 25> O 0.1105 -1.7690 1.8278
| 26> C -1.6176 -1.7573 -0.2177
| 27> C -1.8726 -2.4197 -1.4257
| 28> C -3.1857 -2.5660 -1.8846
| 29> C -4.2620 -2.0396 -1.1475
| 30> C -5.6522 -2.1926 -1.6300
| 31> O -5.8932 -2.8355 -2.6877
| 32> O -6.7099 -1.6321 -0.9153
| 33> C -3.9981 -1.3653 0.0587
| 34> C -2.6847 -1.2282 0.5195
| 35> C 3.3898 0.4257 0.9518
| 36> C 4.5789 -0.0243 1.5472
| 37> C 5.3106 -1.0098 0.8909
| 38> S 6.7434 -1.7434 1.3650
| 39> H 8.6747 -3.1757 -0.8607
| 40> H 7.4650 -4.5161 -0.9728
| 41> H 8.2551 -4.1464 0.6087
| 42> H 3.4143 -1.5315 -1.8721
| 43> H 1.4831 -0.1401 -1.8763
| 44> H 1.7513 1.4520 -1.1064
| 45> H -0.4993 2.6248 3.5693
| 46> H -2.2463 4.3581 3.5650
| 47> H -4.0046 5.6051 2.3715
| 48> H -4.4518 5.1576 -0.0176
| 49> H -3.1654 3.4762 -1.2308
| 50> H -1.2083 2.3653 -2.2734
| 51> H -0.9085 0.6241 -1.9627
| 52> H -2.5513 1.2646 -1.7441
| 53> H -1.0579 -2.8187 -2.0169
| 54> H -3.3566 -3.0855 -2.8202
| 55> H -7.6657 -1.7341 -1.2355
| 56> H -4.8042 -0.9429 0.6461
| 57> H -2.4996 -0.6988 1.4462
| 58> H 2.8043 1.1861 1.4524
| 59> H 4.9122 0.3778 2.4944
| 60> *
| 61>
| 62>                          ****END OF INPUT****

CARTESIAN COORDINATES (ANGSTROEM)
---------------------------------
  C      7.856700   -3.702200   -0.327100
  C      6.767500   -2.737500   -0.006700
  N      5.715600   -2.505900   -0.829800
  C      4.903100   -1.546200   -0.319200
  C      3.727300   -1.106100   -0.926700
  C      2.952600   -0.115600   -0.281300
  C      1.666300    0.362100   -0.901000
  N      0.533800    0.095500   -0.010200
  C     -0.211400    1.173500    0.568100
  N     -0.009300    1.469300    1.878500
  C     -0.705100    2.436800    2.522900
  C     -1.687300    3.164100    1.846400
  C     -2.430100    4.146600    2.518900
  C     -3.425000    4.857200    1.846000
  C     -3.679700    4.601800    0.500300
  C     -2.938700    3.634800   -0.185700
  C     -1.938400    2.889500    0.478500
  C     -1.196200    1.870500   -0.173300
  C     -1.474700    1.510500   -1.617500
  S      0.034800   -1.529600    0.344900
  O      0.940400   -2.514300   -0.342900
  O      0.110500   -1.769000    1.827800
  C     -1.617600   -1.757300   -0.217700
  C     -1.872600   -2.419700   -1.425700
  C     -3.185700   -2.566000   -1.884600
  C     -4.262000   -2.039600   -1.147500
  C     -5.652200   -2.192600   -1.630000
  O     -5.893200   -2.835500   -2.687700
  O     -6.709900   -1.632100   -0.915300
  C     -3.998100   -1.365300    0.058700
  C     -2.684700   -1.228200    0.519500
  C      3.389800    0.425700    0.951800
  C      4.578900   -0.024300    1.547200
  C      5.310600   -1.009800    0.890900
  S      6.743400   -1.743400    1.365000
  H      8.674700   -3.175700   -0.860700
  H      7.465000   -4.516100   -0.972800
  H      8.255100   -4.146400    0.608700
  H      3.414300   -1.531500   -1.872100
  H      1.483100   -0.140100   -1.876300
  H      1.751300    1.452000   -1.106400
  H     -0.499300    2.624800    3.569300
  H     -2.246300    4.358100    3.565000
  H     -4.004600    5.605100    2.371500
  H     -4.451800    5.157600   -0.017600
  H     -3.165400    3.476200   -1.230800
  H     -1.208300    2.365300   -2.273400
  H     -0.908500    0.624100   -1.962700
  H     -2.551300    1.264600   -1.744100
  H     -1.057900   -2.818700   -2.016900
  H     -3.356600   -3.085500   -2.820200
  H     -7.665700   -1.734100   -1.235500
  H     -4.804200   -0.942900    0.646100
  H     -2.499600   -0.698800    1.446200
  H      2.804300    1.186100    1.452400
  H      4.912200    0.377800    2.494400

 Total Charge           Charge          ....    0
 Multiplicity           Mult            ....    1
 Number of Electrons    NEL             ....  262
 Basis Dimension        Dim             ....  540

ORBITAL ENERGIES
----------------

  NO   OCC          E(Eh)            E(eV)
   0   2.0000     -89.093245     -2424.3505
   1   2.0000     -88.878806     -2418.5153
   2   2.0000     -19.197367      -522.3869
   3   2.0000     -19.139117      -520.8018
   4   2.0000     -19.122300      -520.3442
   5   2.0000     -19.115715      -520.1651
   6   2.0000     -14.366353      -390.9283
   7   2.0000     -14.334497      -390.0615
   8   2.0000     -14.309775      -389.3888
   9   2.0000     -10.336439      -281.2688
  10   2.0000     -10.263644      -279.2879
  11   2.0000     -10.240644      -278.6621
  12   2.0000     -10.238866      -278.6137
  13   2.0000     -10.232323      -278.4357
  14   2.0000     -10.229907      -278.3699
  15   2.0000     -10.229664      -278.3633
  16   2.0000     -10.219457      -278.0856
  17   2.0000     -10.219174      -278.0779
  18   2.0000     -10.217630      -278.0358
  19   2.0000     -10.217578      -278.0344
  20   2.0000     -10.217252      -278.0256
  21   2.0000     -10.213956      -277.9359
  22   2.0000     -10.206981      -277.7461
  23   2.0000     -10.205229      -277.6984
  24   2.0000     -10.204385      -277.6754
  25   2.0000     -10.203591      -277.6538
  26   2.0000     -10.202633      -277.6278
  27   2.0000     -10.194172      -277.3975
  28   2.0000     -10.194084      -277.3951
  29   2.0000     -10.193461      -277.3782
  30   2.0000     -10.186437      -277.1870
  31   2.0000     -10.180908      -277.0366
  32   2.0000     -10.179149      -276.9887
  33   2.0000     -10.172006      -276.7943
  34   2.0000     -10.169642      -276.7300
  35   2.0000      -8.128709      -221.1934
  36   2.0000      -7.957356      -216.5307
  37   2.0000      -6.093878      -165.8228
  38   2.0000      -6.091852      -165.7677
  39   2.0000      -6.091180      -165.7494
  40   2.0000      -5.920263      -161.0985
  41   2.0000      -5.916469      -160.9953
  42   2.0000      -5.914035      -160.9291
  43   2.0000      -1.081483       -29.4286
  44   2.0000      -1.076926       -29.3046
  45   2.0000      -0.996109       -27.1055
  46   2.0000      -0.964183       -26.2367
  47   2.0000      -0.954536       -25.9742
  48   2.0000      -0.950333       -25.8599
  49   2.0000      -0.914951       -24.8971
  50   2.0000      -0.889456       -24.2033
  51   2.0000      -0.871018       -23.7016
  52   2.0000      -0.835509       -22.7354
  53   2.0000      -0.814629       -22.1672
  54   2.0000      -0.806743       -21.9526
  55   2.0000      -0.800784       -21.7904
  56   2.0000      -0.783210       -21.3122
  57   2.0000      -0.775925       -21.1140
  58   2.0000      -0.766789       -20.8654
  59   2.0000      -0.748767       -20.3750
  60   2.0000      -0.734480       -19.9862
  61   2.0000      -0.715268       -19.4634
  62   2.0000      -0.711214       -19.3531
  63   2.0000      -0.695226       -18.9181
  64   2.0000      -0.668053       -18.1787
  65   2.0000      -0.654042       -17.7974
  66   2.0000      -0.650570       -17.7029
  67   2.0000      -0.637801       -17.3554
  68   2.0000      -0.619760       -16.8645
  69   2.0000      -0.603233       -16.4148
  70   2.0000      -0.597877       -16.2691
  71   2.0000      -0.595583       -16.2066
  72   2.0000      -0.573788       -15.6136
  73   2.0000      -0.562647       -15.3104
  74   2.0000      -0.548740       -14.9320
  75   2.0000      -0.544056       -14.8045
  76   2.0000      -0.536801       -14.6071
  77   2.0000      -0.509206       -13.8562
  78   2.0000      -0.506253       -13.7759
  79   2.0000      -0.492647       -13.4056
  80   2.0000      -0.483926       -13.1683
  81   2.0000      -0.480820       -13.0838
  82   2.0000      -0.476792       -12.9742
  83   2.0000      -0.469948       -12.7879
  84   2.0000      -0.466150       -12.6846
  85   2.0000      -0.462055       -12.5732
  86   2.0000      -0.461085       -12.5468
  87   2.0000      -0.456589       -12.4244
  88   2.0000      -0.450650       -12.2628
  89   2.0000      -0.447948       -12.1893
  90   2.0000      -0.443719       -12.0742
  91   2.0000      -0.441057       -12.0018
  92   2.0000      -0.436337       -11.8733
  93   2.0000      -0.435501       -11.8506
  94   2.0000      -0.426368       -11.6021
  95   2.0000      -0.419464       -11.4142
  96   2.0000      -0.415594       -11.3089
  97   2.0000      -0.413500       -11.2519
  98   2.0000      -0.409438       -11.1414
  99   2.0000      -0.405172       -11.0253
 100   2.0000      -0.398142       -10.8340
 101   2.0000      -0.392924       -10.6920
 102   2.0000      -0.390875       -10.6363
 103   2.0000      -0.388510       -10.5719
 104   2.0000      -0.384732       -10.4691
 105   2.0000      -0.381432       -10.3793
 106   2.0000      -0.376252       -10.2383
 107   2.0000      -0.375203       -10.2098
 108   2.0000      -0.368787       -10.0352
 109   2.0000      -0.360813        -9.8182
 110   2.0000      -0.359107        -9.7718
 111   2.0000      -0.345402        -9.3989
 112   2.0000      -0.330240        -8.9863
 113   2.0000      -0.325748        -8.8641
 114   2.0000      -0.320947        -8.7334
 115   2.0000      -0.314372        -8.5545
 116   2.0000      -0.301939        -8.2162
 117   2.0000      -0.297708        -8.1010
 118   2.0000      -0.290435        -7.9031
 119   2.0000      -0.287425        -7.8212
 120   2.0000      -0.284309        -7.7364
 121   2.0000      -0.278548        -7.5797
 122   2.0000      -0.276253        -7.5172
 123   2.0000      -0.275289        -7.4910
 124   2.0000      -0.263292        -7.1645
 125   2.0000      -0.255033        -6.9398
 126   2.0000      -0.252860        -6.8807
 127   2.0000      -0.247064        -6.7230
 128   2.0000      -0.231018        -6.2863
 129   2.0000      -0.217055        -5.9064
 130   2.0000      -0.208988        -5.6868
 131   0.0000      -0.082633        -2.2486
 132   0.0000      -0.068458        -1.8628
 133   0.0000      -0.038434        -1.0458
 134   0.0000      -0.029251        -0.7960
 135   0.0000      -0.019286        -0.5248

MULLIKEN ATOMIC CHARGES
-----------------------
   0 C :   -0.498089
   1 C :    0.067302
   2 N :   -0.408385
   3 C :    0.250393
   4 C :   -0.163999
   5 C :    0.141832
   6 C :   -0.232931
   7 N :   -0.600465
   8 C :    0.268508
   9 N :   -0.354566
  10 C :   -0.060038
  11 C :    0.136018
  12 C :   -0.202357
  13 C :   -0.126611
  14 C :   -0.120051
  15 C :   -0.200477
  16 C :    0.119690
  17 C :    0.106115
  18 C :   -0.540274
  19 S :    1.209906
  20 O :   -0.543077
  21 O :   -0.517169
  22 C :   -0.128414
  23 C :   -0.150376
  24 C :   -0.140537
  25 C :    0.081039
  26 C :    0.527231
  27 O :   -0.443940
  28 O :   -0.624793
  29 C :   -0.151344
  30 C :   -0.145289
  31 C :   -0.144790
  32 C :   -0.172875
  33 C :   -0.122241
  34 S :    0.213917
  35 H :    0.179006
  36 H :    0.191025
  37 H :    0.163709
  38 H :    0.136850
  39 H :    0.161060
  40 H :    0.173309
  41 H :    0.157715
  42 H :    0.142898
  43 H :    0.138689
  44 H :    0.139939
  45 H :    0.139989
  46 H :    0.164776
  47 H :    0.170808
  48 H :    0.167780
  49 H :    0.188664
  50 H :    0.180849
  51 H :    0.433676
  52 H :    0.172486
  53 H :    0.186185
  54 H :    0.144360
  55 H :    0.137363
Sum of atomic charges:    0.0000000

LOEWDIN ATOMIC CHARGES
----------------------
   0 C :   -0.357614
   1 C :   -0.115458
   2 N :   -0.161362
   3 C :   -0.017846
   4 C :   -0.110190
   5 C :   -0.036140
   6 C :   -0.140015
   7 N :   -0.282523
   8 C :    0.016312
   9 N :   -0.114036
  10 C :   -0.059563
  11 C :   -0.030296
  12 C :   -0.110826
  13 C :   -0.125277
  14 C :   -0.116543
  15 C :   -0.124696
  16 C :   -0.009587
  17 C :   -0.017322
  18 C :   -0.361089
  19 S :    1.267739
  20 O :   -0.569518
  21 O :   -0.553871
  22 C :   -0.172397
  23 C :   -0.105310
  24 C :   -0.087318
  25 C :   -0.041694
  26 C :    0.180054
  27 O :   -0.260439
  28 O :   -0.336398
  29 C :   -0.101945
  30 C :   -0.105140
  31 C :   -0.123111
  32 C :   -0.131880
  33 C :   -0.184499
  34 S :    0.364208
  35 H :    0.148197
  36 H :    0.155968
  37 H :    0.140553
  38 H :    0.142477
  39 H :    0.129153
  40 H :    0.144396
  41 H :    0.139791
  42 H :    0.138913
  43 H :    0.136696
  44 H :    0.137518
  45 H :    0.139182
  46 H :    0.138807
  47 H :    0.139936
  48 H :    0.139890
  49 H :    0.162266
  50 H :    0.160431
  51 H :    0.349409
  52 H :    0.154425
  53 H :    0.159398
  54 H :    0.140999
  55 H :    0.137184

  Mayer bond orders larger than 0.100000
B(  0-C ,  1-C ) :   1.0038 B(  0-C , 35-H ) :   0.9299 B(  0-C , 36-H ) :   0.9344
B(  0-C , 37-H ) :   0.9377 B(  1-C ,  2-N ) :   1.5879 B(  1-C , 34-S ) :   1.1164
B(  2-N ,  3-C ) :   1.2002 B(  3-C ,  4-C ) :   1.3339 B(  3-C , 33-C ) :   1.3121
B(  4-C ,  5-C ) :   1.4553 B(  4-C , 38-H ) :   0.9118 B(  5-C ,  6-C ) :   0.9636
B(  5-C , 31-C ) :   1.3664 B(  6-C ,  7-N ) :   0.9072 B(  6-C , 39-H ) :   0.9249
B(  6-C , 40-H ) :   0.9191 B(  7-N ,  8-C ) :   0.9021 B(  7-N , 19-S ) :   0.8031
B(  8-C ,  9-N ) :   1.2889 B(  8-C , 17-C ) :   1.4255 B(  9-N , 10-C ) :   1.4961
B( 10-C , 11-C ) :   1.2290 B( 10-C , 17-C ) :   0.1018 B( 10-C , 41-H ) :   0.9256
B( 11-C , 12-C ) :   1.2843 B( 11-C , 16-C ) :   1.2911 B( 12-C , 13-C ) :   1.5116
B( 12-C , 15-C ) :   0.1067 B( 12-C , 42-H ) :   0.9227 B( 13-C , 14-C ) :   1.3544
B( 13-C , 43-H ) :   0.9288 B( 14-C , 15-C ) :   1.5074 B( 14-C , 44-H ) :   0.9286
B( 15-C , 16-C ) :   1.2948 B( 15-C , 45-H ) :   0.9165 B( 16-C , 17-C ) :   1.2613
B( 17-C , 18-C ) :   1.0023 B( 18-C , 46-H ) :   0.9267 B( 18-C , 47-H ) :   0.9293
B( 18-C , 48-H ) :   0.9257 B( 19-S , 20-O ) :   1.6100 B( 19-S , 21-O ) :   1.6897
B( 19-S , 22-C ) :   0.8084 B( 22-C , 23-C ) :   1.3876 B( 22-C , 30-C ) :   1.3883
B( 23-C , 24-C ) :   1.4170 B( 23-C , 49-H ) :   0.9080 B( 24-C , 25-C ) :   1.4011
B( 24-C , 50-H ) :   0.9096 B( 25-C , 26-C ) :   1.0086 B( 25-C , 29-C ) :   1.3815
B( 26-C , 27-O ) :   1.8632 B( 26-C , 28-O ) :   1.0230 B( 28-O , 51-H ) :   0.7422
B( 29-C , 30-C ) :   1.4175 B( 29-C , 52-H ) :   0.9151 B( 30-C , 53-H ) :   0.9083
B( 31-C , 32-C ) :   1.4841 B( 31-C , 54-H ) :   0.9131 B( 32-C , 33-C ) :   1.3332
B( 32-C , 55-H ) :   0.9258 B( 33-C , 34-S ) :   1.0552

FINAL SINGLE POINT ENERGY     -2263.843797982123

DIPOLE MOMENT
-------------

Method             : SCF
Type of density    : Electron Density
Multiplicity       :   1
Irrep              :   0
Energy             : -2263.8437979821228510 Eh
Relativity type    :
Basis              : AO
                                X                 Y                 Z
Electronic contribution:      2.050466040      -9.138428566       6.140983311
Nuclear contribution   :     -3.871609486      11.776053871      -6.419177370
                        -----------------------------------------
Total Dipole Moment    :     -1.821143446       2.637625304      -0.278194059
                        -----------------------------------------
Magnitude (a.u.)       :      3.217300519
Magnitude (Debye)      :      8.177728026

Rotational constants in cm-1:             0.005349             0.001942             0.001533
Rotational constants in MHz :           160.361462            58.225981            45.961457

                             ****ORCA TERMINATED NORMALLY****
TOTAL RUN TIME: 0 days 0 hours 9 minutes 55 seconds 867 msec
