                         Program Version 6.0.0  -   RELEASE  -
|  1> ! B3LYP 6-31G* SP
|  2>
|  3> * xyz 0 1
|  4> O -1.9614 6.8090 -1.9027
|  5> C -0.7531 6.4441 -1.9548
|  6> O 0.1255 7.1068 -2.8115
|  7> C -0.2751 5.3185 -1.1197
|  8> C -1.1524 4.6630 -0.2306
|  9> C -0.6995 3.5959 0.5515
| 10> C 0.6330 3.1630 0.4531
| 11> S 1.1912 1.7824 1.3929
| 12> O 2.6427 1.9551 1.7485
| 13> O 0.4056 1.6809 2.6720
| 14> N 0.9765 0.3333 0.4598
| 15> C 1.9287 0.0232 -0.6119
| 16> C 2.6110 -1.2938 -0.3627
| 17> C 2.2765 -2.4236 -1.1258
| 18> C 2.8963 -3.6510 -0.8760
| 19> C 3.8567 -3.7734 0.1348
| 20> O 4.4498 -5.0310 0.3348
| 21> C 5.4705 -5.3195 1.2873
| 22> F 5.0126 -5.0719 2.5692
| 23> F 6.5921 -4.5504 1.0312
| 24> F 5.8127 -6.6536 1.1866
| 25> C 4.1888 -2.6407 0.9051
| 26> C 3.5654 -1.4127 0.6596
| 27> C -0.3114 -0.2971 0.4774
| 28> C -0.4403 -1.6576 0.7757
| 29> C -1.7133 -2.2390 0.8122
| 30> C -1.8607 -3.5992 1.1239
| 31> C -3.1321 -4.1726 1.1825
| 32> C -4.2638 -3.3970 0.9311
| 33> C -4.1335 -2.0416 0.6178
| 34> C -2.8583 -1.4447 0.5525
| 35> C -2.6789 -0.0737 0.2518
| 36> C -3.8434 0.8552 0.0131
| 37> C -4.5067 0.6988 -1.3506
| 38> C -3.6373 1.9131 -1.0672
| 39> N -1.4229 0.4479 0.2429
| 40> C 1.5095 3.8087 -0.4318
| 41> C 1.0619 4.8819 -1.2103
| 42> H -0.1957 7.8731 -3.3940
| 43> H -2.1898 4.9730 -0.1418
| 44> H -1.3919 3.1003 1.2252
| 45> H 1.3967 0.0169 -1.5875
| 46> H 2.7034 0.8161 -0.6843
| 47> H 1.5307 -2.3576 -1.9089
| 48> H 2.6349 -4.5118 -1.4791
| 49> H 4.9258 -2.6959 1.6944
| 50> H 3.8318 -0.5528 1.2613
| 51> H 0.4367 -2.2496 1.0087
| 52> H -0.9931 -4.2162 1.3254
| 53> H -3.2407 -5.2202 1.4296
| 54> H -5.2466 -3.8475 0.9824
| 55> H -5.0324 -1.4681 0.4355
| 56> H -4.5142 1.1440 0.8525
| 57> H -5.5966 0.9169 -1.3575
| 58> H -4.0406 -0.0428 -2.0400
| 59> H -4.2135 2.8524 -0.9098
| 60> H -2.6670 1.8950 -1.6094
| 61> H 2.5383 3.4772 -0.5250
| 62> H 1.7607 5.3609 -1.8894
| 63> *
| 64>
| 65>                          ****END OF INPUT****

CARTESIAN COORDINATES (ANGSTROEM)
---------------------------------
  O     -1.961400    6.809000   -1.902700
  C     -0.753100    6.444100   -1.954800
  O      0.125500    7.106800   -2.811500
  C     -0.275100    5.318500   -1.119700
  C     -1.152400    4.663000   -0.230600
  C     -0.699500    3.595900    0.551500
  C      0.633000    3.163000    0.453100
  S      1.191200    1.782400    1.392900
  O      2.642700    1.955100    1.748500
  O      0.405600    1.680900    2.672000
  N      0.976500    0.333300    0.459800
  C      1.928700    0.023200   -0.611900
  C      2.611000   -1.293800   -0.362700
  C      2.276500   -2.423600   -1.125800
  C      2.896300   -3.651000   -0.876000
  C      3.856700   -3.773400    0.134800
  O      4.449800   -5.031000    0.334800
  C      5.470500   -5.319500    1.287300
  F      5.012600   -5.071900    2.569200
  F      6.592100   -4.550400    1.031200
  F      5.812700   -6.653600    1.186600
  C      4.188800   -2.640700    0.905100
  C      3.565400   -1.412700    0.659600
  C     -0.311400   -0.297100    0.477400
  C     -0.440300   -1.657600    0.775700
  C     -1.713300   -2.239000    0.812200
  C     -1.860700   -3.599200    1.123900
  C     -3.132100   -4.172600    1.182500
  C     -4.263800   -3.397000    0.931100
  C     -4.133500   -2.041600    0.617800
  C     -2.858300   -1.444700    0.552500
  C     -2.678900   -0.073700    0.251800
  C     -3.843400    0.855200    0.013100
  C     -4.506700    0.698800   -1.350600
  C     -3.637300    1.913100   -1.067200
  N     -1.422900    0.447900    0.242900
  C      1.509500    3.808700   -0.431800
  C      1.061900    4.881900   -1.210300
  H     -0.195700    7.873100   -3.394000
  H     -2.189800    4.973000   -0.141800
  H     -1.391900    3.100300    1.225200
  H      1.396700    0.016900   -1.587500
  H      2.703400    0.816100   -0.684300
  H      1.530700   -2.357600   -1.908900
  H      2.634900   -4.511800   -1.479100
  H      4.925800   -2.695900    1.694400
  H      3.831800   -0.552800    1.261300
  H      0.436700   -2.249600    1.008700
  H     -0.993100   -4.216200    1.325400
  H     -3.240700   -5.220200    1.429600
  H     -5.246600   -3.847500    0.982400
  H     -5.032400   -1.468100    0.435500
  H     -4.514200    1.144000    0.852500
  H     -5.596600    0.916900   -1.357500
  H     -4.040600   -0.042800   -2.040000
  H     -4.213500    2.852400   -0.909800
  H     -2.667000    1.895000   -1.609400
  H      2.538300    3.477200   -0.525000
  H      1.760700    5.360900   -1.889400

 Total Charge           Charge          ....    0
 Multiplicity           Mult            ....    1
 Number of Electrons    NEL             ....  280
 Basis Dimension        Dim             ....  578

ORBITAL ENERGIES
----------------

  NO   OCC          E(Eh)            E(eV)
   0   2.0000     -89.096070     -2424.4273
   1   2.0000     -24.741726      -673.2566
   2   2.0000     -24.738972      -673.1816
   3   2.0000     -24.738513      -673.1692
   4   2.0000     -19.214167      -522.8441
   5   2.0000     -19.193828      -522.2906
   6   2.0000     -19.134722      -520.6823
   7   2.0000     -19.129013      -520.5269
   8   2.0000     -19.121896      -520.3333
   9   2.0000     -14.375969      -391.1900
  10   2.0000     -14.333164      -390.0252
  11   2.0000     -10.504310      -285.8368
  12   2.0000     -10.332382      -281.1584
  13   2.0000     -10.271098      -279.4908
  14   2.0000     -10.263767      -279.2913
  15   2.0000     -10.239165      -278.6219
  16   2.0000     -10.238928      -278.6154
  17   2.0000     -10.236306      -278.5440
  18   2.0000     -10.227382      -278.3012
  19   2.0000     -10.216653      -278.0093
  20   2.0000     -10.213266      -277.9171
  21   2.0000     -10.212131      -277.8862
  22   2.0000     -10.211093      -277.8580
  23   2.0000     -10.205807      -277.7141
  24   2.0000     -10.201681      -277.6019
  25   2.0000     -10.201163      -277.5877
  26   2.0000     -10.200540      -277.5708
  27   2.0000     -10.200089      -277.5585
  28   2.0000     -10.199456      -277.5413
  29   2.0000     -10.197624      -277.4914
  30   2.0000     -10.197006      -277.4746
  31   2.0000     -10.196010      -277.4475
  32   2.0000     -10.195137      -277.4238
  33   2.0000     -10.195044      -277.4212
  34   2.0000     -10.194706      -277.4120
  35   2.0000     -10.194404      -277.4038
  36   2.0000     -10.191466      -277.3239
  37   2.0000     -10.186998      -277.2023
  38   2.0000      -8.131827      -221.2783
  39   2.0000      -6.096852      -165.9038
  40   2.0000      -6.094938      -165.8517
  41   2.0000      -6.094392      -165.8368
  42   2.0000      -1.304184       -35.4886
  43   2.0000      -1.224777       -33.3279
  44   2.0000      -1.224404       -33.3177
  45   2.0000      -1.083948       -29.4957
  46   2.0000      -1.082255       -29.4496
  47   2.0000      -1.076761       -29.3002
  48   2.0000      -0.991117       -26.9697
  49   2.0000      -0.967545       -26.3282
  50   2.0000      -0.960107       -26.1258
  51   2.0000      -0.920581       -25.0503
  52   2.0000      -0.882914       -24.0253
  53   2.0000      -0.868212       -23.6253
  54   2.0000      -0.864405       -23.5217
  55   2.0000      -0.856048       -23.2942
  56   2.0000      -0.802096       -21.8261
  57   2.0000      -0.793686       -21.5973
  58   2.0000      -0.787641       -21.4328
  59   2.0000      -0.772742       -21.0274
  60   2.0000      -0.769629       -20.9427
  61   2.0000      -0.760127       -20.6841
  62   2.0000      -0.739532       -20.1237
  63   2.0000      -0.728771       -19.8309
  64   2.0000      -0.701956       -19.1012
  65   2.0000      -0.679618       -18.4933
  66   2.0000      -0.663864       -18.0646
  67   2.0000      -0.653473       -17.7819
  68   2.0000      -0.634434       -17.2638
  69   2.0000      -0.632373       -17.2077
  70   2.0000      -0.625731       -17.0270
  71   2.0000      -0.625477       -17.0201
  72   2.0000      -0.612491       -16.6667
  73   2.0000      -0.596087       -16.2204
  74   2.0000      -0.594469       -16.1763
  75   2.0000      -0.592321       -16.1179
  76   2.0000      -0.587264       -15.9803
  77   2.0000      -0.576181       -15.6787
  78   2.0000      -0.574301       -15.6275
  79   2.0000      -0.556783       -15.1508
  80   2.0000      -0.537790       -14.6340
  81   2.0000      -0.531300       -14.4574
  82   2.0000      -0.520115       -14.1530
  83   2.0000      -0.509737       -13.8706
  84   2.0000      -0.499071       -13.5804
  85   2.0000      -0.496395       -13.5076
  86   2.0000      -0.488124       -13.2825
  87   2.0000      -0.483356       -13.1528
  88   2.0000      -0.478483       -13.0202
  89   2.0000      -0.473706       -12.8902
  90   2.0000      -0.469971       -12.7886
  91   2.0000      -0.469264       -12.7693
  92   2.0000      -0.465946       -12.6790
  93   2.0000      -0.460778       -12.5384
  94   2.0000      -0.459763       -12.5108
  95   2.0000      -0.456781       -12.4297
  96   2.0000      -0.450787       -12.2665
  97   2.0000      -0.445634       -12.1263
  98   2.0000      -0.444310       -12.0903
  99   2.0000      -0.442355       -12.0371
 100   2.0000      -0.438083       -11.9208
 101   2.0000      -0.436181       -11.8691
 102   2.0000      -0.434870       -11.8334
 103   2.0000      -0.430371       -11.7110
 104   2.0000      -0.421318       -11.4646
 105   2.0000      -0.420140       -11.4326
 106   2.0000      -0.417894       -11.3715
 107   2.0000      -0.416306       -11.3283
 108   2.0000      -0.410345       -11.1661
 109   2.0000      -0.410300       -11.1648
 110   2.0000      -0.406761       -11.0685
 111   2.0000      -0.390353       -10.6220
 112   2.0000      -0.388117       -10.5612
 113   2.0000      -0.384486       -10.4624
 114   2.0000      -0.380218       -10.3462
 115   2.0000      -0.379017       -10.3136
 116   2.0000      -0.374450       -10.1893
 117   2.0000      -0.369456       -10.0534
 118   2.0000      -0.363603        -9.8941
 119   2.0000      -0.355714        -9.6795
 120   2.0000      -0.354842        -9.6557
 121   2.0000      -0.349884        -9.5208
 122   2.0000      -0.343712        -9.3529
 123   2.0000      -0.327249        -8.9049
 124   2.0000      -0.319637        -8.6978
 125   2.0000      -0.314246        -8.5511
 126   2.0000      -0.303563        -8.2604
 127   2.0000      -0.292634        -7.9630
 128   2.0000      -0.291300        -7.9267
 129   2.0000      -0.286860        -7.8058
 130   2.0000      -0.283149        -7.7049
 131   2.0000      -0.275132        -7.4867
 132   2.0000      -0.273633        -7.4459
 133   2.0000      -0.271324        -7.3831
 134   2.0000      -0.267520        -7.2796
 135   2.0000      -0.263852        -7.1798
 136   2.0000      -0.257852        -7.0165
 137   2.0000      -0.253337        -6.8937
 138   2.0000      -0.241340        -6.5672
 139   2.0000      -0.220164        -5.9910
 140   0.0000      -0.077717        -2.1148
 141   0.0000      -0.062612        -1.7037
 142   0.0000      -0.029964        -0.8154
 143   0.0000      -0.024355        -0.6627
 144   0.0000      -0.017113        -0.4657

MULLIKEN ATOMIC CHARGES
-----------------------
   0 O :   -0.448339
   1 C :    0.528020
   2 O :   -0.624706
   3 C :    0.078901
   4 C :   -0.147022
   5 C :   -0.110785
   6 C :   -0.124875
   7 S :    1.221798
   8 O :   -0.552613
   9 O :   -0.539323
  10 N :   -0.605238
  11 C :   -0.252665
  12 C :    0.159282
  13 C :   -0.174090
  14 C :   -0.173673
  15 C :    0.353179
  16 O :   -0.546060
  17 C :    1.085939
  18 F :   -0.290187
  19 F :   -0.290857
  20 F :   -0.278814
  21 C :   -0.190888
  22 C :   -0.169617
  23 C :    0.396792
  24 C :   -0.229261
  25 C :    0.183120
  26 C :   -0.198366
  27 C :   -0.123273
  28 C :   -0.125867
  29 C :   -0.199803
  30 C :    0.105076
  31 C :    0.173023
  32 C :   -0.165284
  33 C :   -0.304637
  34 C :   -0.302925
  35 N :   -0.443710
  36 C :   -0.153583
  37 C :   -0.148531
  38 H :    0.432466
  39 H :    0.177066
  40 H :    0.193758
  41 H :    0.159968
  42 H :    0.185319
  43 H :    0.138176
  44 H :    0.147904
  45 H :    0.159399
  46 H :    0.180936
  47 H :    0.161880
  48 H :    0.142118
  49 H :    0.137714
  50 H :    0.135651
  51 H :    0.146084
  52 H :    0.165995
  53 H :    0.149305
  54 H :    0.157793
  55 H :    0.149219
  56 H :    0.167823
  57 H :    0.171928
  58 H :    0.169364
Sum of atomic charges:    0.0000000

LOEWDIN ATOMIC CHARGES
----------------------
   0 O :   -0.264937
   1 C :    0.181482
   2 O :   -0.336819
   3 C :   -0.041382
   4 C :   -0.089345
   5 C :   -0.085443
   6 C :   -0.173047
   7 S :    1.270088
   8 O :   -0.575137
   9 O :   -0.565843
  10 N :   -0.274793
  11 C :   -0.146693
  12 C :   -0.042696
  13 C :   -0.126130
  14 C :   -0.146270
  15 C :    0.087067
  16 O :   -0.160459
  17 C :    0.359392
  18 F :   -0.104138
  19 F :   -0.104726
  20 F :   -0.087160
  21 C :   -0.155811
  22 C :   -0.110007
  23 C :    0.041914
  24 C :   -0.127401
  25 C :   -0.001595
  26 C :   -0.118565
  27 C :   -0.117871
  28 C :   -0.126725
  29 C :   -0.113001
  30 C :   -0.029022
  31 C :    0.050879
  32 C :   -0.144883
  33 C :   -0.250503
  34 C :   -0.244276
  35 N :   -0.139791
  36 C :   -0.112506
  37 C :   -0.103654
  38 H :    0.348788
  39 H :    0.158471
  40 H :    0.166386
  41 H :    0.127737
  42 H :    0.148973
  43 H :    0.137143
  44 H :    0.144726
  45 H :    0.145088
  46 H :    0.155593
  47 H :    0.151030
  48 H :    0.138568
  49 H :    0.136474
  50 H :    0.135496
  51 H :    0.142654
  52 H :    0.142754
  53 H :    0.131812
  54 H :    0.135829
  55 H :    0.133478
  56 H :    0.143853
  57 H :    0.152105
  58 H :    0.152847

  Mayer bond orders larger than 0.100000
B(  0-O ,  1-C ) :   1.8584 B(  1-C ,  2-O ) :   1.0221 B(  1-C ,  3-C ) :   1.0103
B(  2-O , 38-H ) :   0.7429 B(  3-C ,  4-C ) :   1.3920 B(  3-C , 37-C ) :   1.3860
B(  4-C ,  5-C ) :   1.4194 B(  4-C , 39-H ) :   0.9102 B(  5-C ,  6-C ) :   1.3862
B(  5-C , 40-H ) :   0.9029 B(  6-C ,  7-S ) :   0.8118 B(  6-C , 36-C ) :   1.3918
B(  7-S ,  8-O ) :   1.6079 B(  7-S ,  9-O ) :   1.6470 B(  7-S , 10-N ) :   0.8037
B( 10-N , 11-C ) :   0.9238 B( 10-N , 23-C ) :   0.8650 B( 11-C , 12-C ) :   0.9617
B( 11-C , 41-H ) :   0.9250 B( 11-C , 42-H ) :   0.9114 B( 12-C , 13-C ) :   1.4320
B( 12-C , 22-C ) :   1.4256 B( 13-C , 14-C ) :   1.4288 B( 13-C , 43-H ) :   0.9213
B( 14-C , 15-C ) :   1.4240 B( 14-C , 44-H ) :   0.9183 B( 15-C , 16-O ) :   0.8254
B( 15-C , 21-C ) :   1.3826 B( 16-O , 17-C ) :   0.9890 B( 17-C , 18-F ) :   0.9691
B( 17-C , 19-F ) :   0.9706 B( 17-C , 20-F ) :   1.0082 B( 21-C , 22-C ) :   1.4343
B( 21-C , 45-H ) :   0.9091 B( 22-C , 46-H ) :   0.9050 B( 23-C , 24-C ) :   1.4614
B( 23-C , 35-N ) :   1.2918 B( 24-C , 25-C ) :   1.2725 B( 24-C , 47-H ) :   0.9058
B( 25-C , 26-C ) :   1.2840 B( 25-C , 30-C ) :   1.2849 B( 26-C , 27-C ) :   1.5120
B( 26-C , 29-C ) :   0.1062 B( 26-C , 48-H ) :   0.9232 B( 27-C , 28-C ) :   1.3506
B( 27-C , 49-H ) :   0.9289 B( 28-C , 29-C ) :   1.5034 B( 28-C , 50-H ) :   0.9296
B( 29-C , 30-C ) :   1.3066 B( 29-C , 51-H ) :   0.9128 B( 30-C , 31-C ) :   1.2326
B( 31-C , 32-C ) :   1.0229 B( 31-C , 35-N ) :   1.4381 B( 32-C , 33-C ) :   0.9239
B( 32-C , 34-C ) :   0.9466 B( 32-C , 52-H ) :   0.9199 B( 33-C , 34-C ) :   0.9617
B( 33-C , 53-H ) :   0.9424 B( 33-C , 54-H ) :   0.9435 B( 34-C , 55-H ) :   0.9420
B( 34-C , 56-H ) :   0.9353 B( 36-C , 37-C ) :   1.4164 B( 36-C , 57-H ) :   0.9128
B( 37-C , 58-H ) :   0.9157

FINAL SINGLE POINT ENERGY     -2223.648229649795

DIPOLE MOMENT
-------------

Method             : SCF
Type of density    : Electron Density
Multiplicity       :   1
Irrep              :   0
Energy             : -2223.6482296497947573 Eh
Relativity type    :
Basis              : AO
                                X                 Y                 Z
Electronic contribution:     42.742862587     -23.323845514      13.728517341
Nuclear contribution   :    -43.850321043      22.797335560     -15.818143332
                        -----------------------------------------
Total Dipole Moment    :     -1.107458457      -0.526509955      -2.089625991
                        -----------------------------------------
Magnitude (a.u.)       :      2.422852399
Magnitude (Debye)      :      6.158401383

Rotational constants in cm-1:             0.004173             0.001668             0.001293
Rotational constants in MHz :           125.102721            49.999519            38.755636

                             ****ORCA TERMINATED NORMALLY****
TOTAL RUN TIME: 0 days 0 hours 12 minutes 30 seconds 496 msec
