                         Program Version 6.0.0  -   RELEASE  -
|  1> ! B3LYP 6-31G* SP
|  2>
|  3> * xyz 0 1
|  4> O 6.5278 -3.6619 0.1527
|  5> C 6.0394 -2.5936 0.6110
|  6> O 6.6719 -1.9567 1.6759
|  7> C 4.8070 -2.0216 0.0257
|  8> C 4.1592 -2.6589 -1.0482
|  9> C 2.9930 -2.1157 -1.5956
| 10> C 2.4569 -0.9302 -1.0774
| 11> S 0.9854 -0.2397 -1.7519
| 12> O 0.2821 -1.2428 -2.6224
| 13> O 1.3528 0.9568 -2.5847
| 14> N -0.0760 0.2337 -0.4600
| 15> C -0.3923 -0.7158 0.6084
| 16> C -1.8866 -0.8198 0.7850
| 17> C -2.5213 -0.0478 1.7730
| 18> C -3.9091 -0.0808 1.9129
| 19> C -4.6777 -0.8766 1.0640
| 20> C -4.0624 -1.6397 0.0692
| 21> C -2.6611 -1.6162 -0.0850
| 22> O -2.0073 -2.3602 -1.0828
| 23> C -2.6462 -3.1836 -2.0556
| 24> F -1.6820 -3.7416 -2.8724
| 25> F -3.5040 -2.4253 -2.8321
| 26> F -3.3464 -4.2017 -1.4334
| 27> C -0.4475 1.6104 -0.3211
| 28> N 0.0676 2.3412 0.7038
| 29> C -0.2648 3.6438 0.8996
| 30> C -1.1831 4.2764 0.0470
| 31> C -1.5224 5.7344 0.2253
| 32> F -0.6303 6.5013 -0.5006
| 33> F -1.4454 6.0946 1.5596
| 34> F -2.8071 5.9944 -0.2197
| 35> C -1.7133 3.5430 -1.0257
| 36> C -1.3594 2.2038 -1.2082
| 37> Cl -2.1032 1.2853 -2.5103
| 38> C 3.0989 -0.2888 -0.0118
| 39> C 4.2646 -0.8298 0.5378
| 40> H 7.5160 -2.3400 2.0843
| 41> H 4.5529 -3.5773 -1.4658
| 42> H 2.5113 -2.6216 -2.4223
| 43> H 0.0281 -1.7182 0.3765
| 44> H 0.0914 -0.3826 1.5525
| 45> H -1.9406 0.5878 2.4301
| 46> H -4.3901 0.5155 2.6775
| 47> H -5.7543 -0.8989 1.1737
| 48> H -4.6884 -2.2396 -0.5755
| 49> H 0.1887 4.1832 1.7208
| 50> H -2.4071 4.0066 -1.7161
| 51> H 2.6947 0.6296 0.3955
| 52> H 4.7397 -0.3149 1.3632
| 53> *
| 54>
| 55>                          ****END OF INPUT****

CARTESIAN COORDINATES (ANGSTROEM)
---------------------------------
  O      6.527800   -3.661900    0.152700
  C      6.039400   -2.593600    0.611000
  O      6.671900   -1.956700    1.675900
  C      4.807000   -2.021600    0.025700
  C      4.159200   -2.658900   -1.048200
  C      2.993000   -2.115700   -1.595600
  C      2.456900   -0.930200   -1.077400
  S      0.985400   -0.239700   -1.751900
  O      0.282100   -1.242800   -2.622400
  O      1.352800    0.956800   -2.584700
  N     -0.076000    0.233700   -0.460000
  C     -0.392300   -0.715800    0.608400
  C     -1.886600   -0.819800    0.785000
  C     -2.521300   -0.047800    1.773000
  C     -3.909100   -0.080800    1.912900
  C     -4.677700   -0.876600    1.064000
  C     -4.062400   -1.639700    0.069200
  C     -2.661100   -1.616200   -0.085000
  O     -2.007300   -2.360200   -1.082800
  C     -2.646200   -3.183600   -2.055600
  F     -1.682000   -3.741600   -2.872400
  F     -3.504000   -2.425300   -2.832100
  F     -3.346400   -4.201700   -1.433400
  C     -0.447500    1.610400   -0.321100
  N      0.067600    2.341200    0.703800
  C     -0.264800    3.643800    0.899600
  C     -1.183100    4.276400    0.047000
  C     -1.522400    5.734400    0.225300
  F     -0.630300    6.501300   -0.500600
  F     -1.445400    6.094600    1.559600
  F     -2.807100    5.994400   -0.219700
  C     -1.713300    3.543000   -1.025700
  C     -1.359400    2.203800   -1.208200
  Cl    -2.103200    1.285300   -2.510300
  C      3.098900   -0.288800   -0.011800
  C      4.264600   -0.829800    0.537800
  H      7.516000   -2.340000    2.084300
  H      4.552900   -3.577300   -1.465800
  H      2.511300   -2.621600   -2.422300
  H      0.028100   -1.718200    0.376500
  H      0.091400   -0.382600    1.552500
  H     -1.940600    0.587800    2.430100
  H     -4.390100    0.515500    2.677500
  H     -5.754300   -0.898900    1.173700
  H     -4.688400   -2.239600   -0.575500
  H      0.188700    4.183200    1.720800
  H     -2.407100    4.006600   -1.716100
  H      2.694700    0.629600    0.395500
  H      4.739700   -0.314900    1.363200

 Total Charge           Charge          ....    0
 Multiplicity           Mult            ....    1
 Number of Electrons    NEL             ....  280
 Basis Dimension        Dim             ....  538

ORBITAL ENERGIES
----------------

  NO   OCC          E(Eh)            E(eV)
   0   2.0000    -101.539110     -2763.0197
   1   2.0000     -89.103521     -2424.6301
   2   2.0000     -24.736814      -673.1229
   3   2.0000     -24.735663      -673.0916
   4   2.0000     -24.735516      -673.0876
   5   2.0000     -24.732812      -673.0140
   6   2.0000     -24.732108      -672.9949
   7   2.0000     -24.731211      -672.9705
   8   2.0000     -19.210645      -522.7482
   9   2.0000     -19.199006      -522.4315
  10   2.0000     -19.140493      -520.8393
  11   2.0000     -19.130607      -520.5703
  12   2.0000     -19.127827      -520.4946
  13   2.0000     -14.385270      -391.4431
  14   2.0000     -14.367861      -390.9694
  15   2.0000     -10.499235      -285.6987
  16   2.0000     -10.454071      -284.4697
  17   2.0000     -10.338143      -281.3152
  18   2.0000     -10.297649      -280.2133
  19   2.0000     -10.277820      -279.6737
  20   2.0000     -10.273265      -279.5498
  21   2.0000     -10.257957      -279.1332
  22   2.0000     -10.247339      -278.8443
  23   2.0000     -10.245441      -278.7926
  24   2.0000     -10.242205      -278.7046
  25   2.0000     -10.239240      -278.6239
  26   2.0000     -10.235329      -278.5175
  27   2.0000     -10.224550      -278.2241
  28   2.0000     -10.223112      -278.1850
  29   2.0000     -10.221251      -278.1344
  30   2.0000     -10.220450      -278.1126
  31   2.0000     -10.211975      -277.8820
  32   2.0000     -10.201441      -277.5953
  33   2.0000     -10.198886      -277.5258
  34   2.0000     -10.198405      -277.5127
  35   2.0000     -10.192788      -277.3599
  36   2.0000      -9.470135      -257.6955
  37   2.0000      -8.139273      -221.4809
  38   2.0000      -7.233684      -196.8385
  39   2.0000      -7.223636      -196.5651
  40   2.0000      -7.223103      -196.5506
  41   2.0000      -6.104620      -166.1151
  42   2.0000      -6.102059      -166.0455
  43   2.0000      -6.101816      -166.0388
  44   2.0000      -1.297892       -35.3174
  45   2.0000      -1.295508       -35.2526
  46   2.0000      -1.221339       -33.2343
  47   2.0000      -1.220150       -33.2020
  48   2.0000      -1.218905       -33.1681
  49   2.0000      -1.216080       -33.0912
  50   2.0000      -1.088632       -29.6232
  51   2.0000      -1.083456       -29.4823
  52   2.0000      -1.080349       -29.3978
  53   2.0000      -0.997645       -27.1473
  54   2.0000      -0.989835       -26.9348
  55   2.0000      -0.965913       -26.2838
  56   2.0000      -0.935031       -25.4435
  57   2.0000      -0.894269       -24.3343
  58   2.0000      -0.884877       -24.0787
  59   2.0000      -0.868490       -23.6328
  60   2.0000      -0.838545       -22.8180
  61   2.0000      -0.811294       -22.0764
  62   2.0000      -0.790390       -21.5076
  63   2.0000      -0.780420       -21.2363
  64   2.0000      -0.774080       -21.0638
  65   2.0000      -0.767347       -20.8806
  66   2.0000      -0.731070       -19.8934
  67   2.0000      -0.722538       -19.6613
  68   2.0000      -0.703305       -19.1379
  69   2.0000      -0.692135       -18.8340
  70   2.0000      -0.668367       -18.1872
  71   2.0000      -0.655217       -17.8294
  72   2.0000      -0.641799       -17.4642
  73   2.0000      -0.637335       -17.3428
  74   2.0000      -0.630002       -17.1432
  75   2.0000      -0.614735       -16.7278
  76   2.0000      -0.604469       -16.4484
  77   2.0000      -0.590908       -16.0794
  78   2.0000      -0.587559       -15.9883
  79   2.0000      -0.585922       -15.9437
  80   2.0000      -0.583823       -15.8866
  81   2.0000      -0.576092       -15.6763
  82   2.0000      -0.572743       -15.5851
  83   2.0000      -0.568391       -15.4667
  84   2.0000      -0.544492       -14.8164
  85   2.0000      -0.530889       -14.4462
  86   2.0000      -0.525181       -14.2909
  87   2.0000      -0.507923       -13.8213
  88   2.0000      -0.498413       -13.5625
  89   2.0000      -0.495089       -13.4721
  90   2.0000      -0.479151       -13.0384
  91   2.0000      -0.476994       -12.9797
  92   2.0000      -0.474883       -12.9222
  93   2.0000      -0.466351       -12.6901
  94   2.0000      -0.464304       -12.6344
  95   2.0000      -0.464141       -12.6299
  96   2.0000      -0.463405       -12.6099
  97   2.0000      -0.462239       -12.5782
  98   2.0000      -0.459446       -12.5022
  99   2.0000      -0.455093       -12.3837
 100   2.0000      -0.451558       -12.2875
 101   2.0000      -0.451347       -12.2818
 102   2.0000      -0.445262       -12.1162
 103   2.0000      -0.441326       -12.0091
 104   2.0000      -0.440471       -11.9858
 105   2.0000      -0.436898       -11.8886
 106   2.0000      -0.433483       -11.7957
 107   2.0000      -0.431115       -11.7312
 108   2.0000      -0.428787       -11.6679
 109   2.0000      -0.424400       -11.5485
 110   2.0000      -0.423186       -11.5155
 111   2.0000      -0.418853       -11.3976
 112   2.0000      -0.415173       -11.2974
 113   2.0000      -0.412814       -11.2332
 114   2.0000      -0.409667       -11.1476
 115   2.0000      -0.403405       -10.9772
 116   2.0000      -0.396384       -10.7862
 117   2.0000      -0.394512       -10.7352
 118   2.0000      -0.390151       -10.6166
 119   2.0000      -0.387545       -10.5456
 120   2.0000      -0.371952       -10.1213
 121   2.0000      -0.369972       -10.0675
 122   2.0000      -0.360804        -9.8180
 123   2.0000      -0.358420        -9.7531
 124   2.0000      -0.351214        -9.5570
 125   2.0000      -0.331460        -9.0195
 126   2.0000      -0.329588        -8.9685
 127   2.0000      -0.324162        -8.8209
 128   2.0000      -0.315500        -8.5852
 129   2.0000      -0.308683        -8.3997
 130   2.0000      -0.300390        -8.1740
 131   2.0000      -0.289618        -7.8809
 132   2.0000      -0.287642        -7.8271
 133   2.0000      -0.282957        -7.6996
 134   2.0000      -0.279238        -7.5985
 135   2.0000      -0.277101        -7.5403
 136   2.0000      -0.269436        -7.3317
 137   2.0000      -0.264852        -7.2070
 138   2.0000      -0.258826        -7.0430
 139   2.0000      -0.243128        -6.6159
 140   0.0000      -0.088611        -2.4112
 141   0.0000      -0.068657        -1.8683
 142   0.0000      -0.053054        -1.4437
 143   0.0000      -0.034003        -0.9253
 144   0.0000      -0.022725        -0.6184

MULLIKEN ATOMIC CHARGES
-----------------------
   0 O :   -0.442246
   1 C :    0.528887
   2 O :   -0.624049
   3 C :    0.082921
   4 C :   -0.138974
   5 C :   -0.144654
   6 C :   -0.128466
   7 S :    1.217684
   8 O :   -0.529536
   9 O :   -0.532318
  10 N :   -0.613748
  11 C :   -0.232529
  12 C :    0.097159
  13 C :   -0.175469
  14 C :   -0.127673
  15 C :   -0.122670
  16 C :   -0.185572
  17 C :    0.333186
  18 O :   -0.540433
  19 C :    1.096712
  20 F :   -0.272905
  21 F :   -0.290416
  22 F :   -0.294364
  23 C :    0.416829
  24 N :   -0.396136
  25 C :   -0.008553
  26 C :   -0.026283
  27 C :    0.904183
  28 F :   -0.289048
  29 F :   -0.301875
  30 F :   -0.300324
  31 C :   -0.131157
  32 C :   -0.071907
  33 Cl:    0.060710
  34 C :   -0.152920
  35 C :   -0.147222
  36 H :    0.434941
  37 H :    0.184062
  38 H :    0.195995
  39 H :    0.191446
  40 H :    0.172067
  41 H :    0.143735
  42 H :    0.133792
  43 H :    0.142078
  44 H :    0.156794
  45 H :    0.179400
  46 H :    0.191217
  47 H :    0.183983
  48 H :    0.173665
Sum of atomic charges:    0.0000000

LOEWDIN ATOMIC CHARGES
----------------------
   0 O :   -0.258548
   1 C :    0.179989
   2 O :   -0.334820
   3 C :   -0.038333
   4 C :   -0.083876
   5 C :   -0.098146
   6 C :   -0.173829
   7 S :    1.262759
   8 O :   -0.560686
   9 O :   -0.565993
  10 N :   -0.282319
  11 C :   -0.145798
  12 C :   -0.050245
  13 C :   -0.124549
  14 C :   -0.137612
  15 C :   -0.116018
  16 C :   -0.155416
  17 C :    0.098649
  18 O :   -0.150032
  19 C :    0.363896
  20 F :   -0.080950
  21 F :   -0.102504
  22 F :   -0.106908
  23 C :    0.062288
  24 N :   -0.124998
  25 C :   -0.053859
  26 C :   -0.074649
  27 C :    0.312926
  28 F :   -0.107033
  29 F :   -0.109471
  30 F :   -0.109133
  31 C :   -0.086401
  32 C :   -0.078484
  33 Cl:    0.088739
  34 C :   -0.109677
  35 C :   -0.098661
  36 H :    0.350329
  37 H :    0.162306
  38 H :    0.166531
  39 H :    0.152955
  40 H :    0.133556
  41 H :    0.139631
  42 H :    0.134627
  43 H :    0.138723
  44 H :    0.144209
  45 H :    0.150184
  46 H :    0.164420
  47 H :    0.157150
  48 H :    0.155081

  Mayer bond orders larger than 0.100000
B(  0-O ,  1-C ) :   1.8642 B(  1-C ,  2-O ) :   1.0250 B(  1-C ,  3-C ) :   1.0075
B(  2-O , 36-H ) :   0.7413 B(  3-C ,  4-C ) :   1.4018 B(  3-C , 35-C ) :   1.3842
B(  4-C ,  5-C ) :   1.4175 B(  4-C , 37-H ) :   0.9086 B(  5-C ,  6-C ) :   1.3962
B(  5-C , 38-H ) :   0.9063 B(  6-C ,  7-S ) :   0.8087 B(  6-C , 34-C ) :   1.3812
B(  7-S ,  8-O ) :   1.6469 B(  7-S ,  9-O ) :   1.6624 B(  7-S , 10-N ) :   0.7700
B( 10-N , 11-C ) :   0.9154 B( 10-N , 23-C ) :   0.9386 B( 11-C , 12-C ) :   0.9626
B( 11-C , 39-H ) :   0.9105 B( 11-C , 40-H ) :   0.9189 B( 12-C , 13-C ) :   1.4396
B( 12-C , 17-C ) :   1.3883 B( 13-C , 14-C ) :   1.4403 B( 13-C , 41-H ) :   0.9190
B( 14-C , 15-C ) :   1.4524 B( 14-C , 42-H ) :   0.9283 B( 15-C , 16-C ) :   1.4441
B( 15-C , 43-H ) :   0.9280 B( 16-C , 17-C ) :   1.3811 B( 16-C , 44-H ) :   0.9078
B( 17-C , 18-O ) :   0.8434 B( 18-O , 19-C ) :   0.9740 B( 19-C , 20-F ) :   1.0130
B( 19-C , 21-F ) :   0.9686 B( 19-C , 22-F ) :   0.9634 B( 23-C , 24-N ) :   1.3761
B( 23-C , 32-C ) :   1.3401 B( 24-N , 25-C ) :   1.4072 B( 25-C , 26-C ) :   1.3646
B( 25-C , 45-H ) :   0.9186 B( 26-C , 27-C ) :   0.9727 B( 26-C , 31-C ) :   1.4082
B( 27-C , 28-F ) :   0.9924 B( 27-C , 29-F ) :   0.9489 B( 27-C , 30-F ) :   0.9522
B( 31-C , 32-C ) :   1.3881 B( 31-C , 46-H ) :   0.9076 B( 32-C , 33-Cl) :   1.0867
B( 34-C , 35-C ) :   1.4291 B( 34-C , 47-H ) :   0.9053 B( 35-C , 48-H ) :   0.9146

FINAL SINGLE POINT ENERGY     -2749.920864642300

DIPOLE MOMENT
-------------

Method             : SCF
Type of density    : Electron Density
Multiplicity       :   1
Irrep              :   0
Energy             : -2749.9208646422998754 Eh
Relativity type    :
Basis              : AO
                                X                 Y                 Z
Electronic contribution:    -19.483899047      14.594746176     -17.015855178
Nuclear contribution   :     19.390887196     -14.328947153      19.436623844
                        -----------------------------------------
Total Dipole Moment    :     -0.093011851       0.265799023       2.420768667
                        -----------------------------------------
Magnitude (a.u.)       :      2.437092789
Magnitude (Debye)      :      6.194597578

Rotational constants in cm-1:             0.003423             0.002344             0.001650
Rotational constants in MHz :           102.613811            70.282391            49.468967

                             ****ORCA TERMINATED NORMALLY****
TOTAL RUN TIME: 0 days 0 hours 6 minutes 59 seconds 212 msec
