                         Program Version 6.0.0  -   RELEASE  -
|  1> ! B3LYP 6-31G* SP
|  2>
|  3> * xyz 0 1
|  4> C -2.7998 -0.6319 -0.3167
|  5> C -1.5671 -0.9576 -1.1092
|  6> C -0.2607 -0.7093 -0.6747
|  7> N 0.0952 -0.0884 0.5642
|  8> C 0.5633 1.2972 0.5788
|  9> C -0.5626 2.2178 0.1938
| 10> C -1.4434 2.6996 1.1718
| 11> C -2.5494 3.4672 0.8042
| 12> C -2.7932 3.7531 -0.5418
| 13> F -3.8936 4.4755 -0.8731
| 14> C -1.9179 3.2817 -1.5385
| 15> C -2.2196 3.5463 -2.9941
| 16> F -3.3187 2.7988 -3.3748
| 17> F -1.1499 3.2090 -3.8057
| 18> F -2.4980 4.8885 -3.1815
| 19> C -0.8091 2.5026 -1.1590
| 20> S 0.0330 -1.0064 2.0358
| 21> O -0.8643 -0.2989 3.0124
| 22> O -0.5223 -2.3768 1.7650
| 23> C 1.6557 -1.1661 2.6970
| 24> C 1.8701 -1.0967 4.0790
| 25> C 3.1619 -1.2238 4.5983
| 26> C 4.2585 -1.4254 3.7405
| 27> C 5.6279 -1.5600 4.2841
| 28> O 5.8313 -1.4932 5.5267
| 29> O 6.7066 -1.7621 3.4270
| 30> C 4.0346 -1.4991 2.3546
| 31> C 2.7419 -1.3720 1.8383
| 32> S 0.8463 -1.0933 -1.8909
| 33> C -0.3252 -1.6100 -2.9774
| 34> C -0.1364 -2.0896 -4.2712
| 35> C -1.2682 -2.4435 -5.0203
| 36> C -2.5563 -2.3079 -4.4692
| 37> C -2.7247 -1.8188 -3.1631
| 38> C -1.5904 -1.4731 -2.4168
| 39> H -3.3901 0.1408 -0.8523
| 40> H -3.4166 -1.5462 -0.1931
| 41> H -2.5466 -0.2401 0.6890
| 42> H 1.4180 1.4109 -0.1229
| 43> H 0.9407 1.5670 1.5893
| 44> H -1.2835 2.4662 2.2171
| 45> H -3.2293 3.8285 1.5650
| 46> H -0.1465 2.0933 -1.9115
| 47> H 1.0394 -0.9455 4.7564
| 48> H 3.3013 -1.1650 5.6705
| 49> H 7.6483 -1.8555 3.7887
| 50> H 4.8570 -1.6557 1.6681
| 51> H 2.5891 -1.4342 0.7686
| 52> H 0.8569 -2.1839 -4.6905
| 53> H -1.1504 -2.8191 -6.0284
| 54> H -3.4234 -2.5804 -5.0567
| 55> H -3.7199 -1.7145 -2.7506
| 56> *
| 57>
| 58>                          ****END OF INPUT****

CARTESIAN COORDINATES (ANGSTROEM)
---------------------------------
  C     -2.799800   -0.631900   -0.316700
  C     -1.567100   -0.957600   -1.109200
  C     -0.260700   -0.709300   -0.674700
  N      0.095200   -0.088400    0.564200
  C      0.563300    1.297200    0.578800
  C     -0.562600    2.217800    0.193800
  C     -1.443400    2.699600    1.171800
  C     -2.549400    3.467200    0.804200
  C     -2.793200    3.753100   -0.541800
  F     -3.893600    4.475500   -0.873100
  C     -1.917900    3.281700   -1.538500
  C     -2.219600    3.546300   -2.994100
  F     -3.318700    2.798800   -3.374800
  F     -1.149900    3.209000   -3.805700
  F     -2.498000    4.888500   -3.181500
  C     -0.809100    2.502600   -1.159000
  S      0.033000   -1.006400    2.035800
  O     -0.864300   -0.298900    3.012400
  O     -0.522300   -2.376800    1.765000
  C      1.655700   -1.166100    2.697000
  C      1.870100   -1.096700    4.079000
  C      3.161900   -1.223800    4.598300
  C      4.258500   -1.425400    3.740500
  C      5.627900   -1.560000    4.284100
  O      5.831300   -1.493200    5.526700
  O      6.706600   -1.762100    3.427000
  C      4.034600   -1.499100    2.354600
  C      2.741900   -1.372000    1.838300
  S      0.846300   -1.093300   -1.890900
  C     -0.325200   -1.610000   -2.977400
  C     -0.136400   -2.089600   -4.271200
  C     -1.268200   -2.443500   -5.020300
  C     -2.556300   -2.307900   -4.469200
  C     -2.724700   -1.818800   -3.163100
  C     -1.590400   -1.473100   -2.416800
  H     -3.390100    0.140800   -0.852300
  H     -3.416600   -1.546200   -0.193100
  H     -2.546600   -0.240100    0.689000
  H      1.418000    1.410900   -0.122900
  H      0.940700    1.567000    1.589300
  H     -1.283500    2.466200    2.217100
  H     -3.229300    3.828500    1.565000
  H     -0.146500    2.093300   -1.911500
  H      1.039400   -0.945500    4.756400
  H      3.301300   -1.165000    5.670500
  H      7.648300   -1.855500    3.788700
  H      4.857000   -1.655700    1.668100
  H      2.589100   -1.434200    0.768600
  H      0.856900   -2.183900   -4.690500
  H     -1.150400   -2.819100   -6.028400
  H     -3.423400   -2.580400   -5.056700
  H     -3.719900   -1.714500   -2.750600

 Total Charge           Charge          ....    0
 Multiplicity           Mult            ....    1
 Number of Electrons    NEL             ....  268
 Basis Dimension        Dim             ....  532

ORBITAL ENERGIES
----------------

  NO   OCC          E(Eh)            E(eV)
   0   2.0000     -89.106311     -2424.7060
   1   2.0000     -88.890748     -2418.8402
   2   2.0000     -24.723220      -672.7530
   3   2.0000     -24.716042      -672.5577
   4   2.0000     -24.715369      -672.5394
   5   2.0000     -24.714317      -672.5108
   6   2.0000     -19.201087      -522.4881
   7   2.0000     -19.142832      -520.9029
   8   2.0000     -19.136749      -520.7374
   9   2.0000     -19.134604      -520.6791
  10   2.0000     -14.390937      -391.5973
  11   2.0000     -10.438710      -284.0517
  12   2.0000     -10.340437      -281.3776
  13   2.0000     -10.292631      -280.0767
  14   2.0000     -10.250316      -278.9253
  15   2.0000     -10.249738      -278.9096
  16   2.0000     -10.248514      -278.8762
  17   2.0000     -10.238108      -278.5931
  18   2.0000     -10.228568      -278.3335
  19   2.0000     -10.226388      -278.2742
  20   2.0000     -10.224529      -278.2236
  21   2.0000     -10.223878      -278.2059
  22   2.0000     -10.223607      -278.1985
  23   2.0000     -10.215493      -277.9777
  24   2.0000     -10.213937      -277.9354
  25   2.0000     -10.211234      -277.8618
  26   2.0000     -10.208117      -277.7770
  27   2.0000     -10.206008      -277.7196
  28   2.0000     -10.200000      -277.5561
  29   2.0000     -10.196474      -277.4602
  30   2.0000     -10.191834      -277.3339
  31   2.0000     -10.190135      -277.2877
  32   2.0000     -10.189636      -277.2741
  33   2.0000     -10.187711      -277.2217
  34   2.0000     -10.175627      -276.8929
  35   2.0000      -8.142300      -221.5633
  36   2.0000      -7.968776      -216.8414
  37   2.0000      -6.107470      -166.1927
  38   2.0000      -6.105215      -166.1313
  39   2.0000      -6.104854      -166.1215
  40   2.0000      -5.931878      -161.4146
  41   2.0000      -5.928232      -161.3154
  42   2.0000      -5.925078      -161.2296
  43   2.0000      -1.279692       -34.8222
  44   2.0000      -1.227025       -33.3891
  45   2.0000      -1.205708       -32.8090
  46   2.0000      -1.201996       -32.7080
  47   2.0000      -1.093366       -29.7520
  48   2.0000      -1.085672       -29.5426
  49   2.0000      -0.999849       -27.2073
  50   2.0000      -0.972187       -26.4545
  51   2.0000      -0.961400       -26.1610
  52   2.0000      -0.907368       -24.6907
  53   2.0000      -0.897351       -24.4182
  54   2.0000      -0.881487       -23.9865
  55   2.0000      -0.832166       -22.6444
  56   2.0000      -0.814980       -22.1767
  57   2.0000      -0.799743       -21.7621
  58   2.0000      -0.791131       -21.5278
  59   2.0000      -0.784141       -21.3376
  60   2.0000      -0.781824       -21.2745
  61   2.0000      -0.740181       -20.1413
  62   2.0000      -0.733650       -19.9636
  63   2.0000      -0.723492       -19.6872
  64   2.0000      -0.702396       -19.1132
  65   2.0000      -0.696800       -18.9609
  66   2.0000      -0.672826       -18.3085
  67   2.0000      -0.658342       -17.9144
  68   2.0000      -0.641676       -17.4609
  69   2.0000      -0.637680       -17.3522
  70   2.0000      -0.624086       -16.9823
  71   2.0000      -0.617825       -16.8119
  72   2.0000      -0.600918       -16.3518
  73   2.0000      -0.586082       -15.9481
  74   2.0000      -0.574503       -15.6330
  75   2.0000      -0.570355       -15.5202
  76   2.0000      -0.568746       -15.4764
  77   2.0000      -0.566958       -15.4277
  78   2.0000      -0.551187       -14.9986
  79   2.0000      -0.537086       -14.6149
  80   2.0000      -0.533003       -14.5037
  81   2.0000      -0.512572       -13.9478
  82   2.0000      -0.504239       -13.7210
  83   2.0000      -0.499069       -13.5804
  84   2.0000      -0.492784       -13.4093
  85   2.0000      -0.486080       -13.2269
  86   2.0000      -0.481860       -13.1121
  87   2.0000      -0.475858       -12.9488
  88   2.0000      -0.473295       -12.8790
  89   2.0000      -0.471748       -12.8369
  90   2.0000      -0.467334       -12.7168
  91   2.0000      -0.459840       -12.5129
  92   2.0000      -0.455138       -12.3849
  93   2.0000      -0.449123       -12.2213
  94   2.0000      -0.448439       -12.2026
  95   2.0000      -0.446645       -12.1538
  96   2.0000      -0.444310       -12.0903
  97   2.0000      -0.443596       -12.0709
  98   2.0000      -0.433675       -11.8009
  99   2.0000      -0.429097       -11.6763
 100   2.0000      -0.426201       -11.5975
 101   2.0000      -0.422933       -11.5086
 102   2.0000      -0.417538       -11.3618
 103   2.0000      -0.415877       -11.3166
 104   2.0000      -0.408193       -11.1075
 105   2.0000      -0.407434       -11.0868
 106   2.0000      -0.399479       -10.8704
 107   2.0000      -0.397526       -10.8172
 108   2.0000      -0.396122       -10.7790
 109   2.0000      -0.393366       -10.7040
 110   2.0000      -0.391318       -10.6483
 111   2.0000      -0.389233       -10.5916
 112   2.0000      -0.383130       -10.4255
 113   2.0000      -0.375165       -10.2088
 114   2.0000      -0.368679       -10.0323
 115   2.0000      -0.359711        -9.7882
 116   2.0000      -0.355861        -9.6835
 117   2.0000      -0.354935        -9.6583
 118   2.0000      -0.342574        -9.3219
 119   2.0000      -0.339416        -9.2360
 120   2.0000      -0.330623        -8.9967
 121   2.0000      -0.326916        -8.8958
 122   2.0000      -0.313322        -8.5259
 123   2.0000      -0.311050        -8.4641
 124   2.0000      -0.292291        -7.9536
 125   2.0000      -0.286709        -7.8018
 126   2.0000      -0.281776        -7.6675
 127   2.0000      -0.280519        -7.6333
 128   2.0000      -0.279050        -7.5933
 129   2.0000      -0.275396        -7.4939
 130   2.0000      -0.266649        -7.2559
 131   2.0000      -0.255754        -6.9594
 132   2.0000      -0.240035        -6.5317
 133   2.0000      -0.213371        -5.8061
 134   0.0000      -0.089107        -2.4247
 135   0.0000      -0.043614        -1.1868
 136   0.0000      -0.037423        -1.0183
 137   0.0000      -0.035352        -0.9620
 138   0.0000      -0.024610        -0.6697

MULLIKEN ATOMIC CHARGES
-----------------------
   0 C :   -0.534588
   1 C :    0.196487
   2 C :   -0.060279
   3 N :   -0.608146
   4 C :   -0.255649
   5 C :    0.166591
   6 C :   -0.144501
   7 C :   -0.207907
   8 C :    0.387475
   9 F :   -0.299606
  10 C :   -0.120039
  11 C :    0.919059
  12 F :   -0.296175
  13 F :   -0.304515
  14 F :   -0.299602
  15 C :   -0.193901
  16 S :    1.208039
  17 O :   -0.554157
  18 O :   -0.516034
  19 C :   -0.121689
  20 C :   -0.146460
  21 C :   -0.138576
  22 C :    0.081984
  23 C :    0.529469
  24 O :   -0.442172
  25 O :   -0.623743
  26 C :   -0.145946
  27 C :   -0.154244
  28 S :    0.204040
  29 C :   -0.118582
  30 C :   -0.174487
  31 C :   -0.113122
  32 C :   -0.143460
  33 C :   -0.170684
  34 C :    0.111758
  35 H :    0.160607
  36 H :    0.169356
  37 H :    0.191415
  38 H :    0.169206
  39 H :    0.179641
  40 H :    0.170102
  41 H :    0.159812
  42 H :    0.170481
  43 H :    0.192067
  44 H :    0.184239
  45 H :    0.435584
  46 H :    0.174714
  47 H :    0.177925
  48 H :    0.140381
  49 H :    0.135008
  50 H :    0.134005
  51 H :    0.138820
Sum of atomic charges:   -0.0000000

LOEWDIN ATOMIC CHARGES
----------------------
   0 C :   -0.356284
   1 C :   -0.017642
   2 C :   -0.169405
   3 N :   -0.283811
   4 C :   -0.146702
   5 C :   -0.037882
   6 C :   -0.099592
   7 C :   -0.150281
   8 C :    0.135433
   9 F :   -0.092209
  10 C :   -0.098946
  11 C :    0.314629
  12 F :   -0.111591
  13 F :   -0.110890
  14 F :   -0.110818
  15 C :   -0.107371
  16 S :    1.258002
  17 O :   -0.579911
  18 O :   -0.556446
  19 C :   -0.173713
  20 C :   -0.099347
  21 C :   -0.083237
  22 C :   -0.038486
  23 C :    0.179976
  24 O :   -0.258430
  25 O :   -0.334362
  26 C :   -0.097495
  27 C :   -0.112404
  28 S :    0.349212
  29 C :   -0.161349
  30 C :   -0.132726
  31 C :   -0.124547
  32 C :   -0.130871
  33 C :   -0.117159
  34 C :   -0.042188
  35 H :    0.137497
  36 H :    0.142895
  37 H :    0.150368
  38 H :    0.132579
  39 H :    0.145916
  40 H :    0.151531
  41 H :    0.151524
  42 H :    0.151101
  43 H :    0.164584
  44 H :    0.162415
  45 H :    0.350803
  46 H :    0.155703
  47 H :    0.153525
  48 H :    0.138744
  49 H :    0.135892
  50 H :    0.134587
  51 H :    0.139179

  Mayer bond orders larger than 0.100000
B(  0-C ,  1-C ) :   1.0253 B(  0-C , 35-H ) :   0.9252 B(  0-C , 36-H ) :   0.9262
B(  0-C , 37-H ) :   0.9202 B(  1-C ,  2-C ) :   1.5065 B(  1-C , 34-C ) :   1.2416
B(  2-C ,  3-N ) :   0.9166 B(  2-C , 28-S ) :   1.0481 B(  3-N ,  4-C ) :   0.9217
B(  3-N , 16-S ) :   0.7801 B(  4-C ,  5-C ) :   0.9508 B(  4-C , 38-H ) :   0.9223
B(  4-C , 39-H ) :   0.9189 B(  5-C ,  6-C ) :   1.4329 B(  5-C , 15-C ) :   1.4175
B(  6-C ,  7-C ) :   1.4208 B(  6-C , 40-H ) :   0.9118 B(  7-C ,  8-C ) :   1.3836
B(  7-C , 41-H ) :   0.9170 B(  8-C ,  9-F ) :   0.9558 B(  8-C , 10-C ) :   1.3278
B( 10-C , 11-C ) :   0.9641 B( 10-C , 15-C ) :   1.3950 B( 11-C , 12-F ) :   0.9833
B( 11-C , 13-F ) :   0.9465 B( 11-C , 14-F ) :   0.9625 B( 15-C , 42-H ) :   0.9059
B( 16-S , 17-O ) :   1.6062 B( 16-S , 18-O ) :   1.6929 B( 16-S , 19-C ) :   0.8102
B( 19-C , 20-C ) :   1.3934 B( 19-C , 27-C ) :   1.3846 B( 20-C , 21-C ) :   1.4207
B( 20-C , 43-H ) :   0.9082 B( 21-C , 22-C ) :   1.4013 B( 21-C , 44-H ) :   0.9084
B( 22-C , 23-C ) :   1.0072 B( 22-C , 26-C ) :   1.3853 B( 23-C , 24-O ) :   1.8639
B( 23-C , 25-O ) :   1.0260 B( 25-O , 45-H ) :   0.7409 B( 26-C , 27-C ) :   1.4305
B( 26-C , 46-H ) :   0.9140 B( 27-C , 47-H ) :   0.9063 B( 28-S , 29-C ) :   1.0531
B( 29-C , 30-C ) :   1.3393 B( 29-C , 34-C ) :   1.3186 B( 30-C , 31-C ) :   1.4879
B( 30-C , 48-H ) :   0.9250 B( 31-C , 32-C ) :   1.3877 B( 31-C , 49-H ) :   0.9303
B( 32-C , 33-C ) :   1.4763 B( 32-C , 50-H ) :   0.9297 B( 33-C , 34-C ) :   1.3402
B( 33-C , 51-H ) :   0.9182

FINAL SINGLE POINT ENERGY     -2475.050562424616

DIPOLE MOMENT
-------------

Method             : SCF
Type of density    : Electron Density
Multiplicity       :   1
Irrep              :   0
Energy             : -2475.0505624246161460 Eh
Relativity type    :
Basis              : AO
                                X                 Y                 Z
Electronic contribution:     -9.197853963      23.295035159     -12.848631386
Nuclear contribution   :     10.932118972     -23.171528198      12.395998415
                        -----------------------------------------
Total Dipole Moment    :      1.734265009       0.123506961      -0.452632971
                        -----------------------------------------
Magnitude (a.u.)       :      1.796609500
Magnitude (Debye)      :      4.566618434

Rotational constants in cm-1:             0.005304             0.001953             0.001681
Rotational constants in MHz :           158.998911            58.550187            50.390482

                             ****ORCA TERMINATED NORMALLY****
TOTAL RUN TIME: 0 days 0 hours 6 minutes 55 seconds 246 msec
