                         Program Version 6.0.0  -   RELEASE  -
|  1> ! B3LYP 6-31G* SP
|  2>
|  3> * xyz 0 1
|  4> C -5.6969 -0.8074 -0.3930
|  5> N -4.3965 -1.0941 0.2384
|  6> C -4.1497 -2.5450 0.2081
|  7> C -3.3016 -0.3741 -0.4483
|  8> C -3.1870 1.0617 0.0769
|  9> C -2.0007 1.7521 -0.5277
| 10> C -1.9946 2.5363 -1.6771
| 11> N -0.7349 2.9317 -1.9708
| 12> C 0.0539 2.3922 -1.0250
| 13> C 1.4377 2.5005 -0.9177
| 14> C 2.0718 1.8306 0.1441
| 15> C 1.3152 1.0612 1.0721
| 16> O 1.9091 0.3688 2.1394
| 17> C 3.3142 0.2452 2.3619
| 18> C 3.9461 -0.6373 1.3180
| 19> C 5.0873 -0.2113 0.6177
| 20> C 5.6739 -1.0406 -0.3435
| 21> C 5.1323 -2.3020 -0.6053
| 22> C 4.0051 -2.7380 0.0963
| 23> C 3.4154 -1.9119 1.0581
| 24> C -0.0838 0.9803 0.9296
| 25> C -0.6811 1.6610 -0.1302
| 26> H -5.7118 -1.1320 -1.4576
| 27> H -6.5107 -1.3319 0.1528
| 28> H -5.9267 0.2765 -0.3420
| 29> H -4.9770 -3.0892 0.7132
| 30> H -4.0548 -2.9154 -0.8375
| 31> H -3.2186 -2.7854 0.7650
| 32> H -2.3261 -0.8767 -0.2530
| 33> H -3.4501 -0.3675 -1.5528
| 34> H -4.1012 1.6397 -0.1716
| 35> H -3.0819 1.0482 1.1830
| 36> H -2.8622 2.7920 -2.2715
| 37> H -0.4376 3.5223 -2.7791
| 38> H 2.0097 3.0804 -1.6305
| 39> H 3.1445 1.9174 0.2348
| 40> H 3.4726 -0.2226 3.3561
| 41> H 3.7828 1.2525 2.3968
| 42> H 5.5205 0.7621 0.8114
| 43> H 6.5495 -0.7057 -0.8844
| 44> H 5.5878 -2.9427 -1.3493
| 45> H 3.5890 -3.7169 -0.1039
| 46> H 2.5444 -2.2630 1.5976
| 47> H -0.6774 0.3980 1.6229
| 48> *
| 49>
| 50>                          ****END OF INPUT****

CARTESIAN COORDINATES (ANGSTROEM)
---------------------------------
  C     -5.696900   -0.807400   -0.393000
  N     -4.396500   -1.094100    0.238400
  C     -4.149700   -2.545000    0.208100
  C     -3.301600   -0.374100   -0.448300
  C     -3.187000    1.061700    0.076900
  C     -2.000700    1.752100   -0.527700
  C     -1.994600    2.536300   -1.677100
  N     -0.734900    2.931700   -1.970800
  C      0.053900    2.392200   -1.025000
  C      1.437700    2.500500   -0.917700
  C      2.071800    1.830600    0.144100
  C      1.315200    1.061200    1.072100
  O      1.909100    0.368800    2.139400
  C      3.314200    0.245200    2.361900
  C      3.946100   -0.637300    1.318000
  C      5.087300   -0.211300    0.617700
  C      5.673900   -1.040600   -0.343500
  C      5.132300   -2.302000   -0.605300
  C      4.005100   -2.738000    0.096300
  C      3.415400   -1.911900    1.058100
  C     -0.083800    0.980300    0.929600
  C     -0.681100    1.661000   -0.130200
  H     -5.711800   -1.132000   -1.457600
  H     -6.510700   -1.331900    0.152800
  H     -5.926700    0.276500   -0.342000
  H     -4.977000   -3.089200    0.713200
  H     -4.054800   -2.915400   -0.837500
  H     -3.218600   -2.785400    0.765000
  H     -2.326100   -0.876700   -0.253000
  H     -3.450100   -0.367500   -1.552800
  H     -4.101200    1.639700   -0.171600
  H     -3.081900    1.048200    1.183000
  H     -2.862200    2.792000   -2.271500
  H     -0.437600    3.522300   -2.779100
  H      2.009700    3.080400   -1.630500
  H      3.144500    1.917400    0.234800
  H      3.472600   -0.222600    3.356100
  H      3.782800    1.252500    2.396800
  H      5.520500    0.762100    0.811400
  H      6.549500   -0.705700   -0.884400
  H      5.587800   -2.942700   -1.349300
  H      3.589000   -3.716900   -0.103900
  H      2.544400   -2.263000    1.597600
  H     -0.677400    0.398000    1.622900

 Total Charge           Charge          ....    0
 Multiplicity           Mult            ....    1
 Number of Electrons    NEL             ....  158
 Basis Dimension        Dim             ....  352

ORBITAL ENERGIES
----------------

  NO   OCC          E(Eh)            E(eV)
   0   2.0000     -19.147449      -521.0286
   1   2.0000     -14.365779      -390.9127
   2   2.0000     -14.308404      -389.3515
   3   2.0000     -10.232103      -278.4297
   4   2.0000     -10.226207      -278.2692
   5   2.0000     -10.195059      -277.4217
   6   2.0000     -10.188824      -277.2520
   7   2.0000     -10.188399      -277.2404
   8   2.0000     -10.187539      -277.2170
   9   2.0000     -10.185965      -277.1742
  10   2.0000     -10.183869      -277.1172
  11   2.0000     -10.178597      -276.9737
  12   2.0000     -10.177851      -276.9534
  13   2.0000     -10.177307      -276.9386
  14   2.0000     -10.176628      -276.9201
  15   2.0000     -10.175468      -276.8886
  16   2.0000     -10.171037      -276.7680
  17   2.0000     -10.165547      -276.6186
  18   2.0000     -10.165348      -276.6132
  19   2.0000     -10.159391      -276.4511
  20   2.0000     -10.153632      -276.2944
  21   2.0000     -10.152421      -276.2614
  22   2.0000      -1.027112       -27.9491
  23   2.0000      -0.984212       -26.7818
  24   2.0000      -0.899184       -24.4681
  25   2.0000      -0.846131       -23.0244
  26   2.0000      -0.827184       -22.5088
  27   2.0000      -0.791007       -21.5244
  28   2.0000      -0.763943       -20.7879
  29   2.0000      -0.737165       -20.0593
  30   2.0000      -0.733930       -19.9712
  31   2.0000      -0.722276       -19.6541
  32   2.0000      -0.697030       -18.9672
  33   2.0000      -0.686001       -18.6670
  34   2.0000      -0.670061       -18.2333
  35   2.0000      -0.639389       -17.3987
  36   2.0000      -0.609873       -16.5955
  37   2.0000      -0.597894       -16.2695
  38   2.0000      -0.589392       -16.0382
  39   2.0000      -0.573703       -15.6112
  40   2.0000      -0.564505       -15.3609
  41   2.0000      -0.543643       -14.7933
  42   2.0000      -0.529614       -14.4115
  43   2.0000      -0.509853       -13.8738
  44   2.0000      -0.492600       -13.4043
  45   2.0000      -0.477916       -13.0048
  46   2.0000      -0.462979       -12.5983
  47   2.0000      -0.459604       -12.5064
  48   2.0000      -0.454815       -12.3762
  49   2.0000      -0.447769       -12.1844
  50   2.0000      -0.439105       -11.9486
  51   2.0000      -0.437740       -11.9115
  52   2.0000      -0.422914       -11.5081
  53   2.0000      -0.420848       -11.4518
  54   2.0000      -0.417920       -11.3722
  55   2.0000      -0.416039       -11.3210
  56   2.0000      -0.410500       -11.1703
  57   2.0000      -0.403734       -10.9862
  58   2.0000      -0.388246       -10.5647
  59   2.0000      -0.380514       -10.3543
  60   2.0000      -0.374989       -10.2040
  61   2.0000      -0.372016       -10.1231
  62   2.0000      -0.361628        -9.8404
  63   2.0000      -0.354357        -9.6425
  64   2.0000      -0.352479        -9.5914
  65   2.0000      -0.348307        -9.4779
  66   2.0000      -0.343437        -9.3454
  67   2.0000      -0.339555        -9.2398
  68   2.0000      -0.333522        -9.0756
  69   2.0000      -0.325482        -8.8568
  70   2.0000      -0.316447        -8.6110
  71   2.0000      -0.294392        -8.0108
  72   2.0000      -0.282151        -7.6777
  73   2.0000      -0.259743        -7.0680
  74   2.0000      -0.243111        -6.6154
  75   2.0000      -0.237031        -6.4500
  76   2.0000      -0.203097        -5.5266
  77   2.0000      -0.192443        -5.2366
  78   2.0000      -0.179123        -4.8742
  79   0.0000      -0.001859        -0.0506
  80   0.0000       0.004289         0.1167
  81   0.0000       0.005123         0.1394
  82   0.0000       0.052544         1.4298
  83   0.0000       0.072369         1.9693

MULLIKEN ATOMIC CHARGES
-----------------------
   0 C :   -0.301505
   1 N :   -0.343420
   2 C :   -0.294863
   3 C :   -0.122231
   4 C :   -0.333609
   5 C :    0.039672
   6 C :   -0.024842
   7 N :   -0.633400
   8 C :    0.289285
   9 C :   -0.182165
  10 C :   -0.208528
  11 C :    0.354445
  12 O :   -0.528040
  13 C :   -0.102260
  14 C :    0.129700
  15 C :   -0.175522
  16 C :   -0.126006
  17 C :   -0.124804
  18 C :   -0.126157
  19 C :   -0.155339
  20 C :   -0.271337
  21 C :    0.134713
  22 H :    0.114655
  23 H :    0.144739
  24 H :    0.146973
  25 H :    0.140449
  26 H :    0.114973
  27 H :    0.146894
  28 H :    0.143033
  29 H :    0.110026
  30 H :    0.130506
  31 H :    0.149180
  32 H :    0.133435
  33 H :    0.330162
  34 H :    0.114384
  35 H :    0.122355
  36 H :    0.161596
  37 H :    0.134589
  38 H :    0.121792
  39 H :    0.125395
  40 H :    0.125618
  41 H :    0.128187
  42 H :    0.138557
  43 H :    0.128715
Sum of atomic charges:   -0.0000000

LOEWDIN ATOMIC CHARGES
----------------------
   0 C :   -0.275388
   1 N :   -0.192720
   2 C :   -0.274304
   3 C :   -0.152803
   4 C :   -0.221998
   5 C :   -0.076317
   6 C :   -0.118878
   7 N :   -0.116444
   8 C :   -0.007628
   9 C :   -0.147200
  10 C :   -0.180393
  11 C :    0.078451
  12 O :   -0.191953
  13 C :   -0.082605
  14 C :   -0.038004
  15 C :   -0.136865
  16 C :   -0.129359
  17 C :   -0.130914
  18 C :   -0.126344
  19 C :   -0.120011
  20 C :   -0.163447
  21 C :   -0.039574
  22 H :    0.094969
  23 H :    0.121867
  24 H :    0.120812
  25 H :    0.119378
  26 H :    0.095756
  27 H :    0.121523
  28 H :    0.124065
  29 H :    0.098217
  30 H :    0.121158
  31 H :    0.131021
  32 H :    0.129154
  33 H :    0.264716
  34 H :    0.126315
  35 H :    0.132306
  36 H :    0.136208
  37 H :    0.113320
  38 H :    0.127515
  39 H :    0.129941
  40 H :    0.130126
  41 H :    0.131232
  42 H :    0.137258
  43 H :    0.137840

  Mayer bond orders larger than 0.100000
B(  0-C ,  1-N ) :   0.9907 B(  0-C , 22-H ) :   0.9218 B(  0-C , 23-H ) :   0.9488
B(  0-C , 24-H ) :   0.9448 B(  1-N ,  2-C ) :   0.9878 B(  1-N ,  3-C ) :   0.9475
B(  2-C , 25-H ) :   0.9485 B(  2-C , 26-H ) :   0.9244 B(  2-C , 27-H ) :   0.9485
B(  3-C ,  4-C ) :   0.9874 B(  3-C , 28-H ) :   0.9354 B(  3-C , 29-H ) :   0.9181
B(  4-C ,  5-C ) :   0.9843 B(  4-C , 30-H ) :   0.9343 B(  4-C , 31-H ) :   0.9269
B(  5-C ,  6-C ) :   1.5305 B(  5-C , 21-C ) :   1.3213 B(  6-C ,  7-N ) :   1.0929
B(  6-C , 32-H ) :   0.9296 B(  7-N ,  8-C ) :   1.0044 B(  7-N , 33-H ) :   0.8392
B(  8-C ,  9-C ) :   1.3583 B(  8-C , 21-C ) :   1.3104 B(  9-C , 10-C ) :   1.4643
B(  9-C , 20-C ) :   0.1035 B(  9-C , 34-H ) :   0.9240 B( 10-C , 11-C ) :   1.3136
B( 10-C , 35-H ) :   0.9162 B( 11-C , 12-O ) :   0.8704 B( 11-C , 20-C ) :   1.4207
B( 12-O , 13-C ) :   0.9211 B( 13-C , 14-C ) :   0.9614 B( 13-C , 36-H ) :   0.9268
B( 13-C , 37-H ) :   0.9201 B( 14-C , 15-C ) :   1.4345 B( 14-C , 19-C ) :   1.4259
B( 15-C , 16-C ) :   1.4363 B( 15-C , 38-H ) :   0.9236 B( 16-C , 17-C ) :   1.4609
B( 16-C , 39-H ) :   0.9300 B( 17-C , 18-C ) :   1.4456 B( 17-C , 40-H ) :   0.9309
B( 18-C , 19-C ) :   1.4461 B( 18-C , 41-H ) :   0.9303 B( 19-C , 42-H ) :   0.9231
B( 20-C , 21-C ) :   1.3074 B( 20-C , 43-H ) :   0.9167

FINAL SINGLE POINT ENERGY      -921.357516382827

DIPOLE MOMENT
-------------

Method             : SCF
Type of density    : Electron Density
Multiplicity       :   1
Irrep              :   0
Energy             :  -921.3575163828273844 Eh
Relativity type    :
Basis              : AO
                                X                 Y                 Z
Electronic contribution:     19.176767950      10.394246477       1.784358568
Nuclear contribution   :    -18.862867288     -10.026667762      -2.901100782
                        -----------------------------------------
Total Dipole Moment    :      0.313900662       0.367578714      -1.116742215
                        -----------------------------------------
Magnitude (a.u.)       :      1.216865198
Magnitude (Debye)      :      3.093025527

Rotational constants in cm-1:             0.014103             0.004499             0.003859
Rotational constants in MHz :           422.786871           134.888221           115.696940

                             ****ORCA TERMINATED NORMALLY****
TOTAL RUN TIME: 0 days 0 hours 2 minutes 51 seconds 331 msec
