                         Program Version 6.0.0  -   RELEASE  -
|  1> ! B3LYP 6-31G* SP
|  2>
|  3> * xyz 0 1
|  4> C -0.5316 1.6573 2.7765
|  5> C -1.0041 0.7030 1.7011
|  6> C -0.2345 0.5016 0.5359
|  7> N 1.0340 1.1443 0.3597
|  8> C 1.1976 2.1367 -0.7039
|  9> C 0.3357 3.3382 -0.4270
| 10> C -0.9399 3.4465 -1.0096
| 11> C -1.7622 4.5363 -0.7054
| 12> C -1.3219 5.5180 0.1868
| 13> C -0.0602 5.4088 0.7831
| 14> C 0.7654 4.3204 0.4819
| 15> S 2.4360 0.4038 1.0654
| 16> O 2.0808 -0.2199 2.3872
| 17> O 3.4935 1.4452 1.3056
| 18> C 3.0286 -0.8413 -0.0271
| 19> C 2.3294 -2.0483 -0.1458
| 20> C 2.7657 -3.0308 -1.0376
| 21> C 3.9129 -2.8210 -1.8223
| 22> C 4.3732 -3.8633 -2.7661
| 23> O 5.4428 -3.7083 -3.4164
| 24> O 3.6244 -5.0224 -2.9519
| 25> C 4.6127 -1.6071 -1.6966
| 26> C 4.1694 -0.6219 -0.8096
| 27> N -0.6860 -0.3176 -0.4455
| 28> C -1.8544 -1.0018 -0.3628
| 29> C -2.2623 -1.8683 -1.5283
| 30> C -1.1448 -2.6526 -2.2067
| 31> C -2.1094 -3.3618 -1.2755
| 32> C -2.6696 -0.8492 0.7807
| 33> C -3.9034 -1.5227 0.9030
| 34> C -4.6875 -1.3650 2.0443
| 35> C -4.2597 -0.5367 3.0780
| 36> C -3.0471 0.1444 2.9773
| 37> C -2.2343 0.0072 1.8294
| 38> H -0.3525 1.0971 3.7195
| 39> H -1.2988 2.4421 2.9478
| 40> H 0.4100 2.1789 2.5110
| 41> H 0.9275 1.6799 -1.6815
| 42> H 2.2597 2.4538 -0.7848
| 43> H -1.3009 2.6832 -1.6885
| 44> H -2.7476 4.6117 -1.1507
| 45> H -1.9613 6.3597 0.4237
| 46> H 0.2727 6.1638 1.4863
| 47> H 1.7327 4.2357 0.9649
| 48> H 1.4406 -2.2257 0.4472
| 49> H 2.2063 -3.9556 -1.1090
| 50> H 3.9274 -5.7398 -3.6003
| 51> H 5.4975 -1.4138 -2.2898
| 52> H 4.7164 0.3088 -0.7370
| 53> H -3.1222 -1.5766 -2.1685
| 54> H -1.3234 -2.8651 -3.2833
| 55> H -0.1248 -2.5376 -1.7839
| 56> H -2.8552 -3.9971 -1.7991
| 57> H -1.6589 -3.6502 -0.3008
| 58> H -4.2731 -2.1720 0.1211
| 59> H -5.6312 -1.8873 2.1283
| 60> H -4.8727 -0.4200 3.9618
| 61> H -2.7577 0.7746 3.8078
| 62> *
| 63>
| 64>                          ****END OF INPUT****

CARTESIAN COORDINATES (ANGSTROEM)
---------------------------------
  C     -0.531600    1.657300    2.776500
  C     -1.004100    0.703000    1.701100
  C     -0.234500    0.501600    0.535900
  N      1.034000    1.144300    0.359700
  C      1.197600    2.136700   -0.703900
  C      0.335700    3.338200   -0.427000
  C     -0.939900    3.446500   -1.009600
  C     -1.762200    4.536300   -0.705400
  C     -1.321900    5.518000    0.186800
  C     -0.060200    5.408800    0.783100
  C      0.765400    4.320400    0.481900
  S      2.436000    0.403800    1.065400
  O      2.080800   -0.219900    2.387200
  O      3.493500    1.445200    1.305600
  C      3.028600   -0.841300   -0.027100
  C      2.329400   -2.048300   -0.145800
  C      2.765700   -3.030800   -1.037600
  C      3.912900   -2.821000   -1.822300
  C      4.373200   -3.863300   -2.766100
  O      5.442800   -3.708300   -3.416400
  O      3.624400   -5.022400   -2.951900
  C      4.612700   -1.607100   -1.696600
  C      4.169400   -0.621900   -0.809600
  N     -0.686000   -0.317600   -0.445500
  C     -1.854400   -1.001800   -0.362800
  C     -2.262300   -1.868300   -1.528300
  C     -1.144800   -2.652600   -2.206700
  C     -2.109400   -3.361800   -1.275500
  C     -2.669600   -0.849200    0.780700
  C     -3.903400   -1.522700    0.903000
  C     -4.687500   -1.365000    2.044300
  C     -4.259700   -0.536700    3.078000
  C     -3.047100    0.144400    2.977300
  C     -2.234300    0.007200    1.829400
  H     -0.352500    1.097100    3.719500
  H     -1.298800    2.442100    2.947800
  H      0.410000    2.178900    2.511000
  H      0.927500    1.679900   -1.681500
  H      2.259700    2.453800   -0.784800
  H     -1.300900    2.683200   -1.688500
  H     -2.747600    4.611700   -1.150700
  H     -1.961300    6.359700    0.423700
  H      0.272700    6.163800    1.486300
  H      1.732700    4.235700    0.964900
  H      1.440600   -2.225700    0.447200
  H      2.206300   -3.955600   -1.109000
  H      3.927400   -5.739800   -3.600300
  H      5.497500   -1.413800   -2.289800
  H      4.716400    0.308800   -0.737000
  H     -3.122200   -1.576600   -2.168500
  H     -1.323400   -2.865100   -3.283300
  H     -0.124800   -2.537600   -1.783900
  H     -2.855200   -3.997100   -1.799100
  H     -1.658900   -3.650200   -0.300800
  H     -4.273100   -2.172000    0.121100
  H     -5.631200   -1.887300    2.128300
  H     -4.872700   -0.420000    3.961800
  H     -2.757700    0.774600    3.807800

 Total Charge           Charge          ....    0
 Multiplicity           Mult            ....    1
 Number of Electrons    NEL             ....  248
 Basis Dimension        Dim             ....  528

ORBITAL ENERGIES
----------------

  NO   OCC          E(Eh)            E(eV)
   0   2.0000     -89.093742     -2424.3640
   1   2.0000     -19.193472      -522.2809
   2   2.0000     -19.134372      -520.6727
   3   2.0000     -19.126309      -520.4533
   4   2.0000     -19.123758      -520.3839
   5   2.0000     -14.367891      -390.9702
   6   2.0000     -14.327655      -389.8753
   7   2.0000     -10.331964      -281.1470
   8   2.0000     -10.252261      -278.9782
   9   2.0000     -10.236682      -278.5543
  10   2.0000     -10.231613      -278.4163
  11   2.0000     -10.227338      -278.3000
  12   2.0000     -10.223921      -278.2070
  13   2.0000     -10.215498      -277.9778
  14   2.0000     -10.215221      -277.9703
  15   2.0000     -10.213017      -277.9103
  16   2.0000     -10.212825      -277.9051
  17   2.0000     -10.204078      -277.6671
  18   2.0000     -10.202492      -277.6239
  19   2.0000     -10.198726      -277.5214
  20   2.0000     -10.198194      -277.5070
  21   2.0000     -10.193813      -277.3878
  22   2.0000     -10.193179      -277.3705
  23   2.0000     -10.192551      -277.3534
  24   2.0000     -10.192243      -277.3450
  25   2.0000     -10.190180      -277.2889
  26   2.0000     -10.188323      -277.2384
  27   2.0000     -10.184356      -277.1304
  28   2.0000     -10.182047      -277.0676
  29   2.0000     -10.181734      -277.0591
  30   2.0000     -10.181396      -277.0499
  31   2.0000     -10.181144      -277.0430
  32   2.0000     -10.180223      -277.0180
  33   2.0000     -10.167845      -276.6811
  34   2.0000      -8.129667      -221.2195
  35   2.0000      -6.094536      -165.8408
  36   2.0000      -6.092841      -165.7946
  37   2.0000      -6.092296      -165.7798
  38   2.0000      -1.081615       -29.4322
  39   2.0000      -1.077734       -29.3266
  40   2.0000      -0.991621       -26.9834
  41   2.0000      -0.962606       -26.1938
  42   2.0000      -0.959788       -26.1172
  43   2.0000      -0.913962       -24.8702
  44   2.0000      -0.885783       -24.1034
  45   2.0000      -0.861886       -23.4531
  46   2.0000      -0.855494       -23.2792
  47   2.0000      -0.847339       -23.0573
  48   2.0000      -0.803764       -21.8715
  49   2.0000      -0.799204       -21.7474
  50   2.0000      -0.774102       -21.0644
  51   2.0000      -0.772181       -21.0121
  52   2.0000      -0.763566       -20.7777
  53   2.0000      -0.740724       -20.1561
  54   2.0000      -0.737994       -20.0818
  55   2.0000      -0.709633       -19.3101
  56   2.0000      -0.696455       -18.9515
  57   2.0000      -0.679105       -18.4794
  58   2.0000      -0.651815       -17.7368
  59   2.0000      -0.641998       -17.4696
  60   2.0000      -0.633408       -17.2359
  61   2.0000      -0.616674       -16.7805
  62   2.0000      -0.611023       -16.6268
  63   2.0000      -0.602177       -16.3861
  64   2.0000      -0.595001       -16.1908
  65   2.0000      -0.588568       -16.0158
  66   2.0000      -0.578838       -15.7510
  67   2.0000      -0.566957       -15.4277
  68   2.0000      -0.553687       -15.0666
  69   2.0000      -0.535667       -14.5762
  70   2.0000      -0.532230       -14.4827
  71   2.0000      -0.515685       -14.0325
  72   2.0000      -0.506898       -13.7934
  73   2.0000      -0.499495       -13.5920
  74   2.0000      -0.490348       -13.3431
  75   2.0000      -0.481088       -13.0911
  76   2.0000      -0.476951       -12.9785
  77   2.0000      -0.472530       -12.8582
  78   2.0000      -0.468094       -12.7375
  79   2.0000      -0.461164       -12.5489
  80   2.0000      -0.457766       -12.4564
  81   2.0000      -0.453049       -12.3281
  82   2.0000      -0.450393       -12.2558
  83   2.0000      -0.444523       -12.0961
  84   2.0000      -0.441269       -12.0075
  85   2.0000      -0.438399       -11.9294
  86   2.0000      -0.434441       -11.8217
  87   2.0000      -0.423827       -11.5329
  88   2.0000      -0.420353       -11.4384
  89   2.0000      -0.417157       -11.3514
  90   2.0000      -0.415351       -11.3023
  91   2.0000      -0.409635       -11.1467
  92   2.0000      -0.398464       -10.8428
  93   2.0000      -0.393761       -10.7148
  94   2.0000      -0.390159       -10.6168
  95   2.0000      -0.386336       -10.5127
  96   2.0000      -0.384182       -10.4541
  97   2.0000      -0.381107       -10.3704
  98   2.0000      -0.374856       -10.2003
  99   2.0000      -0.370442       -10.0802
 100   2.0000      -0.365141        -9.9360
 101   2.0000      -0.361517        -9.8374
 102   2.0000      -0.356645        -9.7048
 103   2.0000      -0.352621        -9.5953
 104   2.0000      -0.346993        -9.4422
 105   2.0000      -0.345028        -9.3887
 106   2.0000      -0.338571        -9.2130
 107   2.0000      -0.323553        -8.8043
 108   2.0000      -0.317792        -8.6476
 109   2.0000      -0.307030        -8.3547
 110   2.0000      -0.300886        -8.1875
 111   2.0000      -0.293140        -7.9767
 112   2.0000      -0.289647        -7.8817
 113   2.0000      -0.282163        -7.6781
 114   2.0000      -0.275528        -7.4975
 115   2.0000      -0.274320        -7.4646
 116   2.0000      -0.271807        -7.3963
 117   2.0000      -0.270355        -7.3567
 118   2.0000      -0.263332        -7.1656
 119   2.0000      -0.256233        -6.9725
 120   2.0000      -0.249706        -6.7948
 121   2.0000      -0.246438        -6.7059
 122   2.0000      -0.240651        -6.5484
 123   2.0000      -0.217812        -5.9270
 124   0.0000      -0.078341        -2.1318
 125   0.0000      -0.059165        -1.6100
 126   0.0000      -0.030203        -0.8219
 127   0.0000      -0.025390        -0.6909
 128   0.0000      -0.008080        -0.2199

MULLIKEN ATOMIC CHARGES
-----------------------
   0 C :   -0.533530
   1 C :    0.139623
   2 C :    0.277971
   3 N :   -0.602744
   4 C :   -0.234941
   5 C :    0.149495
   6 C :   -0.168387
   7 C :   -0.128735
   8 C :   -0.124386
   9 C :   -0.130419
  10 C :   -0.169329
  11 S :    1.222129
  12 O :   -0.551948
  13 O :   -0.553472
  14 C :   -0.119142
  15 C :   -0.130005
  16 C :   -0.151741
  17 C :    0.082190
  18 C :    0.527098
  19 O :   -0.446101
  20 O :   -0.623755
  21 C :   -0.138697
  22 C :   -0.152865
  23 N :   -0.426656
  24 C :    0.148539
  25 C :   -0.157158
  26 C :   -0.305509
  27 C :   -0.304153
  28 C :    0.111659
  29 C :   -0.202891
  30 C :   -0.123105
  31 C :   -0.119120
  32 C :   -0.197163
  33 C :    0.116915
  34 H :    0.172171
  35 H :    0.153390
  36 H :    0.193101
  37 H :    0.166928
  38 H :    0.182659
  39 H :    0.136204
  40 H :    0.128408
  41 H :    0.128020
  42 H :    0.132054
  43 H :    0.152852
  44 H :    0.177026
  45 H :    0.172187
  46 H :    0.433100
  47 H :    0.179078
  48 H :    0.184602
  49 H :    0.158683
  50 H :    0.144635
  51 H :    0.165984
  52 H :    0.145882
  53 H :    0.156307
  54 H :    0.143806
  55 H :    0.133661
  56 H :    0.136024
  57 H :    0.143572
Sum of atomic charges:   -0.0000000

LOEWDIN ATOMIC CHARGES
----------------------
   0 C :   -0.357859
   1 C :    0.008651
   2 C :    0.015991
   3 N :   -0.274641
   4 C :   -0.149518
   5 C :   -0.031100
   6 C :   -0.130422
   7 C :   -0.129765
   8 C :   -0.128677
   9 C :   -0.128210
  10 C :   -0.123319
  11 S :    1.264262
  12 O :   -0.569530
  13 O :   -0.576268
  14 C :   -0.172794
  15 C :   -0.099346
  16 C :   -0.102261
  17 C :   -0.040488
  18 C :    0.179994
  19 O :   -0.262369
  20 O :   -0.335064
  21 C :   -0.085990
  22 C :   -0.107245
  23 N :   -0.138401
  24 C :    0.035616
  25 C :   -0.143020
  26 C :   -0.243956
  27 C :   -0.253027
  28 C :   -0.024934
  29 C :   -0.114893
  30 C :   -0.125343
  31 C :   -0.118889
  32 C :   -0.118162
  33 C :   -0.005555
  34 H :    0.143973
  35 H :    0.132574
  36 H :    0.149947
  37 H :    0.129270
  38 H :    0.148707
  39 H :    0.134816
  40 H :    0.131291
  41 H :    0.131158
  42 H :    0.132815
  43 H :    0.141863
  44 H :    0.155878
  45 H :    0.153859
  46 H :    0.349120
  47 H :    0.159705
  48 H :    0.160344
  49 H :    0.138736
  50 H :    0.132318
  51 H :    0.142340
  52 H :    0.129861
  53 H :    0.134535
  54 H :    0.141817
  55 H :    0.134436
  56 H :    0.135700
  57 H :    0.141468

  Mayer bond orders larger than 0.100000
B(  0-C ,  1-C ) :   1.0115 B(  0-C , 34-H ) :   0.9221 B(  0-C , 35-H ) :   0.9257
B(  0-C , 36-H ) :   0.9219 B(  1-C ,  2-C ) :   1.4375 B(  1-C , 33-C ) :   1.2569
B(  2-C ,  3-N ) :   0.8878 B(  2-C , 23-N ) :   1.2703 B(  3-N ,  4-C ) :   0.9149
B(  3-N , 11-S ) :   0.8110 B(  4-C ,  5-C ) :   0.9697 B(  4-C , 37-H ) :   0.9179
B(  4-C , 38-H ) :   0.9126 B(  5-C ,  6-C ) :   1.4397 B(  5-C , 10-C ) :   1.4273
B(  6-C ,  7-C ) :   1.4340 B(  6-C , 39-H ) :   0.9212 B(  7-C ,  8-C ) :   1.4582
B(  7-C , 40-H ) :   0.9297 B(  8-C ,  9-C ) :   1.4460 B(  8-C , 41-H ) :   0.9307
B(  9-C , 10-C ) :   1.4425 B(  9-C , 42-H ) :   0.9296 B( 10-C , 43-H ) :   0.9183
B( 11-S , 12-O ) :   1.6351 B( 11-S , 13-O ) :   1.6157 B( 11-S , 14-C ) :   0.8093
B( 14-C , 15-C ) :   1.3912 B( 14-C , 22-C ) :   1.3911 B( 15-C , 16-C ) :   1.4194
B( 15-C , 44-H ) :   0.9089 B( 16-C , 17-C ) :   1.3802 B( 16-C , 45-H ) :   0.9141
B( 17-C , 18-C ) :   1.0085 B( 17-C , 21-C ) :   1.4057 B( 18-C , 19-O ) :   1.8617
B( 18-C , 20-O ) :   1.0241 B( 20-O , 46-H ) :   0.7424 B( 21-C , 22-C ) :   1.4144
B( 21-C , 47-H ) :   0.9100 B( 22-C , 48-H ) :   0.9095 B( 23-N , 24-C ) :   1.4468
B( 24-C , 25-C ) :   1.0236 B( 24-C , 28-C ) :   1.2293 B( 25-C , 26-C ) :   0.9488
B( 25-C , 27-C ) :   0.9236 B( 25-C , 49-H ) :   0.9218 B( 26-C , 27-C ) :   0.9648
B( 26-C , 50-H ) :   0.9438 B( 26-C , 51-H ) :   0.9284 B( 27-C , 52-H ) :   0.9429
B( 27-C , 53-H ) :   0.9440 B( 28-C , 29-C ) :   1.3029 B( 28-C , 33-C ) :   1.2798
B( 29-C , 30-C ) :   1.5031 B( 29-C , 32-C ) :   0.1058 B( 29-C , 54-H ) :   0.9128
B( 30-C , 31-C ) :   1.3549 B( 30-C , 55-H ) :   0.9297 B( 31-C , 32-C ) :   1.5084
B( 31-C , 56-H ) :   0.9293 B( 32-C , 33-C ) :   1.2923 B( 32-C , 57-H ) :   0.9148

FINAL SINGLE POINT ENERGY     -1850.849875864695

DIPOLE MOMENT
-------------

Method             : SCF
Type of density    : Electron Density
Multiplicity       :   1
Irrep              :   0
Energy             : -1850.8498758646951501 Eh
Relativity type    :
Basis              : AO
                                X                 Y                 Z
Electronic contribution:     18.644966704      -5.250345622      -0.475791229
Nuclear contribution   :    -20.939332794       4.574782161      -0.364911863
                        -----------------------------------------
Total Dipole Moment    :     -2.294366091      -0.675563461      -0.840703092
                        -----------------------------------------
Magnitude (a.u.)       :      2.535208756
Magnitude (Debye)      :      6.443988546

Rotational constants in cm-1:             0.005027             0.002929             0.002243
Rotational constants in MHz :           150.691136            87.796895            67.233458

                             ****ORCA TERMINATED NORMALLY****
TOTAL RUN TIME: 0 days 0 hours 10 minutes 26 seconds 520 msec
