                         Program Version 6.0.0  -   RELEASE  -
|  1> ! B3LYP 6-31G* SP
|  2>
|  3> * xyz 0 1
|  4> N -5.0576 0.8043 0.0637
|  5> C -4.0713 1.0747 -0.9790
|  6> C -3.4769 -0.2297 -1.5174
|  7> C -2.7239 -0.9691 -0.4501
|  8> C -3.2127 -1.9993 0.3475
|  9> N -2.2787 -2.3818 1.2481
| 10> C -1.2099 -1.5952 1.0317
| 11> C -0.0057 -1.5965 1.7314
| 12> C 0.9779 -0.6658 1.3515
| 13> C 0.7449 0.2380 0.2796
| 14> O 1.7015 1.1884 -0.1058
| 15> C 3.0916 1.0218 -0.0230
| 16> C 3.8948 2.1533 0.1680
| 17> C 5.2859 2.0291 0.2401
| 18> C 5.8844 0.7730 0.1087
| 19> C 5.0927 -0.3592 -0.1023
| 20> C 3.7014 -0.2380 -0.1745
| 21> C -0.4936 0.2218 -0.3906
| 22> C -1.4453 -0.7166 0.0071
| 23> H -5.3848 1.7241 0.4380
| 24> H -5.8888 0.3515 -0.3817
| 25> H -3.2589 1.7123 -0.5656
| 26> H -4.5518 1.6302 -1.8150
| 27> H -2.7870 0.0026 -2.3566
| 28> H -4.2879 -0.8744 -1.9203
| 29> H -4.2010 -2.4352 0.2802
| 30> H -2.3776 -3.1268 1.9730
| 31> H 0.1649 -2.2840 2.5498
| 32> H 1.9076 -0.6339 1.9039
| 33> H 3.4384 3.1298 0.2682
| 34> H 5.8998 2.9068 0.3960
| 35> H 6.9612 0.6781 0.1630
| 36> H 5.5576 -1.3298 -0.2173
| 37> H 3.1056 -1.1203 -0.3674
| 38> H -0.6965 0.9156 -1.1963
| 39> *
| 40>
| 41>                          ****END OF INPUT****

CARTESIAN COORDINATES (ANGSTROEM)
---------------------------------
  N     -5.057600    0.804300    0.063700
  C     -4.071300    1.074700   -0.979000
  C     -3.476900   -0.229700   -1.517400
  C     -2.723900   -0.969100   -0.450100
  C     -3.212700   -1.999300    0.347500
  N     -2.278700   -2.381800    1.248100
  C     -1.209900   -1.595200    1.031700
  C     -0.005700   -1.596500    1.731400
  C      0.977900   -0.665800    1.351500
  C      0.744900    0.238000    0.279600
  O      1.701500    1.188400   -0.105800
  C      3.091600    1.021800   -0.023000
  C      3.894800    2.153300    0.168000
  C      5.285900    2.029100    0.240100
  C      5.884400    0.773000    0.108700
  C      5.092700   -0.359200   -0.102300
  C      3.701400   -0.238000   -0.174500
  C     -0.493600    0.221800   -0.390600
  C     -1.445300   -0.716600    0.007100
  H     -5.384800    1.724100    0.438000
  H     -5.888800    0.351500   -0.381700
  H     -3.258900    1.712300   -0.565600
  H     -4.551800    1.630200   -1.815000
  H     -2.787000    0.002600   -2.356600
  H     -4.287900   -0.874400   -1.920300
  H     -4.201000   -2.435200    0.280200
  H     -2.377600   -3.126800    1.973000
  H      0.164900   -2.284000    2.549800
  H      1.907600   -0.633900    1.903900
  H      3.438400    3.129800    0.268200
  H      5.899800    2.906800    0.396000
  H      6.961200    0.678100    0.163000
  H      5.557600   -1.329800   -0.217300
  H      3.105600   -1.120300   -0.367400
  H     -0.696500    0.915600   -1.196300

 Total Charge           Charge          ....    0
 Multiplicity           Mult            ....    1
 Number of Electrons    NEL             ....  134
 Basis Dimension        Dim             ....  298

ORBITAL ENERGIES
----------------

  NO   OCC          E(Eh)            E(eV)
   0   2.0000     -19.164235      -521.4853
   1   2.0000     -14.366684      -390.9373
   2   2.0000     -14.300017      -389.1232
   3   2.0000     -10.238329      -278.5991
   4   2.0000     -10.229865      -278.3688
   5   2.0000     -10.194458      -277.4053
   6   2.0000     -10.192807      -277.3604
   7   2.0000     -10.191422      -277.3227
   8   2.0000     -10.176709      -276.9223
   9   2.0000     -10.176377      -276.9133
  10   2.0000     -10.173814      -276.8435
  11   2.0000     -10.173038      -276.8224
  12   2.0000     -10.172609      -276.8108
  13   2.0000     -10.172582      -276.8100
  14   2.0000     -10.169950      -276.7384
  15   2.0000     -10.167636      -276.6755
  16   2.0000     -10.164367      -276.5865
  17   2.0000     -10.155568      -276.3471
  18   2.0000     -10.151888      -276.2469
  19   2.0000      -1.042831       -28.3769
  20   2.0000      -0.984749       -26.7964
  21   2.0000      -0.868795       -23.6411
  22   2.0000      -0.841814       -22.9069
  23   2.0000      -0.826833       -22.4993
  24   2.0000      -0.787690       -21.4341
  25   2.0000      -0.745433       -20.2843
  26   2.0000      -0.735569       -20.0159
  27   2.0000      -0.725549       -19.7432
  28   2.0000      -0.708603       -19.2821
  29   2.0000      -0.693689       -18.8762
  30   2.0000      -0.625742       -17.0273
  31   2.0000      -0.608263       -16.5517
  32   2.0000      -0.600546       -16.3417
  33   2.0000      -0.594732       -16.1835
  34   2.0000      -0.571613       -15.5544
  35   2.0000      -0.548972       -14.9383
  36   2.0000      -0.532563       -14.4918
  37   2.0000      -0.516032       -14.0419
  38   2.0000      -0.483757       -13.1637
  39   2.0000      -0.476830       -12.9752
  40   2.0000      -0.471639       -12.8340
  41   2.0000      -0.454846       -12.3770
  42   2.0000      -0.447801       -12.1853
  43   2.0000      -0.443157       -12.0589
  44   2.0000      -0.433776       -11.8037
  45   2.0000      -0.427408       -11.6304
  46   2.0000      -0.419626       -11.4186
  47   2.0000      -0.413086       -11.2407
  48   2.0000      -0.410531       -11.1711
  49   2.0000      -0.394168       -10.7259
  50   2.0000      -0.385804       -10.4983
  51   2.0000      -0.375365       -10.2142
  52   2.0000      -0.368346       -10.0232
  53   2.0000      -0.363253        -9.8846
  54   2.0000      -0.352067        -9.5802
  55   2.0000      -0.349418        -9.5082
  56   2.0000      -0.343435        -9.3453
  57   2.0000      -0.337935        -9.1957
  58   2.0000      -0.329363        -8.9624
  59   2.0000      -0.313326        -8.5260
  60   2.0000      -0.297997        -8.1089
  61   2.0000      -0.261221        -7.1082
  62   2.0000      -0.240901        -6.5553
  63   2.0000      -0.228238        -6.2107
  64   2.0000      -0.222819        -6.0632
  65   2.0000      -0.191166        -5.2019
  66   2.0000      -0.181208        -4.9309
  67   0.0000      -0.000948        -0.0258
  68   0.0000       0.008355         0.2273
  69   0.0000       0.014542         0.3957
  70   0.0000       0.050219         1.3665
  71   0.0000       0.071581         1.9478

MULLIKEN ATOMIC CHARGES
-----------------------
   0 N :   -0.695925
   1 C :   -0.124207
   2 C :   -0.350967
   3 C :    0.083088
   4 C :   -0.003634
   5 N :   -0.635880
   6 C :    0.294747
   7 C :   -0.182329
   8 C :   -0.208399
   9 C :    0.331476
  10 O :   -0.563785
  11 C :    0.348918
  12 C :   -0.176933
  13 C :   -0.126452
  14 C :   -0.132769
  15 C :   -0.128021
  16 C :   -0.186614
  17 C :   -0.267653
  18 C :    0.124387
  19 H :    0.290676
  20 H :    0.280202
  21 H :    0.146937
  22 H :    0.105782
  23 H :    0.138080
  24 H :    0.126375
  25 H :    0.133673
  26 H :    0.331166
  27 H :    0.117842
  28 H :    0.138210
  29 H :    0.136434
  30 H :    0.129671
  31 H :    0.121907
  32 H :    0.128802
  33 H :    0.147859
  34 H :    0.127341
Sum of atomic charges:   -0.0000000

LOEWDIN ATOMIC CHARGES
----------------------
   0 N :   -0.474016
   1 C :   -0.171109
   2 C :   -0.224811
   3 C :   -0.068990
   4 C :   -0.102223
   5 N :   -0.113854
   6 C :   -0.004202
   7 C :   -0.146964
   8 C :   -0.175292
   9 C :    0.071819
  10 O :   -0.145421
  11 C :    0.088342
  12 C :   -0.148966
  13 C :   -0.124326
  14 C :   -0.146937
  15 C :   -0.125919
  16 C :   -0.160439
  17 C :   -0.159655
  18 C :   -0.038388
  19 H :    0.222176
  20 H :    0.215443
  21 H :    0.122255
  22 H :    0.090748
  23 H :    0.126280
  24 H :    0.120216
  25 H :    0.130516
  26 H :    0.265468
  27 H :    0.127876
  28 H :    0.138665
  29 H :    0.139441
  30 H :    0.132731
  31 H :    0.128630
  32 H :    0.131732
  33 H :    0.142196
  34 H :    0.136980

  Mayer bond orders larger than 0.100000
B(  0-N ,  1-C ) :   0.9996 B(  0-N , 19-H ) :   0.8667 B(  0-N , 20-H ) :   0.8676
B(  1-C ,  2-C ) :   0.9876 B(  1-C , 21-H ) :   0.9363 B(  1-C , 22-H ) :   0.9356
B(  2-C ,  3-C ) :   1.0010 B(  2-C , 23-H ) :   0.9286 B(  2-C , 24-H ) :   0.9384
B(  3-C ,  4-C ) :   1.5322 B(  3-C , 18-C ) :   1.3272 B(  4-C ,  5-N ) :   1.0949
B(  4-C , 25-H ) :   0.9284 B(  5-N ,  6-C ) :   1.0084 B(  5-N , 26-H ) :   0.8386
B(  6-C ,  7-C ) :   1.3536 B(  6-C , 18-C ) :   1.3079 B(  7-C ,  8-C ) :   1.4661
B(  7-C , 27-H ) :   0.9239 B(  8-C ,  9-C ) :   1.3191 B(  8-C , 28-H ) :   0.9165
B(  9-C , 10-O ) :   0.8518 B(  9-C , 17-C ) :   1.4345 B( 10-O , 11-C ) :   0.8907
B( 11-C , 12-C ) :   1.4163 B( 11-C , 16-C ) :   1.3808 B( 12-C , 13-C ) :   1.4423
B( 12-C , 29-H ) :   0.9213 B( 13-C , 14-C ) :   1.4530 B( 13-C , 30-H ) :   0.9304
B( 14-C , 15-C ) :   1.4497 B( 14-C , 31-H ) :   0.9313 B( 15-C , 16-C ) :   1.4456
B( 15-C , 32-H ) :   0.9303 B( 16-C , 33-H ) :   0.9140 B( 17-C , 18-C ) :   1.2936
B( 17-C , 34-H ) :   0.9176

FINAL SINGLE POINT ENERGY      -803.521064948787

DIPOLE MOMENT
-------------

Method             : SCF
Type of density    : Electron Density
Multiplicity       :   1
Irrep              :   0
Energy             :  -803.5210649487866021 Eh
Relativity type    :
Basis              : AO
                                X                 Y                 Z
Electronic contribution:      8.872904799      -2.598092194       3.158118913
Nuclear contribution   :     -9.746806208       1.901183348      -2.898994121
                        -----------------------------------------
Total Dipole Moment    :     -0.873901409      -0.696908846       0.259124792
                        -----------------------------------------
Magnitude (a.u.)       :      1.147401966
Magnitude (Debye)      :      2.916464022

Rotational constants in cm-1:             0.032434             0.005489             0.004951
Rotational constants in MHz :           972.348156           164.556805           148.430176

                             ****ORCA TERMINATED NORMALLY****
TOTAL RUN TIME: 0 days 0 hours 3 minutes 36 seconds 534 msec
