                         Program Version 6.0.0  -   RELEASE  -
|  1> ! B3LYP 6-31G* SP
|  2>
|  3> * xyz 0 1
|  4> C -2.9537 0.1770 0.9917
|  5> C -1.9895 -0.9352 0.6429
|  6> C -0.7699 -0.6551 -0.0182
|  7> N -0.3932 0.6835 -0.3622
|  8> C 0.2844 1.5373 0.6166
|  9> C 1.5697 0.8986 1.0647
| 10> C 1.6594 0.2903 2.3415
| 11> C 2.8381 -0.3621 2.7354
| 12> C 3.8989 -0.4092 1.8339
| 13> C 3.8199 0.1660 0.5989
| 14> C 2.6678 0.8318 0.1813
| 15> C 5.0900 -0.0435 -0.1440
| 16> C 5.9461 -0.8707 0.8740
| 17> C 6.2787 -2.2634 0.3179
| 18> C 7.2310 -0.1263 1.2565
| 19> O 5.1211 -1.0127 2.0342
| 20> S -0.6932 1.2498 -1.9753
| 21> O 0.4202 2.1580 -2.4193
| 22> O -0.7481 0.0810 -2.9210
| 23> C -2.2229 2.1172 -2.0046
| 24> C -3.4081 1.4505 -2.3383
| 25> C -4.6287 2.1311 -2.3141
| 26> C -4.6810 3.4888 -1.9485
| 27> C -5.9715 4.2117 -1.9149
| 28> O -7.0413 3.6221 -2.2295
| 29> O -6.0177 5.5512 -1.5349
| 30> C -3.4876 4.1495 -1.6084
| 31> C -2.2684 3.4663 -1.6339
| 32> N 0.0759 -1.6658 -0.3487
| 33> C -0.1918 -2.9621 -0.0635
| 34> C -1.3755 -3.3063 0.5944
| 35> C -1.6550 -4.6496 0.8920
| 36> C -2.8402 -4.9917 1.5440
| 37> C -3.7518 -3.9993 1.9051
| 38> C -3.4859 -2.6578 1.6168
| 39> C -2.2930 -2.2870 0.9556
| 40> H -2.5968 1.1791 0.6827
| 41> H -3.1121 0.2039 2.0913
| 42> H -3.9230 0.0013 0.4793
| 43> H 0.5077 2.5316 0.1770
| 44> H -0.3870 1.7143 1.4822
| 45> H 0.8177 0.3165 3.0232
| 46> H 2.9184 -0.8234 3.7132
| 47> H 2.6220 1.2789 -0.8039
| 48> H 5.5473 0.9413 -0.3884
| 49> H 4.8876 -0.5985 -1.0874
| 50> H 5.3460 -2.8040 0.0546
| 51> H 6.9114 -2.1776 -0.5925
| 52> H 6.8235 -2.8613 1.0773
| 53> H 7.8829 0.0006 0.3648
| 54> H 7.7881 -0.6953 2.0324
| 55> H 6.9864 0.8788 1.6669
| 56> H -3.3916 0.4011 -2.6038
| 57> H -5.5311 1.5922 -2.5736
| 58> H -6.8965 6.0541 -1.5122
| 59> H -3.4947 5.1928 -1.3185
| 60> H -1.3607 3.9875 -1.3569
| 61> H 0.5233 -3.7224 -0.3524
| 62> H -0.9574 -5.4333 0.6209
| 63> H -3.0530 -6.0287 1.7715
| 64> H -4.6696 -4.2704 2.4118
| 65> H -4.2214 -1.9228 1.9149
| 66> *
| 67>
| 68>                          ****END OF INPUT****

CARTESIAN COORDINATES (ANGSTROEM)
---------------------------------
  C     -2.953700    0.177000    0.991700
  C     -1.989500   -0.935200    0.642900
  C     -0.769900   -0.655100   -0.018200
  N     -0.393200    0.683500   -0.362200
  C      0.284400    1.537300    0.616600
  C      1.569700    0.898600    1.064700
  C      1.659400    0.290300    2.341500
  C      2.838100   -0.362100    2.735400
  C      3.898900   -0.409200    1.833900
  C      3.819900    0.166000    0.598900
  C      2.667800    0.831800    0.181300
  C      5.090000   -0.043500   -0.144000
  C      5.946100   -0.870700    0.874000
  C      6.278700   -2.263400    0.317900
  C      7.231000   -0.126300    1.256500
  O      5.121100   -1.012700    2.034200
  S     -0.693200    1.249800   -1.975300
  O      0.420200    2.158000   -2.419300
  O     -0.748100    0.081000   -2.921000
  C     -2.222900    2.117200   -2.004600
  C     -3.408100    1.450500   -2.338300
  C     -4.628700    2.131100   -2.314100
  C     -4.681000    3.488800   -1.948500
  C     -5.971500    4.211700   -1.914900
  O     -7.041300    3.622100   -2.229500
  O     -6.017700    5.551200   -1.534900
  C     -3.487600    4.149500   -1.608400
  C     -2.268400    3.466300   -1.633900
  N      0.075900   -1.665800   -0.348700
  C     -0.191800   -2.962100   -0.063500
  C     -1.375500   -3.306300    0.594400
  C     -1.655000   -4.649600    0.892000
  C     -2.840200   -4.991700    1.544000
  C     -3.751800   -3.999300    1.905100
  C     -3.485900   -2.657800    1.616800
  C     -2.293000   -2.287000    0.955600
  H     -2.596800    1.179100    0.682700
  H     -3.112100    0.203900    2.091300
  H     -3.923000    0.001300    0.479300
  H      0.507700    2.531600    0.177000
  H     -0.387000    1.714300    1.482200
  H      0.817700    0.316500    3.023200
  H      2.918400   -0.823400    3.713200
  H      2.622000    1.278900   -0.803900
  H      5.547300    0.941300   -0.388400
  H      4.887600   -0.598500   -1.087400
  H      5.346000   -2.804000    0.054600
  H      6.911400   -2.177600   -0.592500
  H      6.823500   -2.861300    1.077300
  H      7.882900    0.000600    0.364800
  H      7.788100   -0.695300    2.032400
  H      6.986400    0.878800    1.666900
  H     -3.391600    0.401100   -2.603800
  H     -5.531100    1.592200   -2.573600
  H     -6.896500    6.054100   -1.512200
  H     -3.494700    5.192800   -1.318500
  H     -1.360700    3.987500   -1.356900
  H      0.523300   -3.722400   -0.352400
  H     -0.957400   -5.433300    0.620900
  H     -3.053000   -6.028700    1.771500
  H     -4.669600   -4.270400    2.411800
  H     -4.221400   -1.922800    1.914900

 Total Charge           Charge          ....    0
 Multiplicity           Mult            ....    1
 Number of Electrons    NEL             ....  264
 Basis Dimension        Dim             ....  560

ORBITAL ENERGIES
----------------

  NO   OCC          E(Eh)            E(eV)
   0   2.0000     -89.093640     -2424.3612
   1   2.0000     -19.197275      -522.3844
   2   2.0000     -19.153364      -521.1895
   3   2.0000     -19.138638      -520.7888
   4   2.0000     -19.124630      -520.4077
   5   2.0000     -19.120230      -520.2879
   6   2.0000     -14.364734      -390.8843
   7   2.0000     -14.323402      -389.7596
   8   2.0000     -10.336244      -281.2635
   9   2.0000     -10.255593      -279.0689
  10   2.0000     -10.241168      -278.6763
  11   2.0000     -10.239488      -278.6306
  12   2.0000     -10.232217      -278.4328
  13   2.0000     -10.225313      -278.2449
  14   2.0000     -10.222642      -278.1722
  15   2.0000     -10.220749      -278.1207
  16   2.0000     -10.219276      -278.0806
  17   2.0000     -10.219259      -278.0802
  18   2.0000     -10.218411      -278.0571
  19   2.0000     -10.217767      -278.0396
  20   2.0000     -10.209582      -277.8169
  21   2.0000     -10.205420      -277.7036
  22   2.0000     -10.198075      -277.5037
  23   2.0000     -10.197274      -277.4819
  24   2.0000     -10.196148      -277.4513
  25   2.0000     -10.195871      -277.4438
  26   2.0000     -10.194770      -277.4138
  27   2.0000     -10.189419      -277.2682
  28   2.0000     -10.177836      -276.9530
  29   2.0000     -10.177321      -276.9390
  30   2.0000     -10.176372      -276.9132
  31   2.0000     -10.172063      -276.7959
  32   2.0000     -10.170270      -276.7471
  33   2.0000     -10.168762      -276.7061
  34   2.0000     -10.167983      -276.6849
  35   2.0000     -10.167522      -276.6723
  36   2.0000      -8.129204      -221.2069
  37   2.0000      -6.094120      -165.8294
  38   2.0000      -6.092299      -165.7799
  39   2.0000      -6.091961      -165.7707
  40   2.0000      -1.081597       -29.4317
  41   2.0000      -1.079217       -29.3670
  42   2.0000      -1.055316       -28.7166
  43   2.0000      -0.995754       -27.0958
  44   2.0000      -0.959342       -26.1050
  45   2.0000      -0.955177       -25.9917
  46   2.0000      -0.908544       -24.7227
  47   2.0000      -0.890492       -24.2315
  48   2.0000      -0.862097       -23.4589
  49   2.0000      -0.842595       -22.9282
  50   2.0000      -0.808235       -21.9932
  51   2.0000      -0.806153       -21.9365
  52   2.0000      -0.796734       -21.6802
  53   2.0000      -0.777090       -21.1457
  54   2.0000      -0.775542       -21.1036
  55   2.0000      -0.766240       -20.8505
  56   2.0000      -0.744778       -20.2665
  57   2.0000      -0.738869       -20.1056
  58   2.0000      -0.713046       -19.4030
  59   2.0000      -0.701085       -19.0775
  60   2.0000      -0.682053       -18.5596
  61   2.0000      -0.681332       -18.5400
  62   2.0000      -0.664993       -18.0954
  63   2.0000      -0.652777       -17.7630
  64   2.0000      -0.642693       -17.4886
  65   2.0000      -0.636981       -17.3331
  66   2.0000      -0.618578       -16.8324
  67   2.0000      -0.597273       -16.2526
  68   2.0000      -0.594904       -16.1882
  69   2.0000      -0.591855       -16.1052
  70   2.0000      -0.579184       -15.7604
  71   2.0000      -0.560242       -15.2450
  72   2.0000      -0.556140       -15.1333
  73   2.0000      -0.541058       -14.7229
  74   2.0000      -0.529238       -14.4013
  75   2.0000      -0.509019       -13.8511
  76   2.0000      -0.500664       -13.6238
  77   2.0000      -0.494775       -13.4635
  78   2.0000      -0.490837       -13.3563
  79   2.0000      -0.480673       -13.0798
  80   2.0000      -0.475987       -12.9523
  81   2.0000      -0.474661       -12.9162
  82   2.0000      -0.471478       -12.8296
  83   2.0000      -0.461747       -12.5648
  84   2.0000      -0.460052       -12.5186
  85   2.0000      -0.454749       -12.3743
  86   2.0000      -0.448992       -12.2177
  87   2.0000      -0.448470       -12.2035
  88   2.0000      -0.443310       -12.0631
  89   2.0000      -0.440306       -11.9813
  90   2.0000      -0.436361       -11.8740
  91   2.0000      -0.431971       -11.7545
  92   2.0000      -0.426605       -11.6085
  93   2.0000      -0.425056       -11.5664
  94   2.0000      -0.418229       -11.3806
  95   2.0000      -0.416003       -11.3200
  96   2.0000      -0.407980       -11.1017
  97   2.0000      -0.403060       -10.9678
  98   2.0000      -0.402352       -10.9486
  99   2.0000      -0.398835       -10.8529
 100   2.0000      -0.394865       -10.7448
 101   2.0000      -0.392717       -10.6864
 102   2.0000      -0.385649       -10.4940
 103   2.0000      -0.385075       -10.4784
 104   2.0000      -0.383901       -10.4465
 105   2.0000      -0.374499       -10.1906
 106   2.0000      -0.369225       -10.0471
 107   2.0000      -0.368127       -10.0172
 108   2.0000      -0.363611        -9.8944
 109   2.0000      -0.360338        -9.8053
 110   2.0000      -0.352306        -9.5867
 111   2.0000      -0.348355        -9.4792
 112   2.0000      -0.344482        -9.3738
 113   2.0000      -0.343315        -9.3421
 114   2.0000      -0.331552        -9.0220
 115   2.0000      -0.323049        -8.7906
 116   2.0000      -0.321187        -8.7399
 117   2.0000      -0.308498        -8.3947
 118   2.0000      -0.305381        -8.3098
 119   2.0000      -0.294782        -8.0214
 120   2.0000      -0.289726        -7.8838
 121   2.0000      -0.289064        -7.8658
 122   2.0000      -0.285374        -7.7654
 123   2.0000      -0.279304        -7.6002
 124   2.0000      -0.275463        -7.4957
 125   2.0000      -0.269381        -7.3302
 126   2.0000      -0.261564        -7.1175
 127   2.0000      -0.251518        -6.8441
 128   2.0000      -0.243549        -6.6273
 129   2.0000      -0.231002        -6.2859
 130   2.0000      -0.222389        -6.0515
 131   2.0000      -0.200065        -5.4440
 132   0.0000      -0.083032        -2.2594
 133   0.0000      -0.058696        -1.5972
 134   0.0000      -0.033324        -0.9068
 135   0.0000      -0.028256        -0.7689
 136   0.0000       0.002297         0.0625

MULLIKEN ATOMIC CHARGES
-----------------------
   0 C :   -0.543473
   1 C :    0.097432
   2 C :    0.315249
   3 N :   -0.605196
   4 C :   -0.240362
   5 C :    0.142427
   6 C :   -0.173091
   7 C :   -0.201125
   8 C :    0.349770
   9 C :    0.088178
  10 C :   -0.205159
  11 C :   -0.389554
  12 C :    0.340139
  13 C :   -0.452863
  14 C :   -0.452174
  15 O :   -0.525392
  16 S :    1.203348
  17 O :   -0.551468
  18 O :   -0.533267
  19 C :   -0.114281
  20 C :   -0.147748
  21 C :   -0.142241
  22 C :    0.081973
  23 C :    0.527921
  24 O :   -0.445271
  25 O :   -0.624117
  26 C :   -0.146980
  27 C :   -0.150296
  28 N :   -0.354096
  29 C :   -0.048550
  30 C :    0.136593
  31 C :   -0.201750
  32 C :   -0.126803
  33 C :   -0.120694
  34 C :   -0.201176
  35 C :    0.124563
  36 H :    0.168877
  37 H :    0.161319
  38 H :    0.165732
  39 H :    0.180338
  40 H :    0.143408
  41 H :    0.118738
  42 H :    0.130906
  43 H :    0.160043
  44 H :    0.155494
  45 H :    0.165443
  46 H :    0.152227
  47 H :    0.142359
  48 H :    0.148482
  49 H :    0.142584
  50 H :    0.149037
  51 H :    0.148109
  52 H :    0.189636
  53 H :    0.180294
  54 H :    0.434118
  55 H :    0.172471
  56 H :    0.176729
  57 H :    0.153368
  58 H :    0.140752
  59 H :    0.135978
  60 H :    0.136716
  61 H :    0.136375
Sum of atomic charges:    0.0000000

LOEWDIN ATOMIC CHARGES
----------------------
   0 C :   -0.361486
   1 C :   -0.017264
   2 C :    0.031394
   3 N :   -0.282507
   4 C :   -0.147880
   5 C :   -0.048561
   6 C :   -0.129845
   7 C :   -0.161328
   8 C :    0.078000
   9 C :   -0.048911
  10 C :   -0.109452
  11 C :   -0.223031
  12 C :    0.081327
  13 C :   -0.355563
  14 C :   -0.354375
  15 O :   -0.166677
  16 S :    1.263904
  17 O :   -0.574400
  18 O :   -0.563147
  19 C :   -0.173683
  20 C :   -0.105281
  21 C :   -0.086864
  22 C :   -0.041448
  23 C :    0.180026
  24 O :   -0.261685
  25 O :   -0.335250
  26 C :   -0.099149
  27 C :   -0.110246
  28 N :   -0.103005
  29 C :   -0.055201
  30 C :   -0.026730
  31 C :   -0.110615
  32 C :   -0.126374
  33 C :   -0.118426
  34 C :   -0.125887
  35 C :   -0.008294
  36 H :    0.138251
  37 H :    0.136117
  38 H :    0.138718
  39 H :    0.146103
  40 H :    0.117772
  41 H :    0.128234
  42 H :    0.136775
  43 H :    0.146921
  44 H :    0.134204
  45 H :    0.139093
  46 H :    0.129918
  47 H :    0.127435
  48 H :    0.128017
  49 H :    0.127535
  50 H :    0.128346
  51 H :    0.127801
  52 H :    0.162390
  53 H :    0.160166
  54 H :    0.349717
  55 H :    0.154469
  56 H :    0.155045
  57 H :    0.138021
  58 H :    0.137990
  59 H :    0.135393
  60 H :    0.136032
  61 H :    0.137452

  Mayer bond orders larger than 0.100000
B(  0-C ,  1-C ) :   0.9976 B(  0-C , 36-H ) :   0.9305 B(  0-C , 37-H ) :   0.9275
B(  0-C , 38-H ) :   0.9261 B(  1-C ,  2-C ) :   1.4390 B(  1-C , 29-C ) :   0.1009
B(  1-C , 35-C ) :   1.2594 B(  2-C ,  3-N ) :   0.8832 B(  2-C , 28-N ) :   1.2923
B(  3-N ,  4-C ) :   0.9143 B(  3-N , 16-S ) :   0.8214 B(  4-C ,  5-C ) :   0.9742
B(  4-C , 39-H ) :   0.9126 B(  4-C , 40-H ) :   0.9232 B(  5-C ,  6-C ) :   1.4224
B(  5-C , 10-C ) :   1.3975 B(  6-C ,  7-C ) :   1.4225 B(  6-C , 41-H ) :   0.9256
B(  7-C ,  8-C ) :   1.4034 B(  7-C , 42-H ) :   0.9198 B(  8-C ,  9-C ) :   1.3889
B(  8-C , 15-O ) :   0.9244 B(  9-C , 10-C ) :   1.4257 B(  9-C , 11-C ) :   0.9807
B( 10-C , 43-H ) :   0.9093 B( 11-C , 12-C ) :   0.9528 B( 11-C , 44-H ) :   0.9230
B( 11-C , 45-H ) :   0.9211 B( 12-C , 13-C ) :   1.0021 B( 12-C , 14-C ) :   1.0024
B( 12-C , 15-O ) :   0.8782 B( 13-C , 46-H ) :   0.9441 B( 13-C , 47-H ) :   0.9406
B( 13-C , 48-H ) :   0.9439 B( 14-C , 49-H ) :   0.9405 B( 14-C , 50-H ) :   0.9437
B( 14-C , 51-H ) :   0.9447 B( 16-S , 17-O ) :   1.6085 B( 16-S , 18-O ) :   1.6472
B( 16-S , 19-C ) :   0.8127 B( 19-C , 20-C ) :   1.3854 B( 19-C , 27-C ) :   1.3881
B( 20-C , 21-C ) :   1.4173 B( 20-C , 52-H ) :   0.9078 B( 21-C , 22-C ) :   1.3997
B( 21-C , 53-H ) :   0.9097 B( 22-C , 23-C ) :   1.0091 B( 22-C , 26-C ) :   1.3842
B( 23-C , 24-O ) :   1.8617 B( 23-C , 25-O ) :   1.0244 B( 25-O , 54-H ) :   0.7419
B( 26-C , 27-C ) :   1.4193 B( 26-C , 55-H ) :   0.9149 B( 27-C , 56-H ) :   0.9116
B( 28-N , 29-C ) :   1.5023 B( 29-C , 30-C ) :   1.2303 B( 29-C , 57-H ) :   0.9264
B( 30-C , 31-C ) :   1.2848 B( 30-C , 35-C ) :   1.2930 B( 31-C , 32-C ) :   1.5114
B( 31-C , 34-C ) :   0.1061 B( 31-C , 58-H ) :   0.9229 B( 32-C , 33-C ) :   1.3544
B( 32-C , 59-H ) :   0.9293 B( 33-C , 34-C ) :   1.5081 B( 33-C , 60-H ) :   0.9292
B( 34-C , 35-C ) :   1.2950 B( 34-C , 61-H ) :   0.9170

FINAL SINGLE POINT ENERGY     -1965.353942678358

DIPOLE MOMENT
-------------

Method             : SCF
Type of density    : Electron Density
Multiplicity       :   1
Irrep              :   0
Energy             : -1965.3539426783581803 Eh
Relativity type    :
Basis              : AO
                                X                 Y                 Z
Electronic contribution:    -26.832510077      10.677138805     -12.961800690
Nuclear contribution   :     25.732933333     -10.489947391      14.699115906
                        -----------------------------------------
Total Dipole Moment    :     -1.099576744       0.187191414       1.737315216
                        -----------------------------------------
Magnitude (a.u.)       :      2.064551719
Magnitude (Debye)      :      5.247673430

Rotational constants in cm-1:             0.004927             0.001994             0.001575
Rotational constants in MHz :           147.719765            59.768072            47.217960

                             ****ORCA TERMINATED NORMALLY****
TOTAL RUN TIME: 0 days 0 hours 12 minutes 33 seconds 520 msec
