                         Program Version 6.0.0  -   RELEASE  -
|  1> ! B3LYP 6-31G* SP
|  2>
|  3> * xyz 0 1
|  4> F -2.4549 2.9465 0.9007
|  5> C -1.4576 2.0587 0.5348
|  6> F -0.7953 2.5747 -0.5633
|  7> F -0.5728 1.9558 1.5931
|  8> C -2.0230 0.6940 0.1906
|  9> C -3.4133 0.5306 0.0235
| 10> C -3.9522 -0.7176 -0.2955
| 11> C -3.1163 -1.8202 -0.4624
| 12> C -1.7363 -1.6780 -0.3199
| 13> C -1.1773 -0.4300 -0.0026
| 14> C 0.2922 -0.3329 0.1118
| 15> C 1.0342 0.1846 -0.9734
| 16> C 2.4161 0.2521 -0.8385
| 17> C 3.4084 0.6962 -1.6844
| 18> N 4.6004 0.5381 -1.0584
| 19> N 4.3790 0.0125 0.1419
| 20> C 3.0574 -0.1663 0.2880
| 21> C 2.3694 -0.6903 1.3778
| 22> C 0.9655 -0.7778 1.2872
| 23> Cl 0.0729 -1.4268 2.6577
| 24> H -4.0911 1.3663 0.1396
| 25> H -5.0223 -0.8294 -0.4149
| 26> H -3.5380 -2.7860 -0.7095
| 27> H -1.0985 -2.5421 -0.4630
| 28> H 0.5492 0.5173 -1.8830
| 29> H 3.2823 1.1038 -2.6786
| 30> H 5.1241 -0.2153 0.8370
| 31> H 2.8978 -1.0182 2.2639
| 32> *
| 33>
| 34>                          ****END OF INPUT****

CARTESIAN COORDINATES (ANGSTROEM)
---------------------------------
  F     -2.454900    2.946500    0.900700
  C     -1.457600    2.058700    0.534800
  F     -0.795300    2.574700   -0.563300
  F     -0.572800    1.955800    1.593100
  C     -2.023000    0.694000    0.190600
  C     -3.413300    0.530600    0.023500
  C     -3.952200   -0.717600   -0.295500
  C     -3.116300   -1.820200   -0.462400
  C     -1.736300   -1.678000   -0.319900
  C     -1.177300   -0.430000   -0.002600
  C      0.292200   -0.332900    0.111800
  C      1.034200    0.184600   -0.973400
  C      2.416100    0.252100   -0.838500
  C      3.408400    0.696200   -1.684400
  N      4.600400    0.538100   -1.058400
  N      4.379000    0.012500    0.141900
  C      3.057400   -0.166300    0.288000
  C      2.369400   -0.690300    1.377800
  C      0.965500   -0.777800    1.287200
  Cl     0.072900   -1.426800    2.657700
  H     -4.091100    1.366300    0.139600
  H     -5.022300   -0.829400   -0.414900
  H     -3.538000   -2.786000   -0.709500
  H     -1.098500   -2.542100   -0.463000
  H      0.549200    0.517300   -1.883000
  H      3.282300    1.103800   -2.678600
  H      5.124100   -0.215300    0.837000
  H      2.897800   -1.018200    2.263900

 Total Charge           Charge          ....    0
 Multiplicity           Mult            ....    1
 Number of Electrons    NEL             ....  150
 Basis Dimension        Dim             ....  300

ORBITAL ENERGIES
----------------

  NO   OCC          E(Eh)            E(eV)
   0   2.0000    -101.527349     -2762.6996
   1   2.0000     -24.717443      -672.5958
   2   2.0000     -24.713865      -672.4985
   3   2.0000     -24.711520      -672.4347
   4   2.0000     -14.410423      -392.1275
   5   2.0000     -14.356849      -390.6697
   6   2.0000     -10.430938      -283.8402
   7   2.0000     -10.251581      -278.9597
   8   2.0000     -10.221982      -278.1543
   9   2.0000     -10.213358      -277.9196
  10   2.0000     -10.210822      -277.8506
  11   2.0000     -10.206224      -277.7255
  12   2.0000     -10.202476      -277.6235
  13   2.0000     -10.201129      -277.5868
  14   2.0000     -10.199432      -277.5407
  15   2.0000     -10.197469      -277.4872
  16   2.0000     -10.194994      -277.4199
  17   2.0000     -10.193901      -277.3902
  18   2.0000     -10.193600      -277.3819
  19   2.0000     -10.180082      -277.0141
  20   2.0000      -9.458901      -257.3898
  21   2.0000      -7.222047      -196.5219
  22   2.0000      -7.212529      -196.2629
  23   2.0000      -7.212132      -196.2521
  24   2.0000      -1.275339       -34.7037
  25   2.0000      -1.201016       -32.6813
  26   2.0000      -1.198390       -32.6099
  27   2.0000      -1.062323       -28.9073
  28   2.0000      -0.894185       -24.3320
  29   2.0000      -0.866402       -23.5760
  30   2.0000      -0.841109       -22.8877
  31   2.0000      -0.829790       -22.5797
  32   2.0000      -0.790887       -21.5211
  33   2.0000      -0.776776       -21.1372
  34   2.0000      -0.739643       -20.1267
  35   2.0000      -0.735716       -20.0198
  36   2.0000      -0.691663       -18.8211
  37   2.0000      -0.651561       -17.7299
  38   2.0000      -0.626028       -17.0351
  39   2.0000      -0.619449       -16.8561
  40   2.0000      -0.613993       -16.7076
  41   2.0000      -0.592173       -16.1138
  42   2.0000      -0.565905       -15.3991
  43   2.0000      -0.562324       -15.3016
  44   2.0000      -0.552264       -15.0279
  45   2.0000      -0.551315       -15.0020
  46   2.0000      -0.510673       -13.8961
  47   2.0000      -0.480893       -13.0858
  48   2.0000      -0.478161       -13.0114
  49   2.0000      -0.467412       -12.7189
  50   2.0000      -0.464675       -12.6444
  51   2.0000      -0.458476       -12.4758
  52   2.0000      -0.454473       -12.3668
  53   2.0000      -0.447892       -12.1878
  54   2.0000      -0.441969       -12.0266
  55   2.0000      -0.440932       -11.9984
  56   2.0000      -0.430009       -11.7011
  57   2.0000      -0.415538       -11.3074
  58   2.0000      -0.409848       -11.1525
  59   2.0000      -0.403722       -10.9858
  60   2.0000      -0.393461       -10.7066
  61   2.0000      -0.391019       -10.6402
  62   2.0000      -0.376994       -10.2585
  63   2.0000      -0.375117       -10.2075
  64   2.0000      -0.363191        -9.8829
  65   2.0000      -0.356043        -9.6884
  66   2.0000      -0.348719        -9.4891
  67   2.0000      -0.324047        -8.8178
  68   2.0000      -0.311523        -8.4770
  69   2.0000      -0.292564        -7.9611
  70   2.0000      -0.282891        -7.6979
  71   2.0000      -0.263447        -7.1688
  72   2.0000      -0.257957        -7.0194
  73   2.0000      -0.239590        -6.5196
  74   2.0000      -0.219453        -5.9716
  75   0.0000      -0.037649        -1.0245
  76   0.0000      -0.026273        -0.7149
  77   0.0000      -0.012231        -0.3328
  78   0.0000       0.012149         0.3306
  79   0.0000       0.032455         0.8831

MULLIKEN ATOMIC CHARGES
-----------------------
   0 F :   -0.306137
   1 C :    0.920770
   2 F :   -0.301504
   3 F :   -0.301348
   4 C :   -0.038168
   5 C :   -0.180244
   6 C :   -0.116752
   7 C :   -0.121142
   8 C :   -0.139030
   9 C :    0.009719
  10 C :    0.011093
  11 C :   -0.200892
  12 C :    0.088264
  13 C :   -0.048318
  14 N :   -0.226588
  15 N :   -0.512042
  16 C :    0.375928
  17 C :   -0.173762
  18 C :   -0.112325
  19 Cl:   -0.004081
  20 H :    0.153194
  21 H :    0.137942
  22 H :    0.138154
  23 H :    0.145768
  24 H :    0.148363
  25 H :    0.153447
  26 H :    0.352957
  27 H :    0.146733
Sum of atomic charges:    0.0000000

LOEWDIN ATOMIC CHARGES
----------------------
   0 F :   -0.111765
   1 C :    0.313257
   2 F :   -0.112918
   3 F :   -0.108049
   4 C :   -0.065831
   5 C :   -0.114634
   6 C :   -0.127058
   7 C :   -0.114314
   8 C :   -0.114795
   9 C :    0.002524
  10 C :   -0.040455
  11 C :   -0.104700
  12 C :   -0.062605
  13 C :   -0.123714
  14 N :   -0.115303
  15 N :   -0.073573
  16 C :    0.002506
  17 C :   -0.152442
  18 C :   -0.080808
  19 Cl:    0.039441
  20 H :    0.143743
  21 H :    0.136650
  22 H :    0.136332
  23 H :    0.141294
  24 H :    0.145233
  25 H :    0.143507
  26 H :    0.275132
  27 H :    0.143348

  Mayer bond orders larger than 0.100000
B(  0-F ,  1-C ) :   0.9421 B(  1-C ,  2-F ) :   0.9549 B(  1-C ,  3-F ) :   0.9434
B(  1-C ,  4-C ) :   0.9746 B(  4-C ,  5-C ) :   1.3919 B(  4-C ,  9-C ) :   1.4079
B(  5-C ,  6-C ) :   1.4341 B(  5-C , 20-H ) :   0.9190 B(  6-C ,  7-C ) :   1.4509
B(  6-C , 21-H ) :   0.9294 B(  7-C ,  8-C ) :   1.4296 B(  7-C , 22-H ) :   0.9278
B(  8-C ,  9-C ) :   1.4224 B(  8-C , 23-H ) :   0.9236 B(  9-C , 10-C ) :   0.9748
B( 10-C , 11-C ) :   1.4586 B( 10-C , 18-C ) :   1.3001 B( 11-C , 12-C ) :   1.2925
B( 11-C , 17-C ) :   0.1062 B( 11-C , 24-H ) :   0.9179 B( 12-C , 13-C ) :   1.2565
B( 12-C , 16-C ) :   1.3312 B( 13-C , 14-N ) :   1.5055 B( 13-C , 25-H ) :   0.9328
B( 14-N , 15-N ) :   1.2172 B( 15-N , 16-C ) :   0.9365 B( 15-N , 26-H ) :   0.8303
B( 16-C , 17-C ) :   1.3260 B( 17-C , 18-C ) :   1.4444 B( 17-C , 27-H ) :   0.9175
B( 18-C , 19-Cl) :   1.0323

FINAL SINGLE POINT ENERGY     -1406.923843216483

DIPOLE MOMENT
-------------

Method             : SCF
Type of density    : Electron Density
Multiplicity       :   1
Irrep              :   0
Energy             : -1406.9238432164831920 Eh
Relativity type    :
Basis              : AO
                                X                 Y                 Z
Electronic contribution:     -1.682698371       9.066971993       9.132336196
Nuclear contribution   :      1.556727114      -9.923019158      -9.302053667
                        -----------------------------------------
Total Dipole Moment    :     -0.125971256      -0.856047164      -0.169717471
                        -----------------------------------------
Magnitude (a.u.)       :      0.881753665
Magnitude (Debye)      :      2.241239701

Rotational constants in cm-1:             0.016627             0.007777             0.006883
Rotational constants in MHz :           498.454261           233.155966           206.360338

                             ****ORCA TERMINATED NORMALLY****
TOTAL RUN TIME: 0 days 0 hours 3 minutes 14 seconds 120 msec
