                         Program Version 6.0.0  -   RELEASE  -
|  1> ! B3LYP 6-31G* SP
|  2>
|  3> * xyz 0 1
|  4> C -4.7421 0.8210 1.0269
|  5> C -3.8916 -0.3366 1.5437
|  6> C -2.8540 -0.7376 0.5245
|  7> N -1.6270 -0.1750 0.6390
|  8> C -0.6096 -0.4177 -0.2227
|  9> N 0.6261 0.2810 -0.0293
| 10> C 1.4392 0.0072 1.1563
| 11> C 2.3526 -1.1568 0.8913
| 12> C 3.6966 -0.9410 0.5499
| 13> C 4.5350 -2.0220 0.2617
| 14> C 4.0327 -3.3375 0.2881
| 15> O 4.8274 -4.4588 -0.0006
| 16> C 6.2283 -4.4313 -0.2595
| 17> F 6.4923 -3.6813 -1.3923
| 18> F 6.6722 -5.7232 -0.4681
| 19> F 6.9007 -3.8961 0.8274
| 20> C 2.6860 -3.5462 0.6133
| 21> C 1.8518 -2.4675 0.9178
| 22> S 0.9701 1.6711 -1.0120
| 23> O 0.1730 1.6117 -2.2853
| 24> O 2.4324 1.6770 -1.3634
| 25> C 0.5338 3.1316 -0.1311
| 26> C 1.4728 4.1479 0.0833
| 27> C 1.1096 5.3080 0.7748
| 28> C -0.1985 5.4662 1.2637
| 29> C -0.5821 6.6967 1.9885
| 30> O -1.7369 6.8150 2.4768
| 31> O 0.3295 7.7391 2.1347
| 32> C -1.1351 4.4402 1.0466
| 33> C -0.7714 3.2850 0.3506
| 34> C -0.7895 -1.3166 -1.2944
| 35> C 0.3638 -1.6416 -2.2206
| 36> C -2.0693 -1.9009 -1.4789
| 37> C -2.3343 -2.7683 -2.5633
| 38> C -3.5980 -3.3272 -2.7374
| 39> C -4.6224 -3.0314 -1.8448
| 40> C -4.3923 -2.1764 -0.7683
| 41> C -3.1191 -1.6040 -0.5633
| 42> H -5.4968 1.0992 1.7921
| 43> H -4.0987 1.7050 0.8249
| 44> H -5.2717 0.5357 0.0932
| 45> H -4.5318 -1.1962 1.8306
| 46> H -3.3816 -0.0073 2.4757
| 47> H 2.0344 0.9066 1.4260
| 48> H 0.7857 -0.2106 2.0295
| 49> H 4.0964 0.0642 0.5046
| 50> H 5.5665 -1.8211 0.0116
| 51> H 2.2837 -4.5521 0.6308
| 52> H 0.8112 -2.6529 1.1602
| 53> H 2.4842 4.0492 -0.2892
| 54> H 1.8527 6.0801 0.9244
| 55> H 0.0749 8.5869 2.6265
| 56> H -2.1517 4.5328 1.4067
| 57> H -1.5111 2.5147 0.1811
| 58> H 1.3300 -1.2266 -1.8697
| 59> H 0.1601 -1.2316 -3.2321
| 60> H 0.5007 -2.7405 -2.2826
| 61> H -1.5758 -3.0177 -3.2917
| 62> H -3.7858 -3.9895 -3.5731
| 63> H -5.6032 -3.4635 -1.9908
| 64> H -5.2246 -1.9685 -0.1124
| 65> *
| 66>
| 67>                          ****END OF INPUT****

CARTESIAN COORDINATES (ANGSTROEM)
---------------------------------
  C     -4.742100    0.821000    1.026900
  C     -3.891600   -0.336600    1.543700
  C     -2.854000   -0.737600    0.524500
  N     -1.627000   -0.175000    0.639000
  C     -0.609600   -0.417700   -0.222700
  N      0.626100    0.281000   -0.029300
  C      1.439200    0.007200    1.156300
  C      2.352600   -1.156800    0.891300
  C      3.696600   -0.941000    0.549900
  C      4.535000   -2.022000    0.261700
  C      4.032700   -3.337500    0.288100
  O      4.827400   -4.458800   -0.000600
  C      6.228300   -4.431300   -0.259500
  F      6.492300   -3.681300   -1.392300
  F      6.672200   -5.723200   -0.468100
  F      6.900700   -3.896100    0.827400
  C      2.686000   -3.546200    0.613300
  C      1.851800   -2.467500    0.917800
  S      0.970100    1.671100   -1.012000
  O      0.173000    1.611700   -2.285300
  O      2.432400    1.677000   -1.363400
  C      0.533800    3.131600   -0.131100
  C      1.472800    4.147900    0.083300
  C      1.109600    5.308000    0.774800
  C     -0.198500    5.466200    1.263700
  C     -0.582100    6.696700    1.988500
  O     -1.736900    6.815000    2.476800
  O      0.329500    7.739100    2.134700
  C     -1.135100    4.440200    1.046600
  C     -0.771400    3.285000    0.350600
  C     -0.789500   -1.316600   -1.294400
  C      0.363800   -1.641600   -2.220600
  C     -2.069300   -1.900900   -1.478900
  C     -2.334300   -2.768300   -2.563300
  C     -3.598000   -3.327200   -2.737400
  C     -4.622400   -3.031400   -1.844800
  C     -4.392300   -2.176400   -0.768300
  C     -3.119100   -1.604000   -0.563300
  H     -5.496800    1.099200    1.792100
  H     -4.098700    1.705000    0.824900
  H     -5.271700    0.535700    0.093200
  H     -4.531800   -1.196200    1.830600
  H     -3.381600   -0.007300    2.475700
  H      2.034400    0.906600    1.426000
  H      0.785700   -0.210600    2.029500
  H      4.096400    0.064200    0.504600
  H      5.566500   -1.821100    0.011600
  H      2.283700   -4.552100    0.630800
  H      0.811200   -2.652900    1.160200
  H      2.484200    4.049200   -0.289200
  H      1.852700    6.080100    0.924400
  H      0.074900    8.586900    2.626500
  H     -2.151700    4.532800    1.406700
  H     -1.511100    2.514700    0.181100
  H      1.330000   -1.226600   -1.869700
  H      0.160100   -1.231600   -3.232100
  H      0.500700   -2.740500   -2.282600
  H     -1.575800   -3.017700   -3.291700
  H     -3.785800   -3.989500   -3.573100
  H     -5.603200   -3.463500   -1.990800
  H     -5.224600   -1.968500   -0.112400

 Total Charge           Charge          ....    0
 Multiplicity           Mult            ....    1
 Number of Electrons    NEL             ....  282
 Basis Dimension        Dim             ....  582

ORBITAL ENERGIES
----------------

  NO   OCC          E(Eh)            E(eV)
   0   2.0000     -89.097197     -2424.4580
   1   2.0000     -24.738352      -673.1648
   2   2.0000     -24.735373      -673.0837
   3   2.0000     -24.734755      -673.0669
   4   2.0000     -19.209409      -522.7146
   5   2.0000     -19.194778      -522.3165
   6   2.0000     -19.136575      -520.7327
   7   2.0000     -19.127489      -520.4854
   8   2.0000     -19.126465      -520.4576
   9   2.0000     -14.370408      -391.0387
  10   2.0000     -14.329975      -389.9384
  11   2.0000     -10.500583      -285.7354
  12   2.0000     -10.333638      -281.1926
  13   2.0000     -10.265079      -279.3270
  14   2.0000     -10.255239      -279.0592
  15   2.0000     -10.239654      -278.6352
  16   2.0000     -10.233164      -278.4585
  17   2.0000     -10.231918      -278.4247
  18   2.0000     -10.229146      -278.3492
  19   2.0000     -10.217086      -278.0210
  20   2.0000     -10.216360      -278.0013
  21   2.0000     -10.214652      -277.9548
  22   2.0000     -10.214419      -277.9485
  23   2.0000     -10.205550      -277.7071
  24   2.0000     -10.205192      -277.6974
  25   2.0000     -10.202606      -277.6270
  26   2.0000     -10.197447      -277.4866
  27   2.0000     -10.195979      -277.4467
  28   2.0000     -10.195150      -277.4241
  29   2.0000     -10.194348      -277.4023
  30   2.0000     -10.194218      -277.3988
  31   2.0000     -10.193527      -277.3800
  32   2.0000     -10.193115      -277.3688
  33   2.0000     -10.191576      -277.3269
  34   2.0000     -10.190212      -277.2898
  35   2.0000     -10.189464      -277.2694
  36   2.0000     -10.180506      -277.0257
  37   2.0000     -10.169338      -276.7217
  38   2.0000      -8.132940      -221.3085
  39   2.0000      -6.097965      -165.9341
  40   2.0000      -6.096037      -165.8816
  41   2.0000      -6.095522      -165.8676
  42   2.0000      -1.300063       -35.3765
  43   2.0000      -1.221082       -33.2273
  44   2.0000      -1.220469       -33.2107
  45   2.0000      -1.083900       -29.4944
  46   2.0000      -1.079855       -29.3844
  47   2.0000      -1.079451       -29.3734
  48   2.0000      -0.994266       -27.0554
  49   2.0000      -0.964907       -26.2565
  50   2.0000      -0.962203       -26.1829
  51   2.0000      -0.916281       -24.9333
  52   2.0000      -0.887800       -24.1583
  53   2.0000      -0.864787       -23.5321
  54   2.0000      -0.859681       -23.3931
  55   2.0000      -0.814302       -22.1583
  56   2.0000      -0.804777       -21.8991
  57   2.0000      -0.787061       -21.4170
  58   2.0000      -0.779640       -21.2151
  59   2.0000      -0.773624       -21.0514
  60   2.0000      -0.758576       -20.6419
  61   2.0000      -0.754654       -20.5352
  62   2.0000      -0.741382       -20.1740
  63   2.0000      -0.725805       -19.7502
  64   2.0000      -0.706916       -19.2362
  65   2.0000      -0.688757       -18.7420
  66   2.0000      -0.675235       -18.3741
  67   2.0000      -0.652402       -17.7528
  68   2.0000      -0.644632       -17.5413
  69   2.0000      -0.637503       -17.3473
  70   2.0000      -0.629626       -17.1330
  71   2.0000      -0.623237       -16.9591
  72   2.0000      -0.621256       -16.9052
  73   2.0000      -0.611634       -16.6434
  74   2.0000      -0.592233       -16.1155
  75   2.0000      -0.592031       -16.1100
  76   2.0000      -0.588187       -16.0054
  77   2.0000      -0.575718       -15.6661
  78   2.0000      -0.569864       -15.5068
  79   2.0000      -0.554868       -15.0987
  80   2.0000      -0.539198       -14.6723
  81   2.0000      -0.536589       -14.6013
  82   2.0000      -0.517452       -14.0806
  83   2.0000      -0.495874       -13.4934
  84   2.0000      -0.493539       -13.4299
  85   2.0000      -0.490095       -13.3362
  86   2.0000      -0.485118       -13.2007
  87   2.0000      -0.480043       -13.0626
  88   2.0000      -0.475293       -12.9334
  89   2.0000      -0.468840       -12.7578
  90   2.0000      -0.466674       -12.6988
  91   2.0000      -0.465507       -12.6671
  92   2.0000      -0.458947       -12.4886
  93   2.0000      -0.456549       -12.4233
  94   2.0000      -0.454573       -12.3696
  95   2.0000      -0.449518       -12.2320
  96   2.0000      -0.447011       -12.1638
  97   2.0000      -0.445385       -12.1195
  98   2.0000      -0.442459       -12.0399
  99   2.0000      -0.441617       -12.0170
 100   2.0000      -0.440723       -11.9927
 101   2.0000      -0.431850       -11.7512
 102   2.0000      -0.427822       -11.6416
 103   2.0000      -0.425496       -11.5783
 104   2.0000      -0.424293       -11.5456
 105   2.0000      -0.421500       -11.4696
 106   2.0000      -0.414446       -11.2777
 107   2.0000      -0.412866       -11.2347
 108   2.0000      -0.405918       -11.0456
 109   2.0000      -0.402985       -10.9658
 110   2.0000      -0.400251       -10.8914
 111   2.0000      -0.399557       -10.8725
 112   2.0000      -0.389187       -10.5903
 113   2.0000      -0.384336       -10.4583
 114   2.0000      -0.382000       -10.3947
 115   2.0000      -0.378121       -10.2892
 116   2.0000      -0.375568       -10.2197
 117   2.0000      -0.372306       -10.1309
 118   2.0000      -0.368232       -10.0201
 119   2.0000      -0.366375        -9.9696
 120   2.0000      -0.364229        -9.9112
 121   2.0000      -0.353239        -9.6121
 122   2.0000      -0.345871        -9.4116
 123   2.0000      -0.344394        -9.3714
 124   2.0000      -0.343170        -9.3381
 125   2.0000      -0.341017        -9.2795
 126   2.0000      -0.324804        -8.8384
 127   2.0000      -0.319711        -8.6998
 128   2.0000      -0.305556        -8.3146
 129   2.0000      -0.300422        -8.1749
 130   2.0000      -0.284720        -7.7476
 131   2.0000      -0.280717        -7.6387
 132   2.0000      -0.277430        -7.5493
 133   2.0000      -0.276306        -7.5187
 134   2.0000      -0.272922        -7.4266
 135   2.0000      -0.265907        -7.2357
 136   2.0000      -0.257647        -7.0109
 137   2.0000      -0.256502        -6.9798
 138   2.0000      -0.252397        -6.8681
 139   2.0000      -0.235206        -6.4003
 140   2.0000      -0.219622        -5.9762
 141   0.0000      -0.080880        -2.2009
 142   0.0000      -0.059885        -1.6296
 143   0.0000      -0.034501        -0.9388
 144   0.0000      -0.027288        -0.7425
 145   0.0000      -0.009787        -0.2663

MULLIKEN ATOMIC CHARGES
-----------------------
   0 C :   -0.440240
   1 C :   -0.316852
   2 C :    0.184196
   3 N :   -0.435259
   4 C :    0.287146
   5 N :   -0.605131
   6 C :   -0.253949
   7 C :    0.176243
   8 C :   -0.158953
   9 C :   -0.190020
  10 C :    0.352622
  11 O :   -0.546002
  12 C :    1.085874
  13 F :   -0.290094
  14 F :   -0.279793
  15 F :   -0.293134
  16 C :   -0.173599
  17 C :   -0.167510
  18 S :    1.216245
  19 O :   -0.540441
  20 O :   -0.551880
  21 C :   -0.125729
  22 C :   -0.152377
  23 C :   -0.146370
  24 C :    0.083344
  25 C :    0.526665
  26 O :   -0.444686
  27 O :   -0.623797
  28 C :   -0.143773
  29 C :   -0.141673
  30 C :    0.126757
  31 C :   -0.539796
  32 C :    0.117104
  33 C :   -0.196147
  34 C :   -0.118563
  35 C :   -0.123505
  36 C :   -0.211371
  37 C :    0.110659
  38 H :    0.148592
  39 H :    0.155520
  40 H :    0.150634
  41 H :    0.143865
  42 H :    0.160582
  43 H :    0.165958
  44 H :    0.179003
  45 H :    0.153896
  46 H :    0.154323
  47 H :    0.146209
  48 H :    0.142949
  49 H :    0.185992
  50 H :    0.171806
  51 H :    0.433492
  52 H :    0.177185
  53 H :    0.190096
  54 H :    0.196868
  55 H :    0.179917
  56 H :    0.148032
  57 H :    0.145805
  58 H :    0.138043
  59 H :    0.135318
  60 H :    0.139704
Sum of atomic charges:    0.0000000

LOEWDIN ATOMIC CHARGES
----------------------
   0 C :   -0.351196
   1 C :   -0.233331
   2 C :    0.040836
   3 N :   -0.147910
   4 C :    0.015936
   5 N :   -0.275910
   6 C :   -0.145723
   7 C :   -0.037438
   8 C :   -0.111551
   9 C :   -0.157318
  10 C :    0.086462
  11 O :   -0.160193
  12 C :    0.360361
  13 F :   -0.104334
  14 F :   -0.088307
  15 F :   -0.107225
  16 C :   -0.142874
  17 C :   -0.122171
  18 S :    1.263828
  19 O :   -0.565464
  20 O :   -0.578042
  21 C :   -0.175124
  22 C :   -0.106349
  23 C :   -0.100209
  24 C :   -0.040209
  25 C :    0.179071
  26 O :   -0.260746
  27 O :   -0.334928
  28 C :   -0.086661
  29 C :   -0.100885
  30 C :    0.001090
  31 C :   -0.361363
  32 C :   -0.004176
  33 C :   -0.117331
  34 C :   -0.117806
  35 C :   -0.124772
  36 C :   -0.119338
  37 C :   -0.027323
  38 H :    0.126747
  39 H :    0.127047
  40 H :    0.124918
  41 H :    0.125716
  42 H :    0.138955
  43 H :    0.138739
  44 H :    0.141082
  45 H :    0.144669
  46 H :    0.143035
  47 H :    0.143866
  48 H :    0.139215
  49 H :    0.160946
  50 H :    0.154347
  51 H :    0.349304
  52 H :    0.158924
  53 H :    0.159279
  54 H :    0.152376
  55 H :    0.147795
  56 H :    0.129353
  57 H :    0.142465
  58 H :    0.136682
  59 H :    0.135283
  60 H :    0.137879

  Mayer bond orders larger than 0.100000
B(  0-C ,  1-C ) :   1.0009 B(  0-C , 38-H ) :   0.9466 B(  0-C , 39-H ) :   0.9465
B(  0-C , 40-H ) :   0.9468 B(  1-C ,  2-C ) :   0.9970 B(  1-C , 41-H ) :   0.9265
B(  1-C , 42-H ) :   0.9310 B(  2-C ,  3-N ) :   1.4555 B(  2-C , 37-C ) :   1.2350
B(  3-N ,  4-C ) :   1.2619 B(  4-C ,  5-N ) :   0.8901 B(  4-C , 30-C ) :   1.4418
B(  5-N ,  6-C ) :   0.9203 B(  5-N , 18-S ) :   0.8023 B(  6-C ,  7-C ) :   0.9485
B(  6-C , 43-H ) :   0.9232 B(  6-C , 44-H ) :   0.9174 B(  7-C ,  8-C ) :   1.4399
B(  7-C , 17-C ) :   1.4261 B(  8-C ,  9-C ) :   1.4300 B(  8-C , 45-H ) :   0.9156
B(  9-C , 10-C ) :   1.3938 B(  9-C , 46-H ) :   0.9092 B( 10-C , 11-O ) :   0.8223
B( 10-C , 16-C ) :   1.4165 B( 11-O , 12-C ) :   0.9926 B( 12-C , 13-F ) :   0.9677
B( 12-C , 14-F ) :   1.0070 B( 12-C , 15-F ) :   0.9685 B( 16-C , 17-C ) :   1.4375
B( 16-C , 47-H ) :   0.9188 B( 17-C , 48-H ) :   0.9200 B( 18-S , 19-O ) :   1.6556
B( 18-S , 20-O ) :   1.6188 B( 18-S , 21-C ) :   0.8102 B( 21-C , 22-C ) :   1.4052
B( 21-C , 29-C ) :   1.3757 B( 22-C , 23-C ) :   1.4080 B( 22-C , 49-H ) :   0.9089
B( 23-C , 24-C ) :   1.3888 B( 23-C , 50-H ) :   0.9152 B( 24-C , 25-C ) :   1.0081
B( 24-C , 28-C ) :   1.3956 B( 25-C , 26-O ) :   1.8637 B( 25-C , 27-O ) :   1.0247
B( 27-O , 51-H ) :   0.7422 B( 28-C , 29-C ) :   1.4360 B( 28-C , 52-H ) :   0.9105
B( 29-C , 53-H ) :   0.8952 B( 30-C , 31-C ) :   1.0094 B( 30-C , 32-C ) :   1.2570
B( 31-C , 54-H ) :   0.9203 B( 31-C , 55-H ) :   0.9198 B( 31-C , 56-H ) :   0.9267
B( 32-C , 33-C ) :   1.2932 B( 32-C , 37-C ) :   1.2830 B( 33-C , 34-C ) :   1.5075
B( 33-C , 36-C ) :   0.1048 B( 33-C , 57-H ) :   0.9146 B( 34-C , 35-C ) :   1.3577
B( 34-C , 58-H ) :   0.9286 B( 35-C , 36-C ) :   1.5090 B( 35-C , 59-H ) :   0.9291
B( 36-C , 37-C ) :   1.2903 B( 36-C , 60-H ) :   0.9168

FINAL SINGLE POINT ENERGY     -2224.897453676581

DIPOLE MOMENT
-------------

Method             : SCF
Type of density    : Electron Density
Multiplicity       :   1
Irrep              :   0
Energy             : -2224.8974536765813355 Eh
Relativity type    :
Basis              : AO
                                X                 Y                 Z
Electronic contribution:     50.884452380     -15.354035483      -2.384869822
Nuclear contribution   :    -52.069601114      15.309237815       3.465081649
                        -----------------------------------------
Total Dipole Moment    :     -1.185148734      -0.044797668       1.080211827
                        -----------------------------------------
Magnitude (a.u.)       :      1.604195108
Magnitude (Debye)      :      4.077539917

Rotational constants in cm-1:             0.003434             0.001804             0.001302
Rotational constants in MHz :           102.936084            54.075711            39.022163

                             ****ORCA TERMINATED NORMALLY****
TOTAL RUN TIME: 0 days 0 hours 8 minutes 3 seconds 362 msec
