                         Program Version 6.0.0  -   RELEASE  -
|  1> ! B3LYP 6-31G* SP
|  2>
|  3> * xyz 0 1
|  4> O -4.3765 -4.9708 1.3720
|  5> C -4.3184 -3.7325 1.1433
|  6> O -5.2435 -2.8827 1.7497
|  7> C -3.2835 -3.1849 0.2376
|  8> C -2.3981 -4.0396 -0.4394
|  9> C -1.4382 -3.5171 -1.3086
| 10> C -1.3421 -2.1395 -1.5049
| 11> C -2.1991 -1.2662 -0.8175
| 12> C -2.0833 0.2225 -1.0194
| 13> N -0.7709 0.7152 -0.5605
| 14> C 0.2551 0.9364 -1.5492
| 15> O -0.0302 1.5656 -2.6032
| 16> C 1.6430 0.4643 -1.3417
| 17> C 2.7187 1.1435 -1.9364
| 18> N 3.9957 0.7200 -1.7395
| 19> C 4.2799 -0.3690 -0.9784
| 20> C 5.6081 -0.7705 -0.7940
| 21> C 5.8965 -1.8968 -0.0179
| 22> C 4.8600 -2.6274 0.5753
| 23> C 3.5303 -2.2321 0.3973
| 24> C 3.2324 -1.0988 -0.3752
| 25> C 1.9103 -0.6783 -0.5693
| 26> C -0.5181 1.1868 0.8223
| 27> C -1.4830 0.5994 1.8743
| 28> O -1.0641 0.9421 3.1687
| 29> C -0.5092 2.7026 0.8617
| 30> C 0.6630 3.3914 1.2246
| 31> C 0.6816 4.7882 1.2632
| 32> C -0.4638 5.5125 0.9239
| 33> C -1.6334 4.8402 0.5627
| 34> C -1.6588 3.4425 0.5317
| 35> C -3.1785 -1.7963 0.0406
| 36> H -5.9732 -3.2503 2.3461
| 37> H -2.4539 -5.1131 -0.3072
| 38> H -0.7712 -4.1838 -1.8396
| 39> H -0.5970 -1.7528 -2.1885
| 40> H -2.9040 0.7618 -0.5070
| 41> H -2.2278 0.4401 -2.0992
| 42> H 2.5456 2.0223 -2.5438
| 43> H 6.4167 -0.2169 -1.2563
| 44> H 6.9234 -2.2066 0.1231
| 45> H 5.0891 -3.5011 1.1708
| 46> H 2.7394 -2.8094 0.8600
| 47> H 1.0948 -1.2369 -0.1224
| 48> H 0.4835 0.8181 1.1312
| 49> H -1.4618 -0.5063 1.8011
| 50> H -2.5295 0.9361 1.7120
| 51> H -1.4132 1.8516 3.3565
| 52> H 1.5639 2.8485 1.4783
| 53> H 1.5861 5.3108 1.5510
| 54> H -0.4478 6.5940 0.9546
| 55> H -2.5214 5.4026 0.3103
| 56> H -2.5756 2.9436 0.2490
| 57> H -3.8479 -1.1232 0.5640
| 58> *
| 59>
| 60>                          ****END OF INPUT****

CARTESIAN COORDINATES (ANGSTROEM)
---------------------------------
  O     -4.376500   -4.970800    1.372000
  C     -4.318400   -3.732500    1.143300
  O     -5.243500   -2.882700    1.749700
  C     -3.283500   -3.184900    0.237600
  C     -2.398100   -4.039600   -0.439400
  C     -1.438200   -3.517100   -1.308600
  C     -1.342100   -2.139500   -1.504900
  C     -2.199100   -1.266200   -0.817500
  C     -2.083300    0.222500   -1.019400
  N     -0.770900    0.715200   -0.560500
  C      0.255100    0.936400   -1.549200
  O     -0.030200    1.565600   -2.603200
  C      1.643000    0.464300   -1.341700
  C      2.718700    1.143500   -1.936400
  N      3.995700    0.720000   -1.739500
  C      4.279900   -0.369000   -0.978400
  C      5.608100   -0.770500   -0.794000
  C      5.896500   -1.896800   -0.017900
  C      4.860000   -2.627400    0.575300
  C      3.530300   -2.232100    0.397300
  C      3.232400   -1.098800   -0.375200
  C      1.910300   -0.678300   -0.569300
  C     -0.518100    1.186800    0.822300
  C     -1.483000    0.599400    1.874300
  O     -1.064100    0.942100    3.168700
  C     -0.509200    2.702600    0.861700
  C      0.663000    3.391400    1.224600
  C      0.681600    4.788200    1.263200
  C     -0.463800    5.512500    0.923900
  C     -1.633400    4.840200    0.562700
  C     -1.658800    3.442500    0.531700
  C     -3.178500   -1.796300    0.040600
  H     -5.973200   -3.250300    2.346100
  H     -2.453900   -5.113100   -0.307200
  H     -0.771200   -4.183800   -1.839600
  H     -0.597000   -1.752800   -2.188500
  H     -2.904000    0.761800   -0.507000
  H     -2.227800    0.440100   -2.099200
  H      2.545600    2.022300   -2.543800
  H      6.416700   -0.216900   -1.256300
  H      6.923400   -2.206600    0.123100
  H      5.089100   -3.501100    1.170800
  H      2.739400   -2.809400    0.860000
  H      1.094800   -1.236900   -0.122400
  H      0.483500    0.818100    1.131200
  H     -1.461800   -0.506300    1.801100
  H     -2.529500    0.936100    1.712000
  H     -1.413200    1.851600    3.356500
  H      1.563900    2.848500    1.478300
  H      1.586100    5.310800    1.551000
  H     -0.447800    6.594000    0.954600
  H     -2.521400    5.402600    0.310300
  H     -2.575600    2.943600    0.249000
  H     -3.847900   -1.123200    0.564000

 Total Charge           Charge          ....    0
 Multiplicity           Mult            ....    1
 Number of Electrons    NEL             ....  224
 Basis Dimension        Dim             ....  492

ORBITAL ENERGIES
----------------

  NO   OCC          E(Eh)            E(eV)
   0   2.0000     -19.186668      -522.0958
   1   2.0000     -19.146190      -520.9943
   2   2.0000     -19.126327      -520.4538
   3   2.0000     -19.123212      -520.3691
   4   2.0000     -14.348656      -390.4468
   5   2.0000     -14.327326      -389.8664
   6   2.0000     -10.323948      -280.9289
   7   2.0000     -10.293746      -280.1071
   8   2.0000     -10.235424      -278.5200
   9   2.0000     -10.228175      -278.3228
  10   2.0000     -10.226818      -278.2859
  11   2.0000     -10.225726      -278.2562
  12   2.0000     -10.223858      -278.2053
  13   2.0000     -10.213852      -277.9330
  14   2.0000     -10.211761      -277.8761
  15   2.0000     -10.207199      -277.7520
  16   2.0000     -10.204396      -277.6757
  17   2.0000     -10.201287      -277.5911
  18   2.0000     -10.200937      -277.5816
  19   2.0000     -10.200281      -277.5637
  20   2.0000     -10.199907      -277.5536
  21   2.0000     -10.197977      -277.5010
  22   2.0000     -10.197199      -277.4799
  23   2.0000     -10.197008      -277.4747
  24   2.0000     -10.195482      -277.4332
  25   2.0000     -10.192550      -277.3534
  26   2.0000     -10.189609      -277.2733
  27   2.0000     -10.187433      -277.2141
  28   2.0000     -10.186157      -277.1794
  29   2.0000     -10.185198      -277.1533
  30   2.0000     -10.184781      -277.1420
  31   2.0000     -10.184172      -277.1254
  32   2.0000      -1.070375       -29.1264
  33   2.0000      -1.025949       -27.9175
  34   2.0000      -1.019917       -27.7534
  35   2.0000      -0.984510       -26.7899
  36   2.0000      -0.938858       -25.5476
  37   2.0000      -0.923600       -25.1324
  38   2.0000      -0.870294       -23.6819
  39   2.0000      -0.852923       -23.2092
  40   2.0000      -0.852662       -23.2021
  41   2.0000      -0.818122       -22.2622
  42   2.0000      -0.791508       -21.5380
  43   2.0000      -0.772058       -21.0088
  44   2.0000      -0.768596       -20.9146
  45   2.0000      -0.761704       -20.7270
  46   2.0000      -0.746187       -20.3048
  47   2.0000      -0.744523       -20.2595
  48   2.0000      -0.719031       -19.5658
  49   2.0000      -0.696353       -18.9487
  50   2.0000      -0.665226       -18.1017
  51   2.0000      -0.659573       -17.9479
  52   2.0000      -0.644503       -17.5378
  53   2.0000      -0.630381       -17.1536
  54   2.0000      -0.618021       -16.8172
  55   2.0000      -0.610668       -16.6171
  56   2.0000      -0.607612       -16.5340
  57   2.0000      -0.588019       -16.0008
  58   2.0000      -0.585305       -15.9270
  59   2.0000      -0.560186       -15.2434
  60   2.0000      -0.536484       -14.5985
  61   2.0000      -0.531188       -14.4544
  62   2.0000      -0.523750       -14.2520
  63   2.0000      -0.520779       -14.1711
  64   2.0000      -0.517787       -14.0897
  65   2.0000      -0.500778       -13.6269
  66   2.0000      -0.499789       -13.5999
  67   2.0000      -0.488447       -13.2913
  68   2.0000      -0.474263       -12.9053
  69   2.0000      -0.467219       -12.7137
  70   2.0000      -0.465326       -12.6622
  71   2.0000      -0.456764       -12.4292
  72   2.0000      -0.451838       -12.2951
  73   2.0000      -0.450935       -12.2706
  74   2.0000      -0.444730       -12.1017
  75   2.0000      -0.441654       -12.0180
  76   2.0000      -0.439419       -11.9572
  77   2.0000      -0.432258       -11.7623
  78   2.0000      -0.430468       -11.7136
  79   2.0000      -0.427358       -11.6290
  80   2.0000      -0.422124       -11.4866
  81   2.0000      -0.418214       -11.3802
  82   2.0000      -0.414748       -11.2859
  83   2.0000      -0.409499       -11.1430
  84   2.0000      -0.403922       -10.9913
  85   2.0000      -0.394824       -10.7437
  86   2.0000      -0.388122       -10.5613
  87   2.0000      -0.382398       -10.4056
  88   2.0000      -0.373706       -10.1690
  89   2.0000      -0.367203        -9.9921
  90   2.0000      -0.365465        -9.9448
  91   2.0000      -0.362644        -9.8680
  92   2.0000      -0.360069        -9.7980
  93   2.0000      -0.357797        -9.7361
  94   2.0000      -0.353601        -9.6220
  95   2.0000      -0.348588        -9.4856
  96   2.0000      -0.343071        -9.3354
  97   2.0000      -0.338126        -9.2009
  98   2.0000      -0.330163        -8.9842
  99   2.0000      -0.307385        -8.3644
 100   2.0000      -0.306361        -8.3365
 101   2.0000      -0.279534        -7.6065
 102   2.0000      -0.269366        -7.3298
 103   2.0000      -0.265960        -7.2371
 104   2.0000      -0.263608        -7.1731
 105   2.0000      -0.260250        -7.0818
 106   2.0000      -0.257463        -7.0059
 107   2.0000      -0.251657        -6.8479
 108   2.0000      -0.249816        -6.7978
 109   2.0000      -0.241807        -6.5799
 110   2.0000      -0.231721        -6.3054
 111   2.0000      -0.221108        -6.0167
 112   0.0000      -0.073116        -1.9896
 113   0.0000      -0.058360        -1.5881
 114   0.0000      -0.041962        -1.1418
 115   0.0000      -0.016056        -0.4369
 116   0.0000      -0.006939        -0.1888

MULLIKEN ATOMIC CHARGES
-----------------------
   0 O :   -0.452591
   1 C :    0.522421
   2 O :   -0.627980
   3 C :    0.084701
   4 C :   -0.151621
   5 C :   -0.135570
   6 C :   -0.166113
   7 C :    0.174366
   8 C :   -0.255745
   9 N :   -0.426228
  10 C :    0.447118
  11 O :   -0.451148
  12 C :    0.052082
  13 C :   -0.007632
  14 N :   -0.431867
  15 C :    0.216004
  16 C :   -0.142829
  17 C :   -0.128369
  18 C :   -0.130473
  19 C :   -0.200216
  20 C :    0.161135
  21 C :   -0.205113
  22 C :   -0.077983
  23 C :   -0.048444
  24 O :   -0.615286
  25 C :    0.161242
  26 C :   -0.184186
  27 C :   -0.123595
  28 C :   -0.124640
  29 C :   -0.125148
  30 C :   -0.176119
  31 C :   -0.219826
  32 H :    0.429659
  33 H :    0.166625
  34 H :    0.143631
  35 H :    0.151298
  36 H :    0.147893
  37 H :    0.194285
  38 H :    0.179415
  39 H :    0.147886
  40 H :    0.139795
  41 H :    0.137432
  42 H :    0.139386
  43 H :    0.165006
  44 H :    0.153895
  45 H :    0.160562
  46 H :    0.119694
  47 H :    0.402309
  48 H :    0.136689
  49 H :    0.132875
  50 H :    0.130540
  51 H :    0.131227
  52 H :    0.125807
  53 H :    0.153745
Sum of atomic charges:   -0.0000000

LOEWDIN ATOMIC CHARGES
----------------------
   0 O :   -0.268648
   1 C :    0.179758
   2 O :   -0.340622
   3 C :   -0.055726
   4 C :   -0.092617
   5 C :   -0.127618
   6 C :   -0.112559
   7 C :   -0.031209
   8 C :   -0.148169
   9 N :   -0.122893
  10 C :    0.142158
  11 O :   -0.251653
  12 C :   -0.077161
  13 C :   -0.037752
  14 N :   -0.126929
  15 C :    0.020112
  16 C :   -0.114964
  17 C :   -0.116220
  18 C :   -0.127081
  19 C :   -0.116002
  20 C :   -0.032123
  21 C :   -0.081234
  22 C :   -0.068611
  23 C :   -0.110466
  24 O :   -0.395313
  25 C :   -0.031428
  26 C :   -0.133308
  27 C :   -0.125158
  28 C :   -0.128587
  29 C :   -0.125449
  30 C :   -0.132307
  31 C :   -0.113052
  32 H :    0.346319
  33 H :    0.153156
  34 H :    0.139026
  35 H :    0.141271
  36 H :    0.122353
  37 H :    0.154272
  38 H :    0.152187
  39 H :    0.146134
  40 H :    0.137622
  41 H :    0.136149
  42 H :    0.136340
  43 H :    0.147099
  44 H :    0.134284
  45 H :    0.129152
  46 H :    0.102745
  47 H :    0.318855
  48 H :    0.134739
  49 H :    0.133540
  50 H :    0.132563
  51 H :    0.132762
  52 H :    0.128696
  53 H :    0.143570

  Mayer bond orders larger than 0.100000
B(  0-O ,  1-C ) :   1.8594 B(  1-C ,  2-O ) :   1.0147 B(  1-C ,  3-C ) :   1.0102
B(  2-O , 32-H ) :   0.7446 B(  3-C ,  4-C ) :   1.4125 B(  3-C , 31-C ) :   1.3638
B(  4-C ,  5-C ) :   1.4253 B(  4-C , 33-H ) :   0.9122 B(  5-C ,  6-C ) :   1.4311
B(  5-C , 34-H ) :   0.9279 B(  6-C ,  7-C ) :   1.4166 B(  6-C , 35-H ) :   0.9169
B(  7-C ,  8-C ) :   0.9404 B(  7-C , 31-C ) :   1.4069 B(  8-C ,  9-N ) :   0.9459
B(  8-C , 36-H ) :   0.9238 B(  8-C , 37-H ) :   0.9112 B(  9-N , 10-C ) :   1.0113
B(  9-N , 22-C ) :   0.9307 B( 10-C , 11-O ) :   1.8324 B( 10-C , 12-C ) :   0.9715
B( 12-C , 13-C ) :   1.2661 B( 12-C , 21-C ) :   1.4276 B( 13-C , 14-N ) :   1.5036
B( 13-C , 38-H ) :   0.9169 B( 14-N , 15-C ) :   1.2458 B( 15-C , 16-C ) :   1.3121
B( 15-C , 20-C ) :   1.2502 B( 16-C , 17-C ) :   1.5117 B( 16-C , 19-C ) :   0.1063
B( 16-C , 39-H ) :   0.9168 B( 17-C , 18-C ) :   1.3469 B( 17-C , 40-H ) :   0.9289
B( 18-C , 19-C ) :   1.5152 B( 18-C , 41-H ) :   0.9293 B( 19-C , 20-C ) :   1.2779
B( 19-C , 42-H ) :   0.9237 B( 20-C , 21-C ) :   1.2783 B( 21-C , 43-H ) :   0.9038
B( 22-C , 23-C ) :   0.9502 B( 22-C , 25-C ) :   0.9413 B( 22-C , 44-H ) :   0.9037
B( 23-C , 24-O ) :   0.9785 B( 23-C , 45-H ) :   0.9214 B( 23-C , 46-H ) :   0.9267
B( 24-O , 47-H ) :   0.7795 B( 25-C , 26-C ) :   1.4276 B( 25-C , 30-C ) :   1.4105
B( 26-C , 27-C ) :   1.4347 B( 26-C , 48-H ) :   0.9216 B( 27-C , 28-C ) :   1.4585
B( 27-C , 49-H ) :   0.9288 B( 28-C , 29-C ) :   1.4484 B( 28-C , 50-H ) :   0.9299
B( 29-C , 30-C ) :   1.4482 B( 29-C , 51-H ) :   0.9295 B( 30-C , 52-H ) :   0.9215
B( 31-C , 53-H ) :   0.9093

FINAL SINGLE POINT ENERGY     -1413.531117153706

DIPOLE MOMENT
-------------

Method             : SCF
Type of density    : Electron Density
Multiplicity       :   1
Irrep              :   0
Energy             : -1413.5311171537064183 Eh
Relativity type    :
Basis              : AO
                                X                 Y                 Z
Electronic contribution:      0.016315145      -6.539941346      -5.093148412
Nuclear contribution   :     -0.265819267       6.757966140       6.017904944
                        -----------------------------------------
Total Dipole Moment    :     -0.249504121       0.218024794       0.924756532
                        -----------------------------------------
Magnitude (a.u.)       :      0.982324671
Magnitude (Debye)      :      2.496870885

Rotational constants in cm-1:             0.004857             0.003489             0.002404
Rotational constants in MHz :           145.617692           104.595425            72.055882

                             ****ORCA TERMINATED NORMALLY****
TOTAL RUN TIME: 0 days 0 hours 9 minutes 48 seconds 845 msec
