                         Program Version 6.0.0  -   RELEASE  -
|  1> ! B3LYP 6-31G* SP
|  2>
|  3> * xyz 0 1
|  4> C -0.0409 -1.9731 2.2729
|  5> C 1.3274 -1.4379 1.9620
|  6> C 1.5849 -0.4369 1.0170
|  7> N 0.6048 0.2326 0.2161
|  8> C 0.6020 0.0518 -1.2353
|  9> C -0.3855 -1.0150 -1.6143
| 10> C -1.6575 -0.6690 -2.0938
| 11> C -2.5933 -1.6631 -2.3951
| 12> C -2.2705 -3.0220 -2.2118
| 13> O -3.1716 -4.0614 -2.4939
| 14> C -4.4953 -3.8902 -2.9958
| 15> F -4.4610 -3.2560 -4.2253
| 16> F -5.0792 -5.1323 -3.1521
| 17> F -5.2522 -3.1500 -2.1051
| 18> C -1.0026 -3.3608 -1.7252
| 19> C -0.0664 -2.3674 -1.4262
| 20> S -0.5925 1.2410 0.9708
| 21> O -0.2621 1.4342 2.4243
| 22> O -1.9391 0.5821 0.8606
| 23> C -0.6082 2.8157 0.1855
| 24> C -1.8031 3.3650 -0.2962
| 25> C -1.7988 4.6093 -0.9338
| 26> C -0.5979 5.3208 -1.1002
| 27> C -0.5966 6.6361 -1.7780
| 28> O 0.4831 7.2630 -1.9537
| 29> O -1.7897 7.1945 -2.2291
| 30> C 0.5983 4.7631 -0.6128
| 31> C 0.5907 3.5200 0.0260
| 32> S 3.2424 -0.1247 0.9302
| 33> C 3.6517 -1.2400 2.1167
| 34> C 4.9217 -1.5352 2.6067
| 35> C 5.0374 -2.5063 3.6123
| 36> C 3.8914 -3.1565 4.1068
| 37> C 2.6190 -2.8434 3.5993
| 38> C 2.5086 -1.8747 2.5914
| 39> H -0.7509 -1.7547 1.4496
| 40> H -0.4153 -1.5120 3.2105
| 41> H -0.0039 -3.0755 2.3933
| 42> H 1.6149 -0.2356 -1.5927
| 43> H 0.3549 1.0122 -1.7360
| 44> H -1.9294 0.3714 -2.2260
| 45> H -3.5636 -1.3611 -2.7631
| 46> H -0.7428 -4.4010 -1.5743
| 47> H 0.9040 -2.6515 -1.0382
| 48> H -2.7386 2.8329 -0.1829
| 49> H -2.7359 5.0114 -1.2983
| 50> H -1.8004 8.0940 -2.6953
| 51> H 1.5398 5.2863 -0.7254
| 52> H 1.5206 3.1023 0.3910
| 53> H 5.7979 -1.0281 2.2231
| 54> H 6.0127 -2.7556 4.0104
| 55> H 3.9906 -3.9017 4.8853
| 56> H 1.7460 -3.3470 3.9935
| 57> *
| 58>
| 59>                          ****END OF INPUT****

CARTESIAN COORDINATES (ANGSTROEM)
---------------------------------
  C     -0.040900   -1.973100    2.272900
  C      1.327400   -1.437900    1.962000
  C      1.584900   -0.436900    1.017000
  N      0.604800    0.232600    0.216100
  C      0.602000    0.051800   -1.235300
  C     -0.385500   -1.015000   -1.614300
  C     -1.657500   -0.669000   -2.093800
  C     -2.593300   -1.663100   -2.395100
  C     -2.270500   -3.022000   -2.211800
  O     -3.171600   -4.061400   -2.493900
  C     -4.495300   -3.890200   -2.995800
  F     -4.461000   -3.256000   -4.225300
  F     -5.079200   -5.132300   -3.152100
  F     -5.252200   -3.150000   -2.105100
  C     -1.002600   -3.360800   -1.725200
  C     -0.066400   -2.367400   -1.426200
  S     -0.592500    1.241000    0.970800
  O     -0.262100    1.434200    2.424300
  O     -1.939100    0.582100    0.860600
  C     -0.608200    2.815700    0.185500
  C     -1.803100    3.365000   -0.296200
  C     -1.798800    4.609300   -0.933800
  C     -0.597900    5.320800   -1.100200
  C     -0.596600    6.636100   -1.778000
  O      0.483100    7.263000   -1.953700
  O     -1.789700    7.194500   -2.229100
  C      0.598300    4.763100   -0.612800
  C      0.590700    3.520000    0.026000
  S      3.242400   -0.124700    0.930200
  C      3.651700   -1.240000    2.116700
  C      4.921700   -1.535200    2.606700
  C      5.037400   -2.506300    3.612300
  C      3.891400   -3.156500    4.106800
  C      2.619000   -2.843400    3.599300
  C      2.508600   -1.874700    2.591400
  H     -0.750900   -1.754700    1.449600
  H     -0.415300   -1.512000    3.210500
  H     -0.003900   -3.075500    2.393300
  H      1.614900   -0.235600   -1.592700
  H      0.354900    1.012200   -1.736000
  H     -1.929400    0.371400   -2.226000
  H     -3.563600   -1.361100   -2.763100
  H     -0.742800   -4.401000   -1.574300
  H      0.904000   -2.651500   -1.038200
  H     -2.738600    2.832900   -0.182900
  H     -2.735900    5.011400   -1.298300
  H     -1.800400    8.094000   -2.695300
  H      1.539800    5.286300   -0.725400
  H      1.520600    3.102300    0.391000
  H      5.797900   -1.028100    2.223100
  H      6.012700   -2.755600    4.010400
  H      3.990600   -3.901700    4.885300
  H      1.746000   -3.347000    3.993500

 Total Charge           Charge          ....    0
 Multiplicity           Mult            ....    1
 Number of Electrons    NEL             ....  268
 Basis Dimension        Dim             ....  534

ORBITAL ENERGIES
----------------

  NO   OCC          E(Eh)            E(eV)
   0   2.0000     -89.103616     -2424.6326
   1   2.0000     -88.886189     -2418.7162
   2   2.0000     -24.739263      -673.1896
   3   2.0000     -24.737005      -673.1281
   4   2.0000     -24.736188      -673.1059
   5   2.0000     -19.210792      -522.7522
   6   2.0000     -19.201135      -522.4895
   7   2.0000     -19.143186      -520.9126
   8   2.0000     -19.131119      -520.5842
   9   2.0000     -19.130707      -520.5730
  10   2.0000     -14.386540      -391.4777
  11   2.0000     -10.501979      -285.7734
  12   2.0000     -10.340815      -281.3879
  13   2.0000     -10.267080      -279.3814
  14   2.0000     -10.250098      -278.9193
  15   2.0000     -10.246595      -278.8240
  16   2.0000     -10.242382      -278.7094
  17   2.0000     -10.238790      -278.6116
  18   2.0000     -10.228491      -278.3314
  19   2.0000     -10.226577      -278.2793
  20   2.0000     -10.224705      -278.2284
  21   2.0000     -10.224090      -278.2116
  22   2.0000     -10.211529      -277.8698
  23   2.0000     -10.196876      -277.4711
  24   2.0000     -10.195906      -277.4447
  25   2.0000     -10.195425      -277.4316
  26   2.0000     -10.195326      -277.4289
  27   2.0000     -10.195201      -277.4255
  28   2.0000     -10.194212      -277.3986
  29   2.0000     -10.193562      -277.3809
  30   2.0000     -10.188784      -277.2509
  31   2.0000     -10.187276      -277.2099
  32   2.0000     -10.186760      -277.1958
  33   2.0000     -10.185059      -277.1495
  34   2.0000     -10.169405      -276.7236
  35   2.0000      -8.139552      -221.4885
  36   2.0000      -7.964404      -216.7225
  37   2.0000      -6.104777      -166.1194
  38   2.0000      -6.102358      -166.0536
  39   2.0000      -6.102170      -166.0485
  40   2.0000      -5.927573      -161.2975
  41   2.0000      -5.923834      -161.1957
  42   2.0000      -5.920603      -161.1078
  43   2.0000      -1.301891       -35.4263
  44   2.0000      -1.222610       -33.2689
  45   2.0000      -1.222130       -33.2558
  46   2.0000      -1.089482       -29.6463
  47   2.0000      -1.085872       -29.5481
  48   2.0000      -1.080710       -29.4076
  49   2.0000      -1.000162       -27.2158
  50   2.0000      -0.967833       -26.3361
  51   2.0000      -0.956248       -26.0208
  52   2.0000      -0.903492       -24.5853
  53   2.0000      -0.897171       -24.4133
  54   2.0000      -0.863726       -23.5032
  55   2.0000      -0.828907       -22.5557
  56   2.0000      -0.813791       -22.1444
  57   2.0000      -0.788565       -21.4580
  58   2.0000      -0.784399       -21.3446
  59   2.0000      -0.783405       -21.3175
  60   2.0000      -0.757556       -20.6141
  61   2.0000      -0.738388       -20.0925
  62   2.0000      -0.731899       -19.9160
  63   2.0000      -0.728881       -19.8338
  64   2.0000      -0.707238       -19.2449
  65   2.0000      -0.682341       -18.5674
  66   2.0000      -0.667907       -18.1747
  67   2.0000      -0.654719       -17.8158
  68   2.0000      -0.645990       -17.5783
  69   2.0000      -0.631743       -17.1906
  70   2.0000      -0.622499       -16.9391
  71   2.0000      -0.616839       -16.7850
  72   2.0000      -0.597909       -16.2699
  73   2.0000      -0.593915       -16.1612
  74   2.0000      -0.590477       -16.0677
  75   2.0000      -0.582468       -15.8498
  76   2.0000      -0.574220       -15.6253
  77   2.0000      -0.568598       -15.4723
  78   2.0000      -0.552097       -15.0233
  79   2.0000      -0.535519       -14.5722
  80   2.0000      -0.508390       -13.8340
  81   2.0000      -0.503458       -13.6998
  82   2.0000      -0.494052       -13.4438
  83   2.0000      -0.492411       -13.3992
  84   2.0000      -0.483172       -13.1478
  85   2.0000      -0.482219       -13.1218
  86   2.0000      -0.476999       -12.9798
  87   2.0000      -0.475081       -12.9276
  88   2.0000      -0.469012       -12.7625
  89   2.0000      -0.467715       -12.7272
  90   2.0000      -0.464790       -12.6476
  91   2.0000      -0.458904       -12.4874
  92   2.0000      -0.455128       -12.3847
  93   2.0000      -0.449314       -12.2265
  94   2.0000      -0.447924       -12.1886
  95   2.0000      -0.443112       -12.0577
  96   2.0000      -0.440630       -11.9902
  97   2.0000      -0.439362       -11.9556
  98   2.0000      -0.434349       -11.8192
  99   2.0000      -0.431522       -11.7423
 100   2.0000      -0.428030       -11.6473
 101   2.0000      -0.422985       -11.5100
 102   2.0000      -0.421503       -11.4697
 103   2.0000      -0.414228       -11.2717
 104   2.0000      -0.412376       -11.2213
 105   2.0000      -0.405523       -11.0349
 106   2.0000      -0.404275       -11.0009
 107   2.0000      -0.399501       -10.8710
 108   2.0000      -0.392057       -10.6684
 109   2.0000      -0.389924       -10.6104
 110   2.0000      -0.388717       -10.5775
 111   2.0000      -0.378653       -10.3037
 112   2.0000      -0.375931       -10.2296
 113   2.0000      -0.374303       -10.1853
 114   2.0000      -0.355536        -9.6746
 115   2.0000      -0.351375        -9.5614
 116   2.0000      -0.349152        -9.5009
 117   2.0000      -0.348133        -9.4732
 118   2.0000      -0.336847        -9.1661
 119   2.0000      -0.334310        -9.0970
 120   2.0000      -0.326402        -8.8819
 121   2.0000      -0.325560        -8.8589
 122   2.0000      -0.311189        -8.4679
 123   2.0000      -0.307121        -8.3572
 124   2.0000      -0.290139        -7.8951
 125   2.0000      -0.287104        -7.8125
 126   2.0000      -0.280635        -7.6365
 127   2.0000      -0.278066        -7.5666
 128   2.0000      -0.276931        -7.5357
 129   2.0000      -0.264453        -7.1961
 130   2.0000      -0.255412        -6.9501
 131   2.0000      -0.241415        -6.5692
 132   2.0000      -0.231242        -6.2924
 133   2.0000      -0.208140        -5.6638
 134   0.0000      -0.090308        -2.4574
 135   0.0000      -0.038194        -1.0393
 136   0.0000      -0.037685        -1.0255
 137   0.0000      -0.013953        -0.3797
 138   0.0000      -0.010473        -0.2850

MULLIKEN ATOMIC CHARGES
-----------------------
   0 C :   -0.534172
   1 C :    0.175767
   2 C :   -0.049747
   3 N :   -0.603244
   4 C :   -0.284226
   5 C :    0.188179
   6 C :   -0.144756
   7 C :   -0.188820
   8 C :    0.354854
   9 O :   -0.545857
  10 C :    1.086316
  11 F :   -0.292716
  12 F :   -0.279361
  13 F :   -0.289773
  14 C :   -0.171922
  15 C :   -0.165963
  16 S :    1.224928
  17 O :   -0.527611
  18 O :   -0.542031
  19 C :   -0.134698
  20 C :   -0.146660
  21 C :   -0.145935
  22 C :    0.082664
  23 C :    0.529766
  24 O :   -0.442322
  25 O :   -0.623049
  26 C :   -0.139528
  27 C :   -0.149245
  28 S :    0.206614
  29 C :   -0.117039
  30 C :   -0.175312
  31 C :   -0.114931
  32 C :   -0.144996
  33 C :   -0.175103
  34 C :    0.113634
  35 H :    0.193379
  36 H :    0.186440
  37 H :    0.145416
  38 H :    0.184924
  39 H :    0.163619
  40 H :    0.132766
  41 H :    0.152224
  42 H :    0.148710
  43 H :    0.146400
  44 H :    0.192024
  45 H :    0.176481
  46 H :    0.435902
  47 H :    0.183541
  48 H :    0.184076
  49 H :    0.139403
  50 H :    0.132721
  51 H :    0.131281
  52 H :    0.136986
Sum of atomic charges:    0.0000000

LOEWDIN ATOMIC CHARGES
----------------------
   0 C :   -0.360226
   1 C :   -0.028060
   2 C :   -0.165177
   3 N :   -0.280314
   4 C :   -0.151165
   5 C :   -0.040562
   6 C :   -0.110952
   7 C :   -0.155536
   8 C :    0.088804
   9 O :   -0.159710
  10 C :    0.359674
  11 F :   -0.106170
  12 F :   -0.087710
  13 F :   -0.103685
  14 C :   -0.140339
  15 C :   -0.119178
  16 S :    1.261800
  17 O :   -0.560997
  18 O :   -0.569513
  19 C :   -0.175137
  20 C :   -0.103606
  21 C :   -0.097531
  22 C :   -0.037723
  23 C :    0.179964
  24 O :   -0.258549
  25 O :   -0.333672
  26 C :   -0.084559
  27 C :   -0.106034
  28 S :    0.356095
  29 C :   -0.163275
  30 C :   -0.133675
  31 C :   -0.127878
  32 C :   -0.133643
  33 C :   -0.120494
  34 C :   -0.042242
  35 H :    0.152886
  36 H :    0.151115
  37 H :    0.129056
  38 H :    0.148014
  39 H :    0.132100
  40 H :    0.134634
  41 H :    0.142320
  42 H :    0.145221
  43 H :    0.140895
  44 H :    0.163770
  45 H :    0.156549
  46 H :    0.351065
  47 H :    0.161782
  48 H :    0.157686
  49 H :    0.138198
  50 H :    0.134736
  51 H :    0.133186
  52 H :    0.137763

  Mayer bond orders larger than 0.100000
B(  0-C ,  1-C ) :   1.0286 B(  0-C , 35-H ) :   0.9171 B(  0-C , 36-H ) :   0.9198
B(  0-C , 37-H ) :   0.9295 B(  1-C ,  2-C ) :   1.5051 B(  1-C , 34-C ) :   1.2398
B(  2-C ,  3-N ) :   0.9221 B(  2-C , 28-S ) :   1.0529 B(  3-N ,  4-C ) :   0.9281
B(  3-N , 16-S ) :   0.7762 B(  4-C ,  5-C ) :   0.9368 B(  4-C , 38-H ) :   0.9203
B(  4-C , 39-H ) :   0.9240 B(  5-C ,  6-C ) :   1.4369 B(  5-C , 15-C ) :   1.4259
B(  6-C ,  7-C ) :   1.4361 B(  6-C , 40-H ) :   0.9200 B(  7-C ,  8-C ) :   1.3950
B(  7-C , 41-H ) :   0.9090 B(  8-C ,  9-O ) :   0.8240 B(  8-C , 14-C ) :   1.4164
B(  9-O , 10-C ) :   0.9906 B( 10-C , 11-F ) :   0.9671 B( 10-C , 12-F ) :   1.0077
B( 10-C , 13-F ) :   0.9703 B( 14-C , 15-C ) :   1.4390 B( 14-C , 42-H ) :   0.9182
B( 15-C , 43-H ) :   0.9196 B( 16-S , 17-O ) :   1.6695 B( 16-S , 18-O ) :   1.6204
B( 16-S , 19-C ) :   0.8075 B( 19-C , 20-C ) :   1.4052 B( 19-C , 27-C ) :   1.3688
B( 20-C , 21-C ) :   1.4103 B( 20-C , 44-H ) :   0.9069 B( 21-C , 22-C ) :   1.3872
B( 21-C , 45-H ) :   0.9139 B( 22-C , 23-C ) :   1.0069 B( 22-C , 26-C ) :   1.3988
B( 23-C , 24-O ) :   1.8638 B( 23-C , 25-O ) :   1.0270 B( 25-O , 46-H ) :   0.7407
B( 26-C , 27-C ) :   1.4340 B( 26-C , 47-H ) :   0.9087 B( 27-C , 48-H ) :   0.9101
B( 28-S , 29-C ) :   1.0556 B( 29-C , 30-C ) :   1.3403 B( 29-C , 34-C ) :   1.3150
B( 30-C , 31-C ) :   1.4867 B( 30-C , 49-H ) :   0.9251 B( 31-C , 32-C ) :   1.3887
B( 31-C , 50-H ) :   0.9306 B( 32-C , 33-C ) :   1.4756 B( 32-C , 51-H ) :   0.9302
B( 33-C , 34-C ) :   1.3397 B( 33-C , 52-H ) :   0.9183

FINAL SINGLE POINT ENERGY     -2451.026486277683

DIPOLE MOMENT
-------------

Method             : SCF
Type of density    : Electron Density
Multiplicity       :   1
Irrep              :   0
Energy             : -2451.0264862776834889 Eh
Relativity type    :
Basis              : AO
                                X                 Y                 Z
Electronic contribution:    -25.823609646     -10.114377999     -19.295703414
Nuclear contribution   :     26.463104907      10.679954960      18.227707122
                        -----------------------------------------
Total Dipole Moment    :      0.639495260       0.565576961      -1.067996293
                        -----------------------------------------
Magnitude (a.u.)       :      1.367277429
Magnitude (Debye)      :      3.475343034

Rotational constants in cm-1:             0.002857             0.002497             0.001457
Rotational constants in MHz :            85.663423            74.863204            43.666992

                             ****ORCA TERMINATED NORMALLY****
TOTAL RUN TIME: 0 days 0 hours 7 minutes 18 seconds 131 msec
