                         Program Version 6.0.0  -   RELEASE  -
|  1> ! B3LYP 6-31G* SP
|  2>
|  3> * xyz -1 1
|  4> C -2.7212 0.4605 -2.9289
|  5> C -2.7946 0.1064 -1.4598
|  6> C -1.6274 -0.2655 -0.7501
|  7> N -0.3335 -0.2307 -1.3679
|  8> C 0.3063 1.0544 -1.6665
|  9> C 1.2243 1.4580 -0.5551
| 10> C 0.8541 1.6939 0.7641
| 11> C 1.9406 2.0053 1.5886
| 12> F 1.8044 2.2784 2.9095
| 13> C 3.1646 2.0073 0.9272
| 14> C 4.4918 2.3482 1.5291
| 15> F 4.5976 1.7877 2.7889
| 16> F 4.6111 3.7214 1.6291
| 17> F 5.5143 1.8594 0.7365
| 18> S 2.8893 1.6626 -0.6979
| 19> S 0.5631 -1.7099 -1.5428
| 20> O 1.0360 -1.8274 -2.9649
| 21> O -0.3232 -2.8858 -1.2397
| 22> C 1.9320 -1.7268 -0.4339
| 23> C 3.2457 -1.7591 -0.9201
| 24> C 4.3262 -1.6996 -0.0350
| 25> C 4.1083 -1.6101 1.3506
| 26> C 5.2533 -1.5224 2.2828
| 27> O 5.0630 -1.4448 3.5258
| 28> O 6.5567 -1.5203 1.7993
| 29> C 2.7877 -1.5975 1.8333
| 30> C 1.7094 -1.6593 0.9465
| 31> N -1.7181 -0.6651 0.5453
| 32> C -2.8924 -0.6956 1.2191
| 33> C -4.0724 -0.2917 0.5906
| 34> C -5.2864 -0.2966 1.2947
| 35> C -6.4625 0.1154 0.6677
| 36> C -6.4360 0.5367 -0.6615
| 37> C -5.2347 0.5439 -1.3755
| 38> C -4.0323 0.1235 -0.7642
| 39> H -3.4858 -0.1097 -3.4966
| 40> H -2.8949 1.5491 -3.0598
| 41> H -1.7437 0.2008 -3.3826
| 42> H 0.8757 0.9732 -2.6166
| 43> H -0.4579 1.8494 -1.8022
| 44> H -0.1654 1.6387 1.1213
| 45> H 3.4380 -1.8072 -1.9839
| 46> H 5.3312 -1.7113 -0.4376
| 47> H 2.5867 -1.5287 2.8950
| 48> H 0.7011 -1.6345 1.3369
| 49> H -2.8982 -1.0221 2.2517
| 50> H -5.3245 -0.6162 2.3295
| 51> H -7.3965 0.1120 1.2148
| 52> H -7.3504 0.8614 -1.1412
| 53> H -5.2604 0.8904 -2.3994
| 54> *
| 55>
| 56>                          ****END OF INPUT****

CARTESIAN COORDINATES (ANGSTROEM)
---------------------------------
  C     -2.721200    0.460500   -2.928900
  C     -2.794600    0.106400   -1.459800
  C     -1.627400   -0.265500   -0.750100
  N     -0.333500   -0.230700   -1.367900
  C      0.306300    1.054400   -1.666500
  C      1.224300    1.458000   -0.555100
  C      0.854100    1.693900    0.764100
  C      1.940600    2.005300    1.588600
  F      1.804400    2.278400    2.909500
  C      3.164600    2.007300    0.927200
  C      4.491800    2.348200    1.529100
  F      4.597600    1.787700    2.788900
  F      4.611100    3.721400    1.629100
  F      5.514300    1.859400    0.736500
  S      2.889300    1.662600   -0.697900
  S      0.563100   -1.709900   -1.542800
  O      1.036000   -1.827400   -2.964900
  O     -0.323200   -2.885800   -1.239700
  C      1.932000   -1.726800   -0.433900
  C      3.245700   -1.759100   -0.920100
  C      4.326200   -1.699600   -0.035000
  C      4.108300   -1.610100    1.350600
  C      5.253300   -1.522400    2.282800
  O      5.063000   -1.444800    3.525800
  O      6.556700   -1.520300    1.799300
  C      2.787700   -1.597500    1.833300
  C      1.709400   -1.659300    0.946500
  N     -1.718100   -0.665100    0.545300
  C     -2.892400   -0.695600    1.219100
  C     -4.072400   -0.291700    0.590600
  C     -5.286400   -0.296600    1.294700
  C     -6.462500    0.115400    0.667700
  C     -6.436000    0.536700   -0.661500
  C     -5.234700    0.543900   -1.375500
  C     -4.032300    0.123500   -0.764200
  H     -3.485800   -0.109700   -3.496600
  H     -2.894900    1.549100   -3.059800
  H     -1.743700    0.200800   -3.382600
  H      0.875700    0.973200   -2.616600
  H     -0.457900    1.849400   -1.802200
  H     -0.165400    1.638700    1.121300
  H      3.438000   -1.807200   -1.983900
  H      5.331200   -1.711300   -0.437600
  H      2.586700   -1.528700    2.895000
  H      0.701100   -1.634500    1.336900
  H     -2.898200   -1.022100    2.251700
  H     -5.324500   -0.616200    2.329500
  H     -7.396500    0.112000    1.214800
  H     -7.350400    0.861400   -1.141200
  H     -5.260400    0.890400   -2.399400

 Total Charge           Charge          ....   -1
 Multiplicity           Mult            ....    1
 Number of Electrons    NEL             ....  268
 Basis Dimension        Dim             ....  528

ORBITAL ENERGIES
----------------

  NO   OCC          E(Eh)            E(eV)
   0   2.0000     -89.003921     -2421.9198
   1   2.0000     -88.826221     -2417.0844
   2   2.0000     -24.626600      -670.1239
   3   2.0000     -24.625914      -670.1052
   4   2.0000     -24.622456      -670.0111
   5   2.0000     -24.614690      -669.7998
   6   2.0000     -19.036143      -517.9998
   7   2.0000     -19.032586      -517.9030
   8   2.0000     -18.901108      -514.3253
   9   2.0000     -18.877952      -513.6952
  10   2.0000     -14.294615      -388.9763
  11   2.0000     -14.269272      -388.2866
  12   2.0000     -10.347922      -281.5813
  13   2.0000     -10.199555      -277.5440
  14   2.0000     -10.195403      -277.4310
  15   2.0000     -10.178756      -276.9780
  16   2.0000     -10.165570      -276.6192
  17   2.0000     -10.149619      -276.1852
  18   2.0000     -10.148301      -276.1493
  19   2.0000     -10.146355      -276.0963
  20   2.0000     -10.144918      -276.0572
  21   2.0000     -10.143839      -276.0279
  22   2.0000     -10.142517      -275.9919
  23   2.0000     -10.141760      -275.9713
  24   2.0000     -10.141703      -275.9698
  25   2.0000     -10.139187      -275.9013
  26   2.0000     -10.127123      -275.5730
  27   2.0000     -10.113392      -275.1994
  28   2.0000     -10.112991      -275.1885
  29   2.0000     -10.088251      -274.5153
  30   2.0000     -10.086702      -274.4731
  31   2.0000     -10.086691      -274.4728
  32   2.0000     -10.068402      -273.9752
  33   2.0000     -10.067870      -273.9607
  34   2.0000     -10.066032      -273.9106
  35   2.0000      -8.039628      -218.7694
  36   2.0000      -7.901824      -215.0196
  37   2.0000      -6.005276      -163.4119
  38   2.0000      -6.002725      -163.3425
  39   2.0000      -6.001516      -163.3096
  40   2.0000      -5.864937      -159.5931
  41   2.0000      -5.860987      -159.4856
  42   2.0000      -5.858850      -159.4274
  43   2.0000      -1.182731       -32.1837
  44   2.0000      -1.136503       -30.9258
  45   2.0000      -1.110927       -30.2299
  46   2.0000      -1.102255       -29.9939
  47   2.0000      -0.992230       -26.9999
  48   2.0000      -0.896058       -24.3830
  49   2.0000      -0.870637       -23.6912
  50   2.0000      -0.850729       -23.1495
  51   2.0000      -0.827386       -22.5143
  52   2.0000      -0.810197       -22.0466
  53   2.0000      -0.807633       -21.9768
  54   2.0000      -0.752953       -20.4889
  55   2.0000      -0.748908       -20.3788
  56   2.0000      -0.722204       -19.6522
  57   2.0000      -0.706236       -19.2177
  58   2.0000      -0.690967       -18.8022
  59   2.0000      -0.685651       -18.6575
  60   2.0000      -0.672631       -18.3032
  61   2.0000      -0.663686       -18.0598
  62   2.0000      -0.650192       -17.6926
  63   2.0000      -0.637688       -17.3524
  64   2.0000      -0.631574       -17.1860
  65   2.0000      -0.591893       -16.1062
  66   2.0000      -0.589239       -16.0340
  67   2.0000      -0.583513       -15.8782
  68   2.0000      -0.548900       -14.9363
  69   2.0000      -0.539220       -14.6729
  70   2.0000      -0.511992       -13.9320
  71   2.0000      -0.506542       -13.7837
  72   2.0000      -0.496507       -13.5106
  73   2.0000      -0.495203       -13.4752
  74   2.0000      -0.477458       -12.9923
  75   2.0000      -0.475393       -12.9361
  76   2.0000      -0.473948       -12.8968
  77   2.0000      -0.463270       -12.6062
  78   2.0000      -0.457542       -12.4504
  79   2.0000      -0.445558       -12.1242
  80   2.0000      -0.440321       -11.9818
  81   2.0000      -0.422803       -11.5050
  82   2.0000      -0.417221       -11.3532
  83   2.0000      -0.408138       -11.1060
  84   2.0000      -0.394701       -10.7404
  85   2.0000      -0.391189       -10.6448
  86   2.0000      -0.385665       -10.4945
  87   2.0000      -0.381046       -10.3688
  88   2.0000      -0.376594       -10.2476
  89   2.0000      -0.372357       -10.1323
  90   2.0000      -0.372049       -10.1240
  91   2.0000      -0.369348       -10.0505
  92   2.0000      -0.352635        -9.5957
  93   2.0000      -0.351373        -9.5614
  94   2.0000      -0.348824        -9.4920
  95   2.0000      -0.348311        -9.4780
  96   2.0000      -0.340238        -9.2584
  97   2.0000      -0.338369        -9.2075
  98   2.0000      -0.330604        -8.9962
  99   2.0000      -0.327655        -8.9159
 100   2.0000      -0.326631        -8.8881
 101   2.0000      -0.324485        -8.8297
 102   2.0000      -0.316857        -8.6221
 103   2.0000      -0.313889        -8.5413
 104   2.0000      -0.310564        -8.4509
 105   2.0000      -0.305905        -8.3241
 106   2.0000      -0.301046        -8.1919
 107   2.0000      -0.297822        -8.1041
 108   2.0000      -0.295866        -8.0509
 109   2.0000      -0.293918        -7.9979
 110   2.0000      -0.287652        -7.8274
 111   2.0000      -0.282168        -7.6782
 112   2.0000      -0.267853        -7.2886
 113   2.0000      -0.260731        -7.0948
 114   2.0000      -0.240719        -6.5503
 115   2.0000      -0.238879        -6.5002
 116   2.0000      -0.233965        -6.3665
 117   2.0000      -0.224813        -6.1175
 118   2.0000      -0.220061        -5.9882
 119   2.0000      -0.212308        -5.7772
 120   2.0000      -0.207051        -5.6341
 121   2.0000      -0.195140        -5.3100
 122   2.0000      -0.191719        -5.2169
 123   2.0000      -0.188994        -5.1428
 124   2.0000      -0.179400        -4.8817
 125   2.0000      -0.178536        -4.8582
 126   2.0000      -0.175795        -4.7836
 127   2.0000      -0.164409        -4.4738
 128   2.0000      -0.152866        -4.1597
 129   2.0000      -0.139358        -3.7921
 130   2.0000      -0.124032        -3.3751
 131   2.0000      -0.054678        -1.4879
 132   2.0000      -0.032647        -0.8884
 133   2.0000      -0.015971        -0.4346
 134   0.0000      -0.004105        -0.1117
 135   0.0000       0.029948         0.8149
 136   0.0000       0.045604         1.2410
 137   0.0000       0.070504         1.9185
 138   0.0000       0.077918         2.1203

MULLIKEN ATOMIC CHARGES
-----------------------
   0 C :   -0.547677
   1 C :    0.091420
   2 C :    0.345283
   3 N :   -0.606368
   4 C :   -0.220609
   5 C :   -0.121599
   6 C :   -0.159640
   7 C :    0.397952
   8 F :   -0.301959
   9 C :   -0.356918
  10 C :    0.955273
  11 F :   -0.273329
  12 F :   -0.307000
  13 F :   -0.292930
  14 S :    0.317392
  15 S :    1.185200
  16 O :   -0.560023
  17 O :   -0.549437
  18 C :   -0.153239
  19 C :   -0.154983
  20 C :   -0.150951
  21 C :    0.102118
  22 C :    0.411577
  23 O :   -0.551840
  24 O :   -0.657466
  25 C :   -0.161878
  26 C :   -0.148268
  27 N :   -0.374449
  28 C :   -0.047779
  29 C :    0.131502
  30 C :   -0.201496
  31 C :   -0.130443
  32 C :   -0.121955
  33 C :   -0.199876
  34 C :    0.124699
  35 H :    0.161107
  36 H :    0.147671
  37 H :    0.200014
  38 H :    0.185605
  39 H :    0.176319
  40 H :    0.146401
  41 H :    0.146572
  42 H :    0.151594
  43 H :    0.147289
  44 H :    0.160815
  45 H :    0.152971
  46 H :    0.134382
  47 H :    0.123289
  48 H :    0.124555
  49 H :    0.131110
Sum of atomic charges:   -1.0000000

LOEWDIN ATOMIC CHARGES
----------------------
   0 C :   -0.362133
   1 C :   -0.022301
   2 C :    0.046246
   3 N :   -0.286239
   4 C :   -0.147951
   5 C :   -0.205213
   6 C :   -0.184741
   7 C :    0.103489
   8 F :   -0.095292
   9 C :   -0.277267
  10 C :    0.314393
  11 F :   -0.087871
  12 F :   -0.122333
  13 F :   -0.098363
  14 S :    0.446694
  15 S :    1.264969
  16 O :   -0.591221
  17 O :   -0.580263
  18 C :   -0.217612
  19 C :   -0.124887
  20 C :   -0.112352
  21 C :   -0.004936
  22 C :    0.069461
  23 O :   -0.376371
  24 O :   -0.504937
  25 C :   -0.115499
  26 C :   -0.120428
  27 N :   -0.117171
  28 C :   -0.058268
  29 C :   -0.032201
  30 C :   -0.111716
  31 C :   -0.136494
  32 C :   -0.124263
  33 C :   -0.127680
  34 C :   -0.005681
  35 H :    0.136381
  36 H :    0.129185
  37 H :    0.152249
  38 H :    0.147097
  39 H :    0.145652
  40 H :    0.145469
  41 H :    0.140870
  42 H :    0.150211
  43 H :    0.146705
  44 H :    0.144830
  45 H :    0.137540
  46 H :    0.134955
  47 H :    0.129541
  48 H :    0.130382
  49 H :    0.135366

  Mayer bond orders larger than 0.100000
B(  0-C ,  1-C ) :   0.9974 B(  0-C , 35-H ) :   0.9305 B(  0-C , 36-H ) :   0.9292
B(  0-C , 37-H ) :   0.9249 B(  1-C ,  2-C ) :   1.4317 B(  1-C , 28-C ) :   0.1027
B(  1-C , 34-C ) :   1.2676 B(  2-C ,  3-N ) :   0.9038 B(  2-C , 27-N ) :   1.2674
B(  3-N ,  4-C ) :   0.9454 B(  3-N , 15-S ) :   0.7528 B(  4-C ,  5-C ) :   0.9769
B(  4-C , 38-H ) :   0.9165 B(  4-C , 39-H ) :   0.9194 B(  5-C ,  6-C ) :   1.5117
B(  5-C ,  9-C ) :   0.1384 B(  5-C , 14-S ) :   1.1662 B(  6-C ,  7-C ) :   1.3177
B(  6-C , 40-H ) :   0.9140 B(  7-C ,  8-F ) :   0.9808 B(  7-C ,  9-C ) :   1.4472
B(  9-C , 10-C ) :   0.9621 B(  9-C , 14-S ) :   1.1139 B( 10-C , 11-F ) :   0.9923
B( 10-C , 12-F ) :   0.9719 B( 10-C , 13-F ) :   0.9465 B( 15-S , 16-O ) :   1.6266
B( 15-S , 17-O ) :   1.6573 B( 15-S , 18-C ) :   0.8491 B( 18-C , 19-C ) :   1.3638
B( 18-C , 26-C ) :   1.3608 B( 19-C , 20-C ) :   1.3942 B( 19-C , 41-H ) :   0.9202
B( 20-C , 21-C ) :   1.4029 B( 20-C , 42-H ) :   0.9012 B( 21-C , 22-C ) :   0.9272
B( 21-C , 25-C ) :   1.3802 B( 22-C , 23-O ) :   1.7050 B( 22-C , 24-O ) :   1.5472
B( 23-O , 24-O ) :   0.1488 B( 25-C , 26-C ) :   1.4177 B( 25-C , 43-H ) :   0.9077
B( 26-C , 44-H ) :   0.9040 B( 27-N , 28-C ) :   1.4956 B( 28-C , 29-C ) :   1.2287
B( 28-C , 45-H ) :   0.9263 B( 29-C , 30-C ) :   1.2862 B( 29-C , 34-C ) :   1.2892
B( 30-C , 31-C ) :   1.5130 B( 30-C , 33-C ) :   0.1063 B( 30-C , 46-H ) :   0.9237
B( 31-C , 32-C ) :   1.3526 B( 31-C , 47-H ) :   0.9312 B( 32-C , 33-C ) :   1.5105
B( 32-C , 48-H ) :   0.9312 B( 33-C , 34-C ) :   1.2924 B( 33-C , 49-H ) :   0.9173

FINAL SINGLE POINT ENERGY     -2490.505100209911

DIPOLE MOMENT
-------------

Method             : SCF
Type of density    : Electron Density
Multiplicity       :   1
Irrep              :   0
Energy             : -2490.5051002099107791 Eh
Relativity type    :
Basis              : AO
                                X                 Y                 Z
Electronic contribution:     39.041308630      14.057893330      15.452868274
Nuclear contribution   :    -47.601444468     -10.140454020     -18.375247175
                        -----------------------------------------
Total Dipole Moment    :     -8.560135838       3.917439309      -2.922378902
                        -----------------------------------------
Magnitude (a.u.)       :      9.857106814
Magnitude (Debye)      :     25.054774386

Rotational constants in cm-1:             0.006671             0.002149             0.001996
Rotational constants in MHz :           199.983506            64.434303            59.825485

                             ****ORCA TERMINATED NORMALLY****
TOTAL RUN TIME: 0 days 0 hours 7 minutes 34 seconds 760 msec
