                         Program Version 6.0.0  -   RELEASE  -
|  1> ! B3LYP 6-31G* SP
|  2>
|  3> * xyz 0 1
|  4> C -0.5022 -3.5178 -2.6308
|  5> C -0.8720 -3.1806 -1.2031
|  6> C -0.2595 -2.0901 -0.5406
|  7> N 0.6554 -1.2209 -1.2220
|  8> C 0.1481 -0.2557 -2.2014
|  9> C -0.1305 1.0559 -1.5401
| 10> N -0.9613 1.1892 -0.4716
| 11> C -0.8521 2.4999 -0.1988
| 12> C -1.4527 3.2115 0.8364
| 13> C -1.1523 4.5831 0.9452
| 14> C -0.2709 5.1986 0.0253
| 15> C 0.3188 4.4463 -1.0082
| 16> C 0.0012 3.0934 -1.0784
| 17> O 0.4404 2.1904 -1.9115
| 18> S 2.2807 -1.0655 -0.6238
| 19> O 3.2410 -1.1530 -1.7769
| 20> O 2.5858 -2.1868 0.3301
| 21> C 2.4659 0.4721 0.2160
| 22> C 1.8349 0.6720 1.4498
| 23> C 1.8893 1.9200 2.0766
| 24> C 2.5823 2.9868 1.4796
| 25> C 2.6005 4.3182 2.1233
| 26> O 3.2347 5.2728 1.5981
| 27> O 1.9068 4.5326 3.3113
| 28> C 3.2367 2.7731 0.2531
| 29> C 3.1760 1.5254 -0.3745
| 30> N -0.5436 -1.8404 0.7644
| 31> C -1.4240 -2.5850 1.4747
| 32> C -2.0963 -3.6468 0.8655
| 33> C -3.0290 -4.4033 1.5916
| 34> C -3.7078 -5.4563 0.9780
| 35> C -3.4635 -5.7602 -0.3609
| 36> C -2.5347 -5.0177 -1.0949
| 37> C -1.8296 -3.9517 -0.4931
| 38> H -0.2538 -4.5963 -2.7151
| 39> H 0.3929 -2.9662 -2.9820
| 40> H -1.3521 -3.2775 -3.3032
| 41> H -0.7890 -0.6270 -2.6686
| 42> H 0.8979 -0.1171 -3.0090
| 43> H -2.1182 2.7265 1.5387
| 44> H -1.5956 5.1689 1.7398
| 45> H -0.0431 6.2520 0.1208
| 46> H 1.0055 4.8987 -1.7114
| 47> H 1.2802 -0.1311 1.9164
| 48> H 1.3753 2.0523 3.0204
| 49> H 1.9048 5.4430 3.7555
| 50> H 3.7754 3.5762 -0.2338
| 51> H 3.6589 1.3931 -1.3339
| 52> H -1.6077 -2.3351 2.5122
| 53> H -3.2349 -4.1778 2.6312
| 54> H -4.4284 -6.0357 1.5407
| 55> H -3.9977 -6.5741 -0.8338
| 56> H -2.3869 -5.2822 -2.1330
| 57> *
| 58>
| 59>                          ****END OF INPUT****

CARTESIAN COORDINATES (ANGSTROEM)
---------------------------------
  C     -0.502200   -3.517800   -2.630800
  C     -0.872000   -3.180600   -1.203100
  C     -0.259500   -2.090100   -0.540600
  N      0.655400   -1.220900   -1.222000
  C      0.148100   -0.255700   -2.201400
  C     -0.130500    1.055900   -1.540100
  N     -0.961300    1.189200   -0.471600
  C     -0.852100    2.499900   -0.198800
  C     -1.452700    3.211500    0.836400
  C     -1.152300    4.583100    0.945200
  C     -0.270900    5.198600    0.025300
  C      0.318800    4.446300   -1.008200
  C      0.001200    3.093400   -1.078400
  O      0.440400    2.190400   -1.911500
  S      2.280700   -1.065500   -0.623800
  O      3.241000   -1.153000   -1.776900
  O      2.585800   -2.186800    0.330100
  C      2.465900    0.472100    0.216000
  C      1.834900    0.672000    1.449800
  C      1.889300    1.920000    2.076600
  C      2.582300    2.986800    1.479600
  C      2.600500    4.318200    2.123300
  O      3.234700    5.272800    1.598100
  O      1.906800    4.532600    3.311300
  C      3.236700    2.773100    0.253100
  C      3.176000    1.525400   -0.374500
  N     -0.543600   -1.840400    0.764400
  C     -1.424000   -2.585000    1.474700
  C     -2.096300   -3.646800    0.865500
  C     -3.029000   -4.403300    1.591600
  C     -3.707800   -5.456300    0.978000
  C     -3.463500   -5.760200   -0.360900
  C     -2.534700   -5.017700   -1.094900
  C     -1.829600   -3.951700   -0.493100
  H     -0.253800   -4.596300   -2.715100
  H      0.392900   -2.966200   -2.982000
  H     -1.352100   -3.277500   -3.303200
  H     -0.789000   -0.627000   -2.668600
  H      0.897900   -0.117100   -3.009000
  H     -2.118200    2.726500    1.538700
  H     -1.595600    5.168900    1.739800
  H     -0.043100    6.252000    0.120800
  H      1.005500    4.898700   -1.711400
  H      1.280200   -0.131100    1.916400
  H      1.375300    2.052300    3.020400
  H      1.904800    5.443000    3.755500
  H      3.775400    3.576200   -0.233800
  H      3.658900    1.393100   -1.333900
  H     -1.607700   -2.335100    2.512200
  H     -3.234900   -4.177800    2.631200
  H     -4.428400   -6.035700    1.540700
  H     -3.997700   -6.574100   -0.833800
  H     -2.386900   -5.282200   -2.133000

 Total Charge           Charge          ....    0
 Multiplicity           Mult            ....    1
 Number of Electrons    NEL             ....  246
 Basis Dimension        Dim             ....  518

ORBITAL ENERGIES
----------------

  NO   OCC          E(Eh)            E(eV)
   0   2.0000     -89.095672     -2424.4165
   1   2.0000     -19.240461      -523.5596
   2   2.0000     -19.190485      -522.1996
   3   2.0000     -19.131350      -520.5905
   4   2.0000     -19.125708      -520.4370
   5   2.0000     -19.121438      -520.3208
   6   2.0000     -14.377398      -391.2289
   7   2.0000     -14.329340      -389.9212
   8   2.0000     -14.329023      -389.9125
   9   2.0000     -10.329423      -281.0779
  10   2.0000     -10.286119      -279.8995
  11   2.0000     -10.260520      -279.2029
  12   2.0000     -10.255978      -279.0794
  13   2.0000     -10.239963      -278.6435
  14   2.0000     -10.233844      -278.4770
  15   2.0000     -10.223695      -278.2009
  16   2.0000     -10.222761      -278.1755
  17   2.0000     -10.212345      -277.8920
  18   2.0000     -10.209058      -277.8026
  19   2.0000     -10.208464      -277.7864
  20   2.0000     -10.208104      -277.7766
  21   2.0000     -10.207365      -277.7565
  22   2.0000     -10.205249      -277.6989
  23   2.0000     -10.203932      -277.6631
  24   2.0000     -10.197814      -277.4966
  25   2.0000     -10.196583      -277.4631
  26   2.0000     -10.195988      -277.4469
  27   2.0000     -10.195039      -277.4211
  28   2.0000     -10.194607      -277.4094
  29   2.0000     -10.193865      -277.3892
  30   2.0000     -10.191677      -277.3296
  31   2.0000     -10.189303      -277.2650
  32   2.0000     -10.186750      -277.1955
  33   2.0000     -10.184979      -277.1474
  34   2.0000      -8.131324      -221.2646
  35   2.0000      -6.096557      -165.8957
  36   2.0000      -6.094209      -165.8319
  37   2.0000      -6.093924      -165.8241
  38   2.0000      -1.179095       -32.0848
  39   2.0000      -1.081229       -29.4217
  40   2.0000      -1.075072       -29.2542
  41   2.0000      -0.989091       -26.9145
  42   2.0000      -0.965926       -26.2842
  43   2.0000      -0.958813       -26.0906
  44   2.0000      -0.932687       -25.3797
  45   2.0000      -0.915081       -24.9006
  46   2.0000      -0.881986       -24.0001
  47   2.0000      -0.863408       -23.4945
  48   2.0000      -0.853983       -23.2381
  49   2.0000      -0.808589       -22.0028
  50   2.0000      -0.799635       -21.7592
  51   2.0000      -0.786656       -21.4060
  52   2.0000      -0.771330       -20.9889
  53   2.0000      -0.767455       -20.8835
  54   2.0000      -0.749701       -20.4004
  55   2.0000      -0.741600       -20.1800
  56   2.0000      -0.722645       -19.6642
  57   2.0000      -0.708600       -19.2820
  58   2.0000      -0.687619       -18.7111
  59   2.0000      -0.656459       -17.8632
  60   2.0000      -0.647422       -17.6172
  61   2.0000      -0.643437       -17.5088
  62   2.0000      -0.629756       -17.1365
  63   2.0000      -0.618545       -16.8315
  64   2.0000      -0.614615       -16.7245
  65   2.0000      -0.602333       -16.3903
  66   2.0000      -0.594848       -16.1866
  67   2.0000      -0.587803       -15.9949
  68   2.0000      -0.557321       -15.1655
  69   2.0000      -0.538986       -14.6666
  70   2.0000      -0.534812       -14.5530
  71   2.0000      -0.529307       -14.4032
  72   2.0000      -0.522533       -14.2188
  73   2.0000      -0.520732       -14.1698
  74   2.0000      -0.502933       -13.6855
  75   2.0000      -0.500225       -13.6118
  76   2.0000      -0.485198       -13.2029
  77   2.0000      -0.480919       -13.0865
  78   2.0000      -0.477675       -12.9982
  79   2.0000      -0.468093       -12.7375
  80   2.0000      -0.463188       -12.6040
  81   2.0000      -0.453880       -12.3507
  82   2.0000      -0.449615       -12.2346
  83   2.0000      -0.447223       -12.1695
  84   2.0000      -0.443517       -12.0687
  85   2.0000      -0.439047       -11.9471
  86   2.0000      -0.438419       -11.9300
  87   2.0000      -0.434922       -11.8348
  88   2.0000      -0.430580       -11.7167
  89   2.0000      -0.426168       -11.5966
  90   2.0000      -0.421829       -11.4786
  91   2.0000      -0.418617       -11.3912
  92   2.0000      -0.416641       -11.3374
  93   2.0000      -0.407577       -11.0907
  94   2.0000      -0.403794       -10.9878
  95   2.0000      -0.396534       -10.7902
  96   2.0000      -0.384015       -10.4496
  97   2.0000      -0.382615       -10.4115
  98   2.0000      -0.377986       -10.2855
  99   2.0000      -0.372633       -10.1398
 100   2.0000      -0.368064       -10.0155
 101   2.0000      -0.363841        -9.9006
 102   2.0000      -0.359984        -9.7957
 103   2.0000      -0.359309        -9.7773
 104   2.0000      -0.351810        -9.5732
 105   2.0000      -0.350563        -9.5393
 106   2.0000      -0.331818        -9.0292
 107   2.0000      -0.323848        -8.8123
 108   2.0000      -0.313004        -8.5173
 109   2.0000      -0.302683        -8.2364
 110   2.0000      -0.296869        -8.0782
 111   2.0000      -0.291947        -7.9443
 112   2.0000      -0.290648        -7.9089
 113   2.0000      -0.280861        -7.6426
 114   2.0000      -0.273099        -7.4314
 115   2.0000      -0.270106        -7.3500
 116   2.0000      -0.268291        -7.3006
 117   2.0000      -0.267138        -7.2692
 118   2.0000      -0.252999        -6.8844
 119   2.0000      -0.249702        -6.7947
 120   2.0000      -0.245486        -6.6800
 121   2.0000      -0.229785        -6.2528
 122   2.0000      -0.218187        -5.9372
 123   0.0000      -0.076546        -2.0829
 124   0.0000      -0.059380        -1.6158
 125   0.0000      -0.036868        -1.0032
 126   0.0000      -0.026531        -0.7219
 127   0.0000      -0.021172        -0.5761

MULLIKEN ATOMIC CHARGES
-----------------------
   0 C :   -0.550138
   1 C :    0.088998
   2 C :    0.361471
   3 N :   -0.608137
   4 C :   -0.253714
   5 C :    0.419216
   6 N :   -0.413186
   7 C :    0.203656
   8 C :   -0.168723
   9 C :   -0.145524
  10 C :   -0.138024
  11 C :   -0.196998
  12 C :    0.302792
  13 O :   -0.397165
  14 S :    1.209368
  15 O :   -0.539913
  16 O :   -0.533680
  17 C :   -0.152547
  18 C :   -0.120018
  19 C :   -0.147505
  20 C :    0.090732
  21 C :    0.535106
  22 O :   -0.452854
  23 O :   -0.624238
  24 C :   -0.144840
  25 C :   -0.145476
  26 N :   -0.384135
  27 C :   -0.040160
  28 C :    0.131381
  29 C :   -0.201622
  30 C :   -0.127317
  31 C :   -0.119997
  32 C :   -0.199999
  33 C :    0.128739
  34 H :    0.171006
  35 H :    0.191021
  36 H :    0.155980
  37 H :    0.205012
  38 H :    0.200078
  39 H :    0.141275
  40 H :    0.129726
  41 H :    0.139602
  42 H :    0.145201
  43 H :    0.199019
  44 H :    0.169729
  45 H :    0.430259
  46 H :    0.174283
  47 H :    0.184262
  48 H :    0.150088
  49 H :    0.138302
  50 H :    0.134999
  51 H :    0.136881
  52 H :    0.137728
Sum of atomic charges:   -0.0000000

LOEWDIN ATOMIC CHARGES
----------------------
   0 C :   -0.362959
   1 C :   -0.017350
   2 C :    0.040722
   3 N :   -0.272229
   4 C :   -0.158212
   5 C :    0.068835
   6 N :   -0.144567
   7 C :   -0.029439
   8 C :   -0.127662
   9 C :   -0.133755
  10 C :   -0.131462
  11 C :   -0.143642
  12 C :    0.024439
  13 O :   -0.001645
  14 S :    1.270253
  15 O :   -0.572308
  16 O :   -0.560917
  17 C :   -0.182500
  18 C :   -0.090543
  19 C :   -0.098412
  20 C :   -0.036135
  21 C :    0.182329
  22 O :   -0.265807
  23 O :   -0.334040
  24 C :   -0.090759
  25 C :   -0.108166
  26 N :   -0.119835
  27 C :   -0.055350
  28 C :   -0.028720
  29 C :   -0.110960
  30 C :   -0.127811
  31 C :   -0.117196
  32 C :   -0.124984
  33 C :   -0.004488
  34 H :    0.141750
  35 H :    0.147555
  36 H :    0.133510
  37 H :    0.164720
  38 H :    0.155005
  39 H :    0.141841
  40 H :    0.132676
  41 H :    0.138115
  42 H :    0.142553
  43 H :    0.166449
  44 H :    0.153895
  45 H :    0.347202
  46 H :    0.157477
  47 H :    0.159879
  48 H :    0.136396
  49 H :    0.136816
  50 H :    0.135028
  51 H :    0.136207
  52 H :    0.138203

  Mayer bond orders larger than 0.100000
B(  0-C ,  1-C ) :   0.9966 B(  0-C , 34-H ) :   0.9286 B(  0-C , 35-H ) :   0.9280
B(  0-C , 36-H ) :   0.9273 B(  1-C ,  2-C ) :   1.4468 B(  1-C , 27-C ) :   0.1006
B(  1-C , 33-C ) :   1.2658 B(  2-C ,  3-N ) :   0.8641 B(  2-C , 26-N ) :   1.2685
B(  3-N ,  4-C ) :   0.9539 B(  3-N , 14-S ) :   0.7836 B(  4-C ,  5-C ) :   0.9619
B(  4-C , 37-H ) :   0.9082 B(  4-C , 38-H ) :   0.9106 B(  5-C ,  6-N ) :   1.5811
B(  5-C , 13-O ) :   1.0862 B(  6-N ,  7-C ) :   1.2175 B(  7-C ,  8-C ) :   1.3447
B(  7-C , 12-C ) :   1.3022 B(  8-C ,  9-C ) :   1.4765 B(  8-C , 11-C ) :   0.1078
B(  8-C , 39-H ) :   0.9209 B(  9-C , 10-C ) :   1.3895 B(  9-C , 40-H ) :   0.9313
B( 10-C , 11-C ) :   1.4677 B( 10-C , 41-H ) :   0.9299 B( 11-C , 12-C ) :   1.3748
B( 11-C , 42-H ) :   0.9190 B( 12-C , 13-O ) :   0.9686 B( 14-S , 15-O ) :   1.6436
B( 14-S , 16-O ) :   1.6532 B( 14-S , 17-C ) :   0.8145 B( 17-C , 18-C ) :   1.3937
B( 17-C , 25-C ) :   1.3815 B( 18-C , 19-C ) :   1.4174 B( 18-C , 43-H ) :   0.8925
B( 19-C , 20-C ) :   1.3793 B( 19-C , 44-H ) :   0.9157 B( 20-C , 21-C ) :   1.0088
B( 20-C , 24-C ) :   1.4021 B( 21-C , 22-O ) :   1.8558 B( 21-C , 23-O ) :   1.0209
B( 23-O , 45-H ) :   0.7442 B( 24-C , 25-C ) :   1.4123 B( 24-C , 46-H ) :   0.9110
B( 25-C , 47-H ) :   0.9094 B( 26-N , 27-C ) :   1.4949 B( 27-C , 28-C ) :   1.2369
B( 27-C , 48-H ) :   0.9260 B( 28-C , 29-C ) :   1.2853 B( 28-C , 33-C ) :   1.2907
B( 29-C , 30-C ) :   1.5127 B( 29-C , 32-C ) :   0.1060 B( 29-C , 49-H ) :   0.9233
B( 30-C , 31-C ) :   1.3538 B( 30-C , 50-H ) :   0.9294 B( 31-C , 32-C ) :   1.5086
B( 31-C , 51-H ) :   0.9292 B( 32-C , 33-C ) :   1.2941 B( 32-C , 52-H ) :   0.9169

FINAL SINGLE POINT ENERGY     -1901.614292648734

DIPOLE MOMENT
-------------

Method             : SCF
Type of density    : Electron Density
Multiplicity       :   1
Irrep              :   0
Energy             : -1901.6142926487336808 Eh
Relativity type    :
Basis              : AO
                                X                 Y                 Z
Electronic contribution:     11.092673860       6.937361142       2.493615908
Nuclear contribution   :    -13.459953013      -6.447689782      -2.309480730
                        -----------------------------------------
Total Dipole Moment    :     -2.367279153       0.489671360       0.184135178
                        -----------------------------------------
Magnitude (a.u.)       :      2.424395676
Magnitude (Debye)      :      6.162324080

Rotational constants in cm-1:             0.007925             0.002508             0.002347
Rotational constants in MHz :           237.575489            75.187369            70.363122

                             ****ORCA TERMINATED NORMALLY****
TOTAL RUN TIME: 0 days 0 hours 9 minutes 24 seconds 205 msec
