                         Program Version 6.0.0  -   RELEASE  -
|  1> ! B3LYP 6-31G* SP
|  2>
|  3> * xyz -1 1
|  4> C -2.0090 1.7170 -1.9313
|  5> C -0.6820 2.2871 -1.4962
|  6> C 0.2295 1.4724 -0.7887
|  7> N -0.1304 0.1539 -0.3483
|  8> C -0.6997 0.0426 1.0010
|  9> C -1.5901 -1.1640 1.1647
| 10> C -1.4614 -1.9838 2.3077
| 11> C -2.3172 -3.0732 2.4879
| 12> C -3.3148 -3.3648 1.5415
| 13> O -4.1480 -4.4723 1.7716
| 14> C -4.9832 -5.0852 0.7881
| 15> F -5.5177 -6.2524 1.2987
| 16> F -4.2417 -5.3892 -0.3362
| 17> F -6.0177 -4.2476 0.4579
| 18> C -3.4613 -2.5315 0.4236
| 19> C -2.6200 -1.4295 0.2495
| 20> S 0.8062 -1.1626 -0.9973
| 21> O 1.1867 -0.8476 -2.4182
| 22> O -0.0004 -2.4303 -1.0039
| 23> C 2.2622 -1.3834 -0.0308
| 24> C 3.4321 -0.6900 -0.3563
| 25> C 4.5852 -0.8488 0.4173
| 26> C 4.5869 -1.7115 1.5263
| 27> C 5.8183 -1.8955 2.3297
| 28> O 5.8630 -2.7666 3.2386
| 29> O 6.9497 -1.1222 2.0836
| 30> C 3.4057 -2.3956 1.8542
| 31> C 2.2501 -2.2254 1.0838
| 32> N 1.4620 1.9440 -0.4852
| 33> C 1.8703 3.1916 -0.8125
| 34> C 0.9957 4.0675 -1.4539
| 35> C 1.3979 5.3775 -1.7536
| 36> C 0.5105 6.2663 -2.3435
| 37> C -0.7893 5.8598 -2.6351
| 38> C -1.2081 4.5587 -2.3484
| 39> C -0.3115 3.6299 -1.7753
| 40> H -2.7683 1.8888 -1.1397
| 41> H -1.9210 0.6314 -2.1355
| 42> H -2.3510 2.1599 -2.8869
| 43> H -1.3115 0.9439 1.2332
| 44> H 0.1377 0.0118 1.7336
| 45> H -0.7038 -1.7750 3.0623
| 46> H -2.2006 -3.6974 3.3651
| 47> H -4.2360 -2.7091 -0.3074
| 48> H -2.7839 -0.7794 -0.6004
| 49> H 3.4523 -0.0201 -1.2044
| 50> H 5.4757 -0.3007 0.1418
| 51> H 3.3746 -3.0619 2.7086
| 52> H 1.3463 -2.7506 1.3593
| 53> H 2.8745 3.5020 -0.5637
| 54> H 2.4026 5.7148 -1.5306
| 55> H 0.8229 7.2781 -2.5625
| 56> H -1.4784 6.5591 -3.0663
| 57> H -2.2407 4.3094 -2.5392
| 58> *
| 59>
| 60>                          ****END OF INPUT****

CARTESIAN COORDINATES (ANGSTROEM)
---------------------------------
  C     -2.009000    1.717000   -1.931300
  C     -0.682000    2.287100   -1.496200
  C      0.229500    1.472400   -0.788700
  N     -0.130400    0.153900   -0.348300
  C     -0.699700    0.042600    1.001000
  C     -1.590100   -1.164000    1.164700
  C     -1.461400   -1.983800    2.307700
  C     -2.317200   -3.073200    2.487900
  C     -3.314800   -3.364800    1.541500
  O     -4.148000   -4.472300    1.771600
  C     -4.983200   -5.085200    0.788100
  F     -5.517700   -6.252400    1.298700
  F     -4.241700   -5.389200   -0.336200
  F     -6.017700   -4.247600    0.457900
  C     -3.461300   -2.531500    0.423600
  C     -2.620000   -1.429500    0.249500
  S      0.806200   -1.162600   -0.997300
  O      1.186700   -0.847600   -2.418200
  O     -0.000400   -2.430300   -1.003900
  C      2.262200   -1.383400   -0.030800
  C      3.432100   -0.690000   -0.356300
  C      4.585200   -0.848800    0.417300
  C      4.586900   -1.711500    1.526300
  C      5.818300   -1.895500    2.329700
  O      5.863000   -2.766600    3.238600
  O      6.949700   -1.122200    2.083600
  C      3.405700   -2.395600    1.854200
  C      2.250100   -2.225400    1.083800
  N      1.462000    1.944000   -0.485200
  C      1.870300    3.191600   -0.812500
  C      0.995700    4.067500   -1.453900
  C      1.397900    5.377500   -1.753600
  C      0.510500    6.266300   -2.343500
  C     -0.789300    5.859800   -2.635100
  C     -1.208100    4.558700   -2.348400
  C     -0.311500    3.629900   -1.775300
  H     -2.768300    1.888800   -1.139700
  H     -1.921000    0.631400   -2.135500
  H     -2.351000    2.159900   -2.886900
  H     -1.311500    0.943900    1.233200
  H      0.137700    0.011800    1.733600
  H     -0.703800   -1.775000    3.062300
  H     -2.200600   -3.697400    3.365100
  H     -4.236000   -2.709100   -0.307400
  H     -2.783900   -0.779400   -0.600400
  H      3.452300   -0.020100   -1.204400
  H      5.475700   -0.300700    0.141800
  H      3.374600   -3.061900    2.708600
  H      1.346300   -2.750600    1.359300
  H      2.874500    3.502000   -0.563700
  H      2.402600    5.714800   -1.530600
  H      0.822900    7.278100   -2.562500
  H     -1.478400    6.559100   -3.066300
  H     -2.240700    4.309400   -2.539200

 Total Charge           Charge          ....   -1
 Multiplicity           Mult            ....    1
 Number of Electrons    NEL             ....  266
 Basis Dimension        Dim             ....  544

ORBITAL ENERGIES
----------------

  NO   OCC          E(Eh)            E(eV)
   0   2.0000     -88.998442     -2421.7707
   1   2.0000     -24.683784      -671.6799
   2   2.0000     -24.683200      -671.6640
   3   2.0000     -24.676759      -671.4888
   4   2.0000     -19.147019      -521.0169
   5   2.0000     -19.030773      -517.8537
   6   2.0000     -19.030312      -517.8411
   7   2.0000     -18.901524      -514.3366
   8   2.0000     -18.878243      -513.7031
   9   2.0000     -14.288897      -388.8207
  10   2.0000     -14.262723      -388.1084
  11   2.0000     -10.443190      -284.1736
  12   2.0000     -10.197730      -277.4944
  13   2.0000     -10.191895      -277.3356
  14   2.0000     -10.162400      -276.5330
  15   2.0000     -10.159423      -276.4520
  16   2.0000     -10.145985      -276.0863
  17   2.0000     -10.144454      -276.0446
  18   2.0000     -10.139683      -275.9148
  19   2.0000     -10.138713      -275.8884
  20   2.0000     -10.138146      -275.8730
  21   2.0000     -10.137957      -275.8678
  22   2.0000     -10.137018      -275.8423
  23   2.0000     -10.128410      -275.6081
  24   2.0000     -10.126831      -275.5651
  25   2.0000     -10.125775      -275.5364
  26   2.0000     -10.125008      -275.5155
  27   2.0000     -10.122775      -275.4547
  28   2.0000     -10.122077      -275.4357
  29   2.0000     -10.109583      -275.0957
  30   2.0000     -10.088212      -274.5142
  31   2.0000     -10.087627      -274.4983
  32   2.0000     -10.083359      -274.3821
  33   2.0000     -10.067765      -273.9578
  34   2.0000     -10.066361      -273.9196
  35   2.0000     -10.063816      -273.8503
  36   2.0000      -8.034497      -218.6298
  37   2.0000      -5.999911      -163.2659
  38   2.0000      -5.997713      -163.2061
  39   2.0000      -5.996409      -163.1706
  40   2.0000      -1.248634       -33.9771
  41   2.0000      -1.170090       -31.8398
  42   2.0000      -1.165095       -31.7038
  43   2.0000      -1.016811       -27.6688
  44   2.0000      -0.988435       -26.8967
  45   2.0000      -0.892741       -24.2927
  46   2.0000      -0.866913       -23.5899
  47   2.0000      -0.843163       -22.9436
  48   2.0000      -0.810615       -22.0579
  49   2.0000      -0.805250       -21.9120
  50   2.0000      -0.791392       -21.5349
  51   2.0000      -0.750785       -20.4299
  52   2.0000      -0.745860       -20.2959
  53   2.0000      -0.720491       -19.6056
  54   2.0000      -0.709860       -19.3163
  55   2.0000      -0.690224       -18.7819
  56   2.0000      -0.687484       -18.7074
  57   2.0000      -0.683984       -18.6122
  58   2.0000      -0.664392       -18.0790
  59   2.0000      -0.654570       -17.8118
  60   2.0000      -0.635700       -17.2983
  61   2.0000      -0.634055       -17.2535
  62   2.0000      -0.613123       -16.6839
  63   2.0000      -0.586128       -15.9494
  64   2.0000      -0.585153       -15.9228
  65   2.0000      -0.566348       -15.4111
  66   2.0000      -0.557225       -15.1629
  67   2.0000      -0.541884       -14.7454
  68   2.0000      -0.538739       -14.6598
  69   2.0000      -0.535857       -14.5814
  70   2.0000      -0.530139       -14.4258
  71   2.0000      -0.506110       -13.7719
  72   2.0000      -0.497263       -13.5312
  73   2.0000      -0.494315       -13.4510
  74   2.0000      -0.472761       -12.8645
  75   2.0000      -0.457450       -12.4478
  76   2.0000      -0.444567       -12.0973
  77   2.0000      -0.439666       -11.9639
  78   2.0000      -0.428828       -11.6690
  79   2.0000      -0.417023       -11.3478
  80   2.0000      -0.416206       -11.3256
  81   2.0000      -0.413710       -11.2576
  82   2.0000      -0.410853       -11.1799
  83   2.0000      -0.403092       -10.9687
  84   2.0000      -0.394087       -10.7236
  85   2.0000      -0.391021       -10.6402
  86   2.0000      -0.388543       -10.5728
  87   2.0000      -0.385906       -10.5010
  88   2.0000      -0.379821       -10.3355
  89   2.0000      -0.379459       -10.3256
  90   2.0000      -0.372220       -10.1286
  91   2.0000      -0.368597       -10.0300
  92   2.0000      -0.368271       -10.0212
  93   2.0000      -0.362144        -9.8544
  94   2.0000      -0.358110        -9.7447
  95   2.0000      -0.351370        -9.5613
  96   2.0000      -0.349653        -9.5145
  97   2.0000      -0.345425        -9.3995
  98   2.0000      -0.340081        -9.2541
  99   2.0000      -0.336831        -9.1656
 100   2.0000      -0.329329        -8.9615
 101   2.0000      -0.323355        -8.7989
 102   2.0000      -0.322181        -8.7670
 103   2.0000      -0.316412        -8.6100
 104   2.0000      -0.310313        -8.4440
 105   2.0000      -0.309926        -8.4335
 106   2.0000      -0.303663        -8.2631
 107   2.0000      -0.292695        -7.9646
 108   2.0000      -0.288109        -7.8398
 109   2.0000      -0.287442        -7.8217
 110   2.0000      -0.277615        -7.5543
 111   2.0000      -0.275329        -7.4921
 112   2.0000      -0.266755        -7.2588
 113   2.0000      -0.237649        -6.4668
 114   2.0000      -0.234558        -6.3826
 115   2.0000      -0.230026        -6.2593
 116   2.0000      -0.224449        -6.1076
 117   2.0000      -0.214864        -5.8468
 118   2.0000      -0.206679        -5.6240
 119   2.0000      -0.201883        -5.4935
 120   2.0000      -0.194937        -5.3045
 121   2.0000      -0.186999        -5.0885
 122   2.0000      -0.186086        -5.0636
 123   2.0000      -0.183751        -5.0001
 124   2.0000      -0.179857        -4.8942
 125   2.0000      -0.176255        -4.7961
 126   2.0000      -0.161596        -4.3973
 127   2.0000      -0.158696        -4.3183
 128   2.0000      -0.140859        -3.8330
 129   2.0000      -0.124690        -3.3930
 130   2.0000      -0.055198        -1.5020
 131   2.0000      -0.033142        -0.9019
 132   2.0000      -0.016203        -0.4409
 133   0.0000       0.000594         0.0162
 134   0.0000       0.034214         0.9310
 135   0.0000       0.056783         1.5451
 136   0.0000       0.060481         1.6458
 137   0.0000       0.073209         1.9921

MULLIKEN ATOMIC CHARGES
-----------------------
   0 C :   -0.543888
   1 C :    0.084637
   2 C :    0.320674
   3 N :   -0.606735
   4 C :   -0.223391
   5 C :    0.146449
   6 C :   -0.175836
   7 C :   -0.168248
   8 C :    0.346075
   9 O :   -0.552305
  10 C :    1.078808
  11 F :   -0.287065
  12 F :   -0.287462
  13 F :   -0.290093
  14 C :   -0.183450
  15 C :   -0.121828
  16 S :    1.206002
  17 O :   -0.566222
  18 O :   -0.553388
  19 C :   -0.141486
  20 C :   -0.126078
  21 C :   -0.156888
  22 C :    0.107407
  23 C :    0.408709
  24 O :   -0.553470
  25 O :   -0.661760
  26 C :   -0.161607
  27 C :   -0.169902
  28 N :   -0.370414
  29 C :   -0.051671
  30 C :    0.136409
  31 C :   -0.202581
  32 C :   -0.127103
  33 C :   -0.124328
  34 C :   -0.198253
  35 C :    0.119626
  36 H :    0.150085
  37 H :    0.209854
  38 H :    0.150687
  39 H :    0.164426
  40 H :    0.174996
  41 H :    0.145482
  42 H :    0.139212
  43 H :    0.138643
  44 H :    0.135973
  45 H :    0.143037
  46 H :    0.146854
  47 H :    0.140983
  48 H :    0.142456
  49 H :    0.157001
  50 H :    0.135617
  51 H :    0.122731
  52 H :    0.122003
  53 H :    0.130613
Sum of atomic charges:   -1.0000000

LOEWDIN ATOMIC CHARGES
----------------------
   0 C :   -0.361254
   1 C :   -0.016600
   2 C :    0.041153
   3 N :   -0.293827
   4 C :   -0.144752
   5 C :   -0.028274
   6 C :   -0.122918
   7 C :   -0.143393
   8 C :    0.080763
   9 O :   -0.166853
  10 C :    0.351159
  11 F :   -0.095102
  12 F :   -0.101199
  13 F :   -0.100802
  14 C :   -0.156867
  15 C :   -0.100130
  16 S :    1.265389
  17 O :   -0.587942
  18 O :   -0.575228
  19 C :   -0.215316
  20 C :   -0.111662
  21 C :   -0.110326
  22 C :   -0.005051
  23 C :    0.072634
  24 O :   -0.379027
  25 O :   -0.510587
  26 C :   -0.119049
  27 C :   -0.133648
  28 N :   -0.115910
  29 C :   -0.058002
  30 C :   -0.030753
  31 C :   -0.111497
  32 C :   -0.136242
  33 C :   -0.126682
  34 C :   -0.127167
  35 C :   -0.006044
  36 H :    0.131526
  37 H :    0.154763
  38 H :    0.129693
  39 H :    0.139616
  40 H :    0.132272
  41 H :    0.139686
  42 H :    0.140895
  43 H :    0.136275
  44 H :    0.138333
  45 H :    0.140619
  46 H :    0.147902
  47 H :    0.143661
  48 H :    0.136940
  49 H :    0.139305
  50 H :    0.135598
  51 H :    0.129425
  52 H :    0.129956
  53 H :    0.134543

  Mayer bond orders larger than 0.100000
B(  0-C ,  1-C ) :   1.0033 B(  0-C , 36-H ) :   0.9284 B(  0-C , 37-H ) :   0.9163
B(  0-C , 38-H ) :   0.9314 B(  1-C ,  2-C ) :   1.4353 B(  1-C , 29-C ) :   0.1055
B(  1-C , 35-C ) :   1.2726 B(  2-C ,  3-N ) :   0.9255 B(  2-C , 28-N ) :   1.2858
B(  3-N ,  4-C ) :   0.9220 B(  3-N , 16-S ) :   0.7553 B(  4-C ,  5-C ) :   0.9717
B(  4-C , 39-H ) :   0.9176 B(  4-C , 40-H ) :   0.9144 B(  5-C ,  6-C ) :   1.4253
B(  5-C , 15-C ) :   1.4291 B(  6-C ,  7-C ) :   1.4341 B(  6-C , 41-H ) :   0.9188
B(  7-C ,  8-C ) :   1.4202 B(  7-C , 42-H ) :   0.9203 B(  8-C ,  9-O ) :   0.8093
B(  8-C , 14-C ) :   1.3955 B(  9-O , 10-C ) :   0.9999 B( 10-C , 11-F ) :   1.0003
B( 10-C , 12-F ) :   0.9802 B( 10-C , 13-F ) :   0.9683 B( 14-C , 15-C ) :   1.4364
B( 14-C , 43-H ) :   0.9125 B( 15-C , 44-H ) :   0.9125 B( 16-S , 17-O ) :   1.6240
B( 16-S , 18-O ) :   1.6299 B( 16-S , 19-C ) :   0.8410 B( 19-C , 20-C ) :   1.3676
B( 19-C , 27-C ) :   1.3679 B( 20-C , 21-C ) :   1.4095 B( 20-C , 45-H ) :   0.9181
B( 21-C , 22-C ) :   1.3985 B( 21-C , 46-H ) :   0.9034 B( 22-C , 23-C ) :   0.9244
B( 22-C , 26-C ) :   1.3971 B( 23-C , 24-O ) :   1.7062 B( 23-C , 25-O ) :   1.5494
B( 24-O , 25-O ) :   0.1470 B( 26-C , 27-C ) :   1.4049 B( 26-C , 47-H ) :   0.9083
B( 27-C , 48-H ) :   0.9161 B( 28-N , 29-C ) :   1.4928 B( 29-C , 30-C ) :   1.2362
B( 29-C , 49-H ) :   0.9258 B( 30-C , 31-C ) :   1.2815 B( 30-C , 35-C ) :   1.2918
B( 31-C , 32-C ) :   1.5200 B( 31-C , 34-C ) :   0.1059 B( 31-C , 50-H ) :   0.9233
B( 32-C , 33-C ) :   1.3498 B( 32-C , 51-H ) :   0.9312 B( 33-C , 34-C ) :   1.5160
B( 33-C , 52-H ) :   0.9316 B( 34-C , 35-C ) :   1.2877 B( 34-C , 53-H ) :   0.9182

FINAL SINGLE POINT ENERGY     -2145.756551333171

DIPOLE MOMENT
-------------

Method             : SCF
Type of density    : Electron Density
Multiplicity       :   1
Irrep              :   0
Energy             : -2145.7565513331705915 Eh
Relativity type    :
Basis              : AO
                                X                 Y                 Z
Electronic contribution:    -23.281860081     -37.470424425       4.105913588
Nuclear contribution   :     13.564289396      41.657108994      -6.703188670
                        -----------------------------------------
Total Dipole Moment    :     -9.717570685       4.186684569      -2.597275082
                        -----------------------------------------
Magnitude (a.u.)       :     10.895198279
Magnitude (Debye)      :     27.693393196

Rotational constants in cm-1:             0.003471             0.002144             0.001426
Rotational constants in MHz :           104.053875            64.280842            42.750627

                             ****ORCA TERMINATED NORMALLY****
TOTAL RUN TIME: 0 days 0 hours 6 minutes 20 seconds 267 msec
