                         Program Version 6.0.0  -   RELEASE  -
|  1> ! B3LYP 6-31G* SP
|  2>
|  3> * xyz 0 1
|  4> C 0.6337 -1.3394 0.5833
|  5> C 1.6843 -1.7314 -0.4311
|  6> C 1.6768 -1.1702 -1.7296
|  7> N 0.6464 -0.2635 -2.1444
|  8> C 0.9794 1.1398 -2.3927
|  9> C 1.4214 1.8045 -1.1173
| 10> C 2.7759 1.7997 -0.7516
| 11> C 3.1857 2.3773 0.4526
| 12> C 2.2402 2.9679 1.3140
| 13> O 2.5953 3.5772 2.5280
| 14> C 3.9184 3.6599 3.0520
| 15> F 4.7413 4.3395 2.1736
| 16> F 3.8849 4.3455 4.2505
| 17> F 4.4166 2.3910 3.2789
| 18> C 0.8879 2.9562 0.9519
| 19> C 0.4782 2.3747 -0.2504
| 20> S -0.8674 -0.9048 -2.7076
| 21> O -1.1213 -0.4364 -4.1130
| 22> O -0.8073 -2.4077 -2.7182
| 23> C -2.1779 -0.3737 -1.6583
| 24> C -2.6731 -1.2215 -0.6614
| 25> C -3.6858 -0.7867 0.1976
| 26> C -4.2399 0.5039 0.0635
| 27> C -5.3111 0.9994 1.0427
| 28> C -4.6489 1.2970 2.3943
| 29> C -6.4291 -0.0484 1.2395
| 30> O -5.8969 2.1970 0.5855
| 31> C -3.7203 1.3524 -0.9364
| 32> C -2.7087 0.9128 -1.7945
| 33> N 2.6769 -1.4583 -2.6019
| 34> C 3.6917 -2.3000 -2.2930
| 35> C 3.7341 -2.9196 -1.0420
| 36> C 4.7745 -3.8065 -0.7260
| 37> C 4.8092 -4.4313 0.5209
| 38> C 3.8096 -4.1769 1.4582
| 39> C 2.7719 -3.2907 1.1593
| 40> C 2.7178 -2.6434 -0.0946
| 41> H -0.0083 -2.2151 0.8180
| 42> H -0.0160 -0.5158 0.2304
| 43> H 1.1231 -0.9747 1.5122
| 44> H 1.7856 1.1995 -3.1556
| 45> H 0.1045 1.6804 -2.8118
| 46> H 3.5147 1.3456 -1.3999
| 47> H 4.2382 2.3582 0.7000
| 48> H 0.1504 3.3978 1.6096
| 49> H -0.5726 2.3698 -0.5053
| 50> H -2.2624 -2.2140 -0.5327
| 51> H -4.0141 -1.4544 0.9819
| 52> H -5.3975 1.7017 3.1097
| 53> H -4.2069 0.3774 2.8324
| 54> H -3.8424 2.0511 2.2688
| 55> H -6.0671 -0.9378 1.7950
| 56> H -6.8270 -0.3798 0.2573
| 57> H -7.2660 0.3932 1.8218
| 58> H -6.3803 1.9966 -0.2603
| 59> H -4.0770 2.3677 -1.0486
| 60> H -2.3258 1.5866 -2.5530
| 61> H 4.4602 -2.4884 -3.0303
| 62> H 5.5582 -4.0174 -1.4437
| 63> H 5.6102 -5.1182 0.7604
| 64> H 3.8378 -4.6680 2.4221
| 65> H 2.0160 -3.1272 1.9144
| 66> *
| 67>
| 68>                          ****END OF INPUT****

CARTESIAN COORDINATES (ANGSTROEM)
---------------------------------
  C      0.633700   -1.339400    0.583300
  C      1.684300   -1.731400   -0.431100
  C      1.676800   -1.170200   -1.729600
  N      0.646400   -0.263500   -2.144400
  C      0.979400    1.139800   -2.392700
  C      1.421400    1.804500   -1.117300
  C      2.775900    1.799700   -0.751600
  C      3.185700    2.377300    0.452600
  C      2.240200    2.967900    1.314000
  O      2.595300    3.577200    2.528000
  C      3.918400    3.659900    3.052000
  F      4.741300    4.339500    2.173600
  F      3.884900    4.345500    4.250500
  F      4.416600    2.391000    3.278900
  C      0.887900    2.956200    0.951900
  C      0.478200    2.374700   -0.250400
  S     -0.867400   -0.904800   -2.707600
  O     -1.121300   -0.436400   -4.113000
  O     -0.807300   -2.407700   -2.718200
  C     -2.177900   -0.373700   -1.658300
  C     -2.673100   -1.221500   -0.661400
  C     -3.685800   -0.786700    0.197600
  C     -4.239900    0.503900    0.063500
  C     -5.311100    0.999400    1.042700
  C     -4.648900    1.297000    2.394300
  C     -6.429100   -0.048400    1.239500
  O     -5.896900    2.197000    0.585500
  C     -3.720300    1.352400   -0.936400
  C     -2.708700    0.912800   -1.794500
  N      2.676900   -1.458300   -2.601900
  C      3.691700   -2.300000   -2.293000
  C      3.734100   -2.919600   -1.042000
  C      4.774500   -3.806500   -0.726000
  C      4.809200   -4.431300    0.520900
  C      3.809600   -4.176900    1.458200
  C      2.771900   -3.290700    1.159300
  C      2.717800   -2.643400   -0.094600
  H     -0.008300   -2.215100    0.818000
  H     -0.016000   -0.515800    0.230400
  H      1.123100   -0.974700    1.512200
  H      1.785600    1.199500   -3.155600
  H      0.104500    1.680400   -2.811800
  H      3.514700    1.345600   -1.399900
  H      4.238200    2.358200    0.700000
  H      0.150400    3.397800    1.609600
  H     -0.572600    2.369800   -0.505300
  H     -2.262400   -2.214000   -0.532700
  H     -4.014100   -1.454400    0.981900
  H     -5.397500    1.701700    3.109700
  H     -4.206900    0.377400    2.832400
  H     -3.842400    2.051100    2.268800
  H     -6.067100   -0.937800    1.795000
  H     -6.827000   -0.379800    0.257300
  H     -7.266000    0.393200    1.821800
  H     -6.380300    1.996600   -0.260300
  H     -4.077000    2.367700   -1.048600
  H     -2.325800    1.586600   -2.553000
  H      4.460200   -2.488400   -3.030300
  H      5.558200   -4.017400   -1.443700
  H      5.610200   -5.118200    0.760400
  H      3.837800   -4.668000    2.422100
  H      2.016000   -3.127200    1.914400

 Total Charge           Charge          ....    0
 Multiplicity           Mult            ....    1
 Number of Electrons    NEL             ....  276
 Basis Dimension        Dim             ....  572

ORBITAL ENERGIES
----------------

  NO   OCC          E(Eh)            E(eV)
   0   2.0000     -89.089500     -2424.2485
   1   2.0000     -24.742657      -673.2819
   2   2.0000     -24.740653      -673.2274
   3   2.0000     -24.740346      -673.2191
   4   2.0000     -19.214255      -522.8465
   5   2.0000     -19.154362      -521.2167
   6   2.0000     -19.118230      -520.2335
   7   2.0000     -19.115974      -520.1721
   8   2.0000     -14.363895      -390.8615
   9   2.0000     -14.326545      -389.8451
  10   2.0000     -10.505304      -285.8638
  11   2.0000     -10.270356      -279.4706
  12   2.0000     -10.258603      -279.1508
  13   2.0000     -10.254278      -279.0331
  14   2.0000     -10.230951      -278.3983
  15   2.0000     -10.227652      -278.3086
  16   2.0000     -10.220517      -278.1144
  17   2.0000     -10.215587      -277.9803
  18   2.0000     -10.215275      -277.9718
  19   2.0000     -10.213221      -277.9159
  20   2.0000     -10.207141      -277.7504
  21   2.0000     -10.205473      -277.7050
  22   2.0000     -10.205260      -277.6993
  23   2.0000     -10.202625      -277.6276
  24   2.0000     -10.199003      -277.5290
  25   2.0000     -10.197864      -277.4980
  26   2.0000     -10.197457      -277.4869
  27   2.0000     -10.197407      -277.4855
  28   2.0000     -10.196498      -277.4608
  29   2.0000     -10.195736      -277.4401
  30   2.0000     -10.195156      -277.4243
  31   2.0000     -10.194795      -277.4145
  32   2.0000     -10.193208      -277.3713
  33   2.0000     -10.192957      -277.3645
  34   2.0000     -10.185648      -277.1656
  35   2.0000     -10.184231      -277.1270
  36   2.0000     -10.181109      -277.0421
  37   2.0000      -8.125245      -221.0992
  38   2.0000      -6.090313      -165.7258
  39   2.0000      -6.088303      -165.6711
  40   2.0000      -6.087808      -165.6577
  41   2.0000      -1.306188       -35.5432
  42   2.0000      -1.226731       -33.3810
  43   2.0000      -1.226040       -33.3622
  44   2.0000      -1.084435       -29.5090
  45   2.0000      -1.075166       -29.2568
  46   2.0000      -1.037427       -28.2298
  47   2.0000      -0.957148       -26.0453
  48   2.0000      -0.953495       -25.9459
  49   2.0000      -0.909313       -24.7437
  50   2.0000      -0.881550       -23.9882
  51   2.0000      -0.866242       -23.5716
  52   2.0000      -0.860227       -23.4080
  53   2.0000      -0.810650       -22.0589
  54   2.0000      -0.805120       -21.9084
  55   2.0000      -0.785652       -21.3787
  56   2.0000      -0.773066       -21.0362
  57   2.0000      -0.769769       -20.9465
  58   2.0000      -0.762069       -20.7369
  59   2.0000      -0.760295       -20.6887
  60   2.0000      -0.741159       -20.1680
  61   2.0000      -0.723837       -19.6966
  62   2.0000      -0.701069       -19.0771
  63   2.0000      -0.699410       -19.0319
  64   2.0000      -0.687235       -18.7006
  65   2.0000      -0.667289       -18.1579
  66   2.0000      -0.641947       -17.4683
  67   2.0000      -0.638321       -17.3696
  68   2.0000      -0.631217       -17.1763
  69   2.0000      -0.627311       -17.0700
  70   2.0000      -0.622423       -16.9370
  71   2.0000      -0.598053       -16.2738
  72   2.0000      -0.597292       -16.2531
  73   2.0000      -0.593471       -16.1492
  74   2.0000      -0.592102       -16.1119
  75   2.0000      -0.582176       -15.8418
  76   2.0000      -0.575173       -15.6512
  77   2.0000      -0.554639       -15.0925
  78   2.0000      -0.532705       -14.4956
  79   2.0000      -0.529322       -14.4036
  80   2.0000      -0.515770       -14.0348
  81   2.0000      -0.500382       -13.6161
  82   2.0000      -0.497349       -13.5335
  83   2.0000      -0.488927       -13.3044
  84   2.0000      -0.486588       -13.2407
  85   2.0000      -0.475452       -12.9377
  86   2.0000      -0.473855       -12.8942
  87   2.0000      -0.471589       -12.8326
  88   2.0000      -0.469411       -12.7733
  89   2.0000      -0.467431       -12.7195
  90   2.0000      -0.461082       -12.5467
  91   2.0000      -0.460350       -12.5268
  92   2.0000      -0.450734       -12.2651
  93   2.0000      -0.449738       -12.2380
  94   2.0000      -0.447410       -12.1746
  95   2.0000      -0.446595       -12.1525
  96   2.0000      -0.444146       -12.0858
  97   2.0000      -0.442834       -12.0501
  98   2.0000      -0.436668       -11.8823
  99   2.0000      -0.430674       -11.7192
 100   2.0000      -0.428480       -11.6595
 101   2.0000      -0.426742       -11.6123
 102   2.0000      -0.419633       -11.4188
 103   2.0000      -0.417935       -11.3726
 104   2.0000      -0.415927       -11.3180
 105   2.0000      -0.411131       -11.1874
 106   2.0000      -0.407919       -11.1000
 107   2.0000      -0.405771       -11.0416
 108   2.0000      -0.402586       -10.9549
 109   2.0000      -0.396173       -10.7804
 110   2.0000      -0.394532       -10.7358
 111   2.0000      -0.387421       -10.5423
 112   2.0000      -0.385640       -10.4938
 113   2.0000      -0.381862       -10.3910
 114   2.0000      -0.376776       -10.2526
 115   2.0000      -0.372333       -10.1317
 116   2.0000      -0.365590        -9.9482
 117   2.0000      -0.363941        -9.9033
 118   2.0000      -0.362354        -9.8601
 119   2.0000      -0.352334        -9.5875
 120   2.0000      -0.349581        -9.5126
 121   2.0000      -0.347630        -9.4595
 122   2.0000      -0.346473        -9.4280
 123   2.0000      -0.332441        -9.0462
 124   2.0000      -0.319065        -8.6822
 125   2.0000      -0.300964        -8.1896
 126   2.0000      -0.289284        -7.8718
 127   2.0000      -0.285858        -7.7786
 128   2.0000      -0.284918        -7.7530
 129   2.0000      -0.278024        -7.5654
 130   2.0000      -0.272858        -7.4248
 131   2.0000      -0.266747        -7.2586
 132   2.0000      -0.263570        -7.1721
 133   2.0000      -0.260605        -7.0914
 134   2.0000      -0.251107        -6.8330
 135   2.0000      -0.245364        -6.6767
 136   2.0000      -0.237507        -6.4629
 137   2.0000      -0.217593        -5.9210
 138   0.0000      -0.058860        -1.6017
 139   0.0000      -0.048494        -1.3196
 140   0.0000      -0.029130        -0.7927
 141   0.0000      -0.025972        -0.7067
 142   0.0000      -0.015937        -0.4337

MULLIKEN ATOMIC CHARGES
-----------------------
   0 C :   -0.547279
   1 C :    0.119686
   2 C :    0.334346
   3 N :   -0.614055
   4 C :   -0.236409
   5 C :    0.159435
   6 C :   -0.169148
   7 C :   -0.190894
   8 C :    0.351277
   9 O :   -0.545990
  10 C :    1.085937
  11 F :   -0.290150
  12 F :   -0.279403
  13 F :   -0.291539
  14 C :   -0.174216
  15 C :   -0.170005
  16 S :    1.194776
  17 O :   -0.537421
  18 O :   -0.545900
  19 C :   -0.129267
  20 C :   -0.144929
  21 C :   -0.163833
  22 C :    0.111036
  23 C :    0.281727
  24 C :   -0.438046
  25 C :   -0.469572
  26 O :   -0.636941
  27 C :   -0.178797
  28 C :   -0.146009
  29 N :   -0.389592
  30 C :   -0.055014
  31 C :    0.137588
  32 C :   -0.203079
  33 C :   -0.126711
  34 C :   -0.120421
  35 C :   -0.197084
  36 C :    0.122411
  37 H :    0.160046
  38 H :    0.174838
  39 H :    0.162726
  40 H :    0.184260
  41 H :    0.172722
  42 H :    0.153081
  43 H :    0.153902
  44 H :    0.147383
  45 H :    0.138474
  46 H :    0.181010
  47 H :    0.140960
  48 H :    0.159060
  49 H :    0.144373
  50 H :    0.154798
  51 H :    0.144703
  52 H :    0.143121
  53 H :    0.161927
  54 H :    0.393340
  55 H :    0.153496
  56 H :    0.170623
  57 H :    0.152516
  58 H :    0.138796
  59 H :    0.134958
  60 H :    0.135945
  61 H :    0.136426
Sum of atomic charges:   -0.0000000

LOEWDIN ATOMIC CHARGES
----------------------
   0 C :   -0.361662
   1 C :   -0.005364
   2 C :    0.036232
   3 N :   -0.283218
   4 C :   -0.144125
   5 C :   -0.037343
   6 C :   -0.119301
   7 C :   -0.158906
   8 C :    0.085781
   9 O :   -0.160377
  10 C :    0.357855
  11 F :   -0.103374
  12 F :   -0.087689
  13 F :   -0.104585
  14 C :   -0.142206
  15 C :   -0.123757
  16 S :    1.261669
  17 O :   -0.570295
  18 O :   -0.573474
  19 C :   -0.192833
  20 C :   -0.099804
  21 C :   -0.128976
  22 C :   -0.003380
  23 C :    0.053627
  24 C :   -0.344197
  25 C :   -0.363086
  26 O :   -0.376259
  27 C :   -0.136868
  28 C :   -0.110265
  29 N :   -0.125195
  30 C :   -0.059840
  31 C :   -0.028214
  32 C :   -0.111520
  33 C :   -0.127092
  34 C :   -0.118151
  35 C :   -0.122988
  36 C :   -0.005408
  37 H :    0.135298
  38 H :    0.141429
  39 H :    0.137068
  40 H :    0.141223
  41 H :    0.141708
  42 H :    0.143536
  43 H :    0.142668
  44 H :    0.144403
  45 H :    0.137975
  46 H :    0.157371
  47 H :    0.138686
  48 H :    0.133855
  49 H :    0.128468
  50 H :    0.132170
  51 H :    0.126537
  52 H :    0.124551
  53 H :    0.135046
  54 H :    0.314718
  55 H :    0.145245
  56 H :    0.149747
  57 H :    0.137205
  58 H :    0.137004
  59 H :    0.135012
  60 H :    0.135775
  61 H :    0.137887

  Mayer bond orders larger than 0.100000
B(  0-C ,  1-C ) :   1.0008 B(  0-C , 37-H ) :   0.9240 B(  0-C , 38-H ) :   0.9219
B(  0-C , 39-H ) :   0.9283 B(  1-C ,  2-C ) :   1.4302 B(  1-C , 30-C ) :   0.1010
B(  1-C , 36-C ) :   1.2672 B(  2-C ,  3-N ) :   0.8913 B(  2-C , 29-N ) :   1.2848
B(  3-N ,  4-C ) :   0.9174 B(  3-N , 16-S ) :   0.8047 B(  4-C ,  5-C ) :   0.9462
B(  4-C , 40-H ) :   0.9165 B(  4-C , 41-H ) :   0.9201 B(  5-C ,  6-C ) :   1.4362
B(  5-C , 15-C ) :   1.4245 B(  6-C ,  7-C ) :   1.4265 B(  6-C , 42-H ) :   0.9167
B(  7-C ,  8-C ) :   1.3939 B(  7-C , 43-H ) :   0.9094 B(  8-C ,  9-O ) :   0.8241
B(  8-C , 14-C ) :   1.4160 B(  9-O , 10-C ) :   0.9906 B( 10-C , 11-F ) :   0.9689
B( 10-C , 12-F ) :   1.0078 B( 10-C , 13-F ) :   0.9702 B( 14-C , 15-C ) :   1.4408
B( 14-C , 44-H ) :   0.9185 B( 15-C , 45-H ) :   0.9142 B( 16-S , 17-O ) :   1.6573
B( 16-S , 18-O ) :   1.6267 B( 16-S , 19-C ) :   0.8162 B( 19-C , 20-C ) :   1.3967
B( 19-C , 28-C ) :   1.3892 B( 20-C , 21-C ) :   1.4306 B( 20-C , 46-H ) :   0.9070
B( 21-C , 22-C ) :   1.3915 B( 21-C , 47-H ) :   0.9217 B( 22-C , 23-C ) :   0.9574
B( 22-C , 27-C ) :   1.4208 B( 23-C , 24-C ) :   0.9939 B( 23-C , 25-C ) :   0.9848
B( 23-C , 26-O ) :   0.9159 B( 24-C , 48-H ) :   0.9389 B( 24-C , 49-H ) :   0.9410
B( 24-C , 50-H ) :   0.9429 B( 25-C , 51-H ) :   0.9331 B( 25-C , 52-H ) :   0.9443
B( 25-C , 53-H ) :   0.9397 B( 26-O , 54-H ) :   0.7817 B( 27-C , 28-C ) :   1.4121
B( 27-C , 55-H ) :   0.9117 B( 28-C , 56-H ) :   0.9118 B( 29-N , 30-C ) :   1.4963
B( 30-C , 31-C ) :   1.2370 B( 30-C , 57-H ) :   0.9266 B( 31-C , 32-C ) :   1.2841
B( 31-C , 36-C ) :   1.2923 B( 32-C , 33-C ) :   1.5117 B( 32-C , 35-C ) :   0.1062
B( 32-C , 58-H ) :   0.9233 B( 33-C , 34-C ) :   1.3542 B( 33-C , 59-H ) :   0.9294
B( 34-C , 35-C ) :   1.5081 B( 34-C , 60-H ) :   0.9293 B( 35-C , 36-C ) :   1.2954
B( 35-C , 61-H ) :   0.9167

FINAL SINGLE POINT ENERGY     -2150.881356542558

DIPOLE MOMENT
-------------

Method             : SCF
Type of density    : Electron Density
Multiplicity       :   1
Irrep              :   0
Energy             : -2150.8813565425580236 Eh
Relativity type    :
Basis              : AO
                                X                 Y                 Z
Electronic contribution:     42.638941161      20.080962886       3.612654829
Nuclear contribution   :    -42.980618403     -20.066779627      -1.547190747
                        -----------------------------------------
Total Dipole Moment    :     -0.341677242       0.014183260       2.065464082
                        -----------------------------------------
Magnitude (a.u.)       :      2.093582187
Magnitude (Debye)      :      5.321463017

Rotational constants in cm-1:             0.003244             0.002341             0.001681
Rotational constants in MHz :            97.264271            70.185653            50.402451

                             ****ORCA TERMINATED NORMALLY****
TOTAL RUN TIME: 0 days 0 hours 11 minutes 13 seconds 438 msec
