                         Program Version 6.0.0  -   RELEASE  -
|  1> ! B3LYP 6-31G* SP
|  2>
|  3> * xyz 0 1
|  4> C -0.5089 -1.7882 -1.6610
|  5> C -1.2334 -1.5697 -0.3505
|  6> C -1.5171 -0.2609 0.1084
|  7> N -1.1067 0.8924 -0.6367
|  8> C 0.0214 1.6981 -0.1655
|  9> C 1.2756 0.8679 -0.1576
| 10> C 1.6454 0.1633 0.9947
| 11> C 2.7285 -0.7174 0.9688
| 12> C 3.4824 -0.9082 -0.2100
| 13> C 4.6184 -1.9493 -0.2553
| 14> C 3.9700 -3.3434 -0.1461
| 15> O 5.2804 -1.9290 -1.5013
| 16> C 5.6840 -1.7858 0.8924
| 17> F 5.1267 -2.1115 2.1184
| 18> F 6.7101 -2.6901 0.6653
| 19> C 6.3254 -0.3861 1.0201
| 20> F 7.1010 -0.0888 -0.0854
| 21> F 5.3701 0.5982 1.1839
| 22> F 7.1497 -0.3722 2.1311
| 23> C 3.0802 -0.2098 -1.3719
| 24> C 1.9976 0.6730 -1.3408
| 25> S -2.1327 1.4961 -1.8981
| 26> O -1.2910 1.8690 -3.0860
| 27> O -3.1092 0.4347 -2.3206
| 28> C -3.0161 2.8933 -1.2967
| 29> C -2.7707 4.1730 -1.8106
| 30> C -3.4594 5.2789 -1.3039
| 31> C -4.3989 5.1215 -0.2699
| 32> C -5.1159 6.2964 0.2739
| 33> O -5.9135 6.1666 1.2427
| 34> O -4.9137 7.5586 -0.2790
| 35> C -4.6379 3.8340 0.2435
| 36> C -3.9513 2.7293 -0.2685
| 37> N -2.1402 -0.0753 1.3013
| 38> C -2.5210 -1.1078 2.0914
| 39> C -2.2598 -2.4237 1.7017
| 40> C -2.6350 -3.4939 2.5282
| 41> C -2.3597 -4.8066 2.1442
| 42> C -1.7089 -5.0608 0.9370
| 43> C -1.3287 -4.0050 0.1047
| 44> C -1.6026 -2.6678 0.4694
| 45> H 0.4893 -2.2324 -1.4638
| 46> H -1.0982 -2.4694 -2.3095
| 47> H -0.3559 -0.8533 -2.2328
| 48> H 0.1656 2.5862 -0.8187
| 49> H -0.1989 2.0802 0.8554
| 50> H 1.0713 0.2680 1.9073
| 51> H 2.9480 -1.2700 1.8698
| 52> H 3.2423 -3.4950 -0.9733
| 53> H 3.4298 -3.4697 0.8169
| 54> H 4.7413 -4.1403 -0.2198
| 55> H 5.6493 -1.0212 -1.6509
| 56> H 3.5765 -0.3599 -2.3207
| 57> H 1.6981 1.1775 -2.2513
| 58> H -2.0430 4.3199 -2.5974
| 59> H -3.2489 6.2579 -1.7156
| 60> H -5.3857 8.3730 0.0984
| 61> H -5.3528 3.6801 1.0427
| 62> H -4.1449 1.7463 0.1415
| 63> H -3.0161 -0.8960 3.0314
| 64> H -3.1377 -3.3145 3.4718
| 65> H -2.6493 -5.6291 2.7852
| 66> H -1.4961 -6.0814 0.6450
| 67> H -0.8189 -4.2500 -0.8175
| 68> *
| 69>
| 70>                          ****END OF INPUT****

CARTESIAN COORDINATES (ANGSTROEM)
---------------------------------
  C     -0.508900   -1.788200   -1.661000
  C     -1.233400   -1.569700   -0.350500
  C     -1.517100   -0.260900    0.108400
  N     -1.106700    0.892400   -0.636700
  C      0.021400    1.698100   -0.165500
  C      1.275600    0.867900   -0.157600
  C      1.645400    0.163300    0.994700
  C      2.728500   -0.717400    0.968800
  C      3.482400   -0.908200   -0.210000
  C      4.618400   -1.949300   -0.255300
  C      3.970000   -3.343400   -0.146100
  O      5.280400   -1.929000   -1.501300
  C      5.684000   -1.785800    0.892400
  F      5.126700   -2.111500    2.118400
  F      6.710100   -2.690100    0.665300
  C      6.325400   -0.386100    1.020100
  F      7.101000   -0.088800   -0.085400
  F      5.370100    0.598200    1.183900
  F      7.149700   -0.372200    2.131100
  C      3.080200   -0.209800   -1.371900
  C      1.997600    0.673000   -1.340800
  S     -2.132700    1.496100   -1.898100
  O     -1.291000    1.869000   -3.086000
  O     -3.109200    0.434700   -2.320600
  C     -3.016100    2.893300   -1.296700
  C     -2.770700    4.173000   -1.810600
  C     -3.459400    5.278900   -1.303900
  C     -4.398900    5.121500   -0.269900
  C     -5.115900    6.296400    0.273900
  O     -5.913500    6.166600    1.242700
  O     -4.913700    7.558600   -0.279000
  C     -4.637900    3.834000    0.243500
  C     -3.951300    2.729300   -0.268500
  N     -2.140200   -0.075300    1.301300
  C     -2.521000   -1.107800    2.091400
  C     -2.259800   -2.423700    1.701700
  C     -2.635000   -3.493900    2.528200
  C     -2.359700   -4.806600    2.144200
  C     -1.708900   -5.060800    0.937000
  C     -1.328700   -4.005000    0.104700
  C     -1.602600   -2.667800    0.469400
  H      0.489300   -2.232400   -1.463800
  H     -1.098200   -2.469400   -2.309500
  H     -0.355900   -0.853300   -2.232800
  H      0.165600    2.586200   -0.818700
  H     -0.198900    2.080200    0.855400
  H      1.071300    0.268000    1.907300
  H      2.948000   -1.270000    1.869800
  H      3.242300   -3.495000   -0.973300
  H      3.429800   -3.469700    0.816900
  H      4.741300   -4.140300   -0.219800
  H      5.649300   -1.021200   -1.650900
  H      3.576500   -0.359900   -2.320700
  H      1.698100    1.177500   -2.251300
  H     -2.043000    4.319900   -2.597400
  H     -3.248900    6.257900   -1.715600
  H     -5.385700    8.373000    0.098400
  H     -5.352800    3.680100    1.042700
  H     -4.144900    1.746300    0.141500
  H     -3.016100   -0.896000    3.031400
  H     -3.137700   -3.314500    3.471800
  H     -2.649300   -5.629100    2.785200
  H     -1.496100   -6.081400    0.645000
  H     -0.818900   -4.250000   -0.817500

 Total Charge           Charge          ....    0
 Multiplicity           Mult            ....    1
 Number of Electrons    NEL             ....  306
 Basis Dimension        Dim             ....  624

ORBITAL ENERGIES
----------------

  NO   OCC          E(Eh)            E(eV)
   0   2.0000     -89.096816     -2424.4476
   1   2.0000     -24.750393      -673.4924
   2   2.0000     -24.744057      -673.3200
   3   2.0000     -24.735477      -673.0866
   4   2.0000     -24.728644      -672.9006
   5   2.0000     -24.719101      -672.6409
   6   2.0000     -19.194674      -522.3136
   7   2.0000     -19.165153      -521.5103
   8   2.0000     -19.136008      -520.7173
   9   2.0000     -19.128082      -520.5016
  10   2.0000     -19.126257      -520.4519
  11   2.0000     -14.370535      -391.0421
  12   2.0000     -14.335170      -390.0798
  13   2.0000     -10.460102      -284.6338
  14   2.0000     -10.381862      -282.5048
  15   2.0000     -10.333365      -281.1852
  16   2.0000     -10.277966      -279.6777
  17   2.0000     -10.258453      -279.1467
  18   2.0000     -10.238803      -278.6120
  19   2.0000     -10.232714      -278.4463
  20   2.0000     -10.228858      -278.3414
  21   2.0000     -10.227249      -278.2976
  22   2.0000     -10.216709      -278.0108
  23   2.0000     -10.215980      -277.9909
  24   2.0000     -10.214220      -277.9431
  25   2.0000     -10.213867      -277.9335
  26   2.0000     -10.210560      -277.8435
  27   2.0000     -10.207332      -277.7556
  28   2.0000     -10.207081      -277.7488
  29   2.0000     -10.202626      -277.6276
  30   2.0000     -10.199797      -277.5506
  31   2.0000     -10.199445      -277.5410
  32   2.0000     -10.198031      -277.5025
  33   2.0000     -10.197668      -277.4927
  34   2.0000     -10.197445      -277.4866
  35   2.0000     -10.193105      -277.3685
  36   2.0000     -10.191396      -277.3220
  37   2.0000     -10.190866      -277.3076
  38   2.0000     -10.189402      -277.2677
  39   2.0000     -10.187376      -277.2126
  40   2.0000     -10.173933      -276.8468
  41   2.0000      -8.132633      -221.3002
  42   2.0000      -6.097621      -165.9247
  43   2.0000      -6.095729      -165.8732
  44   2.0000      -6.095238      -165.8598
  45   2.0000      -1.306844       -35.5610
  46   2.0000      -1.261422       -34.3251
  47   2.0000      -1.233169       -33.5562
  48   2.0000      -1.222787       -33.2737
  49   2.0000      -1.206492       -32.8303
  50   2.0000      -1.084512       -29.5111
  51   2.0000      -1.078780       -29.3551
  52   2.0000      -1.047988       -28.5172
  53   2.0000      -0.992873       -27.0175
  54   2.0000      -0.965280       -26.2666
  55   2.0000      -0.962432       -26.1891
  56   2.0000      -0.915776       -24.9195
  57   2.0000      -0.887107       -24.1394
  58   2.0000      -0.867283       -23.6000
  59   2.0000      -0.862147       -23.4602
  60   2.0000      -0.813842       -22.1458
  61   2.0000      -0.808840       -22.0097
  62   2.0000      -0.802634       -21.8408
  63   2.0000      -0.781957       -21.2781
  64   2.0000      -0.775394       -21.0996
  65   2.0000      -0.772925       -21.0324
  66   2.0000      -0.756181       -20.5767
  67   2.0000      -0.751055       -20.4372
  68   2.0000      -0.742193       -20.1961
  69   2.0000      -0.712848       -19.3976
  70   2.0000      -0.700401       -19.0589
  71   2.0000      -0.684308       -18.6210
  72   2.0000      -0.678860       -18.4727
  73   2.0000      -0.652520       -17.7560
  74   2.0000      -0.645537       -17.5660
  75   2.0000      -0.636345       -17.3158
  76   2.0000      -0.631435       -17.1822
  77   2.0000      -0.618296       -16.8247
  78   2.0000      -0.614232       -16.7141
  79   2.0000      -0.603345       -16.4179
  80   2.0000      -0.600045       -16.3280
  81   2.0000      -0.596063       -16.2197
  82   2.0000      -0.595166       -16.1953
  83   2.0000      -0.590836       -16.0775
  84   2.0000      -0.581727       -15.8296
  85   2.0000      -0.559522       -15.2254
  86   2.0000      -0.555833       -15.1250
  87   2.0000      -0.547755       -14.9052
  88   2.0000      -0.539194       -14.6722
  89   2.0000      -0.536135       -14.5890
  90   2.0000      -0.528008       -14.3678
  91   2.0000      -0.513845       -13.9824
  92   2.0000      -0.503199       -13.6928
  93   2.0000      -0.489421       -13.3178
  94   2.0000      -0.485350       -13.2071
  95   2.0000      -0.479863       -13.0577
  96   2.0000      -0.477122       -12.9832
  97   2.0000      -0.473937       -12.8965
  98   2.0000      -0.471443       -12.8286
  99   2.0000      -0.470050       -12.7907
 100   2.0000      -0.468584       -12.7508
 101   2.0000      -0.464451       -12.6384
 102   2.0000      -0.458328       -12.4717
 103   2.0000      -0.452219       -12.3055
 104   2.0000      -0.450057       -12.2467
 105   2.0000      -0.448962       -12.2169
 106   2.0000      -0.445907       -12.1337
 107   2.0000      -0.444640       -12.0993
 108   2.0000      -0.439797       -11.9675
 109   2.0000      -0.438295       -11.9266
 110   2.0000      -0.436619       -11.8810
 111   2.0000      -0.431964       -11.7543
 112   2.0000      -0.429987       -11.7005
 113   2.0000      -0.428610       -11.6631
 114   2.0000      -0.426395       -11.6028
 115   2.0000      -0.422546       -11.4981
 116   2.0000      -0.419369       -11.4116
 117   2.0000      -0.417940       -11.3727
 118   2.0000      -0.413451       -11.2506
 119   2.0000      -0.409635       -11.1467
 120   2.0000      -0.404211       -10.9992
 121   2.0000      -0.400208       -10.8902
 122   2.0000      -0.396695       -10.7946
 123   2.0000      -0.394518       -10.7354
 124   2.0000      -0.392481       -10.6799
 125   2.0000      -0.388299       -10.5662
 126   2.0000      -0.386384       -10.5141
 127   2.0000      -0.383092       -10.4245
 128   2.0000      -0.379044       -10.3143
 129   2.0000      -0.367811       -10.0087
 130   2.0000      -0.365528        -9.9465
 131   2.0000      -0.363945        -9.9034
 132   2.0000      -0.356890        -9.7115
 133   2.0000      -0.355860        -9.6835
 134   2.0000      -0.352133        -9.5820
 135   2.0000      -0.347620        -9.4592
 136   2.0000      -0.339092        -9.2272
 137   2.0000      -0.325926        -8.8689
 138   2.0000      -0.319147        -8.6844
 139   2.0000      -0.307062        -8.3556
 140   2.0000      -0.300234        -8.1698
 141   2.0000      -0.296428        -8.0662
 142   2.0000      -0.290488        -7.9046
 143   2.0000      -0.281255        -7.6533
 144   2.0000      -0.276773        -7.5314
 145   2.0000      -0.276246        -7.5170
 146   2.0000      -0.272346        -7.4109
 147   2.0000      -0.267958        -7.2915
 148   2.0000      -0.259137        -7.0515
 149   2.0000      -0.258218        -7.0265
 150   2.0000      -0.254564        -6.9270
 151   2.0000      -0.245063        -6.6685
 152   2.0000      -0.224321        -6.1041
 153   0.0000      -0.080409        -2.1880
 154   0.0000      -0.062787        -1.7085
 155   0.0000      -0.035032        -0.9533
 156   0.0000      -0.026861        -0.7309
 157   0.0000      -0.022165        -0.6032

MULLIKEN ATOMIC CHARGES
-----------------------
   0 C :   -0.544314
   1 C :    0.135841
   2 C :    0.307360
   3 N :   -0.612633
   4 C :   -0.231672
   5 C :    0.155585
   6 C :   -0.170176
   7 C :   -0.180618
   8 C :    0.085977
   9 C :    0.180474
  10 C :   -0.458637
  11 O :   -0.636623
  12 C :    0.611646
  13 F :   -0.313237
  14 F :   -0.314076
  15 C :    0.876206
  16 F :   -0.292332
  17 F :   -0.279255
  18 F :   -0.292133
  19 C :   -0.191166
  20 C :   -0.164461
  21 S :    1.224709
  22 O :   -0.559718
  23 O :   -0.544402
  24 C :   -0.126338
  25 C :   -0.152854
  26 C :   -0.146280
  27 C :    0.083079
  28 C :    0.527429
  29 O :   -0.445610
  30 O :   -0.623624
  31 C :   -0.142653
  32 C :   -0.135832
  33 N :   -0.403981
  34 C :   -0.060776
  35 C :    0.139736
  36 C :   -0.203967
  37 C :   -0.125647
  38 C :   -0.121039
  39 C :   -0.194787
  40 C :    0.116242
  41 H :    0.161133
  42 H :    0.167226
  43 H :    0.200541
  44 H :    0.176629
  45 H :    0.168174
  46 H :    0.141429
  47 H :    0.142460
  48 H :    0.170144
  49 H :    0.162520
  50 H :    0.170331
  51 H :    0.400437
  52 H :    0.138276
  53 H :    0.157998
  54 H :    0.183773
  55 H :    0.171250
  56 H :    0.433424
  57 H :    0.179726
  58 H :    0.188772
  59 H :    0.151293
  60 H :    0.138987
  61 H :    0.137290
  62 H :    0.139287
  63 H :    0.143459
Sum of atomic charges:    0.0000000

LOEWDIN ATOMIC CHARGES
----------------------
   0 C :   -0.360004
   1 C :    0.011671
   2 C :    0.024746
   3 N :   -0.281233
   4 C :   -0.145964
   5 C :   -0.030096
   6 C :   -0.126537
   7 C :   -0.134615
   8 C :   -0.035995
   9 C :    0.040303
  10 C :   -0.347904
  11 O :   -0.361448
  12 C :    0.189939
  13 F :   -0.111357
  14 F :   -0.110379
  15 C :    0.283510
  16 F :   -0.100392
  17 F :   -0.090045
  18 F :   -0.099034
  19 C :   -0.138170
  20 C :   -0.118901
  21 S :    1.262829
  22 O :   -0.580693
  23 O :   -0.567250
  24 C :   -0.176050
  25 C :   -0.108240
  26 C :   -0.100678
  27 C :   -0.040062
  28 C :    0.180234
  29 O :   -0.261989
  30 O :   -0.335011
  31 C :   -0.085826
  32 C :   -0.096631
  33 N :   -0.140974
  34 C :   -0.065622
  35 C :   -0.027365
  36 C :   -0.112885
  37 C :   -0.124395
  38 C :   -0.117238
  39 C :   -0.118786
  40 C :   -0.006165
  41 H :    0.136829
  42 H :    0.140848
  43 H :    0.152642
  44 H :    0.145646
  45 H :    0.130361
  46 H :    0.137582
  47 H :    0.136618
  48 H :    0.141662
  49 H :    0.136419
  50 H :    0.138319
  51 H :    0.313016
  52 H :    0.137023
  53 H :    0.144929
  54 H :    0.159657
  55 H :    0.153987
  56 H :    0.349426
  57 H :    0.160102
  58 H :    0.161829
  59 H :    0.136225
  60 H :    0.136981
  61 H :    0.136080
  62 H :    0.137264
  63 H :    0.141261

  Mayer bond orders larger than 0.100000
B(  0-C ,  1-C ) :   1.0092 B(  0-C , 41-H ) :   0.9214 B(  0-C , 42-H ) :   0.9242
B(  0-C , 43-H ) :   0.9177 B(  1-C ,  2-C ) :   1.4344 B(  1-C , 34-C ) :   0.1006
B(  1-C , 40-C ) :   1.2628 B(  2-C ,  3-N ) :   0.8915 B(  2-C , 33-N ) :   1.2736
B(  3-N ,  4-C ) :   0.9162 B(  3-N , 21-S ) :   0.8073 B(  4-C ,  5-C ) :   0.9664
B(  4-C , 44-H ) :   0.9164 B(  4-C , 45-H ) :   0.9194 B(  5-C ,  6-C ) :   1.4309
B(  5-C , 20-C ) :   1.4352 B(  6-C ,  7-C ) :   1.4294 B(  6-C , 46-H ) :   0.9199
B(  7-C ,  8-C ) :   1.3985 B(  7-C , 47-H ) :   0.9127 B(  8-C ,  9-C ) :   0.9415
B(  8-C , 19-C ) :   1.4181 B(  9-C , 10-C ) :   0.9860 B(  9-C , 11-O ) :   0.9231
B(  9-C , 12-C ) :   0.8798 B( 10-C , 48-H ) :   0.9363 B( 10-C , 49-H ) :   0.9338
B( 10-C , 50-H ) :   0.9314 B( 11-O , 51-H ) :   0.7572 B( 12-C , 13-F ) :   0.8858
B( 12-C , 14-F ) :   0.9126 B( 12-C , 15-C ) :   0.8890 B( 15-C , 16-F ) :   0.9517
B( 15-C , 17-F ) :   0.9760 B( 15-C , 18-F ) :   0.9726 B( 19-C , 20-C ) :   1.4170
B( 19-C , 52-H ) :   0.9149 B( 20-C , 53-H ) :   0.9158 B( 21-S , 22-O ) :   1.6068
B( 21-S , 23-O ) :   1.6514 B( 21-S , 24-C ) :   0.8124 B( 24-C , 25-C ) :   1.4021
B( 24-C , 32-C ) :   1.3780 B( 25-C , 26-C ) :   1.4095 B( 25-C , 54-H ) :   0.9094
B( 26-C , 27-C ) :   1.3885 B( 26-C , 55-H ) :   0.9152 B( 27-C , 28-C ) :   1.0081
B( 27-C , 31-C ) :   1.3960 B( 28-C , 29-O ) :   1.8619 B( 28-C , 30-O ) :   1.0243
B( 30-O , 56-H ) :   0.7423 B( 31-C , 32-C ) :   1.4325 B( 31-C , 57-H ) :   0.9101
B( 32-C , 58-H ) :   0.9028 B( 33-N , 34-C ) :   1.4897 B( 34-C , 35-C ) :   1.2426
B( 34-C , 59-H ) :   0.9264 B( 35-C , 36-C ) :   1.2830 B( 35-C , 40-C ) :   1.2906
B( 36-C , 37-C ) :   1.5130 B( 36-C , 39-C ) :   0.1061 B( 36-C , 60-H ) :   0.9233
B( 37-C , 38-C ) :   1.3522 B( 37-C , 61-H ) :   0.9291 B( 38-C , 39-C ) :   1.5080
B( 38-C , 62-H ) :   0.9288 B( 39-C , 40-C ) :   1.2955 B( 39-C , 63-H ) :   0.9152

FINAL SINGLE POINT ENERGY     -2462.574015561844

DIPOLE MOMENT
-------------

Method             : SCF
Type of density    : Electron Density
Multiplicity       :   1
Irrep              :   0
Energy             : -2462.5740155618441349 Eh
Relativity type    :
Basis              : AO
                                X                 Y                 Z
Electronic contribution:     40.523605232       8.426685214       9.516381364
Nuclear contribution   :    -40.427724159      -8.355546141      -8.464042650
                        -----------------------------------------
Total Dipole Moment    :      0.095881073       0.071139073       1.052338714
                        -----------------------------------------
Magnitude (a.u.)       :      1.059089569
Magnitude (Debye)      :      2.691991749

Rotational constants in cm-1:             0.003854             0.001347             0.001135
Rotational constants in MHz :           115.547161            40.384942            34.030042

                             ****ORCA TERMINATED NORMALLY****
TOTAL RUN TIME: 0 days 0 hours 15 minutes 11 seconds 701 msec
