                         Program Version 6.0.0  -   RELEASE  -
|  1> ! B3LYP 6-31G* SP
|  2>
|  3> * xyz 0 1
|  4> O 2.9699 1.5034 -1.0030
|  5> C 2.0904 1.3026 -0.1219
|  6> N 2.3591 0.3697 0.9324
|  7> C 2.6897 -1.0126 0.7034
|  8> C 2.9868 -1.8372 1.8007
|  9> C 3.2334 -3.2011 1.6176
| 10> C 3.1810 -3.7569 0.3372
| 11> F 3.4091 -5.0818 0.1627
| 12> C 2.8840 -2.9483 -0.7624
| 13> C 2.6393 -1.5833 -0.5845
| 14> N 0.8217 1.9944 -0.1854
| 15> C 0.7340 3.2707 -0.9103
| 16> C -0.5868 3.3605 -1.6655
| 17> C -1.7349 3.1607 -0.7211
| 18> C -2.9572 3.8103 -0.9564
| 19> C -4.0324 3.6261 -0.0844
| 20> C -3.8989 2.7869 1.0226
| 21> C -2.6930 2.1219 1.2558
| 22> C -1.6030 2.2928 0.3834
| 23> C -0.3186 1.5213 0.6367
| 24> C -0.5708 0.0448 0.3914
| 25> C -0.6146 -0.8545 1.4694
| 26> C -0.7595 -2.2254 1.2424
| 27> C -0.8589 -2.7240 -0.0671
| 28> C -1.0227 -4.2030 -0.3083
| 29> F -2.3652 -4.5277 -0.2546
| 30> F -0.3428 -4.9303 0.6534
| 31> F -0.5219 -4.5557 -1.5496
| 32> C -0.8815 -1.8181 -1.1410
| 33> C -0.7331 -0.4473 -0.9144
| 34> H 2.1648 0.6804 1.9109
| 35> H 3.0138 -1.4242 2.8012
| 36> H 3.4570 -3.8281 2.4711
| 37> H 2.8316 -3.3806 -1.7533
| 38> H 2.3818 -0.9889 -1.4502
| 39> H 0.8097 4.1087 -0.1834
| 40> H 1.5605 3.3815 -1.6442
| 41> H -0.6518 4.3576 -2.1536
| 42> H -0.6223 2.5819 -2.4568
| 43> H -3.0760 4.4633 -1.8122
| 44> H -4.9702 4.1345 -0.2673
| 45> H -4.7333 2.6457 1.6974
| 46> H -2.6094 1.4646 2.1125
| 47> H -0.0475 1.6830 1.7037
| 48> H -0.5103 -0.4980 2.4865
| 49> H -0.7800 -2.8979 2.0908
| 50> H -0.9987 -2.1707 -2.1579
| 51> H -0.7221 0.2280 -1.7594
| 52> *
| 53>
| 54>                          ****END OF INPUT****

CARTESIAN COORDINATES (ANGSTROEM)
---------------------------------
  O      2.969900    1.503400   -1.003000
  C      2.090400    1.302600   -0.121900
  N      2.359100    0.369700    0.932400
  C      2.689700   -1.012600    0.703400
  C      2.986800   -1.837200    1.800700
  C      3.233400   -3.201100    1.617600
  C      3.181000   -3.756900    0.337200
  F      3.409100   -5.081800    0.162700
  C      2.884000   -2.948300   -0.762400
  C      2.639300   -1.583300   -0.584500
  N      0.821700    1.994400   -0.185400
  C      0.734000    3.270700   -0.910300
  C     -0.586800    3.360500   -1.665500
  C     -1.734900    3.160700   -0.721100
  C     -2.957200    3.810300   -0.956400
  C     -4.032400    3.626100   -0.084400
  C     -3.898900    2.786900    1.022600
  C     -2.693000    2.121900    1.255800
  C     -1.603000    2.292800    0.383400
  C     -0.318600    1.521300    0.636700
  C     -0.570800    0.044800    0.391400
  C     -0.614600   -0.854500    1.469400
  C     -0.759500   -2.225400    1.242400
  C     -0.858900   -2.724000   -0.067100
  C     -1.022700   -4.203000   -0.308300
  F     -2.365200   -4.527700   -0.254600
  F     -0.342800   -4.930300    0.653400
  F     -0.521900   -4.555700   -1.549600
  C     -0.881500   -1.818100   -1.141000
  C     -0.733100   -0.447300   -0.914400
  H      2.164800    0.680400    1.910900
  H      3.013800   -1.424200    2.801200
  H      3.457000   -3.828100    2.471100
  H      2.831600   -3.380600   -1.753300
  H      2.381800   -0.988900   -1.450200
  H      0.809700    4.108700   -0.183400
  H      1.560500    3.381500   -1.644200
  H     -0.651800    4.357600   -2.153600
  H     -0.622300    2.581900   -2.456800
  H     -3.076000    4.463300   -1.812200
  H     -4.970200    4.134500   -0.267300
  H     -4.733300    2.645700    1.697400
  H     -2.609400    1.464600    2.112500
  H     -0.047500    1.683000    1.703700
  H     -0.510300   -0.498000    2.486500
  H     -0.780000   -2.897900    2.090800
  H     -0.998700   -2.170700   -2.157900
  H     -0.722100    0.228000   -1.759400

 Total Charge           Charge          ....    0
 Multiplicity           Mult            ....    1
 Number of Electrons    NEL             ....  214
 Basis Dimension        Dim             ....  456

ORBITAL ENERGIES
----------------

  NO   OCC          E(Eh)            E(eV)
   0   2.0000     -24.714506      -672.5159
   1   2.0000     -24.713429      -672.4866
   2   2.0000     -24.711066      -672.4223
   3   2.0000     -24.684588      -671.7018
   4   2.0000     -19.112293      -520.0719
   5   2.0000     -14.366814      -390.9409
   6   2.0000     -14.362202      -390.8154
   7   2.0000     -10.429379      -283.7978
   8   2.0000     -10.320714      -280.8409
   9   2.0000     -10.254373      -279.0357
  10   2.0000     -10.248063      -278.8640
  11   2.0000     -10.232423      -278.4384
  12   2.0000     -10.222339      -278.1640
  13   2.0000     -10.209887      -277.8251
  14   2.0000     -10.209727      -277.8208
  15   2.0000     -10.206034      -277.7203
  16   2.0000     -10.201889      -277.6075
  17   2.0000     -10.201221      -277.5893
  18   2.0000     -10.200348      -277.5656
  19   2.0000     -10.198823      -277.5241
  20   2.0000     -10.196625      -277.4643
  21   2.0000     -10.195187      -277.4252
  22   2.0000     -10.193641      -277.3831
  23   2.0000     -10.190167      -277.2886
  24   2.0000     -10.189705      -277.2760
  25   2.0000     -10.189292      -277.2647
  26   2.0000     -10.187591      -277.2185
  27   2.0000     -10.184815      -277.1429
  28   2.0000     -10.182425      -277.0779
  29   2.0000     -10.181394      -277.0498
  30   2.0000      -1.273921       -34.6651
  31   2.0000      -1.199295       -32.6345
  32   2.0000      -1.198481       -32.6123
  33   2.0000      -1.198377       -32.6095
  34   2.0000      -1.024548       -27.8794
  35   2.0000      -0.938102       -25.5271
  36   2.0000      -0.915864       -24.9219
  37   2.0000      -0.871342       -23.7104
  38   2.0000      -0.862194       -23.4615
  39   2.0000      -0.840742       -22.8778
  40   2.0000      -0.809411       -22.0252
  41   2.0000      -0.788854       -21.4658
  42   2.0000      -0.764586       -20.8055
  43   2.0000      -0.759916       -20.6784
  44   2.0000      -0.748189       -20.3593
  45   2.0000      -0.740926       -20.1616
  46   2.0000      -0.729868       -19.8607
  47   2.0000      -0.700319       -19.0566
  48   2.0000      -0.668949       -18.2030
  49   2.0000      -0.650792       -17.7089
  50   2.0000      -0.628808       -17.1107
  51   2.0000      -0.623718       -16.9722
  52   2.0000      -0.616575       -16.7778
  53   2.0000      -0.609467       -16.5845
  54   2.0000      -0.600394       -16.3376
  55   2.0000      -0.581585       -15.8257
  56   2.0000      -0.565154       -15.3786
  57   2.0000      -0.562324       -15.3016
  58   2.0000      -0.559006       -15.2113
  59   2.0000      -0.552127       -15.0242
  60   2.0000      -0.538588       -14.6557
  61   2.0000      -0.531133       -14.4529
  62   2.0000      -0.517548       -14.0832
  63   2.0000      -0.514555       -14.0017
  64   2.0000      -0.499224       -13.5846
  65   2.0000      -0.480083       -13.0637
  66   2.0000      -0.474216       -12.9041
  67   2.0000      -0.468498       -12.7485
  68   2.0000      -0.465461       -12.6658
  69   2.0000      -0.459821       -12.5124
  70   2.0000      -0.447401       -12.1744
  71   2.0000      -0.444825       -12.1043
  72   2.0000      -0.443604       -12.0711
  73   2.0000      -0.442054       -12.0289
  74   2.0000      -0.441389       -12.0108
  75   2.0000      -0.439857       -11.9691
  76   2.0000      -0.436226       -11.8703
  77   2.0000      -0.424789       -11.5591
  78   2.0000      -0.423527       -11.5248
  79   2.0000      -0.416097       -11.3226
  80   2.0000      -0.412586       -11.2270
  81   2.0000      -0.411600       -11.2002
  82   2.0000      -0.408222       -11.1083
  83   2.0000      -0.403882       -10.9902
  84   2.0000      -0.397913       -10.8278
  85   2.0000      -0.392650       -10.6846
  86   2.0000      -0.389628       -10.6023
  87   2.0000      -0.386685       -10.5222
  88   2.0000      -0.384575       -10.4648
  89   2.0000      -0.380064       -10.3421
  90   2.0000      -0.366737        -9.9794
  91   2.0000      -0.360637        -9.8134
  92   2.0000      -0.358685        -9.7603
  93   2.0000      -0.355475        -9.6730
  94   2.0000      -0.350337        -9.5331
  95   2.0000      -0.340314        -9.2604
  96   2.0000      -0.336748        -9.1634
  97   2.0000      -0.333497        -9.0749
  98   2.0000      -0.298901        -8.1335
  99   2.0000      -0.272073        -7.4035
 100   2.0000      -0.266579        -7.2540
 101   2.0000      -0.256049        -6.9675
 102   2.0000      -0.251345        -6.8394
 103   2.0000      -0.246668        -6.7122
 104   2.0000      -0.243055        -6.6139
 105   2.0000      -0.236152        -6.4260
 106   2.0000      -0.201860        -5.4929
 107   0.0000      -0.032486        -0.8840
 108   0.0000      -0.023117        -0.6291
 109   0.0000      -0.011093        -0.3019
 110   0.0000      -0.005089        -0.1385
 111   0.0000      -0.003293        -0.0896

MULLIKEN ATOMIC CHARGES
-----------------------
   0 O :   -0.467618
   1 C :    0.654018
   2 N :   -0.710748
   3 C :    0.356515
   4 C :   -0.181216
   5 C :   -0.209989
   6 C :    0.406363
   7 F :   -0.322829
   8 C :   -0.218368
   9 C :   -0.149077
  10 N :   -0.454950
  11 C :   -0.132588
  12 C :   -0.355257
  13 C :    0.112737
  14 C :   -0.185034
  15 C :   -0.121468
  16 C :   -0.127840
  17 C :   -0.172668
  18 C :    0.098500
  19 C :   -0.096811
  20 C :    0.189907
  21 C :   -0.186207
  22 C :   -0.150053
  23 C :   -0.007679
  24 C :    0.895484
  25 F :   -0.298543
  26 F :   -0.303710
  27 F :   -0.305968
  28 C :   -0.157229
  29 C :   -0.167239
  30 H :    0.324966
  31 H :    0.122905
  32 H :    0.141602
  33 H :    0.147099
  34 H :    0.156671
  35 H :    0.143912
  36 H :    0.190642
  37 H :    0.150262
  38 H :    0.165966
  39 H :    0.128398
  40 H :    0.131189
  41 H :    0.132345
  42 H :    0.127365
  43 H :    0.135272
  44 H :    0.123725
  45 H :    0.151479
  46 H :    0.152432
  47 H :    0.143330
Sum of atomic charges:    0.0000000

LOEWDIN ATOMIC CHARGES
----------------------
   0 O :   -0.282564
   1 C :    0.161103
   2 N :   -0.229646
   3 C :    0.045287
   4 C :   -0.152971
   5 C :   -0.153563
   6 C :    0.099998
   7 F :   -0.108691
   8 C :   -0.149715
   9 C :   -0.136512
  10 N :   -0.113738
  11 C :   -0.145646
  12 C :   -0.228774
  13 C :   -0.024984
  14 C :   -0.130443
  15 C :   -0.125354
  16 C :   -0.129011
  17 C :   -0.123746
  18 C :   -0.024664
  19 C :   -0.040398
  20 C :   -0.003510
  21 C :   -0.134358
  22 C :   -0.105097
  23 C :   -0.067351
  24 C :    0.309969
  25 F :   -0.115145
  26 F :   -0.112105
  27 F :   -0.113406
  28 C :   -0.107559
  29 C :   -0.122251
  30 H :    0.253744
  31 H :    0.129635
  32 H :    0.142588
  33 H :    0.145008
  34 H :    0.147633
  35 H :    0.117396
  36 H :    0.152347
  37 H :    0.134051
  38 H :    0.135459
  39 H :    0.132296
  40 H :    0.133193
  41 H :    0.133979
  42 H :    0.132065
  43 H :    0.120615
  44 H :    0.128945
  45 H :    0.143564
  46 H :    0.143691
  47 H :    0.138640

  Mayer bond orders larger than 0.100000
B(  0-O ,  1-C ) :   1.8176 B(  1-C ,  2-N ) :   0.9812 B(  1-C , 10-N ) :   1.0619
B(  2-N ,  3-C ) :   0.8976 B(  2-N , 30-H ) :   0.8258 B(  3-C ,  4-C ) :   1.3928
B(  3-C ,  9-C ) :   1.4137 B(  4-C ,  5-C ) :   1.4322 B(  4-C , 31-H ) :   0.9251
B(  5-C ,  6-C ) :   1.3970 B(  5-C , 32-H ) :   0.9210 B(  6-C ,  7-F ) :   0.9108
B(  6-C ,  8-C ) :   1.3866 B(  8-C ,  9-C ) :   1.4241 B(  8-C , 33-H ) :   0.9206
B(  9-C , 34-H ) :   0.9060 B( 10-N , 11-C ) :   0.9275 B( 10-N , 19-C ) :   0.8880
B( 11-C , 12-C ) :   0.9918 B( 11-C , 35-H ) :   0.9290 B( 11-C , 36-H ) :   0.9133
B( 12-C , 13-C ) :   0.9858 B( 12-C , 37-H ) :   0.9298 B( 12-C , 38-H ) :   0.9144
B( 13-C , 14-C ) :   1.4096 B( 13-C , 18-C ) :   1.4420 B( 14-C , 15-C ) :   1.4480
B( 14-C , 39-H ) :   0.9247 B( 15-C , 16-C ) :   1.4389 B( 15-C , 40-H ) :   0.9291
B( 16-C , 17-C ) :   1.4505 B( 16-C , 41-H ) :   0.9293 B( 17-C , 18-C ) :   1.3965
B( 17-C , 42-H ) :   0.9218 B( 18-C , 19-C ) :   0.9669 B( 19-C , 20-C ) :   0.9479
B( 19-C , 43-H ) :   0.9123 B( 20-C , 21-C ) :   1.4115 B( 20-C , 29-C ) :   1.4164
B( 21-C , 22-C ) :   1.4192 B( 21-C , 44-H ) :   0.9247 B( 22-C , 23-C ) :   1.4164
B( 22-C , 45-H ) :   0.9192 B( 23-C , 24-C ) :   0.9803 B( 23-C , 28-C ) :   1.4025
B( 24-C , 25-F ) :   0.9837 B( 24-C , 26-F ) :   0.9493 B( 24-C , 27-F ) :   0.9466
B( 28-C , 29-C ) :   1.4298 B( 28-C , 46-H ) :   0.9200 B( 29-C , 47-H ) :   0.9157

FINAL SINGLE POINT ENERGY     -1470.555853487925

DIPOLE MOMENT
-------------

Method             : SCF
Type of density    : Electron Density
Multiplicity       :   1
Irrep              :   0
Energy             : -1470.5558534879253330 Eh
Relativity type    :
Basis              : AO
                                X                 Y                 Z
Electronic contribution:      3.881793488     -38.652477931      -1.217584918
Nuclear contribution   :     -5.238401842      40.379324564       2.158951357
                        -----------------------------------------
Total Dipole Moment    :     -1.356608354       1.726846633       0.941366440
                        -----------------------------------------
Magnitude (a.u.)       :      2.389258524
Magnitude (Debye)      :      6.073012538

Rotational constants in cm-1:             0.008396             0.003742             0.002956
Rotational constants in MHz :           251.692034           112.179386            88.616390

                             ****ORCA TERMINATED NORMALLY****
TOTAL RUN TIME: 0 days 0 hours 5 minutes 44 seconds 51 msec
