                         Program Version 6.0.0  -   RELEASE  -
|  1> ! B3LYP 6-31G* SP
|  2>
|  3> * xyz 0 1
|  4> C -1.6822 -0.5280 2.0628
|  5> N -1.3096 -0.8926 0.6903
|  6> C -0.3912 -1.9836 0.4969
|  7> O -0.6847 -2.9053 -0.3126
|  8> C 0.8909 -2.0501 1.2345
|  9> C 1.3627 -3.2959 1.6817
| 10> C 2.5773 -3.3903 2.3626
| 11> C 3.3382 -2.2455 2.5956
| 12> C 2.8926 -1.0028 2.1414
| 13> C 1.6709 -0.8917 1.4470
| 14> O 1.2126 0.3389 0.9438
| 15> C 1.9575 1.5558 0.9137
| 16> C 3.0655 1.4698 -0.1000
| 17> C 2.7728 1.1266 -1.4304
| 18> C 3.7969 1.0475 -2.3789
| 19> C 5.1173 1.3164 -2.0079
| 20> C 5.4150 1.6676 -0.6883
| 21> C 4.3936 1.7481 0.2636
| 22> C -2.0034 -0.3163 -0.4772
| 23> C -1.9097 1.2359 -0.4923
| 24> C -3.2691 1.9261 -0.3144
| 25> C -4.2992 1.4485 -1.3530
| 26> C -4.2384 -0.0784 -1.6401
| 27> N -5.5803 -0.6491 -1.7744
| 28> C -3.4515 -0.8430 -0.5633
| 29> H -2.0325 -1.4299 2.6077
| 30> H -0.8108 -0.0982 2.5970
| 31> H -2.4973 0.2218 2.0777
| 32> H 0.7834 -4.1957 1.5135
| 33> H 2.9286 -4.3529 2.7112
| 34> H 4.2790 -2.3215 3.1256
| 35> H 3.5092 -0.1374 2.3340
| 36> H 2.3324 1.8027 1.9301
| 37> H 1.2741 2.3774 0.6136
| 38> H 1.7528 0.9175 -1.7300
| 39> H 3.5669 0.7785 -3.4018
| 40> H 5.9091 1.2549 -2.7432
| 41> H 6.4375 1.8786 -0.4029
| 42> H 4.6396 2.0234 1.2815
| 43> H -1.4856 -0.6622 -1.4021
| 44> H -1.4796 1.5666 -1.4638
| 45> H -1.2160 1.5992 0.2957
| 46> H -3.6577 1.7257 0.7066
| 47> H -3.1385 3.0261 -0.4055
| 48> H -4.1295 1.9966 -2.3057
| 49> H -5.3086 1.7427 -0.9912
| 50> H -3.7065 -0.2287 -2.6072
| 51> H -6.0788 -0.1517 -2.5481
| 52> H -6.1188 -0.4795 -0.8933
| 53> H -3.4307 -1.9258 -0.8163
| 54> H -3.9666 -0.7371 0.4160
| 55> *
| 56>
| 57>                          ****END OF INPUT****

CARTESIAN COORDINATES (ANGSTROEM)
---------------------------------
  C     -1.682200   -0.528000    2.062800
  N     -1.309600   -0.892600    0.690300
  C     -0.391200   -1.983600    0.496900
  O     -0.684700   -2.905300   -0.312600
  C      0.890900   -2.050100    1.234500
  C      1.362700   -3.295900    1.681700
  C      2.577300   -3.390300    2.362600
  C      3.338200   -2.245500    2.595600
  C      2.892600   -1.002800    2.141400
  C      1.670900   -0.891700    1.447000
  O      1.212600    0.338900    0.943800
  C      1.957500    1.555800    0.913700
  C      3.065500    1.469800   -0.100000
  C      2.772800    1.126600   -1.430400
  C      3.796900    1.047500   -2.378900
  C      5.117300    1.316400   -2.007900
  C      5.415000    1.667600   -0.688300
  C      4.393600    1.748100    0.263600
  C     -2.003400   -0.316300   -0.477200
  C     -1.909700    1.235900   -0.492300
  C     -3.269100    1.926100   -0.314400
  C     -4.299200    1.448500   -1.353000
  C     -4.238400   -0.078400   -1.640100
  N     -5.580300   -0.649100   -1.774400
  C     -3.451500   -0.843000   -0.563300
  H     -2.032500   -1.429900    2.607700
  H     -0.810800   -0.098200    2.597000
  H     -2.497300    0.221800    2.077700
  H      0.783400   -4.195700    1.513500
  H      2.928600   -4.352900    2.711200
  H      4.279000   -2.321500    3.125600
  H      3.509200   -0.137400    2.334000
  H      2.332400    1.802700    1.930100
  H      1.274100    2.377400    0.613600
  H      1.752800    0.917500   -1.730000
  H      3.566900    0.778500   -3.401800
  H      5.909100    1.254900   -2.743200
  H      6.437500    1.878600   -0.402900
  H      4.639600    2.023400    1.281500
  H     -1.485600   -0.662200   -1.402100
  H     -1.479600    1.566600   -1.463800
  H     -1.216000    1.599200    0.295700
  H     -3.657700    1.725700    0.706600
  H     -3.138500    3.026100   -0.405500
  H     -4.129500    1.996600   -2.305700
  H     -5.308600    1.742700   -0.991200
  H     -3.706500   -0.228700   -2.607200
  H     -6.078800   -0.151700   -2.548100
  H     -6.118800   -0.479500   -0.893300
  H     -3.430700   -1.925800   -0.816300
  H     -3.966600   -0.737100    0.416000

 Total Charge           Charge          ....    0
 Multiplicity           Mult            ....    1
 Number of Electrons    NEL             ....  182
 Basis Dimension        Dim             ....  402

ORBITAL ENERGIES
----------------

  NO   OCC          E(Eh)            E(eV)
   0   2.0000     -19.169772      -521.6360
   1   2.0000     -19.099481      -519.7233
   2   2.0000     -14.322264      -389.7286
   3   2.0000     -14.294522      -388.9737
   4   2.0000     -10.271820      -279.5104
   5   2.0000     -10.255098      -279.0554
   6   2.0000     -10.246752      -278.8283
   7   2.0000     -10.205661      -277.7101
   8   2.0000     -10.202304      -277.6188
   9   2.0000     -10.195255      -277.4270
  10   2.0000     -10.193544      -277.3804
  11   2.0000     -10.191560      -277.3264
  12   2.0000     -10.187370      -277.2124
  13   2.0000     -10.187344      -277.2117
  14   2.0000     -10.185363      -277.1578
  15   2.0000     -10.185154      -277.1521
  16   2.0000     -10.184477      -277.1337
  17   2.0000     -10.184048      -277.1220
  18   2.0000     -10.183990      -277.1204
  19   2.0000     -10.183757      -277.1141
  20   2.0000     -10.176368      -276.9130
  21   2.0000     -10.171827      -276.7895
  22   2.0000     -10.169777      -276.7337
  23   2.0000     -10.166040      -276.6320
  24   2.0000     -10.157630      -276.4032
  25   2.0000      -1.049465       -28.5574
  26   2.0000      -0.996143       -27.1064
  27   2.0000      -0.896589       -24.3974
  28   2.0000      -0.868856       -23.6428
  29   2.0000      -0.856706       -23.3122
  30   2.0000      -0.848712       -23.0946
  31   2.0000      -0.794765       -21.6267
  32   2.0000      -0.777842       -21.1662
  33   2.0000      -0.754989       -20.5443
  34   2.0000      -0.745339       -20.2817
  35   2.0000      -0.739151       -20.1133
  36   2.0000      -0.727867       -19.8063
  37   2.0000      -0.702670       -19.1206
  38   2.0000      -0.685239       -18.6463
  39   2.0000      -0.675996       -18.3948
  40   2.0000      -0.632937       -17.2231
  41   2.0000      -0.609288       -16.5796
  42   2.0000      -0.605094       -16.4654
  43   2.0000      -0.603200       -16.4139
  44   2.0000      -0.588729       -16.0201
  45   2.0000      -0.578951       -15.7541
  46   2.0000      -0.545138       -14.8340
  47   2.0000      -0.526493       -14.3266
  48   2.0000      -0.517978       -14.0949
  49   2.0000      -0.511834       -13.9277
  50   2.0000      -0.497448       -13.5363
  51   2.0000      -0.483471       -13.1559
  52   2.0000      -0.476718       -12.9722
  53   2.0000      -0.470912       -12.8142
  54   2.0000      -0.467742       -12.7279
  55   2.0000      -0.459776       -12.5111
  56   2.0000      -0.452095       -12.3021
  57   2.0000      -0.446800       -12.1581
  58   2.0000      -0.437986       -11.9182
  59   2.0000      -0.431766       -11.7489
  60   2.0000      -0.429908       -11.6984
  61   2.0000      -0.424128       -11.5411
  62   2.0000      -0.420471       -11.4416
  63   2.0000      -0.416885       -11.3440
  64   2.0000      -0.402281       -10.9466
  65   2.0000      -0.395899       -10.7729
  66   2.0000      -0.390485       -10.6256
  67   2.0000      -0.384551       -10.4642
  68   2.0000      -0.380364       -10.3502
  69   2.0000      -0.374300       -10.1852
  70   2.0000      -0.370196       -10.0736
  71   2.0000      -0.364109        -9.9079
  72   2.0000      -0.361486        -9.8365
  73   2.0000      -0.358362        -9.7515
  74   2.0000      -0.352767        -9.5993
  75   2.0000      -0.348860        -9.4930
  76   2.0000      -0.345824        -9.4104
  77   2.0000      -0.338604        -9.2139
  78   2.0000      -0.332505        -9.0479
  79   2.0000      -0.315470        -8.5844
  80   2.0000      -0.313434        -8.5290
  81   2.0000      -0.312537        -8.5046
  82   2.0000      -0.300356        -8.1731
  83   2.0000      -0.294482        -8.0133
  84   2.0000      -0.254458        -6.9241
  85   2.0000      -0.250603        -6.8192
  86   2.0000      -0.245858        -6.6901
  87   2.0000      -0.232026        -6.3138
  88   2.0000      -0.221674        -6.0321
  89   2.0000      -0.215146        -5.8544
  90   2.0000      -0.197104        -5.3635
  91   0.0000      -0.032839        -0.8936
  92   0.0000      -0.009318        -0.2535
  93   0.0000      -0.002930        -0.0797
  94   0.0000       0.007935         0.2159
  95   0.0000       0.045985         1.2513

MULLIKEN ATOMIC CHARGES
-----------------------
   0 C :   -0.318833
   1 N :   -0.400162
   2 C :    0.434577
   3 O :   -0.461841
   4 C :    0.035761
   5 C :   -0.148650
   6 C :   -0.137272
   7 C :   -0.115634
   8 C :   -0.193620
   9 C :    0.334651
  10 O :   -0.513845
  11 C :   -0.113133
  12 C :    0.129457
  13 C :   -0.158083
  14 C :   -0.125273
  15 C :   -0.123105
  16 C :   -0.125704
  17 C :   -0.175518
  18 C :    0.046169
  19 C :   -0.289592
  20 C :   -0.262693
  21 C :   -0.272627
  22 C :    0.033189
  23 N :   -0.702599
  24 C :   -0.262264
  25 H :    0.154819
  26 H :    0.156783
  27 H :    0.157106
  28 H :    0.156857
  29 H :    0.129035
  30 H :    0.133221
  31 H :    0.133486
  32 H :    0.138218
  33 H :    0.165928
  34 H :    0.142556
  35 H :    0.133962
  36 H :    0.130436
  37 H :    0.129227
  38 H :    0.122852
  39 H :    0.149397
  40 H :    0.128084
  41 H :    0.152898
  42 H :    0.126316
  43 H :    0.126233
  44 H :    0.123219
  45 H :    0.118079
  46 H :    0.126061
  47 H :    0.284662
  48 H :    0.281306
  49 H :    0.174972
  50 H :    0.110929
Sum of atomic charges:    0.0000000

LOEWDIN ATOMIC CHARGES
----------------------
   0 C :   -0.272794
   1 N :   -0.120431
   2 C :    0.145733
   3 O :   -0.269528
   4 C :   -0.071699
   5 C :   -0.090213
   6 C :   -0.147796
   7 C :   -0.111543
   8 C :   -0.169478
   9 C :    0.102988
  10 O :   -0.176628
  11 C :   -0.084425
  12 C :   -0.042056
  13 C :   -0.119755
  14 C :   -0.123613
  15 C :   -0.126913
  16 C :   -0.127675
  17 C :   -0.135787
  18 C :   -0.047706
  19 C :   -0.238446
  20 C :   -0.233731
  21 C :   -0.248188
  22 C :   -0.082671
  23 N :   -0.460402
  24 C :   -0.232861
  25 H :    0.121918
  26 H :    0.123711
  27 H :    0.130612
  28 H :    0.149080
  29 H :    0.132509
  30 H :    0.134191
  31 H :    0.135975
  32 H :    0.114824
  33 H :    0.137159
  34 H :    0.137864
  35 H :    0.133990
  36 H :    0.132448
  37 H :    0.131793
  38 H :    0.127644
  39 H :    0.133460
  40 H :    0.117634
  41 H :    0.129405
  42 H :    0.109795
  43 H :    0.118860
  44 H :    0.114922
  45 H :    0.113768
  46 H :    0.115571
  47 H :    0.218435
  48 H :    0.215878
  49 H :    0.144178
  50 H :    0.109991

  Mayer bond orders larger than 0.100000
B(  0-C ,  1-N ) :   0.9572 B(  0-C , 25-H ) :   0.9411 B(  0-C , 26-H ) :   0.9277
B(  0-C , 27-H ) :   0.9391 B(  1-N ,  2-C ) :   1.0604 B(  1-N , 18-C ) :   0.9424
B(  2-C ,  3-O ) :   1.8242 B(  2-C ,  4-C ) :   0.9537 B(  4-C ,  5-C ) :   1.4125
B(  4-C ,  9-C ) :   1.3498 B(  5-C ,  6-C ) :   1.4387 B(  5-C , 28-H ) :   0.9167
B(  6-C ,  7-C ) :   1.4387 B(  6-C , 29-H ) :   0.9299 B(  7-C ,  8-C ) :   1.4486
B(  7-C , 30-H ) :   0.9295 B(  8-C ,  9-C ) :   1.3585 B(  8-C , 31-H ) :   0.9138
B(  9-C , 10-O ) :   0.9067 B( 10-O , 11-C ) :   0.9056 B( 11-C , 12-C ) :   0.9646
B( 11-C , 32-H ) :   0.9203 B( 11-C , 33-H ) :   0.9227 B( 12-C , 13-C ) :   1.4234
B( 12-C , 17-C ) :   1.4364 B( 13-C , 14-C ) :   1.4482 B( 13-C , 34-H ) :   0.9219
B( 14-C , 15-C ) :   1.4453 B( 14-C , 35-H ) :   0.9293 B( 15-C , 16-C ) :   1.4611
B( 15-C , 36-H ) :   0.9301 B( 16-C , 17-C ) :   1.4368 B( 16-C , 37-H ) :   0.9294
B( 17-C , 38-H ) :   0.9235 B( 18-C , 19-C ) :   0.9628 B( 18-C , 24-C ) :   0.9893
B( 18-C , 39-H ) :   0.9268 B( 19-C , 20-C ) :   1.0087 B( 19-C , 40-H ) :   0.9440
B( 19-C , 41-H ) :   0.9318 B( 20-C , 21-C ) :   1.0014 B( 20-C , 42-H ) :   0.9382
B( 20-C , 43-H ) :   0.9410 B( 21-C , 22-C ) :   0.9639 B( 21-C , 44-H ) :   0.9445
B( 21-C , 45-H ) :   0.9432 B( 22-C , 23-N ) :   0.9996 B( 22-C , 24-C ) :   0.9987
B( 22-C , 46-H ) :   0.9316 B( 23-N , 47-H ) :   0.8660 B( 23-N , 48-H ) :   0.8617
B( 24-C , 49-H ) :   0.9235 B( 24-C , 50-H ) :   0.9313

FINAL SINGLE POINT ENERGY     -1075.111424810779

DIPOLE MOMENT
-------------

Method             : SCF
Type of density    : Electron Density
Multiplicity       :   1
Irrep              :   0
Energy             : -1075.1114248107787716 Eh
Relativity type    :
Basis              : AO
                                X                 Y                 Z
Electronic contribution:     20.068066157      -9.888777290       3.266950042
Nuclear contribution   :    -19.363720196      11.640883080      -2.452564656
                        -----------------------------------------
Total Dipole Moment    :      0.704345961       1.752105790       0.814385386
                        -----------------------------------------
Magnitude (a.u.)       :      2.056502246
Magnitude (Debye)      :      5.227213297

Rotational constants in cm-1:             0.010453             0.004497             0.003597
Rotational constants in MHz :           313.358377           134.831190           107.849135

                             ****ORCA TERMINATED NORMALLY****
TOTAL RUN TIME: 0 days 0 hours 5 minutes 21 seconds 201 msec
