                         Program Version 6.0.0  -   RELEASE  -
|  1> ! B3LYP 6-31G* SP
|  2>
|  3> * xyz 0 1
|  4> O 1.8467 -4.4917 -3.0581
|  5> C 0.7132 -4.5560 -2.5101
|  6> O 0.1346 -5.8025 -2.2864
|  7> C 0.0054 -3.3215 -2.1073
|  8> C 0.5440 -2.0568 -2.4050
|  9> C -0.1241 -0.8935 -2.0141
| 10> C -1.3326 -0.9731 -1.3116
| 11> S -2.1237 0.5020 -0.7602
| 12> O -2.4471 1.3574 -1.9533
| 13> O -3.4076 0.1766 -0.0486
| 14> N -1.0827 1.3729 0.3265
| 15> C -0.7557 0.8128 1.6418
| 16> C 0.1602 -0.3739 1.5019
| 17> C -0.2857 -1.6621 1.8368
| 18> C 0.5493 -2.7686 1.6566
| 19> C 1.8479 -2.6017 1.1376
| 20> O 2.7241 -3.6781 0.9246
| 21> C 2.4422 -5.0424 1.2311
| 22> F 3.5391 -5.8127 0.8958
| 23> F 1.3508 -5.4811 0.5033
| 24> F 2.1929 -5.1853 2.5843
| 25> C 2.2928 -1.3136 0.8168
| 26> C 1.4605 -0.2064 1.0021
| 27> C -0.4437 2.5745 -0.1268
| 28> N 0.4872 2.4905 -1.1128
| 29> C 1.1539 3.5759 -1.5784
| 30> C 0.9023 4.8419 -1.0477
| 31> Cl 1.8136 6.2070 -1.6881
| 32> C -0.0674 4.9831 -0.0335
| 33> C -0.3731 6.2409 0.5230
| 34> C -1.3530 6.3586 1.5107
| 35> C -2.0445 5.2315 1.9522
| 36> C -1.7557 3.9755 1.4165
| 37> C -0.7594 3.8330 0.4308
| 38> C -1.8809 -2.2301 -1.0235
| 39> C -1.2170 -3.3962 -1.4174
| 40> H 0.6148 -6.6537 -2.5519
| 41> H 1.4827 -1.9657 -2.9376
| 42> H 0.3093 0.0687 -2.2499
| 43> H -1.6964 0.5317 2.1627
| 44> H -0.2538 1.5762 2.2760
| 45> H -1.2878 -1.8144 2.2188
| 46> H 0.1690 -3.7469 1.9141
| 47> H 3.2893 -1.1706 0.4181
| 48> H 1.8250 0.7796 0.7433
| 49> H 1.8890 3.4499 -2.3626
| 50> H 0.1348 7.1398 0.1989
| 51> H -1.5826 7.3301 1.9300
| 52> H -2.8101 5.3317 2.7110
| 53> H -2.3216 3.1242 1.7710
| 54> H -2.8124 -2.3129 -0.4799
| 55> H -1.6561 -4.3549 -1.1717
| 56> *
| 57>
| 58>                          ****END OF INPUT****

CARTESIAN COORDINATES (ANGSTROEM)
---------------------------------
  O      1.846700   -4.491700   -3.058100
  C      0.713200   -4.556000   -2.510100
  O      0.134600   -5.802500   -2.286400
  C      0.005400   -3.321500   -2.107300
  C      0.544000   -2.056800   -2.405000
  C     -0.124100   -0.893500   -2.014100
  C     -1.332600   -0.973100   -1.311600
  S     -2.123700    0.502000   -0.760200
  O     -2.447100    1.357400   -1.953300
  O     -3.407600    0.176600   -0.048600
  N     -1.082700    1.372900    0.326500
  C     -0.755700    0.812800    1.641800
  C      0.160200   -0.373900    1.501900
  C     -0.285700   -1.662100    1.836800
  C      0.549300   -2.768600    1.656600
  C      1.847900   -2.601700    1.137600
  O      2.724100   -3.678100    0.924600
  C      2.442200   -5.042400    1.231100
  F      3.539100   -5.812700    0.895800
  F      1.350800   -5.481100    0.503300
  F      2.192900   -5.185300    2.584300
  C      2.292800   -1.313600    0.816800
  C      1.460500   -0.206400    1.002100
  C     -0.443700    2.574500   -0.126800
  N      0.487200    2.490500   -1.112800
  C      1.153900    3.575900   -1.578400
  C      0.902300    4.841900   -1.047700
  Cl     1.813600    6.207000   -1.688100
  C     -0.067400    4.983100   -0.033500
  C     -0.373100    6.240900    0.523000
  C     -1.353000    6.358600    1.510700
  C     -2.044500    5.231500    1.952200
  C     -1.755700    3.975500    1.416500
  C     -0.759400    3.833000    0.430800
  C     -1.880900   -2.230100   -1.023500
  C     -1.217000   -3.396200   -1.417400
  H      0.614800   -6.653700   -2.551900
  H      1.482700   -1.965700   -2.937600
  H      0.309300    0.068700   -2.249900
  H     -1.696400    0.531700    2.162700
  H     -0.253800    1.576200    2.276000
  H     -1.287800   -1.814400    2.218800
  H      0.169000   -3.746900    1.914100
  H      3.289300   -1.170600    0.418100
  H      1.825000    0.779600    0.743300
  H      1.889000    3.449900   -2.362600
  H      0.134800    7.139800    0.198900
  H     -1.582600    7.330100    1.930000
  H     -2.810100    5.331700    2.711000
  H     -2.321600    3.124200    1.771000
  H     -2.812400   -2.312900   -0.479900
  H     -1.656100   -4.354900   -1.171700

 Total Charge           Charge          ....    0
 Multiplicity           Mult            ....    1
 Number of Electrons    NEL             ....  274
 Basis Dimension        Dim             ....  544

ORBITAL ENERGIES
----------------

  NO   OCC          E(Eh)            E(eV)
   0   2.0000    -101.543873     -2763.1493
   1   2.0000     -89.101955     -2424.5875
   2   2.0000     -24.745225      -673.3518
   3   2.0000     -24.744303      -673.3267
   4   2.0000     -24.743012      -673.2916
   5   2.0000     -19.217004      -522.9213
   6   2.0000     -19.191421      -522.2251
   7   2.0000     -19.133105      -520.6382
   8   2.0000     -19.131230      -520.5872
   9   2.0000     -19.127377      -520.4824
  10   2.0000     -14.383115      -391.3845
  11   2.0000     -14.350307      -390.4917
  12   2.0000     -10.507986      -285.9368
  13   2.0000     -10.330200      -281.0990
  14   2.0000     -10.282921      -279.8125
  15   2.0000     -10.274013      -279.5701
  16   2.0000     -10.262302      -279.2514
  17   2.0000     -10.244967      -278.7797
  18   2.0000     -10.238233      -278.5965
  19   2.0000     -10.237994      -278.5900
  20   2.0000     -10.226331      -278.2726
  21   2.0000     -10.226039      -278.2647
  22   2.0000     -10.220914      -278.1252
  23   2.0000     -10.214762      -277.9578
  24   2.0000     -10.212095      -277.8852
  25   2.0000     -10.211423      -277.8669
  26   2.0000     -10.210940      -277.8538
  27   2.0000     -10.206834      -277.7421
  28   2.0000     -10.206680      -277.7379
  29   2.0000     -10.204937      -277.6904
  30   2.0000     -10.204863      -277.6884
  31   2.0000     -10.203661      -277.6557
  32   2.0000     -10.202364      -277.6204
  33   2.0000     -10.202054      -277.6120
  34   2.0000     -10.201640      -277.6008
  35   2.0000     -10.200790      -277.5776
  36   2.0000      -9.475244      -257.8345
  37   2.0000      -8.137495      -221.4325
  38   2.0000      -7.238376      -196.9662
  39   2.0000      -7.228882      -196.7079
  40   2.0000      -7.228506      -196.6976
  41   2.0000      -6.102847      -166.0669
  42   2.0000      -6.100399      -166.0003
  43   2.0000      -6.099982      -165.9890
  44   2.0000      -1.308381       -35.6029
  45   2.0000      -1.229841       -33.4657
  46   2.0000      -1.227836       -33.4111
  47   2.0000      -1.087144       -29.5827
  48   2.0000      -1.086776       -29.5727
  49   2.0000      -1.076090       -29.2819
  50   2.0000      -0.990291       -26.9472
  51   2.0000      -0.978836       -26.6355
  52   2.0000      -0.965001       -26.2590
  53   2.0000      -0.930773       -25.3276
  54   2.0000      -0.887025       -24.1372
  55   2.0000      -0.884564       -24.0702
  56   2.0000      -0.871809       -23.7231
  57   2.0000      -0.867422       -23.6037
  58   2.0000      -0.803746       -21.8710
  59   2.0000      -0.796648       -21.6779
  60   2.0000      -0.787854       -21.4386
  61   2.0000      -0.778459       -21.1830
  62   2.0000      -0.770741       -20.9729
  63   2.0000      -0.763959       -20.7884
  64   2.0000      -0.746714       -20.3191
  65   2.0000      -0.731141       -19.8954
  66   2.0000      -0.708486       -19.2789
  67   2.0000      -0.684175       -18.6173
  68   2.0000      -0.664344       -18.0777
  69   2.0000      -0.652401       -17.7527
  70   2.0000      -0.645132       -17.5549
  71   2.0000      -0.636109       -17.3094
  72   2.0000      -0.632285       -17.2053
  73   2.0000      -0.626237       -17.0408
  74   2.0000      -0.609411       -16.5829
  75   2.0000      -0.600650       -16.3445
  76   2.0000      -0.596036       -16.2190
  77   2.0000      -0.588646       -16.0179
  78   2.0000      -0.578721       -15.7478
  79   2.0000      -0.561493       -15.2790
  80   2.0000      -0.548381       -14.9222
  81   2.0000      -0.540905       -14.7188
  82   2.0000      -0.530359       -14.4318
  83   2.0000      -0.517226       -14.0744
  84   2.0000      -0.505521       -13.7559
  85   2.0000      -0.496408       -13.5080
  86   2.0000      -0.489345       -13.3158
  87   2.0000      -0.483477       -13.1561
  88   2.0000      -0.481318       -13.0973
  89   2.0000      -0.477900       -13.0043
  90   2.0000      -0.474221       -12.9042
  91   2.0000      -0.471957       -12.8426
  92   2.0000      -0.465518       -12.6674
  93   2.0000      -0.464763       -12.6468
  94   2.0000      -0.456856       -12.4317
  95   2.0000      -0.455433       -12.3930
  96   2.0000      -0.452663       -12.3176
  97   2.0000      -0.449821       -12.2403
  98   2.0000      -0.442981       -12.0541
  99   2.0000      -0.441602       -12.0166
 100   2.0000      -0.439705       -11.9650
 101   2.0000      -0.437250       -11.8982
 102   2.0000      -0.433973       -11.8090
 103   2.0000      -0.432269       -11.7627
 104   2.0000      -0.430856       -11.7242
 105   2.0000      -0.426500       -11.6057
 106   2.0000      -0.420689       -11.4475
 107   2.0000      -0.417231       -11.3534
 108   2.0000      -0.413399       -11.2492
 109   2.0000      -0.411386       -11.1944
 110   2.0000      -0.394391       -10.7319
 111   2.0000      -0.387647       -10.5484
 112   2.0000      -0.383588       -10.4380
 113   2.0000      -0.381799       -10.3893
 114   2.0000      -0.379814       -10.3353
 115   2.0000      -0.370044       -10.0694
 116   2.0000      -0.367907       -10.0113
 117   2.0000      -0.362996        -9.8776
 118   2.0000      -0.361698        -9.8423
 119   2.0000      -0.352608        -9.5949
 120   2.0000      -0.348684        -9.4882
 121   2.0000      -0.331299        -9.0151
 122   2.0000      -0.329061        -8.9542
 123   2.0000      -0.316863        -8.6223
 124   2.0000      -0.307572        -8.3694
 125   2.0000      -0.302456        -8.2302
 126   2.0000      -0.297869        -8.1054
 127   2.0000      -0.284413        -7.7393
 128   2.0000      -0.283174        -7.7056
 129   2.0000      -0.280592        -7.6353
 130   2.0000      -0.276314        -7.5189
 131   2.0000      -0.272838        -7.4243
 132   2.0000      -0.269609        -7.3364
 133   2.0000      -0.261931        -7.1275
 134   2.0000      -0.257208        -6.9990
 135   2.0000      -0.244306        -6.6479
 136   2.0000      -0.229861        -6.2548
 137   0.0000      -0.081328        -2.2130
 138   0.0000      -0.075135        -2.0445
 139   0.0000      -0.039125        -1.0647
 140   0.0000      -0.034285        -0.9329
 141   0.0000      -0.016955        -0.4614

MULLIKEN ATOMIC CHARGES
-----------------------
   0 O :   -0.446449
   1 C :    0.527617
   2 O :   -0.625537
   3 C :    0.084377
   4 C :   -0.139980
   5 C :   -0.136262
   6 C :   -0.126629
   7 S :    1.201714
   8 O :   -0.527237
   9 O :   -0.540382
  10 N :   -0.616101
  11 C :   -0.261251
  12 C :    0.144236
  13 C :   -0.175257
  14 C :   -0.185344
  15 C :    0.356572
  16 O :   -0.543567
  17 C :    1.088509
  18 F :   -0.277272
  19 F :   -0.289940
  20 F :   -0.291084
  21 C :   -0.172428
  22 C :   -0.152405
  23 C :    0.343045
  24 N :   -0.393132
  25 C :    0.010059
  26 C :   -0.164519
  27 Cl:    0.008323
  28 C :    0.165389
  29 C :   -0.198498
  30 C :   -0.118422
  31 C :   -0.122068
  32 C :   -0.200318
  33 C :    0.144310
  34 C :   -0.145156
  35 C :   -0.144953
  36 H :    0.433099
  37 H :    0.177339
  38 H :    0.197612
  39 H :    0.183741
  40 H :    0.183030
  41 H :    0.146293
  42 H :    0.152617
  43 H :    0.153702
  44 H :    0.149289
  45 H :    0.168992
  46 H :    0.163934
  47 H :    0.145145
  48 H :    0.144558
  49 H :    0.169971
  50 H :    0.181724
  51 H :    0.168993
Sum of atomic charges:   -0.0000000

LOEWDIN ATOMIC CHARGES
----------------------
   0 O :   -0.261747
   1 C :    0.177843
   2 O :   -0.334640
   3 C :   -0.038341
   4 C :   -0.085832
   5 C :   -0.096510
   6 C :   -0.172066
   7 S :    1.270723
   8 O :   -0.559978
   9 O :   -0.573302
  10 N :   -0.280963
  11 C :   -0.150740
  12 C :   -0.050547
  13 C :   -0.122431
  14 C :   -0.157536
  15 C :    0.089578
  16 O :   -0.156745
  17 C :    0.360148
  18 F :   -0.085904
  19 F :   -0.103392
  20 F :   -0.104538
  21 C :   -0.136756
  22 C :   -0.113517
  23 C :    0.067867
  24 N :   -0.131788
  25 C :   -0.083495
  26 C :   -0.092750
  27 Cl:    0.049599
  28 C :   -0.008900
  29 C :   -0.117948
  30 C :   -0.110930
  31 C :   -0.118697
  32 C :   -0.110796
  33 C :   -0.021755
  34 C :   -0.102720
  35 C :   -0.101798
  36 H :    0.349007
  37 H :    0.158949
  38 H :    0.163796
  39 H :    0.140748
  40 H :    0.148696
  41 H :    0.139437
  42 H :    0.142036
  43 H :    0.147419
  44 H :    0.143187
  45 H :    0.146835
  46 H :    0.149303
  47 H :    0.140039
  48 H :    0.139719
  49 H :    0.150914
  50 H :    0.158264
  51 H :    0.152955

  Mayer bond orders larger than 0.100000
B(  0-O ,  1-C ) :   1.8609 B(  1-C ,  2-O ) :   1.0191 B(  1-C ,  3-C ) :   1.0079
B(  2-O , 36-H ) :   0.7425 B(  3-C ,  4-C ) :   1.3964 B(  3-C , 35-C ) :   1.3878
B(  4-C ,  5-C ) :   1.4274 B(  4-C , 37-H ) :   0.9107 B(  5-C ,  6-C ) :   1.3811
B(  5-C , 38-H ) :   0.8892 B(  6-C ,  7-S ) :   0.8152 B(  6-C , 34-C ) :   1.4000
B(  7-S ,  8-O ) :   1.6694 B(  7-S ,  9-O ) :   1.6383 B(  7-S , 10-N ) :   0.7810
B( 10-N , 11-C ) :   0.9124 B( 10-N , 23-C ) :   0.9055 B( 11-C , 12-C ) :   0.9554
B( 11-C , 39-H ) :   0.9184 B( 11-C , 40-H ) :   0.9172 B( 12-C , 13-C ) :   1.4410
B( 12-C , 22-C ) :   1.4167 B( 13-C , 14-C ) :   1.4226 B( 13-C , 41-H ) :   0.9191
B( 14-C , 15-C ) :   1.3990 B( 14-C , 42-H ) :   0.9090 B( 15-C , 16-O ) :   0.8266
B( 15-C , 21-C ) :   1.4067 B( 16-O , 17-C ) :   0.9887 B( 17-C , 18-F ) :   1.0100
B( 17-C , 19-F ) :   0.9595 B( 17-C , 20-F ) :   0.9695 B( 21-C , 22-C ) :   1.4484
B( 21-C , 43-H ) :   0.9175 B( 22-C , 44-H ) :   0.9146 B( 23-C , 24-N ) :   1.4054
B( 23-C , 33-C ) :   1.2498 B( 24-N , 25-C ) :   1.3393 B( 25-C , 26-C ) :   1.4330
B( 25-C , 45-H ) :   0.9228 B( 26-C , 27-Cl) :   1.0389 B( 26-C , 28-C ) :   1.2316
B( 28-C , 29-C ) :   1.3029 B( 28-C , 33-C ) :   1.2845 B( 29-C , 30-C ) :   1.5083
B( 29-C , 32-C ) :   0.1050 B( 29-C , 46-H ) :   0.9123 B( 30-C , 31-C ) :   1.3519
B( 30-C , 47-H ) :   0.9278 B( 31-C , 32-C ) :   1.5047 B( 31-C , 48-H ) :   0.9281
B( 32-C , 33-C ) :   1.2941 B( 32-C , 49-H ) :   0.9089 B( 34-C , 35-C ) :   1.4099
B( 34-C , 50-H ) :   0.9101 B( 35-C , 51-H ) :   0.9154

FINAL SINGLE POINT ENERGY     -2566.560073836928

DIPOLE MOMENT
-------------

Method             : SCF
Type of density    : Electron Density
Multiplicity       :   1
Irrep              :   0
Energy             : -2566.5600738369280407 Eh
Relativity type    :
Basis              : AO
                                X                 Y                 Z
Electronic contribution:     15.780509143     -15.098341293      -3.238387804
Nuclear contribution   :    -15.316965955      15.291023004       4.937983612
                        -----------------------------------------
Total Dipole Moment    :      0.463543189       0.192681711       1.699595808
                        -----------------------------------------
Magnitude (a.u.)       :      1.772180702
Magnitude (Debye)      :      4.504525364

Rotational constants in cm-1:             0.006419             0.001748             0.001708
Rotational constants in MHz :           192.430586            52.394087            51.204572

                             ****ORCA TERMINATED NORMALLY****
TOTAL RUN TIME: 0 days 0 hours 12 minutes 4 seconds 463 msec
