                         Program Version 6.0.0  -   RELEASE  -
|  1> ! B3LYP 6-31G* SP
|  2>
|  3> * xyz 0 1
|  4> O 4.1207 -4.5165 1.0590
|  5> C 4.3373 -3.2981 0.8130
|  6> O 5.5719 -2.7426 1.1478
|  7> C 3.3062 -2.4703 0.1471
|  8> C 2.0898 -3.0382 -0.2781
|  9> C 1.1243 -2.2465 -0.9128
| 10> C 1.3455 -0.8746 -1.1067
| 11> S 0.1173 0.1276 -1.8801
| 12> O 0.8029 1.1988 -2.6845
| 13> O -0.6976 -0.7107 -2.8239
| 14> N -0.9330 0.8598 -0.6978
| 15> C -2.0061 0.0543 -0.1011
| 16> C -1.4495 -1.0431 0.7896
| 17> C -0.4880 -0.6829 1.7545
| 18> C 0.1002 -1.6448 2.5773
| 19> C -0.2815 -2.9802 2.4718
| 20> C -1.2714 -3.3562 1.5612
| 21> C -1.8922 -2.3996 0.7260
| 22> C -2.9874 -2.8475 -0.2278
| 23> F -2.5371 -2.7425 -1.5298
| 24> F -4.1145 -2.0587 -0.0642
| 25> F -3.3612 -4.1645 -0.0041
| 26> C -1.0943 2.2847 -0.7370
| 27> N -2.1740 2.8166 -1.3733
| 28> C -2.3865 4.1582 -1.4395
| 29> C -1.4762 5.0504 -0.8509
| 30> C -1.7298 6.5348 -0.8741
| 31> F -2.5101 6.8776 0.2147
| 32> F -0.5344 7.2359 -0.8149
| 33> F -2.3882 6.9008 -2.0382
| 34> C -0.3776 4.5207 -0.1557
| 35> C -0.1728 3.1392 -0.1051
| 36> Cl 1.2091 2.5197 0.7859
| 37> C 2.5568 -0.3088 -0.6909
| 38> C 3.5292 -1.0991 -0.0670
| 39> H 6.2966 -3.2999 1.5873
| 40> H 1.8876 -4.0926 -0.1285
| 41> H 0.2009 -2.7041 -1.2436
| 42> H -2.6385 -0.3334 -0.9228
| 43> H -2.6605 0.6958 0.5311
| 44> H -0.1846 0.3488 1.8664
| 45> H 0.8554 -1.3530 3.2984
| 46> H 0.1818 -3.7272 3.1064
| 47> H -1.5477 -4.4033 1.5170
| 48> H -3.2672 4.5260 -1.9498
| 49> H 0.3193 5.1774 0.3528
| 50> H 2.7553 0.7444 -0.8532
| 51> H 4.4534 -0.6328 0.2482
| 52> *
| 53>
| 54>                          ****END OF INPUT****

CARTESIAN COORDINATES (ANGSTROEM)
---------------------------------
  O      4.120700   -4.516500    1.059000
  C      4.337300   -3.298100    0.813000
  O      5.571900   -2.742600    1.147800
  C      3.306200   -2.470300    0.147100
  C      2.089800   -3.038200   -0.278100
  C      1.124300   -2.246500   -0.912800
  C      1.345500   -0.874600   -1.106700
  S      0.117300    0.127600   -1.880100
  O      0.802900    1.198800   -2.684500
  O     -0.697600   -0.710700   -2.823900
  N     -0.933000    0.859800   -0.697800
  C     -2.006100    0.054300   -0.101100
  C     -1.449500   -1.043100    0.789600
  C     -0.488000   -0.682900    1.754500
  C      0.100200   -1.644800    2.577300
  C     -0.281500   -2.980200    2.471800
  C     -1.271400   -3.356200    1.561200
  C     -1.892200   -2.399600    0.726000
  C     -2.987400   -2.847500   -0.227800
  F     -2.537100   -2.742500   -1.529800
  F     -4.114500   -2.058700   -0.064200
  F     -3.361200   -4.164500   -0.004100
  C     -1.094300    2.284700   -0.737000
  N     -2.174000    2.816600   -1.373300
  C     -2.386500    4.158200   -1.439500
  C     -1.476200    5.050400   -0.850900
  C     -1.729800    6.534800   -0.874100
  F     -2.510100    6.877600    0.214700
  F     -0.534400    7.235900   -0.814900
  F     -2.388200    6.900800   -2.038200
  C     -0.377600    4.520700   -0.155700
  C     -0.172800    3.139200   -0.105100
  Cl     1.209100    2.519700    0.785900
  C      2.556800   -0.308800   -0.690900
  C      3.529200   -1.099100   -0.067000
  H      6.296600   -3.299900    1.587300
  H      1.887600   -4.092600   -0.128500
  H      0.200900   -2.704100   -1.243600
  H     -2.638500   -0.333400   -0.922800
  H     -2.660500    0.695800    0.531100
  H     -0.184600    0.348800    1.866400
  H      0.855400   -1.353000    3.298400
  H      0.181800   -3.727200    3.106400
  H     -1.547700   -4.403300    1.517000
  H     -3.267200    4.526000   -1.949800
  H      0.319300    5.177400    0.352800
  H      2.755300    0.744400   -0.853200
  H      4.453400   -0.632800    0.248200

 Total Charge           Charge          ....    0
 Multiplicity           Mult            ....    1
 Number of Electrons    NEL             ....  272
 Basis Dimension        Dim             ....  524

ORBITAL ENERGIES
----------------

  NO   OCC          E(Eh)            E(eV)
   0   2.0000    -101.560547     -2763.6030
   1   2.0000     -89.106478     -2424.7105
   2   2.0000     -24.736320      -673.1095
   3   2.0000     -24.736271      -673.1082
   4   2.0000     -24.734095      -673.0489
   5   2.0000     -24.725744      -672.8217
   6   2.0000     -24.724921      -672.7993
   7   2.0000     -24.722770      -672.7408
   8   2.0000     -19.199739      -522.4515
   9   2.0000     -19.141805      -520.8750
  10   2.0000     -19.134704      -520.6818
  11   2.0000     -19.132063      -520.6099
  12   2.0000     -14.388622      -391.5343
  13   2.0000     -14.366923      -390.9438
  14   2.0000     -10.455538      -284.5096
  15   2.0000     -10.442318      -284.1499
  16   2.0000     -10.339128      -281.3420
  17   2.0000     -10.302387      -280.3422
  18   2.0000     -10.285353      -279.8787
  19   2.0000     -10.259470      -279.1744
  20   2.0000     -10.246701      -278.8269
  21   2.0000     -10.244887      -278.7776
  22   2.0000     -10.244645      -278.7710
  23   2.0000     -10.244304      -278.7617
  24   2.0000     -10.234770      -278.5023
  25   2.0000     -10.227537      -278.3054
  26   2.0000     -10.226014      -278.2640
  27   2.0000     -10.222128      -278.1582
  28   2.0000     -10.221854      -278.1508
  29   2.0000     -10.219357      -278.0829
  30   2.0000     -10.219341      -278.0824
  31   2.0000     -10.211022      -277.8560
  32   2.0000     -10.206365      -277.7293
  33   2.0000     -10.204899      -277.6894
  34   2.0000     -10.204708      -277.6842
  35   2.0000      -9.491568      -258.2787
  36   2.0000      -8.142545      -221.5699
  37   2.0000      -7.254796      -197.4130
  38   2.0000      -7.245243      -197.1531
  39   2.0000      -7.244742      -197.1395
  40   2.0000      -6.107846      -166.2029
  41   2.0000      -6.105392      -166.1362
  42   2.0000      -6.104974      -166.1248
  43   2.0000      -1.295409       -35.2499
  44   2.0000      -1.284993       -34.9664
  45   2.0000      -1.220728       -33.2177
  46   2.0000      -1.220581       -33.2137
  47   2.0000      -1.210016       -32.9262
  48   2.0000      -1.208976       -32.8979
  49   2.0000      -1.092252       -29.7217
  50   2.0000      -1.083362       -29.4798
  51   2.0000      -0.998223       -27.1630
  52   2.0000      -0.991251       -26.9733
  53   2.0000      -0.969490       -26.3812
  54   2.0000      -0.936176       -25.4746
  55   2.0000      -0.900194       -24.4955
  56   2.0000      -0.891872       -24.2691
  57   2.0000      -0.879191       -23.9240
  58   2.0000      -0.841961       -22.9109
  59   2.0000      -0.810395       -22.0520
  60   2.0000      -0.797458       -21.6999
  61   2.0000      -0.788718       -21.4621
  62   2.0000      -0.777968       -21.1696
  63   2.0000      -0.776440       -21.1280
  64   2.0000      -0.731505       -19.9053
  65   2.0000      -0.727558       -19.7979
  66   2.0000      -0.703781       -19.1508
  67   2.0000      -0.689754       -18.7691
  68   2.0000      -0.670229       -18.2378
  69   2.0000      -0.657905       -17.9025
  70   2.0000      -0.642690       -17.4885
  71   2.0000      -0.633069       -17.2267
  72   2.0000      -0.627833       -17.0842
  73   2.0000      -0.616212       -16.7680
  74   2.0000      -0.600444       -16.3389
  75   2.0000      -0.587614       -15.9898
  76   2.0000      -0.587022       -15.9737
  77   2.0000      -0.576138       -15.6775
  78   2.0000      -0.574611       -15.6360
  79   2.0000      -0.572924       -15.5901
  80   2.0000      -0.567700       -15.4479
  81   2.0000      -0.560867       -15.2620
  82   2.0000      -0.547178       -14.8895
  83   2.0000      -0.533187       -14.5087
  84   2.0000      -0.527825       -14.3629
  85   2.0000      -0.504731       -13.7344
  86   2.0000      -0.494462       -13.4550
  87   2.0000      -0.488257       -13.2861
  88   2.0000      -0.483686       -13.1618
  89   2.0000      -0.477610       -12.9964
  90   2.0000      -0.474440       -12.9102
  91   2.0000      -0.470743       -12.8096
  92   2.0000      -0.464446       -12.6382
  93   2.0000      -0.463758       -12.6195
  94   2.0000      -0.462897       -12.5961
  95   2.0000      -0.462153       -12.5758
  96   2.0000      -0.457099       -12.4383
  97   2.0000      -0.455099       -12.3839
  98   2.0000      -0.449872       -12.2416
  99   2.0000      -0.445610       -12.1257
 100   2.0000      -0.444912       -12.1067
 101   2.0000      -0.441492       -12.0136
 102   2.0000      -0.435547       -11.8518
 103   2.0000      -0.431523       -11.7423
 104   2.0000      -0.430474       -11.7138
 105   2.0000      -0.429211       -11.6794
 106   2.0000      -0.424178       -11.5425
 107   2.0000      -0.419144       -11.4055
 108   2.0000      -0.416958       -11.3460
 109   2.0000      -0.413957       -11.2643
 110   2.0000      -0.412907       -11.2358
 111   2.0000      -0.404423       -11.0049
 112   2.0000      -0.403353       -10.9758
 113   2.0000      -0.401341       -10.9210
 114   2.0000      -0.399184       -10.8623
 115   2.0000      -0.387487       -10.5441
 116   2.0000      -0.375908       -10.2290
 117   2.0000      -0.374800       -10.1988
 118   2.0000      -0.369320       -10.0497
 119   2.0000      -0.366340        -9.9686
 120   2.0000      -0.362908        -9.8752
 121   2.0000      -0.345680        -9.4064
 122   2.0000      -0.336421        -9.1545
 123   2.0000      -0.325539        -8.8584
 124   2.0000      -0.317662        -8.6440
 125   2.0000      -0.313740        -8.5373
 126   2.0000      -0.303107        -8.2480
 127   2.0000      -0.297467        -8.0945
 128   2.0000      -0.287227        -7.8159
 129   2.0000      -0.284382        -7.7384
 130   2.0000      -0.279662        -7.6100
 131   2.0000      -0.278209        -7.5704
 132   2.0000      -0.277104        -7.5404
 133   2.0000      -0.274826        -7.4784
 134   2.0000      -0.267528        -7.2798
 135   2.0000      -0.258275        -7.0280
 136   0.0000      -0.088609        -2.4112
 137   0.0000      -0.070462        -1.9174
 138   0.0000      -0.056850        -1.5470
 139   0.0000      -0.040199        -1.0939
 140   0.0000      -0.031947        -0.8693

MULLIKEN ATOMIC CHARGES
-----------------------
   0 O :   -0.445187
   1 C :    0.526853
   2 O :   -0.624293
   3 C :    0.082779
   4 C :   -0.137474
   5 C :   -0.136826
   6 C :   -0.124481
   7 S :    1.208650
   8 O :   -0.542327
   9 O :   -0.521548
  10 N :   -0.614987
  11 C :   -0.226988
  12 C :    0.078735
  13 C :   -0.155686
  14 C :   -0.115882
  15 C :   -0.120598
  16 C :   -0.172639
  17 C :   -0.070042
  18 C :    0.913799
  19 F :   -0.282180
  20 F :   -0.304044
  21 F :   -0.304636
  22 C :    0.412532
  23 N :   -0.365333
  24 C :   -0.000546
  25 C :   -0.024093
  26 C :    0.904566
  27 F :   -0.291066
  28 F :   -0.301277
  29 F :   -0.299181
  30 C :   -0.130476
  31 C :   -0.084721
  32 Cl:    0.015588
  33 C :   -0.139250
  34 C :   -0.152440
  35 H :    0.434408
  36 H :    0.178969
  37 H :    0.188260
  38 H :    0.209004
  39 H :    0.192180
  40 H :    0.155548
  41 H :    0.141986
  42 H :    0.148127
  43 H :    0.159777
  44 H :    0.186976
  45 H :    0.189243
  46 H :    0.188399
  47 H :    0.171820
Sum of atomic charges:   -0.0000000

LOEWDIN ATOMIC CHARGES
----------------------
   0 O :   -0.261465
   1 C :    0.180820
   2 O :   -0.336291
   3 C :   -0.038780
   4 C :   -0.085634
   5 C :   -0.094324
   6 C :   -0.171112
   7 S :    1.269238
   8 O :   -0.568098
   9 O :   -0.557480
  10 N :   -0.288299
  11 C :   -0.153545
  12 C :   -0.022751
  13 C :   -0.120336
  14 C :   -0.112486
  15 C :   -0.122652
  16 C :   -0.117534
  17 C :   -0.072071
  18 C :    0.312597
  19 F :   -0.100861
  20 F :   -0.113339
  21 F :   -0.111123
  22 C :    0.064369
  23 N :   -0.106546
  24 C :   -0.043093
  25 C :   -0.074550
  26 C :    0.315615
  27 F :   -0.108664
  28 F :   -0.110804
  29 F :   -0.108018
  30 C :   -0.088877
  31 C :   -0.091270
  32 Cl:    0.059400
  33 C :   -0.099463
  34 C :   -0.103332
  35 H :    0.350075
  36 H :    0.159883
  37 H :    0.161456
  38 H :    0.151743
  39 H :    0.156339
  40 H :    0.143632
  41 H :    0.138064
  42 H :    0.141076
  43 H :    0.146734
  44 H :    0.154255
  45 H :    0.163057
  46 H :    0.160124
  47 H :    0.154320

  Mayer bond orders larger than 0.100000
B(  0-O ,  1-C ) :   1.8624 B(  1-C ,  2-O ) :   1.0236 B(  1-C ,  3-C ) :   1.0073
B(  2-O , 35-H ) :   0.7415 B(  3-C ,  4-C ) :   1.3986 B(  3-C , 34-C ) :   1.3836
B(  4-C ,  5-C ) :   1.4175 B(  4-C , 36-H ) :   0.9098 B(  5-C ,  6-C ) :   1.3809
B(  5-C , 37-H ) :   0.8979 B(  6-C ,  7-S ) :   0.8143 B(  6-C , 33-C ) :   1.3959
B(  7-S ,  8-O ) :   1.6308 B(  7-S ,  9-O ) :   1.6606 B(  7-S , 10-N ) :   0.7733
B( 10-N , 11-C ) :   0.8949 B( 10-N , 22-C ) :   0.9494 B( 11-C , 12-C ) :   0.9644
B( 11-C , 38-H ) :   0.8979 B( 11-C , 39-H ) :   0.9136 B( 12-C , 13-C ) :   1.4082
B( 12-C , 17-C ) :   1.3965 B( 13-C , 14-C ) :   1.4460 B( 13-C , 40-H ) :   0.9096
B( 14-C , 15-C ) :   1.4422 B( 14-C , 41-H ) :   0.9279 B( 15-C , 16-C ) :   1.4321
B( 15-C , 42-H ) :   0.9268 B( 16-C , 17-C ) :   1.3944 B( 16-C , 43-H ) :   0.9178
B( 17-C , 18-C ) :   0.9735 B( 18-C , 19-F ) :   0.9595 B( 18-C , 20-F ) :   0.9308
B( 18-C , 21-F ) :   0.9425 B( 22-C , 23-N ) :   1.3823 B( 22-C , 31-C ) :   1.3420
B( 23-N , 24-C ) :   1.4093 B( 24-C , 25-C ) :   1.3612 B( 24-C , 44-H ) :   0.9167
B( 25-C , 26-C ) :   0.9728 B( 25-C , 30-C ) :   1.4108 B( 26-C , 27-F ) :   0.9894
B( 26-C , 28-F ) :   0.9497 B( 26-C , 29-F ) :   0.9518 B( 30-C , 31-C ) :   1.3967
B( 30-C , 45-H ) :   0.9075 B( 31-C , 32-Cl) :   1.0363 B( 33-C , 34-C ) :   1.4172
B( 33-C , 46-H ) :   0.9050 B( 34-C , 47-H ) :   0.9150

FINAL SINGLE POINT ENERGY     -2674.734986698043

DIPOLE MOMENT
-------------

Method             : SCF
Type of density    : Electron Density
Multiplicity       :   1
Irrep              :   0
Energy             : -2674.7349866980430306 Eh
Relativity type    :
Basis              : AO
                                X                 Y                 Z
Electronic contribution:    -19.118891437      25.637960723      -8.758321549
Nuclear contribution   :     20.216898048     -25.358818875      11.278867865
                        -----------------------------------------
Total Dipole Moment    :      1.098006611       0.279141848       2.520546316
                        -----------------------------------------
Magnitude (a.u.)       :      2.763456607
Magnitude (Debye)      :      7.024148477

Rotational constants in cm-1:             0.005082             0.002157             0.001753
Rotational constants in MHz :           152.347299            64.678322            52.559946

                             ****ORCA TERMINATED NORMALLY****
TOTAL RUN TIME: 0 days 0 hours 7 minutes 1 seconds 28 msec
