                         Program Version 6.0.0  -   RELEASE  -
|  1> ! B3LYP 6-31G* SP
|  2>
|  3> * xyz 0 1
|  4> N -6.0690 -4.5273 -0.9437
|  5> C -6.1161 -3.1238 -0.6647
|  6> O -7.1860 -2.6356 -0.2122
|  7> C -4.9397 -2.2395 -0.8753
|  8> C -4.9107 -0.9613 -0.2836
|  9> C -3.8089 -0.1193 -0.4591
| 10> C -2.7178 -0.5363 -1.2307
| 11> S -1.3100 0.5087 -1.4060
| 12> O -0.5771 0.1889 -2.6801
| 13> O -1.7756 1.9371 -1.4707
| 14> N -0.2448 0.3020 -0.0478
| 15> C 0.2191 -1.0357 0.3320
| 16> C 1.5668 -1.3161 -0.2766
| 17> C 2.7378 -0.9505 0.4061
| 18> C 3.9896 -1.1582 -0.1796
| 19> C 4.0939 -1.7241 -1.4564
| 20> O 5.3776 -1.8995 -1.9984
| 21> C 5.6608 -2.4380 -3.2903
| 22> F 5.1862 -3.7378 -3.3811
| 23> F 7.0286 -2.4484 -3.4789
| 24> F 5.0823 -1.6528 -4.2748
| 25> C 2.9182 -2.0892 -2.1447
| 26> C 1.6651 -1.8833 -1.5572
| 27> C 0.3914 1.4580 0.5083
| 28> N 1.3906 2.0334 -0.2102
| 29> C 2.0856 3.1063 0.2290
| 30> C 1.7959 3.6662 1.4730
| 31> C 2.5307 4.7716 1.9313
| 32> C 2.2493 5.3351 3.1763
| 33> C 1.2384 4.7993 3.9724
| 34> C 0.4999 3.6981 3.5311
| 35> C 0.7576 3.1108 2.2670
| 36> C 0.0178 1.9934 1.7735
| 37> C -1.1424 1.4177 2.5836
| 38> F -2.0643 2.4199 2.8470
| 39> F -0.6609 0.9088 3.7814
| 40> F -1.8206 0.4012 1.9343
| 41> C -2.7421 -1.7993 -1.8361
| 42> C -3.8455 -2.6422 -1.6672
| 43> H -5.1797 -5.0225 -1.1670
| 44> H -6.9316 -5.1059 -0.8388
| 45> H -5.7358 -0.6155 0.3279
| 46> H -3.8037 0.8545 0.0158
| 47> H 0.2759 -1.1139 1.4404
| 48> H -0.5111 -1.8053 0.0017
| 49> H 2.6812 -0.4948 1.3888
| 50> H 4.8847 -0.8680 0.3586
| 51> H 2.9584 -2.5256 -3.1336
| 52> H 0.7722 -2.1642 -2.1034
| 53> H 2.8723 3.5143 -0.3938
| 54> H 3.3234 5.1986 1.3264
| 55> H 2.8178 6.1878 3.5253
| 56> H 1.0261 5.2381 4.9400
| 57> H -0.2620 3.3192 4.1979
| 58> H -1.9041 -2.1363 -2.4353
| 59> H -3.8357 -3.5982 -2.1717
| 60> *
| 61>
| 62>                          ****END OF INPUT****

CARTESIAN COORDINATES (ANGSTROEM)
---------------------------------
  N     -6.069000   -4.527300   -0.943700
  C     -6.116100   -3.123800   -0.664700
  O     -7.186000   -2.635600   -0.212200
  C     -4.939700   -2.239500   -0.875300
  C     -4.910700   -0.961300   -0.283600
  C     -3.808900   -0.119300   -0.459100
  C     -2.717800   -0.536300   -1.230700
  S     -1.310000    0.508700   -1.406000
  O     -0.577100    0.188900   -2.680100
  O     -1.775600    1.937100   -1.470700
  N     -0.244800    0.302000   -0.047800
  C      0.219100   -1.035700    0.332000
  C      1.566800   -1.316100   -0.276600
  C      2.737800   -0.950500    0.406100
  C      3.989600   -1.158200   -0.179600
  C      4.093900   -1.724100   -1.456400
  O      5.377600   -1.899500   -1.998400
  C      5.660800   -2.438000   -3.290300
  F      5.186200   -3.737800   -3.381100
  F      7.028600   -2.448400   -3.478900
  F      5.082300   -1.652800   -4.274800
  C      2.918200   -2.089200   -2.144700
  C      1.665100   -1.883300   -1.557200
  C      0.391400    1.458000    0.508300
  N      1.390600    2.033400   -0.210200
  C      2.085600    3.106300    0.229000
  C      1.795900    3.666200    1.473000
  C      2.530700    4.771600    1.931300
  C      2.249300    5.335100    3.176300
  C      1.238400    4.799300    3.972400
  C      0.499900    3.698100    3.531100
  C      0.757600    3.110800    2.267000
  C      0.017800    1.993400    1.773500
  C     -1.142400    1.417700    2.583600
  F     -2.064300    2.419900    2.847000
  F     -0.660900    0.908800    3.781400
  F     -1.820600    0.401200    1.934300
  C     -2.742100   -1.799300   -1.836100
  C     -3.845500   -2.642200   -1.667200
  H     -5.179700   -5.022500   -1.167000
  H     -6.931600   -5.105900   -0.838800
  H     -5.735800   -0.615500    0.327900
  H     -3.803700    0.854500    0.015800
  H      0.275900   -1.113900    1.440400
  H     -0.511100   -1.805300    0.001700
  H      2.681200   -0.494800    1.388800
  H      4.884700   -0.868000    0.358600
  H      2.958400   -2.525600   -3.133600
  H      0.772200   -2.164200   -2.103400
  H      2.872300    3.514300   -0.393800
  H      3.323400    5.198600    1.326400
  H      2.817800    6.187800    3.525300
  H      1.026100    5.238100    4.940000
  H     -0.262000    3.319200    4.197900
  H     -1.904100   -2.136300   -2.435300
  H     -3.835700   -3.598200   -2.171700

 Total Charge           Charge          ....    0
 Multiplicity           Mult            ....    1
 Number of Electrons    NEL             ....  290
 Basis Dimension        Dim             ....  584

ORBITAL ENERGIES
----------------

  NO   OCC          E(Eh)            E(eV)
   0   2.0000     -89.096284     -2424.4332
   1   2.0000     -24.737920      -673.1530
   2   2.0000     -24.734825      -673.0688
   3   2.0000     -24.734753      -673.0668
   4   2.0000     -24.733449      -673.0314
   5   2.0000     -24.731693      -672.9836
   6   2.0000     -24.728955      -672.9091
   7   2.0000     -19.208294      -522.6843
   8   2.0000     -19.122531      -520.3505
   9   2.0000     -19.120267      -520.2889
  10   2.0000     -19.119633      -520.2717
  11   2.0000     -14.369440      -391.0124
  12   2.0000     -14.365561      -390.9068
  13   2.0000     -14.341878      -390.2623
  14   2.0000     -10.499776      -285.7134
  15   2.0000     -10.451827      -284.4087
  16   2.0000     -10.306861      -280.4639
  17   2.0000     -10.284493      -279.8553
  18   2.0000     -10.263369      -279.2805
  19   2.0000     -10.242716      -278.7185
  20   2.0000     -10.241247      -278.6785
  21   2.0000     -10.238846      -278.6132
  22   2.0000     -10.235804      -278.5304
  23   2.0000     -10.229849      -278.3683
  24   2.0000     -10.229635      -278.3625
  25   2.0000     -10.224264      -278.2164
  26   2.0000     -10.221709      -278.1468
  27   2.0000     -10.219657      -278.0910
  28   2.0000     -10.215451      -277.9765
  29   2.0000     -10.214187      -277.9421
  30   2.0000     -10.208942      -277.7994
  31   2.0000     -10.208521      -277.7880
  32   2.0000     -10.206587      -277.7354
  33   2.0000     -10.206276      -277.7269
  34   2.0000     -10.193128      -277.3691
  35   2.0000     -10.192436      -277.3503
  36   2.0000     -10.192067      -277.3402
  37   2.0000     -10.190471      -277.2968
  38   2.0000     -10.189883      -277.2808
  39   2.0000      -8.131994      -221.2828
  40   2.0000      -6.097122      -165.9111
  41   2.0000      -6.094994      -165.8532
  42   2.0000      -6.094575      -165.8418
  43   2.0000      -1.298800       -35.3422
  44   2.0000      -1.292580       -35.1729
  45   2.0000      -1.220447       -33.2101
  46   2.0000      -1.219028       -33.1714
  47   2.0000      -1.217988       -33.1431
  48   2.0000      -1.215367       -33.0718
  49   2.0000      -1.080058       -29.3899
  50   2.0000      -1.077424       -29.3182
  51   2.0000      -1.020574       -27.7712
  52   2.0000      -0.972428       -26.4611
  53   2.0000      -0.957841       -26.0642
  54   2.0000      -0.922775       -25.1100
  55   2.0000      -0.893555       -24.3149
  56   2.0000      -0.884837       -24.0777
  57   2.0000      -0.876689       -23.8559
  58   2.0000      -0.858581       -23.3632
  59   2.0000      -0.824357       -22.4319
  60   2.0000      -0.802974       -21.8500
  61   2.0000      -0.790904       -21.5216
  62   2.0000      -0.778848       -21.1935
  63   2.0000      -0.777233       -21.1496
  64   2.0000      -0.756006       -20.5720
  65   2.0000      -0.753041       -20.4913
  66   2.0000      -0.726053       -19.7569
  67   2.0000      -0.718063       -19.5395
  68   2.0000      -0.696782       -18.9604
  69   2.0000      -0.677637       -18.4394
  70   2.0000      -0.661469       -17.9995
  71   2.0000      -0.652314       -17.7504
  72   2.0000      -0.638862       -17.3843
  73   2.0000      -0.632050       -17.1990
  74   2.0000      -0.628787       -17.1102
  75   2.0000      -0.619355       -16.8535
  76   2.0000      -0.609110       -16.5747
  77   2.0000      -0.590976       -16.0813
  78   2.0000      -0.589253       -16.0344
  79   2.0000      -0.587259       -15.9801
  80   2.0000      -0.583972       -15.8907
  81   2.0000      -0.582349       -15.8465
  82   2.0000      -0.569410       -15.4944
  83   2.0000      -0.564487       -15.3605
  84   2.0000      -0.561693       -15.2844
  85   2.0000      -0.542345       -14.7580
  86   2.0000      -0.534432       -14.5426
  87   2.0000      -0.525263       -14.2931
  88   2.0000      -0.511881       -13.9290
  89   2.0000      -0.509170       -13.8552
  90   2.0000      -0.495748       -13.4900
  91   2.0000      -0.494922       -13.4675
  92   2.0000      -0.484094       -13.1729
  93   2.0000      -0.481888       -13.1128
  94   2.0000      -0.473405       -12.8820
  95   2.0000      -0.467956       -12.7337
  96   2.0000      -0.466176       -12.6853
  97   2.0000      -0.465488       -12.6666
  98   2.0000      -0.465210       -12.6590
  99   2.0000      -0.463810       -12.6209
 100   2.0000      -0.456003       -12.4085
 101   2.0000      -0.452193       -12.3048
 102   2.0000      -0.449618       -12.2347
 103   2.0000      -0.449095       -12.2205
 104   2.0000      -0.445222       -12.1151
 105   2.0000      -0.440439       -11.9850
 106   2.0000      -0.439280       -11.9534
 107   2.0000      -0.436322       -11.8729
 108   2.0000      -0.431045       -11.7293
 109   2.0000      -0.427221       -11.6253
 110   2.0000      -0.425889       -11.5890
 111   2.0000      -0.423680       -11.5289
 112   2.0000      -0.421625       -11.4730
 113   2.0000      -0.418421       -11.3858
 114   2.0000      -0.415945       -11.3184
 115   2.0000      -0.412045       -11.2123
 116   2.0000      -0.411925       -11.2091
 117   2.0000      -0.408947       -11.1280
 118   2.0000      -0.404365       -11.0033
 119   2.0000      -0.401254       -10.9187
 120   2.0000      -0.396414       -10.7870
 121   2.0000      -0.383894       -10.4463
 122   2.0000      -0.382160       -10.3991
 123   2.0000      -0.381334       -10.3766
 124   2.0000      -0.373512       -10.1638
 125   2.0000      -0.372409       -10.1338
 126   2.0000      -0.364287        -9.9128
 127   2.0000      -0.363415        -9.8890
 128   2.0000      -0.344084        -9.3630
 129   2.0000      -0.342421        -9.3177
 130   2.0000      -0.322401        -8.7730
 131   2.0000      -0.313990        -8.5441
 132   2.0000      -0.306766        -8.3475
 133   2.0000      -0.297516        -8.0958
 134   2.0000      -0.283336        -7.7100
 135   2.0000      -0.281772        -7.6674
 136   2.0000      -0.278100        -7.5675
 137   2.0000      -0.273260        -7.4358
 138   2.0000      -0.270264        -7.3543
 139   2.0000      -0.263542        -7.1713
 140   2.0000      -0.258426        -7.0321
 141   2.0000      -0.253822        -6.9068
 142   2.0000      -0.247382        -6.7316
 143   2.0000      -0.242334        -6.5943
 144   2.0000      -0.229931        -6.2567
 145   0.0000      -0.084587        -2.3017
 146   0.0000      -0.074896        -2.0380
 147   0.0000      -0.042895        -1.1672
 148   0.0000      -0.033016        -0.8984
 149   0.0000      -0.009141        -0.2487

MULLIKEN ATOMIC CHARGES
-----------------------
   0 N :   -0.780775
   1 C :    0.512613
   2 O :   -0.466585
   3 C :    0.089500
   4 C :   -0.143221
   5 C :   -0.131961
   6 C :   -0.139611
   7 S :    1.205324
   8 O :   -0.530780
   9 O :   -0.544045
  10 N :   -0.586470
  11 C :   -0.280066
  12 C :    0.192156
  13 C :   -0.157420
  14 C :   -0.172102
  15 C :    0.353859
  16 O :   -0.547178
  17 C :    1.085904
  18 F :   -0.293691
  19 F :   -0.279589
  20 F :   -0.289622
  21 C :   -0.191368
  22 C :   -0.144523
  23 C :    0.347399
  24 N :   -0.352188
  25 C :   -0.031945
  26 C :    0.132189
  27 C :   -0.201072
  28 C :   -0.123290
  29 C :   -0.119938
  30 C :   -0.189898
  31 C :    0.119970
  32 C :   -0.101853
  33 C :    0.931924
  34 F :   -0.301494
  35 F :   -0.307947
  36 F :   -0.296658
  37 C :   -0.149717
  38 C :   -0.161372
  39 H :    0.332962
  40 H :    0.356408
  41 H :    0.182918
  42 H :    0.188004
  43 H :    0.165925
  44 H :    0.165246
  45 H :    0.131368
  46 H :    0.143406
  47 H :    0.152828
  48 H :    0.141757
  49 H :    0.168639
  50 H :    0.147706
  51 H :    0.142714
  52 H :    0.146303
  53 H :    0.156083
  54 H :    0.182210
  55 H :    0.141061
Sum of atomic charges:   -0.0000000

LOEWDIN ATOMIC CHARGES
----------------------
   0 N :   -0.402482
   1 C :    0.142777
   2 O :   -0.278799
   3 C :   -0.027750
   4 C :   -0.087551
   5 C :   -0.092123
   6 C :   -0.179595
   7 S :    1.262837
   8 O :   -0.567581
   9 O :   -0.573080
  10 N :   -0.282375
  11 C :   -0.149300
  12 C :   -0.038134
  13 C :   -0.119620
  14 C :   -0.142150
  15 C :    0.088179
  16 O :   -0.161438
  17 C :    0.362221
  18 F :   -0.108286
  19 F :   -0.087747
  20 F :   -0.104657
  21 C :   -0.155324
  22 C :   -0.106175
  23 C :    0.062072
  24 N :   -0.104443
  25 C :   -0.033231
  26 C :   -0.027927
  27 C :   -0.109427
  28 C :   -0.120708
  29 C :   -0.111126
  30 C :   -0.122715
  31 C :    0.008708
  32 C :   -0.070879
  33 C :    0.318051
  34 F :   -0.109907
  35 F :   -0.116345
  36 F :   -0.098148
  37 C :   -0.108878
  38 C :   -0.119442
  39 H :    0.248930
  40 H :    0.268532
  41 H :    0.161770
  42 H :    0.161729
  43 H :    0.132725
  44 H :    0.138349
  45 H :    0.133733
  46 H :    0.142746
  47 H :    0.142502
  48 H :    0.137191
  49 H :    0.145379
  50 H :    0.141362
  51 H :    0.138721
  52 H :    0.140825
  53 H :    0.144639
  54 H :    0.155081
  55 H :    0.138287

  Mayer bond orders larger than 0.100000
B(  0-N ,  1-C ) :   1.0591 B(  0-N , 39-H ) :   0.8247 B(  0-N , 40-H ) :   0.8216
B(  1-C ,  2-O ) :   1.8348 B(  1-C ,  3-C ) :   0.9838 B(  3-C ,  4-C ) :   1.3990
B(  3-C , 38-C ) :   1.3856 B(  4-C ,  5-C ) :   1.4209 B(  4-C , 41-H ) :   0.9087
B(  5-C ,  6-C ) :   1.3845 B(  5-C , 42-H ) :   0.9077 B(  6-C ,  7-S ) :   0.8120
B(  6-C , 37-C ) :   1.3930 B(  7-S ,  8-O ) :   1.6497 B(  7-S ,  9-O ) :   1.6292
B(  7-S , 10-N ) :   0.7953 B( 10-N , 11-C ) :   0.9290 B( 10-N , 23-C ) :   0.9325
B( 11-C , 12-C ) :   0.9333 B( 11-C , 43-H ) :   0.9234 B( 11-C , 44-H ) :   0.9233
B( 12-C , 13-C ) :   1.4290 B( 12-C , 22-C ) :   1.4323 B( 13-C , 14-C ) :   1.4386
B( 13-C , 45-H ) :   0.9227 B( 14-C , 15-C ) :   1.4216 B( 14-C , 46-H ) :   0.9189
B( 15-C , 16-O ) :   0.8214 B( 15-C , 21-C ) :   1.3892 B( 16-O , 17-C ) :   0.9910
B( 17-C , 18-F ) :   0.9651 B( 17-C , 19-F ) :   1.0071 B( 17-C , 20-F ) :   0.9711
B( 21-C , 22-C ) :   1.4408 B( 21-C , 47-H ) :   0.9094 B( 22-C , 48-H ) :   0.9149
B( 23-C , 24-N ) :   1.2914 B( 23-C , 32-C ) :   1.4147 B( 24-N , 25-C ) :   1.4859
B( 25-C , 26-C ) :   1.2332 B( 25-C , 49-H ) :   0.9228 B( 26-C , 27-C ) :   1.2817
B( 26-C , 31-C ) :   1.2923 B( 27-C , 28-C ) :   1.5151 B( 27-C , 30-C ) :   0.1048
B( 27-C , 50-H ) :   0.9219 B( 28-C , 29-C ) :   1.3517 B( 28-C , 51-H ) :   0.9280
B( 29-C , 30-C ) :   1.5094 B( 29-C , 52-H ) :   0.9273 B( 30-C , 31-C ) :   1.3036
B( 30-C , 53-H ) :   0.9023 B( 31-C , 32-C ) :   1.2475 B( 32-C , 33-C ) :   0.9591
B( 33-C , 34-F ) :   0.9370 B( 33-C , 35-F ) :   0.9266 B( 33-C , 36-F ) :   0.9170
B( 37-C , 38-C ) :   1.4283 B( 37-C , 54-H ) :   0.9074 B( 38-C , 55-H ) :   0.9193

FINAL SINGLE POINT ENERGY     -2424.061087667766

DIPOLE MOMENT
-------------

Method             : SCF
Type of density    : Electron Density
Multiplicity       :   1
Irrep              :   0
Energy             : -2424.0610876677656051 Eh
Relativity type    :
Basis              : AO
                                X                 Y                 Z
Electronic contribution:     20.654879767      -3.932977527      -7.831806462
Nuclear contribution   :    -20.000249303       3.043385795       9.695320151
                        -----------------------------------------
Total Dipole Moment    :      0.654630463      -0.889591732       1.863513689
                        -----------------------------------------
Magnitude (a.u.)       :      2.166240467
Magnitude (Debye)      :      5.506145687

Rotational constants in cm-1:             0.002866             0.002092             0.001336
Rotational constants in MHz :            85.927598            62.725497            40.045163

                             ****ORCA TERMINATED NORMALLY****
TOTAL RUN TIME: 0 days 0 hours 12 minutes 38 seconds 854 msec
