                         Program Version 6.0.0  -   RELEASE  -
|  1> ! B3LYP 6-31G* SP
|  2>
|  3> * xyz 0 1
|  4> C 1.2331 -1.3049 -1.4603
|  5> C -0.0888 -1.3756 -0.7264
|  6> C -0.5176 -0.3094 0.1012
|  7> N 0.2855 0.8609 0.2881
|  8> C 0.1979 1.9763 -0.6558
|  9> C -1.1476 2.6242 -0.5721
| 10> C -1.6869 3.2271 0.5635
| 11> C -2.9792 3.7157 0.3418
| 12> C -3.7860 4.3587 1.2837
| 13> C -5.0693 4.7824 0.9001
| 14> C -5.5316 4.5648 -0.4127
| 15> C -4.7165 3.9142 -1.3533
| 16> Cl -5.2869 3.6602 -2.9963
| 17> C -3.4453 3.4987 -0.9480
| 18> S -2.2675 2.6932 -1.8381
| 19> S 1.3053 0.9548 1.6901
| 20> O 0.6276 0.2917 2.8552
| 21> O 1.5593 2.3909 2.0544
| 22> C 2.8283 0.1498 1.3420
| 23> C 3.8527 0.8436 0.6860
| 24> C 5.0469 0.1938 0.3603
| 25> C 5.2284 -1.1652 0.6784
| 26> C 6.4871 -1.8588 0.3286
| 27> O 7.4362 -1.2244 -0.2082
| 28> O 6.6375 -3.2201 0.5879
| 29> C 4.1927 -1.8578 1.3303
| 30> C 3.0006 -1.2042 1.6583
| 31> N -1.6998 -0.3929 0.7666
| 32> C -2.5139 -1.4713 0.6719
| 33> C -2.1458 -2.5605 -0.1223
| 34> C -2.9805 -3.6858 -0.2089
| 35> C -2.6070 -4.7783 -0.9930
| 36> C -1.4031 -4.7551 -1.6973
| 37> C -0.5624 -3.6399 -1.6220
| 38> C -0.9189 -2.5225 -0.8331
| 39> H 1.0626 -1.4133 -2.5519
| 40> H 1.9004 -2.1199 -1.1067
| 41> H 1.7679 -0.3488 -1.3037
| 42> H 0.3762 1.6095 -1.6881
| 43> H 0.9757 2.7369 -0.4361
| 44> H -1.1700 3.2948 1.5121
| 45> H -3.4328 4.5275 2.2944
| 46> H -5.7059 5.2841 1.6171
| 47> H -6.5216 4.9038 -0.6952
| 48> H 3.7230 1.8842 0.4156
| 49> H 5.8239 0.7528 -0.1481
| 50> H 7.4975 -3.7012 0.3520
| 51> H 4.3011 -2.9050 1.5838
| 52> H 2.2085 -1.7593 2.1458
| 53> H -3.4451 -1.4787 1.2263
| 54> H -3.9185 -3.7219 0.3332
| 55> H -3.2518 -5.6458 -1.0519
| 56> H -1.1185 -5.6066 -2.3033
| 57> H 0.3629 -3.6674 -2.1820
| 58> *
| 59>
| 60>                          ****END OF INPUT****

CARTESIAN COORDINATES (ANGSTROEM)
---------------------------------
  C      1.233100   -1.304900   -1.460300
  C     -0.088800   -1.375600   -0.726400
  C     -0.517600   -0.309400    0.101200
  N      0.285500    0.860900    0.288100
  C      0.197900    1.976300   -0.655800
  C     -1.147600    2.624200   -0.572100
  C     -1.686900    3.227100    0.563500
  C     -2.979200    3.715700    0.341800
  C     -3.786000    4.358700    1.283700
  C     -5.069300    4.782400    0.900100
  C     -5.531600    4.564800   -0.412700
  C     -4.716500    3.914200   -1.353300
  Cl    -5.286900    3.660200   -2.996300
  C     -3.445300    3.498700   -0.948000
  S     -2.267500    2.693200   -1.838100
  S      1.305300    0.954800    1.690100
  O      0.627600    0.291700    2.855200
  O      1.559300    2.390900    2.054400
  C      2.828300    0.149800    1.342000
  C      3.852700    0.843600    0.686000
  C      5.046900    0.193800    0.360300
  C      5.228400   -1.165200    0.678400
  C      6.487100   -1.858800    0.328600
  O      7.436200   -1.224400   -0.208200
  O      6.637500   -3.220100    0.587900
  C      4.192700   -1.857800    1.330300
  C      3.000600   -1.204200    1.658300
  N     -1.699800   -0.392900    0.766600
  C     -2.513900   -1.471300    0.671900
  C     -2.145800   -2.560500   -0.122300
  C     -2.980500   -3.685800   -0.208900
  C     -2.607000   -4.778300   -0.993000
  C     -1.403100   -4.755100   -1.697300
  C     -0.562400   -3.639900   -1.622000
  C     -0.918900   -2.522500   -0.833100
  H      1.062600   -1.413300   -2.551900
  H      1.900400   -2.119900   -1.106700
  H      1.767900   -0.348800   -1.303700
  H      0.376200    1.609500   -1.688100
  H      0.975700    2.736900   -0.436100
  H     -1.170000    3.294800    1.512100
  H     -3.432800    4.527500    2.294400
  H     -5.705900    5.284100    1.617100
  H     -6.521600    4.903800   -0.695200
  H      3.723000    1.884200    0.415600
  H      5.823900    0.752800   -0.148100
  H      7.497500   -3.701200    0.352000
  H      4.301100   -2.905000    1.583800
  H      2.208500   -1.759300    2.145800
  H     -3.445100   -1.478700    1.226300
  H     -3.918500   -3.721900    0.333200
  H     -3.251800   -5.645800   -1.051900
  H     -1.118500   -5.606600   -2.303300
  H      0.362900   -3.667400   -2.182000

 Total Charge           Charge          ....    0
 Multiplicity           Mult            ....    1
 Number of Electrons    NEL             ....  270
 Basis Dimension        Dim             ....  540

ORBITAL ENERGIES
----------------

  NO   OCC          E(Eh)            E(eV)
   0   2.0000    -101.527342     -2762.6994
   1   2.0000     -89.101346     -2424.5709
   2   2.0000     -88.883881     -2418.6534
   3   2.0000     -19.200611      -522.4752
   4   2.0000     -19.142509      -520.8941
   5   2.0000     -19.133018      -520.6359
   6   2.0000     -19.126688      -520.4636
   7   2.0000     -14.375054      -391.1651
   8   2.0000     -14.330039      -389.9402
   9   2.0000     -10.340047      -281.3670
  10   2.0000     -10.262407      -279.2543
  11   2.0000     -10.246228      -278.8140
  12   2.0000     -10.245994      -278.8077
  13   2.0000     -10.245603      -278.7970
  14   2.0000     -10.237141      -278.5668
  15   2.0000     -10.225810      -278.2584
  16   2.0000     -10.225141      -278.2402
  17   2.0000     -10.224184      -278.2142
  18   2.0000     -10.223104      -278.1848
  19   2.0000     -10.222665      -278.1729
  20   2.0000     -10.216452      -278.0038
  21   2.0000     -10.211021      -277.8560
  22   2.0000     -10.210689      -277.8470
  23   2.0000     -10.210280      -277.8358
  24   2.0000     -10.203432      -277.6495
  25   2.0000     -10.202351      -277.6201
  26   2.0000     -10.201104      -277.5861
  27   2.0000     -10.200862      -277.5796
  28   2.0000     -10.199568      -277.5443
  29   2.0000     -10.194405      -277.4038
  30   2.0000     -10.189872      -277.2805
  31   2.0000     -10.185106      -277.1508
  32   2.0000     -10.184509      -277.1346
  33   2.0000     -10.181774      -277.0602
  34   2.0000     -10.174323      -276.8574
  35   2.0000      -9.458924      -257.3904
  36   2.0000      -8.136969      -221.4182
  37   2.0000      -7.961171      -216.6345
  38   2.0000      -7.222000      -196.5206
  39   2.0000      -7.212523      -196.2627
  40   2.0000      -7.212245      -196.2552
  41   2.0000      -6.102004      -166.0440
  42   2.0000      -6.100023      -165.9901
  43   2.0000      -6.099621      -165.9791
  44   2.0000      -5.924389      -161.2108
  45   2.0000      -5.920413      -161.1026
  46   2.0000      -5.917649      -161.0274
  47   2.0000      -1.087695       -29.5977
  48   2.0000      -1.084800       -29.5189
  49   2.0000      -0.999273       -27.1916
  50   2.0000      -0.967620       -26.3303
  51   2.0000      -0.963875       -26.2284
  52   2.0000      -0.918920       -25.0051
  53   2.0000      -0.908432       -24.7197
  54   2.0000      -0.895108       -24.3571
  55   2.0000      -0.867849       -23.6154
  56   2.0000      -0.864137       -23.5144
  57   2.0000      -0.820661       -22.3313
  58   2.0000      -0.813477       -22.1358
  59   2.0000      -0.811116       -22.0716
  60   2.0000      -0.781565       -21.2675
  61   2.0000      -0.780110       -21.2279
  62   2.0000      -0.763502       -20.7759
  63   2.0000      -0.753284       -20.4979
  64   2.0000      -0.746076       -20.3018
  65   2.0000      -0.718907       -19.5624
  66   2.0000      -0.710419       -19.3315
  67   2.0000      -0.698182       -18.9985
  68   2.0000      -0.686042       -18.6682
  69   2.0000      -0.657237       -17.8843
  70   2.0000      -0.648173       -17.6377
  71   2.0000      -0.643778       -17.5181
  72   2.0000      -0.624028       -16.9807
  73   2.0000      -0.604947       -16.4615
  74   2.0000      -0.599973       -16.3261
  75   2.0000      -0.592783       -16.1304
  76   2.0000      -0.587415       -15.9844
  77   2.0000      -0.566010       -15.4019
  78   2.0000      -0.559599       -15.2274
  79   2.0000      -0.546673       -14.8757
  80   2.0000      -0.534917       -14.5558
  81   2.0000      -0.516254       -14.0480
  82   2.0000      -0.505797       -13.7634
  83   2.0000      -0.496565       -13.5122
  84   2.0000      -0.495235       -13.4760
  85   2.0000      -0.486863       -13.2482
  86   2.0000      -0.486566       -13.2401
  87   2.0000      -0.477399       -12.9907
  88   2.0000      -0.475204       -12.9309
  89   2.0000      -0.466447       -12.6927
  90   2.0000      -0.463673       -12.6172
  91   2.0000      -0.454197       -12.3593
  92   2.0000      -0.453141       -12.3306
  93   2.0000      -0.449359       -12.2277
  94   2.0000      -0.446793       -12.1578
  95   2.0000      -0.441700       -12.0193
  96   2.0000      -0.438232       -11.9249
  97   2.0000      -0.432545       -11.7701
  98   2.0000      -0.427876       -11.6431
  99   2.0000      -0.424952       -11.5635
 100   2.0000      -0.420026       -11.4295
 101   2.0000      -0.416993       -11.3470
 102   2.0000      -0.412622       -11.2280
 103   2.0000      -0.407488       -11.0883
 104   2.0000      -0.403638       -10.9836
 105   2.0000      -0.398207       -10.8358
 106   2.0000      -0.395392       -10.7592
 107   2.0000      -0.390174       -10.6172
 108   2.0000      -0.389278       -10.5928
 109   2.0000      -0.373293       -10.1578
 110   2.0000      -0.372954       -10.1486
 111   2.0000      -0.362103        -9.8533
 112   2.0000      -0.358191        -9.7469
 113   2.0000      -0.357360        -9.7243
 114   2.0000      -0.353879        -9.6295
 115   2.0000      -0.350237        -9.5304
 116   2.0000      -0.334628        -9.1057
 117   2.0000      -0.331871        -9.0307
 118   2.0000      -0.325292        -8.8517
 119   2.0000      -0.316647        -8.6164
 120   2.0000      -0.312164        -8.4944
 121   2.0000      -0.307935        -8.3793
 122   2.0000      -0.297134        -8.0854
 123   2.0000      -0.294722        -8.0198
 124   2.0000      -0.292784        -7.9670
 125   2.0000      -0.284363        -7.7379
 126   2.0000      -0.279331        -7.6010
 127   2.0000      -0.276409        -7.5215
 128   2.0000      -0.269320        -7.3286
 129   2.0000      -0.267661        -7.2834
 130   2.0000      -0.260314        -7.0835
 131   2.0000      -0.249177        -6.7805
 132   2.0000      -0.233628        -6.3573
 133   2.0000      -0.228045        -6.2054
 134   2.0000      -0.202726        -5.5165
 135   0.0000      -0.087962        -2.3936
 136   0.0000      -0.064542        -1.7563
 137   0.0000      -0.038699        -1.0530
 138   0.0000      -0.033946        -0.9237
 139   0.0000      -0.029507        -0.8029

MULLIKEN ATOMIC CHARGES
-----------------------
   0 C :   -0.544111
   1 C :    0.100860
   2 C :    0.297816
   3 N :   -0.603285
   4 C :   -0.202205
   5 C :   -0.140838
   6 C :   -0.137966
   7 C :    0.168126
   8 C :   -0.171054
   9 C :   -0.141487
  10 C :   -0.122526
  11 C :   -0.114741
  12 Cl:   -0.008871
  13 C :   -0.137450
  14 S :    0.239951
  15 S :    1.208524
  16 O :   -0.527611
  17 O :   -0.553245
  18 C :   -0.113127
  19 C :   -0.151133
  20 C :   -0.139302
  21 C :    0.082502
  22 C :    0.528612
  23 O :   -0.443375
  24 O :   -0.624368
  25 C :   -0.150151
  26 C :   -0.146846
  27 N :   -0.352610
  28 C :   -0.048875
  29 C :    0.136656
  30 C :   -0.201107
  31 C :   -0.125911
  32 C :   -0.120492
  33 C :   -0.200788
  34 C :    0.125033
  35 H :    0.165443
  36 H :    0.166535
  37 H :    0.166744
  38 H :    0.158370
  39 H :    0.203016
  40 H :    0.176549
  41 H :    0.140583
  42 H :    0.135181
  43 H :    0.146599
  44 H :    0.179356
  45 H :    0.182323
  46 H :    0.434980
  47 H :    0.174577
  48 H :    0.189346
  49 H :    0.158155
  50 H :    0.143381
  51 H :    0.138307
  52 H :    0.138559
  53 H :    0.137392
Sum of atomic charges:   -0.0000000

LOEWDIN ATOMIC CHARGES
----------------------
   0 C :   -0.362333
   1 C :   -0.015548
   2 C :    0.023322
   3 N :   -0.280888
   4 C :   -0.147317
   5 C :   -0.193453
   6 C :   -0.140711
   7 C :   -0.033172
   8 C :   -0.118775
   9 C :   -0.132621
  10 C :   -0.140102
  11 C :   -0.094079
  12 Cl:    0.042617
  13 C :   -0.181226
  14 S :    0.382738
  15 S :    1.264271
  16 O :   -0.558110
  17 O :   -0.572322
  18 C :   -0.173449
  19 C :   -0.108468
  20 C :   -0.085139
  21 C :   -0.039936
  22 C :    0.180347
  23 O :   -0.259843
  24 O :   -0.335497
  25 C :   -0.100354
  26 C :   -0.105060
  27 N :   -0.104883
  28 C :   -0.053716
  29 C :   -0.026264
  30 C :   -0.109471
  31 C :   -0.124643
  32 C :   -0.116957
  33 C :   -0.125258
  34 C :   -0.008321
  35 H :    0.138024
  36 H :    0.139512
  37 H :    0.137356
  38 H :    0.129816
  39 H :    0.159623
  40 H :    0.155337
  41 H :    0.139456
  42 H :    0.135907
  43 H :    0.143197
  44 H :    0.156901
  45 H :    0.161135
  46 H :    0.350356
  47 H :    0.155404
  48 H :    0.161881
  49 H :    0.140215
  50 H :    0.139159
  51 H :    0.136522
  52 H :    0.136883
  53 H :    0.137936

  Mayer bond orders larger than 0.100000
B(  0-C ,  1-C ) :   0.9979 B(  0-C , 35-H ) :   0.9266 B(  0-C , 36-H ) :   0.9243
B(  0-C , 37-H ) :   0.9307 B(  1-C ,  2-C ) :   1.4364 B(  1-C , 28-C ) :   0.1006
B(  1-C , 34-C ) :   1.2606 B(  2-C ,  3-N ) :   0.8794 B(  2-C , 27-N ) :   1.2964
B(  3-N ,  4-C ) :   0.9369 B(  3-N , 15-S ) :   0.8142 B(  4-C ,  5-C ) :   0.9801
B(  4-C , 38-H ) :   0.9212 B(  4-C , 39-H ) :   0.9060 B(  5-C ,  6-C ) :   1.5842
B(  5-C , 14-S ) :   1.0937 B(  6-C ,  7-C ) :   1.2487 B(  6-C , 40-H ) :   0.9080
B(  7-C ,  8-C ) :   1.3351 B(  7-C , 13-C ) :   1.3266 B(  8-C ,  9-C ) :   1.4758
B(  8-C , 41-H ) :   0.9233 B(  9-C , 10-C ) :   1.3842 B(  9-C , 42-H ) :   0.9288
B( 10-C , 11-C ) :   1.4546 B( 10-C , 43-H ) :   0.9253 B( 11-C , 12-Cl) :   1.0269
B( 11-C , 13-C ) :   1.2974 B( 13-C , 14-S ) :   1.0669 B( 15-S , 16-O ) :   1.6603
B( 15-S , 17-O ) :   1.6002 B( 15-S , 18-C ) :   0.8155 B( 18-C , 19-C ) :   1.3753
B( 18-C , 26-C ) :   1.3965 B( 19-C , 20-C ) :   1.4246 B( 19-C , 44-H ) :   0.9115
B( 20-C , 21-C ) :   1.3996 B( 20-C , 45-H ) :   0.9090 B( 21-C , 22-C ) :   1.0085
B( 21-C , 25-C ) :   1.3840 B( 22-C , 23-O ) :   1.8623 B( 22-C , 24-O ) :   1.0245
B( 24-O , 46-H ) :   0.7414 B( 25-C , 26-C ) :   1.4097 B( 25-C , 47-H ) :   0.9146
B( 26-C , 48-H ) :   0.9081 B( 27-N , 28-C ) :   1.4997 B( 28-C , 29-C ) :   1.2298
B( 28-C , 49-H ) :   0.9255 B( 29-C , 30-C ) :   1.2855 B( 29-C , 34-C ) :   1.2921
B( 30-C , 31-C ) :   1.5109 B( 30-C , 33-C ) :   0.1062 B( 30-C , 50-H ) :   0.9225
B( 31-C , 32-C ) :   1.3546 B( 31-C , 51-H ) :   0.9289 B( 32-C , 33-C ) :   1.5070
B( 32-C , 52-H ) :   0.9289 B( 33-C , 34-C ) :   1.2954 B( 33-C , 53-H ) :   0.9169

FINAL SINGLE POINT ENERGY     -2668.042396023661

DIPOLE MOMENT
-------------

Method             : SCF
Type of density    : Electron Density
Multiplicity       :   1
Irrep              :   0
Energy             : -2668.0423960236607854 Eh
Relativity type    :
Basis              : AO
                                X                 Y                 Z
Electronic contribution:    -11.222778830      16.930686494      -4.220521636
Nuclear contribution   :     11.762584690     -19.339920732       3.189193269
                        -----------------------------------------
Total Dipole Moment    :      0.539805860      -2.409234239      -1.031328367
                        -----------------------------------------
Magnitude (a.u.)       :      2.675712650
Magnitude (Debye)      :      6.801121061

Rotational constants in cm-1:             0.005065             0.001865             0.001555
Rotational constants in MHz :           151.843346            55.919256            46.609400

                             ****ORCA TERMINATED NORMALLY****
TOTAL RUN TIME: 0 days 0 hours 10 minutes 14 seconds 921 msec
