                         Program Version 6.0.0  -   RELEASE  -
|  1> ! B3LYP 6-31G* SP
|  2>
|  3> * xyz 0 1
|  4> C -1.4753 2.0406 1.5941
|  5> C -2.2379 1.4971 0.3877
|  6> N -1.9116 0.0803 0.1354
|  7> C -0.5551 -0.3121 -0.1405
|  8> O -0.1563 -1.4460 0.2200
|  9> C 0.3976 0.5796 -0.8319
| 10> C 0.0210 1.2029 -2.0301
| 11> C 0.9041 2.0547 -2.6917
| 12> C 2.1725 2.2875 -2.1670
| 13> C 2.5687 1.6608 -0.9853
| 14> C 1.6894 0.7926 -0.3102
| 15> O 2.0555 0.1375 0.8772
| 16> C 3.3188 0.2492 1.5290
| 17> C 4.4296 -0.3999 0.7264
| 18> C 4.1465 -1.5517 -0.0402
| 19> C 5.1490 -2.1710 -0.7902
| 20> C 6.4512 -1.6675 -0.7701
| 21> C 6.7631 -0.5600 0.0269
| 22> C 5.7693 0.0745 0.7942
| 23> C 6.1458 1.2639 1.6403
| 24> C -2.9729 -0.9508 0.1420
| 25> C -3.7191 -1.0192 1.5070
| 26> C -5.1753 -0.5368 1.4272
| 27> C -5.9808 -1.2751 0.3410
| 28> C -5.1548 -1.6679 -0.9096
| 29> N -5.9821 -1.5887 -2.1144
| 30> C -3.9180 -0.7671 -1.0630
| 31> H -0.4073 2.1888 1.3431
| 32> H -1.5513 1.3420 2.4529
| 33> H -1.9006 3.0257 1.8892
| 34> H -2.0088 2.1118 -0.5051
| 35> H -3.3191 1.6241 0.5825
| 36> H -0.9558 1.0229 -2.4559
| 37> H 0.6028 2.5367 -3.6117
| 38> H 2.8532 2.9523 -2.6794
| 39> H 3.5580 1.8633 -0.6055
| 40> H 3.2534 -0.2641 2.5068
| 41> H 3.5148 1.3210 1.7297
| 42> H 3.1455 -1.9701 -0.0615
| 43> H 4.9143 -3.0469 -1.3861
| 44> H 7.2266 -2.1506 -1.3528
| 45> H 7.7833 -0.2030 0.0521
| 46> H 7.2495 1.3929 1.6990
| 47> H 5.7129 2.1858 1.1968
| 48> H 5.7694 1.1330 2.6765
| 49> H -2.5065 -1.9526 0.0002
| 50> H -3.1830 -0.4314 2.2867
| 51> H -3.7249 -2.0768 1.8627
| 52> H -5.6637 -0.6765 2.4139
| 53> H -5.1984 0.5516 1.2124
| 54> H -6.8271 -0.6194 0.0493
| 55> H -6.4223 -2.1979 0.7758
| 56> H -4.8068 -2.7206 -0.7839
| 57> H -5.4342 -1.9735 -2.9194
| 58> H -6.8004 -2.2320 -1.9965
| 59> H -4.2456 0.2909 -1.1588
| 60> H -3.3707 -1.0351 -1.9933
| 61> *
| 62>
| 63>                          ****END OF INPUT****

CARTESIAN COORDINATES (ANGSTROEM)
---------------------------------
  C     -1.475300    2.040600    1.594100
  C     -2.237900    1.497100    0.387700
  N     -1.911600    0.080300    0.135400
  C     -0.555100   -0.312100   -0.140500
  O     -0.156300   -1.446000    0.220000
  C      0.397600    0.579600   -0.831900
  C      0.021000    1.202900   -2.030100
  C      0.904100    2.054700   -2.691700
  C      2.172500    2.287500   -2.167000
  C      2.568700    1.660800   -0.985300
  C      1.689400    0.792600   -0.310200
  O      2.055500    0.137500    0.877200
  C      3.318800    0.249200    1.529000
  C      4.429600   -0.399900    0.726400
  C      4.146500   -1.551700   -0.040200
  C      5.149000   -2.171000   -0.790200
  C      6.451200   -1.667500   -0.770100
  C      6.763100   -0.560000    0.026900
  C      5.769300    0.074500    0.794200
  C      6.145800    1.263900    1.640300
  C     -2.972900   -0.950800    0.142000
  C     -3.719100   -1.019200    1.507000
  C     -5.175300   -0.536800    1.427200
  C     -5.980800   -1.275100    0.341000
  C     -5.154800   -1.667900   -0.909600
  N     -5.982100   -1.588700   -2.114400
  C     -3.918000   -0.767100   -1.063000
  H     -0.407300    2.188800    1.343100
  H     -1.551300    1.342000    2.452900
  H     -1.900600    3.025700    1.889200
  H     -2.008800    2.111800   -0.505100
  H     -3.319100    1.624100    0.582500
  H     -0.955800    1.022900   -2.455900
  H      0.602800    2.536700   -3.611700
  H      2.853200    2.952300   -2.679400
  H      3.558000    1.863300   -0.605500
  H      3.253400   -0.264100    2.506800
  H      3.514800    1.321000    1.729700
  H      3.145500   -1.970100   -0.061500
  H      4.914300   -3.046900   -1.386100
  H      7.226600   -2.150600   -1.352800
  H      7.783300   -0.203000    0.052100
  H      7.249500    1.392900    1.699000
  H      5.712900    2.185800    1.196800
  H      5.769400    1.133000    2.676500
  H     -2.506500   -1.952600    0.000200
  H     -3.183000   -0.431400    2.286700
  H     -3.724900   -2.076800    1.862700
  H     -5.663700   -0.676500    2.413900
  H     -5.198400    0.551600    1.212400
  H     -6.827100   -0.619400    0.049300
  H     -6.422300   -2.197900    0.775800
  H     -4.806800   -2.720600   -0.783900
  H     -5.434200   -1.973500   -2.919400
  H     -6.800400   -2.232000   -1.996500
  H     -4.245600    0.290900   -1.158800
  H     -3.370700   -1.035100   -1.993300

 Total Charge           Charge          ....    0
 Multiplicity           Mult            ....    1
 Number of Electrons    NEL             ....  198
 Basis Dimension        Dim             ....  438

ORBITAL ENERGIES
----------------

  NO   OCC          E(Eh)            E(eV)
   0   2.0000     -19.160135      -521.3738
   1   2.0000     -19.093279      -519.5545
   2   2.0000     -14.333459      -390.0333
   3   2.0000     -14.302316      -389.1858
   4   2.0000     -10.270826      -279.4834
   5   2.0000     -10.251279      -278.9515
   6   2.0000     -10.238019      -278.5907
   7   2.0000     -10.208887      -277.7979
   8   2.0000     -10.207144      -277.7505
   9   2.0000     -10.201444      -277.5954
  10   2.0000     -10.191082      -277.3134
  11   2.0000     -10.188283      -277.2373
  12   2.0000     -10.186838      -277.1979
  13   2.0000     -10.184709      -277.1400
  14   2.0000     -10.184513      -277.1347
  15   2.0000     -10.180935      -277.0373
  16   2.0000     -10.180242      -277.0185
  17   2.0000     -10.176438      -276.9149
  18   2.0000     -10.173545      -276.8362
  19   2.0000     -10.172941      -276.8198
  20   2.0000     -10.171604      -276.7834
  21   2.0000     -10.170988      -276.7667
  22   2.0000     -10.170544      -276.7546
  23   2.0000     -10.169112      -276.7156
  24   2.0000     -10.168520      -276.6995
  25   2.0000     -10.168406      -276.6964
  26   2.0000     -10.166352      -276.6405
  27   2.0000      -1.041191       -28.3322
  28   2.0000      -0.996318       -27.1112
  29   2.0000      -0.902877       -24.5685
  30   2.0000      -0.875453       -23.8223
  31   2.0000      -0.853061       -23.2130
  32   2.0000      -0.844244       -22.9731
  33   2.0000      -0.798757       -21.7353
  34   2.0000      -0.771453       -20.9923
  35   2.0000      -0.760760       -20.7013
  36   2.0000      -0.753986       -20.5170
  37   2.0000      -0.748124       -20.3575
  38   2.0000      -0.734373       -19.9833
  39   2.0000      -0.717775       -19.5316
  40   2.0000      -0.703773       -19.1506
  41   2.0000      -0.688232       -18.7277
  42   2.0000      -0.666932       -18.1481
  43   2.0000      -0.635216       -17.2851
  44   2.0000      -0.621882       -16.9223
  45   2.0000      -0.607691       -16.5361
  46   2.0000      -0.601794       -16.3756
  47   2.0000      -0.592234       -16.1155
  48   2.0000      -0.578852       -15.7514
  49   2.0000      -0.566775       -15.4227
  50   2.0000      -0.541347       -14.7308
  51   2.0000      -0.518300       -14.1036
  52   2.0000      -0.514961       -14.0128
  53   2.0000      -0.499205       -13.5841
  54   2.0000      -0.492464       -13.4006
  55   2.0000      -0.481145       -13.0926
  56   2.0000      -0.475050       -12.9268
  57   2.0000      -0.473769       -12.8919
  58   2.0000      -0.462969       -12.5980
  59   2.0000      -0.461211       -12.5502
  60   2.0000      -0.453926       -12.3520
  61   2.0000      -0.446871       -12.1600
  62   2.0000      -0.440272       -11.9804
  63   2.0000      -0.437167       -11.8959
  64   2.0000      -0.433467       -11.7952
  65   2.0000      -0.427098       -11.6219
  66   2.0000      -0.423430       -11.5221
  67   2.0000      -0.416040       -11.3210
  68   2.0000      -0.414798       -11.2872
  69   2.0000      -0.399591       -10.8734
  70   2.0000      -0.397301       -10.8111
  71   2.0000      -0.389180       -10.5901
  72   2.0000      -0.380830       -10.3629
  73   2.0000      -0.380214       -10.3461
  74   2.0000      -0.377758       -10.2793
  75   2.0000      -0.374755       -10.1976
  76   2.0000      -0.371526       -10.1097
  77   2.0000      -0.366489        -9.9727
  78   2.0000      -0.362828        -9.8730
  79   2.0000      -0.360481        -9.8092
  80   2.0000      -0.350194        -9.5293
  81   2.0000      -0.344152        -9.3648
  82   2.0000      -0.342951        -9.3322
  83   2.0000      -0.341043        -9.2803
  84   2.0000      -0.338512        -9.2114
  85   2.0000      -0.334344        -9.0980
  86   2.0000      -0.329368        -8.9626
  87   2.0000      -0.310602        -8.4519
  88   2.0000      -0.308709        -8.4004
  89   2.0000      -0.304642        -8.2897
  90   2.0000      -0.302082        -8.2201
  91   2.0000      -0.293130        -7.9765
  92   2.0000      -0.252191        -6.8625
  93   2.0000      -0.234673        -6.3858
  94   2.0000      -0.229291        -6.2393
  95   2.0000      -0.228142        -6.2081
  96   2.0000      -0.227271        -6.1844
  97   2.0000      -0.217064        -5.9066
  98   2.0000      -0.208406        -5.6710
  99   0.0000      -0.024742        -0.6733
 100   0.0000       0.001263         0.0344
 101   0.0000       0.008338         0.2269
 102   0.0000       0.011056         0.3008
 103   0.0000       0.046396         1.2625

MULLIKEN ATOMIC CHARGES
-----------------------
   0 C :   -0.445413
   1 C :   -0.146083
   2 N :   -0.421843
   3 C :    0.453251
   4 O :   -0.461488
   5 C :    0.017839
   6 C :   -0.164941
   7 C :   -0.137555
   8 C :   -0.118164
   9 C :   -0.195365
  10 C :    0.351605
  11 O :   -0.507283
  12 C :   -0.092870
  13 C :    0.046594
  14 C :   -0.172106
  15 C :   -0.126848
  16 C :   -0.121593
  17 C :   -0.180223
  18 C :    0.128672
  19 C :   -0.534292
  20 C :    0.039059
  21 C :   -0.283129
  22 C :   -0.269338
  23 C :   -0.269010
  24 C :    0.046273
  25 N :   -0.715190
  26 C :   -0.265495
  27 H :    0.159889
  28 H :    0.159569
  29 H :    0.134678
  30 H :    0.147184
  31 H :    0.152476
  32 H :    0.142981
  33 H :    0.125885
  34 H :    0.132695
  35 H :    0.143894
  36 H :    0.174960
  37 H :    0.137211
  38 H :    0.169458
  39 H :    0.128001
  40 H :    0.122988
  41 H :    0.119322
  42 H :    0.155851
  43 H :    0.159128
  44 H :    0.155643
  45 H :    0.165619
  46 H :    0.147017
  47 H :    0.136768
  48 H :    0.131854
  49 H :    0.133102
  50 H :    0.144236
  51 H :    0.125007
  52 H :    0.102011
  53 H :    0.285813
  54 H :    0.286294
  55 H :    0.139062
  56 H :    0.126338
Sum of atomic charges:   -0.0000000

LOEWDIN ATOMIC CHARGES
----------------------
   0 C :   -0.368168
   1 C :   -0.162281
   2 N :   -0.108590
   3 C :    0.138757
   4 O :   -0.267315
   5 C :   -0.067254
   6 C :   -0.115002
   7 C :   -0.149875
   8 C :   -0.115113
   9 C :   -0.166919
  10 C :    0.111209
  11 O :   -0.167295
  12 C :   -0.084386
  13 C :   -0.050440
  14 C :   -0.121154
  15 C :   -0.132819
  16 C :   -0.130104
  17 C :   -0.138951
  18 C :   -0.028415
  19 C :   -0.354872
  20 C :   -0.053462
  21 C :   -0.235550
  22 C :   -0.232705
  23 C :   -0.235100
  24 C :   -0.077242
  25 N :   -0.467596
  26 C :   -0.231720
  27 H :    0.131170
  28 H :    0.129434
  29 H :    0.122585
  30 H :    0.121568
  31 H :    0.128038
  32 H :    0.139078
  33 H :    0.131077
  34 H :    0.134204
  35 H :    0.140673
  36 H :    0.143430
  37 H :    0.117013
  38 H :    0.149584
  39 H :    0.131287
  40 H :    0.128990
  41 H :    0.127732
  42 H :    0.132131
  43 H :    0.132114
  44 H :    0.131136
  45 H :    0.141907
  46 H :    0.127720
  47 H :    0.122518
  48 H :    0.122045
  49 H :    0.112136
  50 H :    0.127380
  51 H :    0.115636
  52 H :    0.092680
  53 H :    0.218463
  54 H :    0.219614
  55 H :    0.122235
  56 H :    0.118782

  Mayer bond orders larger than 0.100000
B(  0-C ,  1-C ) :   1.0065 B(  0-C , 27-H ) :   0.9418 B(  0-C , 28-H ) :   0.9443
B(  0-C , 29-H ) :   0.9459 B(  1-C ,  2-N ) :   0.9433 B(  1-C , 30-H ) :   0.9238
B(  1-C , 31-H ) :   0.9299 B(  2-N ,  3-C ) :   1.0718 B(  2-N , 20-C ) :   0.9289
B(  3-C ,  4-O ) :   1.8110 B(  3-C ,  5-C ) :   0.9336 B(  5-C ,  6-C ) :   1.4181
B(  5-C , 10-C ) :   1.3515 B(  6-C ,  7-C ) :   1.4363 B(  6-C , 32-H ) :   0.9201
B(  7-C ,  8-C ) :   1.4497 B(  7-C , 33-H ) :   0.9296 B(  8-C ,  9-C ) :   1.4438
B(  8-C , 34-H ) :   0.9295 B(  9-C , 10-C ) :   1.3582 B(  9-C , 35-H ) :   0.9125
B( 10-C , 11-O ) :   0.9283 B( 11-O , 12-C ) :   0.9140 B( 12-C , 13-C ) :   0.9636
B( 12-C , 36-H ) :   0.9206 B( 12-C , 37-H ) :   0.9156 B( 13-C , 14-C ) :   1.4201
B( 13-C , 18-C ) :   1.4042 B( 14-C , 15-C ) :   1.4370 B( 14-C , 38-H ) :   0.9103
B( 15-C , 16-C ) :   1.4510 B( 15-C , 39-H ) :   0.9305 B( 16-C , 17-C ) :   1.4415
B( 16-C , 40-H ) :   0.9304 B( 17-C , 18-C ) :   1.4368 B( 17-C , 41-H ) :   0.9243
B( 18-C , 19-C ) :   0.9891 B( 19-C , 42-H ) :   0.9447 B( 19-C , 43-H ) :   0.9307
B( 19-C , 44-H ) :   0.9382 B( 20-C , 21-C ) :   0.9660 B( 20-C , 26-C ) :   0.9830
B( 20-C , 45-H ) :   0.9142 B( 21-C , 22-C ) :   1.0089 B( 21-C , 46-H ) :   0.9360
B( 21-C , 47-H ) :   0.9431 B( 22-C , 23-C ) :   1.0063 B( 22-C , 48-H ) :   0.9416
B( 22-C , 49-H ) :   0.9371 B( 23-C , 24-C ) :   0.9846 B( 23-C , 50-H ) :   0.9341
B( 23-C , 51-H ) :   0.9448 B( 24-C , 25-N ) :   0.9801 B( 24-C , 26-C ) :   0.9893
B( 24-C , 52-H ) :   0.9300 B( 25-N , 53-H ) :   0.8618 B( 25-N , 54-H ) :   0.8630
B( 26-C , 55-H ) :   0.9263 B( 26-C , 56-H ) :   0.9356

FINAL SINGLE POINT ENERGY     -1153.686864950035

DIPOLE MOMENT
-------------

Method             : SCF
Type of density    : Electron Density
Multiplicity       :   1
Irrep              :   0
Energy             : -1153.6868649500352149 Eh
Relativity type    :
Basis              : AO
                                X                 Y                 Z
Electronic contribution:     22.168019697      -3.475994209      -6.021213562
Nuclear contribution   :    -22.123953854       4.160444925       5.972729133
                        -----------------------------------------
Total Dipole Moment    :      0.044065843       0.684450716      -0.048484429
                        -----------------------------------------
Magnitude (a.u.)       :      0.687579320
Magnitude (Debye)      :      1.747687740

Rotational constants in cm-1:             0.013920             0.002635             0.002599
Rotational constants in MHz :           417.319722            78.989528            77.914125

                             ****ORCA TERMINATED NORMALLY****
TOTAL RUN TIME: 0 days 0 hours 7 minutes 31 seconds 372 msec
