                         Program Version 6.0.0  -   RELEASE  -
|  1> ! B3LYP 6-31G* SP
|  2>
|  3> * xyz 0 1
|  4> C -1.9042 0.1257 -2.6691
|  5> C -2.9399 -0.0037 -1.6004
|  6> O -3.9412 0.8429 -1.4490
|  7> C -4.6298 0.4553 -0.4007
|  8> C -4.0866 -0.6603 0.1562
|  9> C -2.9856 -0.9911 -0.6160
| 10> C -1.9825 -2.0845 -0.3848
| 11> C -0.8389 -1.5654 0.4324
| 12> O -1.0233 -1.3081 1.6515
| 13> N 0.4484 -1.3654 -0.1726
| 14> C 1.5125 -0.6077 0.4186
| 15> N 2.7641 -0.6016 -0.0881
| 16> C 3.5971 0.2276 0.6013
| 17> C 5.0281 0.3805 0.2303
| 18> C 5.9706 0.8215 1.1778
| 19> C 7.3181 0.9513 0.8383
| 20> C 7.7607 0.6409 -0.4598
| 21> C 9.2221 0.7366 -0.8294
| 22> F 9.7308 -0.5368 -1.0131
| 23> F 9.3630 1.4529 -2.0040
| 24> F 9.9588 1.3706 0.1569
| 25> C 6.8251 0.1850 -1.4049
| 26> F 7.2259 -0.1558 -2.6570
| 27> C 5.4726 0.0652 -1.0698
| 28> F 4.5993 -0.3475 -2.0236
| 29> C 2.9885 0.9044 1.6650
| 30> S 1.3736 0.4390 1.7310
| 31> C -4.6522 -1.2118 1.2985
| 32> O -4.1331 -2.2227 1.8431
| 33> N -5.7829 -0.6283 1.8196
| 34> C -6.3881 -1.1885 3.0377
| 35> C -6.3069 0.5144 1.2414
| 36> O -7.3216 1.0685 1.7498
| 37> N -5.7309 1.0614 0.1176
| 38> C -6.2925 2.2666 -0.5027
| 39> H -0.9157 0.3299 -2.2082
| 40> H -2.1635 0.9629 -3.3471
| 41> H -1.8506 -0.8126 -3.2583
| 42> H -2.4520 -2.9439 0.1340
| 43> H -1.6195 -2.4640 -1.3632
| 44> H 0.6255 -1.7865 -1.1108
| 45> H 5.6775 1.0466 2.1924
| 46> H 8.0140 1.2825 1.5991
| 47> H 3.4514 1.6262 2.3233
| 48> H -7.4631 -0.9308 3.1162
| 49> H -6.3314 -2.2957 3.0316
| 50> H -5.8566 -0.8022 3.9325
| 51> H -5.6841 2.6127 -1.3643
| 52> H -6.3309 3.0877 0.2419
| 53> H -7.3199 2.0561 -0.8670
| 54> *
| 55>
| 56>                          ****END OF INPUT****

CARTESIAN COORDINATES (ANGSTROEM)
---------------------------------
  C     -1.904200    0.125700   -2.669100
  C     -2.939900   -0.003700   -1.600400
  O     -3.941200    0.842900   -1.449000
  C     -4.629800    0.455300   -0.400700
  C     -4.086600   -0.660300    0.156200
  C     -2.985600   -0.991100   -0.616000
  C     -1.982500   -2.084500   -0.384800
  C     -0.838900   -1.565400    0.432400
  O     -1.023300   -1.308100    1.651500
  N      0.448400   -1.365400   -0.172600
  C      1.512500   -0.607700    0.418600
  N      2.764100   -0.601600   -0.088100
  C      3.597100    0.227600    0.601300
  C      5.028100    0.380500    0.230300
  C      5.970600    0.821500    1.177800
  C      7.318100    0.951300    0.838300
  C      7.760700    0.640900   -0.459800
  C      9.222100    0.736600   -0.829400
  F      9.730800   -0.536800   -1.013100
  F      9.363000    1.452900   -2.004000
  F      9.958800    1.370600    0.156900
  C      6.825100    0.185000   -1.404900
  F      7.225900   -0.155800   -2.657000
  C      5.472600    0.065200   -1.069800
  F      4.599300   -0.347500   -2.023600
  C      2.988500    0.904400    1.665000
  S      1.373600    0.439000    1.731000
  C     -4.652200   -1.211800    1.298500
  O     -4.133100   -2.222700    1.843100
  N     -5.782900   -0.628300    1.819600
  C     -6.388100   -1.188500    3.037700
  C     -6.306900    0.514400    1.241400
  O     -7.321600    1.068500    1.749800
  N     -5.730900    1.061400    0.117600
  C     -6.292500    2.266600   -0.502700
  H     -0.915700    0.329900   -2.208200
  H     -2.163500    0.962900   -3.347100
  H     -1.850600   -0.812600   -3.258300
  H     -2.452000   -2.943900    0.134000
  H     -1.619500   -2.464000   -1.363200
  H      0.625500   -1.786500   -1.110800
  H      5.677500    1.046600    2.192400
  H      8.014000    1.282500    1.599100
  H      3.451400    1.626200    2.323300
  H     -7.463100   -0.930800    3.116200
  H     -6.331400   -2.295700    3.031600
  H     -5.856600   -0.802200    3.932500
  H     -5.684100    2.612700   -1.364300
  H     -6.330900    3.087700    0.241900
  H     -7.319900    2.056100   -0.867000

 Total Charge           Charge          ....    0
 Multiplicity           Mult            ....    1
 Number of Electrons    NEL             ....  262
 Basis Dimension        Dim             ....  524

ORBITAL ENERGIES
----------------

  NO   OCC          E(Eh)            E(eV)
   0   2.0000     -88.910909     -2419.3888
   1   2.0000     -24.725278      -672.8090
   2   2.0000     -24.717283      -672.5915
   3   2.0000     -24.716651      -672.5743
   4   2.0000     -24.716421      -672.5680
   5   2.0000     -24.709912      -672.3909
   6   2.0000     -19.254454      -523.9403
   7   2.0000     -19.131751      -520.6014
   8   2.0000     -19.113650      -520.1089
   9   2.0000     -19.102483      -519.8050
  10   2.0000     -14.413989      -392.2246
  11   2.0000     -14.400478      -391.8569
  12   2.0000     -14.393666      -391.6716
  13   2.0000     -14.336589      -390.1184
  14   2.0000     -10.441052      -284.1155
  15   2.0000     -10.330158      -281.0979
  16   2.0000     -10.312993      -280.6308
  17   2.0000     -10.299652      -280.2678
  18   2.0000     -10.296221      -280.1744
  19   2.0000     -10.295823      -280.1636
  20   2.0000     -10.290655      -280.0230
  21   2.0000     -10.284896      -279.8662
  22   2.0000     -10.255874      -279.0765
  23   2.0000     -10.241078      -278.6739
  24   2.0000     -10.238154      -278.5943
  25   2.0000     -10.228151      -278.3221
  26   2.0000     -10.227435      -278.3027
  27   2.0000     -10.216764      -278.0123
  28   2.0000     -10.215372      -277.9744
  29   2.0000     -10.213731      -277.9297
  30   2.0000     -10.212693      -277.9015
  31   2.0000     -10.209677      -277.8194
  32   2.0000     -10.209498      -277.8146
  33   2.0000     -10.204409      -277.6761
  34   2.0000     -10.187543      -277.2171
  35   2.0000      -7.987027      -217.3381
  36   2.0000      -5.950130      -161.9113
  37   2.0000      -5.945910      -161.7964
  38   2.0000      -5.944038      -161.7455
  39   2.0000      -1.280881       -34.8545
  40   2.0000      -1.232970       -33.5508
  41   2.0000      -1.217831       -33.1389
  42   2.0000      -1.207060       -32.8458
  43   2.0000      -1.202843       -32.7310
  44   2.0000      -1.184256       -32.2253
  45   2.0000      -1.067810       -29.0566
  46   2.0000      -1.034300       -28.1447
  47   2.0000      -1.015523       -27.6338
  48   2.0000      -0.983516       -26.7628
  49   2.0000      -0.976401       -26.5692
  50   2.0000      -0.936192       -25.4751
  51   2.0000      -0.922342       -25.0982
  52   2.0000      -0.886937       -24.1348
  53   2.0000      -0.855535       -23.2803
  54   2.0000      -0.818814       -22.2811
  55   2.0000      -0.812433       -22.1074
  56   2.0000      -0.807334       -21.9687
  57   2.0000      -0.774727       -21.0814
  58   2.0000      -0.769162       -20.9300
  59   2.0000      -0.752424       -20.4745
  60   2.0000      -0.740050       -20.1378
  61   2.0000      -0.726460       -19.7680
  62   2.0000      -0.712252       -19.3814
  63   2.0000      -0.698041       -18.9947
  64   2.0000      -0.664367       -18.0783
  65   2.0000      -0.645465       -17.5640
  66   2.0000      -0.644471       -17.5369
  67   2.0000      -0.631189       -17.1755
  68   2.0000      -0.627209       -17.0672
  69   2.0000      -0.611935       -16.6516
  70   2.0000      -0.596160       -16.2223
  71   2.0000      -0.582907       -15.8617
  72   2.0000      -0.576803       -15.6956
  73   2.0000      -0.571362       -15.5475
  74   2.0000      -0.570198       -15.5159
  75   2.0000      -0.568750       -15.4765
  76   2.0000      -0.541136       -14.7251
  77   2.0000      -0.538059       -14.6413
  78   2.0000      -0.531407       -14.4603
  79   2.0000      -0.526570       -14.3287
  80   2.0000      -0.520298       -14.1580
  81   2.0000      -0.506236       -13.7754
  82   2.0000      -0.503663       -13.7054
  83   2.0000      -0.496476       -13.5098
  84   2.0000      -0.486275       -13.2322
  85   2.0000      -0.484814       -13.1925
  86   2.0000      -0.481061       -13.0903
  87   2.0000      -0.473923       -12.8961
  88   2.0000      -0.462050       -12.5730
  89   2.0000      -0.458677       -12.4812
  90   2.0000      -0.453246       -12.3334
  91   2.0000      -0.450733       -12.2651
  92   2.0000      -0.448722       -12.2104
  93   2.0000      -0.445689       -12.1278
  94   2.0000      -0.445040       -12.1102
  95   2.0000      -0.437355       -11.9010
  96   2.0000      -0.435965       -11.8632
  97   2.0000      -0.433981       -11.8092
  98   2.0000      -0.430916       -11.7258
  99   2.0000      -0.428832       -11.6691
 100   2.0000      -0.421199       -11.4614
 101   2.0000      -0.418689       -11.3931
 102   2.0000      -0.417688       -11.3659
 103   2.0000      -0.414809       -11.2875
 104   2.0000      -0.408637       -11.1196
 105   2.0000      -0.408236       -11.1087
 106   2.0000      -0.398720       -10.8497
 107   2.0000      -0.398264       -10.8373
 108   2.0000      -0.397696       -10.8219
 109   2.0000      -0.396614       -10.7924
 110   2.0000      -0.390276       -10.6200
 111   2.0000      -0.387265       -10.5380
 112   2.0000      -0.380280       -10.3480
 113   2.0000      -0.378270       -10.2932
 114   2.0000      -0.375561       -10.2195
 115   2.0000      -0.367128        -9.9901
 116   2.0000      -0.362390        -9.8611
 117   2.0000      -0.354966        -9.6591
 118   2.0000      -0.327185        -8.9031
 119   2.0000      -0.318505        -8.6670
 120   2.0000      -0.301820        -8.2129
 121   2.0000      -0.289557        -7.8792
 122   2.0000      -0.278203        -7.5703
 123   2.0000      -0.275212        -7.4889
 124   2.0000      -0.269175        -7.3246
 125   2.0000      -0.264475        -7.1967
 126   2.0000      -0.258795        -7.0422
 127   2.0000      -0.257989        -7.0203
 128   2.0000      -0.242450        -6.5974
 129   2.0000      -0.222979        -6.0676
 130   2.0000      -0.207843        -5.6557
 131   0.0000      -0.054823        -1.4918
 132   0.0000      -0.038506        -1.0478
 133   0.0000      -0.017627        -0.4796
 134   0.0000      -0.015814        -0.4303
 135   0.0000      -0.005973        -0.1625

MULLIKEN ATOMIC CHARGES
-----------------------
   0 C :   -0.541105
   1 C :    0.258973
   2 O :   -0.405850
   3 C :    0.479697
   4 C :    0.042531
   5 C :    0.033356
   6 C :   -0.436522
   7 C :    0.569203
   8 O :   -0.436838
   9 N :   -0.647384
  10 C :    0.252867
  11 N :   -0.414553
  12 C :    0.215730
  13 C :    0.046704
  14 C :   -0.172782
  15 C :   -0.162757
  16 C :   -0.109601
  17 C :    0.921136
  18 F :   -0.295346
  19 F :   -0.297721
  20 F :   -0.304638
  21 C :    0.319240
  22 F :   -0.292930
  23 C :    0.300556
  24 F :   -0.289640
  25 C :   -0.394281
  26 S :    0.324927
  27 C :    0.511674
  28 O :   -0.494835
  29 N :   -0.483218
  30 C :   -0.315017
  31 C :    0.674804
  32 O :   -0.506134
  33 N :   -0.501219
  34 C :   -0.327074
  35 H :    0.180349
  36 H :    0.173236
  37 H :    0.174406
  38 H :    0.227621
  39 H :    0.137028
  40 H :    0.355272
  41 H :    0.147105
  42 H :    0.162943
  43 H :    0.183910
  44 H :    0.194754
  45 H :    0.191960
  46 H :    0.180549
  47 H :    0.181910
  48 H :    0.195978
  49 H :    0.191027
Sum of atomic charges:   -0.0000000

LOEWDIN ATOMIC CHARGES
----------------------
   0 C :   -0.364735
   1 C :    0.017595
   2 O :   -0.002520
   3 C :    0.091636
   4 C :   -0.104670
   5 C :   -0.038441
   6 C :   -0.239235
   7 C :    0.155560
   8 O :   -0.246859
   9 N :   -0.205695
  10 C :   -0.079829
  11 N :   -0.176978
  12 C :   -0.009918
  13 C :   -0.024429
  14 C :   -0.126329
  15 C :   -0.116277
  16 C :   -0.095252
  17 C :    0.316144
  18 F :   -0.110953
  19 F :   -0.109623
  20 F :   -0.110232
  21 C :    0.111779
  22 F :   -0.084937
  23 C :    0.105927
  24 F :   -0.078971
  25 C :   -0.343187
  26 S :    0.433454
  27 C :    0.111336
  28 O :   -0.291826
  29 N :   -0.027652
  30 C :   -0.260140
  31 C :    0.142557
  32 O :   -0.314410
  33 N :   -0.023965
  34 C :   -0.259164
  35 H :    0.145390
  36 H :    0.147208
  37 H :    0.143961
  38 H :    0.180416
  39 H :    0.126299
  40 H :    0.274840
  41 H :    0.142447
  42 H :    0.150038
  43 H :    0.162171
  44 H :    0.152359
  45 H :    0.150914
  46 H :    0.141872
  47 H :    0.145023
  48 H :    0.150376
  49 H :    0.146923

  Mayer bond orders larger than 0.100000
B(  0-C ,  1-C ) :   1.0280 B(  0-C , 35-H ) :   0.9246 B(  0-C , 36-H ) :   0.9367
B(  0-C , 37-H ) :   0.9316 B(  1-C ,  2-O ) :   0.9892 B(  1-C ,  5-C ) :   1.5425
B(  2-O ,  3-C ) :   1.0661 B(  3-C ,  4-C ) :   1.3748 B(  3-C , 33-N ) :   0.9744
B(  4-C ,  5-C ) :   1.3017 B(  4-C , 27-C ) :   1.0805 B(  5-C ,  6-C ) :   0.9967
B(  6-C ,  7-C ) :   0.9535 B(  6-C , 38-H ) :   0.8849 B(  6-C , 39-H ) :   0.9192
B(  7-C ,  8-O ) :   1.8477 B(  7-C ,  9-N ) :   1.0053 B(  9-N , 10-C ) :   0.9462
B(  9-N , 40-H ) :   0.8079 B( 10-C , 11-N ) :   1.4856 B( 10-C , 25-C ) :   0.1070
B( 10-C , 26-S ) :   1.1775 B( 11-N , 12-C ) :   1.2906 B( 12-C , 13-C ) :   1.0328
B( 12-C , 25-C ) :   1.5161 B( 13-C , 14-C ) :   1.3992 B( 13-C , 23-C ) :   1.2952
B( 14-C , 15-C ) :   1.4384 B( 14-C , 41-H ) :   0.9193 B( 15-C , 16-C ) :   1.4044
B( 15-C , 42-H ) :   0.9169 B( 16-C , 17-C ) :   0.9662 B( 16-C , 21-C ) :   1.3188
B( 17-C , 18-F ) :   0.9830 B( 17-C , 19-F ) :   0.9664 B( 17-C , 20-F ) :   0.9468
B( 21-C , 22-F ) :   0.9612 B( 21-C , 23-C ) :   1.2879 B( 23-C , 24-F ) :   0.9512
B( 25-C , 26-S ) :   1.1227 B( 25-C , 43-H ) :   0.9029 B( 27-C , 28-O ) :   1.7821
B( 27-C , 29-N ) :   0.9642 B( 29-N , 30-C ) :   0.9196 B( 29-N , 31-C ) :   1.0457
B( 30-C , 44-H ) :   0.9249 B( 30-C , 45-H ) :   0.9265 B( 30-C , 46-H ) :   0.9400
B( 31-C , 32-O ) :   1.7924 B( 31-C , 33-N ) :   1.0456 B( 33-N , 34-C ) :   0.9271
B( 34-C , 47-H ) :   0.9303 B( 34-C , 48-H ) :   0.9307 B( 34-C , 49-H ) :   0.9329

FINAL SINGLE POINT ENERGY     -2225.536264754985

DIPOLE MOMENT
-------------

Method             : SCF
Type of density    : Electron Density
Multiplicity       :   1
Irrep              :   0
Energy             : -2225.5362647549845860 Eh
Relativity type    :
Basis              : AO
                                X                 Y                 Z
Electronic contribution:     75.899157061       1.760317446     -10.585902747
Nuclear contribution   :    -76.953299436      -0.808442094       9.617301235
                        -----------------------------------------
Total Dipole Moment    :     -1.054142375       0.951875352      -0.968601512
                        -----------------------------------------
Magnitude (a.u.)       :      1.719148545
Magnitude (Debye)      :      4.369728335

Rotational constants in cm-1:             0.011542             0.001018             0.000994
Rotational constants in MHz :           346.025157            30.507990            29.803875

                             ****ORCA TERMINATED NORMALLY****
TOTAL RUN TIME: 0 days 0 hours 5 minutes 33 seconds 370 msec
