                         Program Version 6.0.0  -   RELEASE  -
|  1> ! B3LYP 6-31G* SP
|  2>
|  3> * xyz 0 1
|  4> C 5.7039 -1.0234 1.4977
|  5> O 4.3192 -1.1620 1.7915
|  6> C 3.2908 -1.0541 0.8433
|  7> C 1.9720 -1.2445 1.2666
|  8> C 0.9132 -1.1506 0.3608
|  9> C 1.1489 -0.8493 -0.9910
| 10> C -0.0392 -0.6860 -1.9320
| 11> C 0.2760 -1.0415 -3.3925
| 12> N -0.6310 0.6688 -1.8551
| 13> C 0.2201 1.8725 -1.7821
| 14> C 0.5596 2.1972 -0.3486
| 15> C -0.4623 2.3901 0.5936
| 16> C -0.1488 2.6371 1.9301
| 17> C 1.1851 2.7155 2.3363
| 18> C 2.2239 2.5631 1.4021
| 19> C 3.6382 2.6630 1.8243
| 20> O 3.9322 2.8524 3.0354
| 21> O 4.6597 2.5558 0.8856
| 22> C 1.9005 2.3146 0.0570
| 23> C -2.0351 0.8284 -2.1545
| 24> O -2.3957 1.6657 -3.0310
| 25> C -3.0631 0.0120 -1.4715
| 26> C -4.2386 -0.3621 -2.1434
| 27> N -5.1732 -1.1301 -1.5210
| 28> C -5.0160 -1.5519 -0.2380
| 29> C -5.9941 -2.3517 0.3653
| 30> C -5.8281 -2.7833 1.6843
| 31> C -4.6924 -2.4096 2.4098
| 32> C -3.7096 -1.6104 1.8159
| 33> C -3.8629 -1.1818 0.4891
| 34> C -2.8902 -0.3913 -0.1390
| 35> C 2.4795 -0.6500 -1.4142
| 36> C 3.5389 -0.7631 -0.5084
| 37> H 5.9102 -0.0115 1.0878
| 38> H 6.0169 -1.8017 0.7693
| 39> H 6.2861 -1.1544 2.4339
| 40> H 1.7650 -1.4736 2.3057
| 41> H -0.0926 -1.3145 0.7199
| 42> H -0.7959 -1.4340 -1.6091
| 43> H 0.9013 -0.2595 -3.8715
| 44> H 0.7986 -2.0201 -3.4483
| 45> H -0.6694 -1.1226 -3.9688
| 46> H -0.2929 2.7534 -2.2240
| 47> H 1.1396 1.7181 -2.3880
| 48> H -1.5022 2.3407 0.2955
| 49> H -0.9416 2.7689 2.6535
| 50> H 1.4026 2.9084 3.3786
| 51> H 5.6305 2.6415 1.1642
| 52> H 2.6910 2.1969 -0.6754
| 53> H -4.4053 -0.0619 -3.1705
| 54> H -6.8796 -2.6413 -0.1872
| 55> H -6.5828 -3.4058 2.1462
| 56> H -4.5721 -2.7431 3.4312
| 57> H -2.8336 -1.3322 2.3891
| 58> H -2.0109 -0.0798 0.4092
| 59> H 2.7078 -0.3990 -2.4397
| 60> H 4.5476 -0.6124 -0.8683
| 61> *
| 62>
| 63>                          ****END OF INPUT****

CARTESIAN COORDINATES (ANGSTROEM)
---------------------------------
  C      5.703900   -1.023400    1.497700
  O      4.319200   -1.162000    1.791500
  C      3.290800   -1.054100    0.843300
  C      1.972000   -1.244500    1.266600
  C      0.913200   -1.150600    0.360800
  C      1.148900   -0.849300   -0.991000
  C     -0.039200   -0.686000   -1.932000
  C      0.276000   -1.041500   -3.392500
  N     -0.631000    0.668800   -1.855100
  C      0.220100    1.872500   -1.782100
  C      0.559600    2.197200   -0.348600
  C     -0.462300    2.390100    0.593600
  C     -0.148800    2.637100    1.930100
  C      1.185100    2.715500    2.336300
  C      2.223900    2.563100    1.402100
  C      3.638200    2.663000    1.824300
  O      3.932200    2.852400    3.035400
  O      4.659700    2.555800    0.885600
  C      1.900500    2.314600    0.057000
  C     -2.035100    0.828400   -2.154500
  O     -2.395700    1.665700   -3.031000
  C     -3.063100    0.012000   -1.471500
  C     -4.238600   -0.362100   -2.143400
  N     -5.173200   -1.130100   -1.521000
  C     -5.016000   -1.551900   -0.238000
  C     -5.994100   -2.351700    0.365300
  C     -5.828100   -2.783300    1.684300
  C     -4.692400   -2.409600    2.409800
  C     -3.709600   -1.610400    1.815900
  C     -3.862900   -1.181800    0.489100
  C     -2.890200   -0.391300   -0.139000
  C      2.479500   -0.650000   -1.414200
  C      3.538900   -0.763100   -0.508400
  H      5.910200   -0.011500    1.087800
  H      6.016900   -1.801700    0.769300
  H      6.286100   -1.154400    2.433900
  H      1.765000   -1.473600    2.305700
  H     -0.092600   -1.314500    0.719900
  H     -0.795900   -1.434000   -1.609100
  H      0.901300   -0.259500   -3.871500
  H      0.798600   -2.020100   -3.448300
  H     -0.669400   -1.122600   -3.968800
  H     -0.292900    2.753400   -2.224000
  H      1.139600    1.718100   -2.388000
  H     -1.502200    2.340700    0.295500
  H     -0.941600    2.768900    2.653500
  H      1.402600    2.908400    3.378600
  H      5.630500    2.641500    1.164200
  H      2.691000    2.196900   -0.675400
  H     -4.405300   -0.061900   -3.170500
  H     -6.879600   -2.641300   -0.187200
  H     -6.582800   -3.405800    2.146200
  H     -4.572100   -2.743100    3.431200
  H     -2.833600   -1.332200    2.389100
  H     -2.010900   -0.079800    0.409200
  H      2.707800   -0.399000   -2.439700
  H      4.547600   -0.612400   -0.868300

 Total Charge           Charge          ....    0
 Multiplicity           Mult            ....    1
 Number of Electrons    NEL             ....  232
 Basis Dimension        Dim             ....  510

ORBITAL ENERGIES
----------------

  NO   OCC          E(Eh)            E(eV)
   0   2.0000     -19.186311      -522.0861
   1   2.0000     -19.166642      -521.5509
   2   2.0000     -19.121687      -520.3276
   3   2.0000     -19.119691      -520.2732
   4   2.0000     -14.348394      -390.4396
   5   2.0000     -14.328364      -389.8946
   6   2.0000     -10.319299      -280.8024
   7   2.0000     -10.292061      -280.0612
   8   2.0000     -10.249515      -278.9035
   9   2.0000     -10.239675      -278.6357
  10   2.0000     -10.230849      -278.3956
  11   2.0000     -10.226820      -278.2859
  12   2.0000     -10.224465      -278.2218
  13   2.0000     -10.220860      -278.1237
  14   2.0000     -10.211231      -277.8617
  15   2.0000     -10.207732      -277.7665
  16   2.0000     -10.205523      -277.7064
  17   2.0000     -10.202094      -277.6131
  18   2.0000     -10.198064      -277.5034
  19   2.0000     -10.197528      -277.4889
  20   2.0000     -10.196521      -277.4614
  21   2.0000     -10.196319      -277.4560
  22   2.0000     -10.192636      -277.3557
  23   2.0000     -10.192086      -277.3407
  24   2.0000     -10.191592      -277.3273
  25   2.0000     -10.190330      -277.2930
  26   2.0000     -10.190285      -277.2918
  27   2.0000     -10.189791      -277.2783
  28   2.0000     -10.189111      -277.2598
  29   2.0000     -10.188333      -277.2386
  30   2.0000     -10.185480      -277.1610
  31   2.0000     -10.183982      -277.1202
  32   2.0000     -10.175813      -276.8979
  33   2.0000      -1.069116       -29.0921
  34   2.0000      -1.044664       -28.4268
  35   2.0000      -1.015556       -27.6347
  36   2.0000      -0.980986       -26.6940
  37   2.0000      -0.939085       -25.5538
  38   2.0000      -0.921869       -25.0853
  39   2.0000      -0.861832       -23.4517
  40   2.0000      -0.853750       -23.2317
  41   2.0000      -0.852886       -23.2082
  42   2.0000      -0.818518       -22.2730
  43   2.0000      -0.788818       -21.4648
  44   2.0000      -0.771323       -20.9888
  45   2.0000      -0.765702       -20.8358
  46   2.0000      -0.760820       -20.7030
  47   2.0000      -0.749942       -20.4070
  48   2.0000      -0.745422       -20.2840
  49   2.0000      -0.732663       -19.9368
  50   2.0000      -0.691822       -18.8254
  51   2.0000      -0.686176       -18.6718
  52   2.0000      -0.662136       -18.0176
  53   2.0000      -0.658164       -17.9095
  54   2.0000      -0.645308       -17.5597
  55   2.0000      -0.629161       -17.1203
  56   2.0000      -0.614100       -16.7105
  57   2.0000      -0.609928       -16.5970
  58   2.0000      -0.607976       -16.5439
  59   2.0000      -0.583246       -15.8709
  60   2.0000      -0.580358       -15.7924
  61   2.0000      -0.557944       -15.1824
  62   2.0000      -0.536053       -14.5868
  63   2.0000      -0.530692       -14.4409
  64   2.0000      -0.520588       -14.1659
  65   2.0000      -0.518987       -14.1224
  66   2.0000      -0.517153       -14.0724
  67   2.0000      -0.496368       -13.5069
  68   2.0000      -0.487526       -13.2662
  69   2.0000      -0.483145       -13.1470
  70   2.0000      -0.472766       -12.8646
  71   2.0000      -0.464677       -12.6445
  72   2.0000      -0.462972       -12.5981
  73   2.0000      -0.458051       -12.4642
  74   2.0000      -0.452489       -12.3128
  75   2.0000      -0.450283       -12.2528
  76   2.0000      -0.442905       -12.0521
  77   2.0000      -0.441439       -12.0122
  78   2.0000      -0.438437       -11.9305
  79   2.0000      -0.433557       -11.7977
  80   2.0000      -0.431154       -11.7323
  81   2.0000      -0.427211       -11.6250
  82   2.0000      -0.426028       -11.5928
  83   2.0000      -0.420140       -11.4326
  84   2.0000      -0.417901       -11.3717
  85   2.0000      -0.412007       -11.2113
  86   2.0000      -0.407056       -11.0766
  87   2.0000      -0.402725       -10.9587
  88   2.0000      -0.393882       -10.7181
  89   2.0000      -0.386554       -10.5187
  90   2.0000      -0.380265       -10.3475
  91   2.0000      -0.378201       -10.2914
  92   2.0000      -0.374455       -10.1894
  93   2.0000      -0.369539       -10.0557
  94   2.0000      -0.366468        -9.9721
  95   2.0000      -0.359619        -9.7857
  96   2.0000      -0.356434        -9.6991
  97   2.0000      -0.354665        -9.6509
  98   2.0000      -0.352203        -9.5839
  99   2.0000      -0.345846        -9.4109
 100   2.0000      -0.342034        -9.3072
 101   2.0000      -0.336685        -9.1617
 102   2.0000      -0.316141        -8.6026
 103   2.0000      -0.314517        -8.5585
 104   2.0000      -0.306386        -8.3372
 105   2.0000      -0.302530        -8.2322
 106   2.0000      -0.267292        -7.2734
 107   2.0000      -0.260514        -7.0890
 108   2.0000      -0.259502        -7.0614
 109   2.0000      -0.255858        -6.9623
 110   2.0000      -0.252391        -6.8679
 111   2.0000      -0.251078        -6.8322
 112   2.0000      -0.244108        -6.6425
 113   2.0000      -0.232323        -6.3218
 114   2.0000      -0.225309        -6.1310
 115   2.0000      -0.215746        -5.8708
 116   0.0000      -0.072158        -1.9635
 117   0.0000      -0.051040        -1.3889
 118   0.0000      -0.040826        -1.1109
 119   0.0000      -0.009605        -0.2614
 120   0.0000      -0.005170        -0.1407

MULLIKEN ATOMIC CHARGES
-----------------------
   0 C :   -0.192562
   1 O :   -0.510924
   2 C :    0.376661
   3 C :   -0.169293
   4 C :   -0.159884
   5 C :    0.137733
   6 C :   -0.062511
   7 C :   -0.438372
   8 N :   -0.410312
   9 C :   -0.245899
  10 C :    0.176346
  11 C :   -0.165044
  12 C :   -0.137145
  13 C :   -0.152459
  14 C :    0.086206
  15 C :    0.526669
  16 O :   -0.456054
  17 O :   -0.628504
  18 C :   -0.199136
  19 C :    0.433523
  20 O :   -0.458915
  21 C :    0.051549
  22 C :   -0.007669
  23 N :   -0.431417
  24 C :    0.216626
  25 C :   -0.142142
  26 C :   -0.128423
  27 C :   -0.129886
  28 C :   -0.203690
  29 C :    0.161513
  30 C :   -0.204902
  31 C :   -0.180205
  32 C :   -0.200353
  33 H :    0.135757
  34 H :    0.144807
  35 H :    0.171493
  36 H :    0.140550
  37 H :    0.125498
  38 H :    0.151878
  39 H :    0.148849
  40 H :    0.150044
  41 H :    0.154678
  42 H :    0.194568
  43 H :    0.146168
  44 H :    0.142556
  45 H :    0.137057
  46 H :    0.162085
  47 H :    0.425115
  48 H :    0.151014
  49 H :    0.176625
  50 H :    0.148289
  51 H :    0.139933
  52 H :    0.137061
  53 H :    0.136393
  54 H :    0.166106
  55 H :    0.129930
  56 H :    0.132421
Sum of atomic charges:   -0.0000000

LOEWDIN ATOMIC CHARGES
----------------------
   0 C :   -0.199058
   1 O :   -0.190360
   2 C :    0.091863
   3 C :   -0.142388
   4 C :   -0.117965
   5 C :   -0.042778
   6 C :   -0.053132
   7 C :   -0.360877
   8 N :   -0.114755
   9 C :   -0.144309
  10 C :   -0.024051
  11 C :   -0.115464
  12 C :   -0.131931
  13 C :   -0.094089
  14 C :   -0.055412
  15 C :    0.180044
  16 O :   -0.270879
  17 O :   -0.339039
  18 C :   -0.100160
  19 C :    0.136806
  20 O :   -0.265078
  21 C :   -0.073791
  22 C :   -0.039184
  23 N :   -0.126410
  24 C :    0.020015
  25 C :   -0.113963
  26 C :   -0.116959
  27 C :   -0.126635
  28 C :   -0.118617
  29 C :   -0.031328
  30 C :   -0.085906
  31 C :   -0.130308
  32 C :   -0.169956
  33 H :    0.110445
  34 H :    0.115195
  35 H :    0.136628
  36 H :    0.142093
  37 H :    0.130920
  38 H :    0.134235
  39 H :    0.125174
  40 H :    0.129607
  41 H :    0.131419
  42 H :    0.155285
  43 H :    0.124745
  44 H :    0.137033
  45 H :    0.135931
  46 H :    0.150951
  47 H :    0.342077
  48 H :    0.144501
  49 H :    0.150764
  50 H :    0.146344
  51 H :    0.137745
  52 H :    0.136027
  53 H :    0.134511
  54 H :    0.145902
  55 H :    0.132946
  56 H :    0.135572

  Mayer bond orders larger than 0.100000
B(  0-C ,  1-O ) :   0.9227 B(  0-C , 33-H ) :   0.9245 B(  0-C , 34-H ) :   0.9307
B(  0-C , 35-H ) :   0.9444 B(  1-O ,  2-C ) :   0.9187 B(  2-C ,  3-C ) :   1.3926
B(  2-C , 32-C ) :   1.3706 B(  3-C ,  4-C ) :   1.4498 B(  3-C , 36-H ) :   0.9188
B(  4-C ,  5-C ) :   1.4104 B(  4-C , 37-H ) :   0.9188 B(  5-C ,  6-C ) :   0.9766
B(  5-C , 31-C ) :   1.4276 B(  6-C ,  7-C ) :   0.9907 B(  6-C ,  8-N ) :   0.9410
B(  6-C , 38-H ) :   0.9133 B(  7-C , 39-H ) :   0.9403 B(  7-C , 40-H ) :   0.9398
B(  7-C , 41-H ) :   0.9423 B(  8-N ,  9-C ) :   0.9407 B(  8-N , 19-C ) :   1.0281
B(  9-C , 10-C ) :   0.9499 B(  9-C , 42-H ) :   0.9097 B(  9-C , 43-H ) :   0.9234
B( 10-C , 11-C ) :   1.4173 B( 10-C , 18-C ) :   1.4098 B( 11-C , 12-C ) :   1.4272
B( 11-C , 44-H ) :   0.9174 B( 12-C , 13-C ) :   1.4296 B( 12-C , 45-H ) :   0.9291
B( 13-C , 14-C ) :   1.4078 B( 13-C , 46-H ) :   0.9132 B( 14-C , 15-C ) :   1.0137
B( 14-C , 18-C ) :   1.3656 B( 15-C , 16-O ) :   1.8588 B( 15-C , 17-O ) :   0.9994
B( 17-O , 47-H ) :   0.7445 B( 18-C , 48-H ) :   0.9067 B( 19-C , 20-O ) :   1.8195
B( 19-C , 21-C ) :   0.9657 B( 21-C , 22-C ) :   1.2675 B( 21-C , 30-C ) :   1.4359
B( 22-C , 23-N ) :   1.5049 B( 22-C , 49-H ) :   0.9181 B( 23-N , 24-C ) :   1.2446
B( 24-C , 25-C ) :   1.3127 B( 24-C , 29-C ) :   1.2499 B( 25-C , 26-C ) :   1.5112
B( 25-C , 28-C ) :   0.1066 B( 25-C , 50-H ) :   0.9166 B( 26-C , 27-C ) :   1.3489
B( 26-C , 51-H ) :   0.9289 B( 27-C , 28-C ) :   1.5131 B( 27-C , 52-H ) :   0.9293
B( 28-C , 29-C ) :   1.2795 B( 28-C , 53-H ) :   0.9244 B( 29-C , 30-C ) :   1.2731
B( 30-C , 54-H ) :   0.8980 B( 31-C , 32-C ) :   1.4164 B( 31-C , 55-H ) :   0.9201
B( 32-C , 56-H ) :   0.9181

FINAL SINGLE POINT ENERGY     -1452.818397697721

DIPOLE MOMENT
-------------

Method             : SCF
Type of density    : Electron Density
Multiplicity       :   1
Irrep              :   0
Energy             : -1452.8183976977211387 Eh
Relativity type    :
Basis              : AO
                                X                 Y                 Z
Electronic contribution:     -9.739396559       6.908353588       3.095807699
Nuclear contribution   :     10.914311571      -7.896700429      -2.685514142
                        -----------------------------------------
Total Dipole Moment    :      1.174915013      -0.988346840       0.410293557
                        -----------------------------------------
Magnitude (a.u.)       :      1.589212247
Magnitude (Debye)      :      4.039456511

Rotational constants in cm-1:             0.007382             0.002593             0.002500
Rotational constants in MHz :           221.311098            77.731476            74.938377

                             ****ORCA TERMINATED NORMALLY****
TOTAL RUN TIME: 0 days 0 hours 7 minutes 39 seconds 427 msec
