                         Program Version 6.0.0  -   RELEASE  -
|  1> ! B3LYP 6-31G* SP
|  2>
|  3> * xyz 0 1
|  4> C 7.8814 -0.2054 0.8807
|  5> N 6.4563 -0.5462 0.8257
|  6> C 5.9774 -1.7694 1.4801
|  7> C 5.5671 0.2868 0.0493
|  8> O 6.0374 0.9891 -0.8891
|  9> C 4.1108 0.3357 0.3087
| 10> C 3.6139 0.3659 1.6230
| 11> C 2.2370 0.4293 1.8554
| 12> C 1.3382 0.4799 0.7804
| 13> S -0.3906 0.5973 1.1054
| 14> O -0.7728 -0.3859 2.1759
| 15> O -0.6811 1.9903 1.5915
| 16> N -1.3390 0.2753 -0.3156
| 17> C -1.1918 -0.9909 -1.0388
| 18> C -2.3811 -1.8827 -0.7970
| 19> C -2.4211 -2.7230 0.3278
| 20> C -3.5502 -3.5085 0.5805
| 21> C -4.6481 -3.4567 -0.2831
| 22> C -4.6268 -2.6017 -1.3880
| 23> C -3.4992 -1.8152 -1.6462
| 24> C -2.4256 1.1541 -0.6280
| 25> N -3.5820 1.0609 0.0827
| 26> C -4.6519 1.8573 -0.1753
| 27> C -4.5851 2.8291 -1.1876
| 28> C -5.7808 3.6843 -1.5224
| 29> F -6.6054 3.8351 -0.4206
| 30> F -6.4981 3.0860 -2.5419
| 31> F -5.3742 4.9411 -1.9352
| 32> C -3.4107 2.9192 -1.9518
| 33> C -2.3227 2.0879 -1.6721
| 34> Cl -0.8506 2.2491 -2.6189
| 35> C 1.8320 0.4863 -0.5325
| 36> C 3.2084 0.4138 -0.7669
| 37> H 8.4368 -0.8962 1.5537
| 38> H 8.0049 0.8284 1.2716
| 39> H 8.3222 -0.2696 -0.1373
| 40> H 5.6115 -1.5312 2.5029
| 41> H 6.7974 -2.5200 1.5673
| 42> H 5.1574 -2.2352 0.8850
| 43> H 4.2893 0.3723 2.4698
| 44> H 1.8718 0.4560 2.8754
| 45> H -1.0754 -0.7861 -2.1249
| 46> H -0.2687 -1.5160 -0.7120
| 47> H -1.5823 -2.7657 1.0093
| 48> H -3.5754 -4.1556 1.4470
| 49> H -5.5218 -4.0650 -0.0850
| 50> H -5.4816 -2.5538 -2.0510
| 51> H -3.4952 -1.1567 -2.5052
| 52> H -5.5555 1.7241 0.4071
| 53> H -3.3361 3.6398 -2.7610
| 54> H 1.1602 0.5500 -1.3771
| 55> H 3.5695 0.4126 -1.7891
| 56> *
| 57>
| 58>                          ****END OF INPUT****

CARTESIAN COORDINATES (ANGSTROEM)
---------------------------------
  C      7.881400   -0.205400    0.880700
  N      6.456300   -0.546200    0.825700
  C      5.977400   -1.769400    1.480100
  C      5.567100    0.286800    0.049300
  O      6.037400    0.989100   -0.889100
  C      4.110800    0.335700    0.308700
  C      3.613900    0.365900    1.623000
  C      2.237000    0.429300    1.855400
  C      1.338200    0.479900    0.780400
  S     -0.390600    0.597300    1.105400
  O     -0.772800   -0.385900    2.175900
  O     -0.681100    1.990300    1.591500
  N     -1.339000    0.275300   -0.315600
  C     -1.191800   -0.990900   -1.038800
  C     -2.381100   -1.882700   -0.797000
  C     -2.421100   -2.723000    0.327800
  C     -3.550200   -3.508500    0.580500
  C     -4.648100   -3.456700   -0.283100
  C     -4.626800   -2.601700   -1.388000
  C     -3.499200   -1.815200   -1.646200
  C     -2.425600    1.154100   -0.628000
  N     -3.582000    1.060900    0.082700
  C     -4.651900    1.857300   -0.175300
  C     -4.585100    2.829100   -1.187600
  C     -5.780800    3.684300   -1.522400
  F     -6.605400    3.835100   -0.420600
  F     -6.498100    3.086000   -2.541900
  F     -5.374200    4.941100   -1.935200
  C     -3.410700    2.919200   -1.951800
  C     -2.322700    2.087900   -1.672100
  Cl    -0.850600    2.249100   -2.618900
  C      1.832000    0.486300   -0.532500
  C      3.208400    0.413800   -0.766900
  H      8.436800   -0.896200    1.553700
  H      8.004900    0.828400    1.271600
  H      8.322200   -0.269600   -0.137300
  H      5.611500   -1.531200    2.502900
  H      6.797400   -2.520000    1.567300
  H      5.157400   -2.235200    0.885000
  H      4.289300    0.372300    2.469800
  H      1.871800    0.456000    2.875400
  H     -1.075400   -0.786100   -2.124900
  H     -0.268700   -1.516000   -0.712000
  H     -1.582300   -2.765700    1.009300
  H     -3.575400   -4.155600    1.447000
  H     -5.521800   -4.065000   -0.085000
  H     -5.481600   -2.553800   -2.051000
  H     -3.495200   -1.156700   -2.505200
  H     -5.555500    1.724100    0.407100
  H     -3.336100    3.639800   -2.761000
  H      1.160200    0.550000   -1.377100
  H      3.569500    0.412600   -1.789100

 Total Charge           Charge          ....    0
 Multiplicity           Mult            ....    1
 Number of Electrons    NEL             ....  256
 Basis Dimension        Dim             ....  508

ORBITAL ENERGIES
----------------

  NO   OCC          E(Eh)            E(eV)
   0   2.0000    -101.555396     -2763.4628
   1   2.0000     -89.101088     -2424.5639
   2   2.0000     -24.733722      -673.0388
   3   2.0000     -24.732731      -673.0118
   4   2.0000     -24.730429      -672.9492
   5   2.0000     -19.125805      -520.4396
   6   2.0000     -19.124027      -520.3912
   7   2.0000     -19.119980      -520.2811
   8   2.0000     -14.380626      -391.3167
   9   2.0000     -14.363904      -390.8617
  10   2.0000     -14.359985      -390.7550
  11   2.0000     -10.451907      -284.4108
  12   2.0000     -10.296451      -280.1807
  13   2.0000     -10.295551      -280.1562
  14   2.0000     -10.281217      -279.7661
  15   2.0000     -10.252788      -278.9925
  16   2.0000     -10.245152      -278.7848
  17   2.0000     -10.241089      -278.6742
  18   2.0000     -10.241037      -278.6728
  19   2.0000     -10.240367      -278.6545
  20   2.0000     -10.228128      -278.3215
  21   2.0000     -10.224485      -278.2224
  22   2.0000     -10.221668      -278.1457
  23   2.0000     -10.220631      -278.1175
  24   2.0000     -10.217913      -278.0435
  25   2.0000     -10.217479      -278.0317
  26   2.0000     -10.214760      -277.9578
  27   2.0000     -10.190766      -277.3048
  28   2.0000     -10.183946      -277.1193
  29   2.0000     -10.181598      -277.0554
  30   2.0000     -10.180565      -277.0273
  31   2.0000     -10.179431      -276.9964
  32   2.0000     -10.178593      -276.9736
  33   2.0000      -9.486615      -258.1439
  34   2.0000      -8.136869      -221.4155
  35   2.0000      -7.249863      -197.2788
  36   2.0000      -7.240239      -197.0169
  37   2.0000      -7.239789      -197.0047
  38   2.0000      -6.102314      -166.0524
  39   2.0000      -6.099668      -165.9804
  40   2.0000      -6.099305      -165.9705
  41   2.0000      -1.293180       -35.1892
  42   2.0000      -1.218303       -33.1517
  43   2.0000      -1.217398       -33.1271
  44   2.0000      -1.084891       -29.5214
  45   2.0000      -1.018605       -27.7177
  46   2.0000      -0.985014       -26.8036
  47   2.0000      -0.962064       -26.1791
  48   2.0000      -0.930187       -25.3117
  49   2.0000      -0.920566       -25.0499
  50   2.0000      -0.894504       -24.3407
  51   2.0000      -0.888676       -24.1821
  52   2.0000      -0.850037       -23.1307
  53   2.0000      -0.836851       -22.7719
  54   2.0000      -0.804789       -21.8994
  55   2.0000      -0.783985       -21.3333
  56   2.0000      -0.776642       -21.1335
  57   2.0000      -0.766578       -20.8596
  58   2.0000      -0.740753       -20.1569
  59   2.0000      -0.729815       -19.8593
  60   2.0000      -0.723415       -19.6851
  61   2.0000      -0.709515       -19.3069
  62   2.0000      -0.689372       -18.7588
  63   2.0000      -0.675251       -18.3745
  64   2.0000      -0.660194       -17.9648
  65   2.0000      -0.645345       -17.5607
  66   2.0000      -0.635480       -17.2923
  67   2.0000      -0.610900       -16.6234
  68   2.0000      -0.603509       -16.4223
  69   2.0000      -0.588384       -16.0107
  70   2.0000      -0.584368       -15.9014
  71   2.0000      -0.584001       -15.8915
  72   2.0000      -0.571899       -15.5622
  73   2.0000      -0.570968       -15.5368
  74   2.0000      -0.556630       -15.1467
  75   2.0000      -0.530795       -14.4437
  76   2.0000      -0.524742       -14.2789
  77   2.0000      -0.520956       -14.1759
  78   2.0000      -0.506277       -13.7765
  79   2.0000      -0.490816       -13.3558
  80   2.0000      -0.481650       -13.1064
  81   2.0000      -0.479201       -13.0397
  82   2.0000      -0.473619       -12.8878
  83   2.0000      -0.472677       -12.8622
  84   2.0000      -0.468727       -12.7547
  85   2.0000      -0.463963       -12.6251
  86   2.0000      -0.461090       -12.5469
  87   2.0000      -0.460044       -12.5184
  88   2.0000      -0.458859       -12.4862
  89   2.0000      -0.450805       -12.2670
  90   2.0000      -0.447383       -12.1739
  91   2.0000      -0.438811       -11.9406
  92   2.0000      -0.438267       -11.9259
  93   2.0000      -0.433663       -11.8006
  94   2.0000      -0.432196       -11.7606
  95   2.0000      -0.427346       -11.6287
  96   2.0000      -0.422433       -11.4950
  97   2.0000      -0.419893       -11.4259
  98   2.0000      -0.417652       -11.3649
  99   2.0000      -0.414777       -11.2867
 100   2.0000      -0.410676       -11.1751
 101   2.0000      -0.405950       -11.0465
 102   2.0000      -0.401388       -10.9223
 103   2.0000      -0.398987       -10.8570
 104   2.0000      -0.395783       -10.7698
 105   2.0000      -0.395520       -10.7626
 106   2.0000      -0.383577       -10.4377
 107   2.0000      -0.377375       -10.2689
 108   2.0000      -0.368300       -10.0219
 109   2.0000      -0.359563        -9.7842
 110   2.0000      -0.358820        -9.7640
 111   2.0000      -0.350421        -9.5354
 112   2.0000      -0.340920        -9.2769
 113   2.0000      -0.338592        -9.2136
 114   2.0000      -0.328266        -8.9326
 115   2.0000      -0.311901        -8.4872
 116   2.0000      -0.306167        -8.3312
 117   2.0000      -0.304258        -8.2793
 118   2.0000      -0.289384        -7.8745
 119   2.0000      -0.280842        -7.6421
 120   2.0000      -0.278406        -7.5758
 121   2.0000      -0.277402        -7.5485
 122   2.0000      -0.267775        -7.2865
 123   2.0000      -0.258582        -7.0364
 124   2.0000      -0.251146        -6.8340
 125   2.0000      -0.245356        -6.6765
 126   2.0000      -0.240295        -6.5388
 127   2.0000      -0.234858        -6.3908
 128   0.0000      -0.073353        -1.9960
 129   0.0000      -0.067155        -1.8274
 130   0.0000      -0.051581        -1.4036
 131   0.0000      -0.031662        -0.8616
 132   0.0000      -0.009602        -0.2613

MULLIKEN ATOMIC CHARGES
-----------------------
   0 C :   -0.298518
   1 N :   -0.405429
   2 C :   -0.311904
   3 C :    0.450098
   4 O :   -0.466371
   5 C :    0.078610
   6 C :   -0.146855
   7 C :   -0.140436
   8 C :   -0.120002
   9 S :    1.198550
  10 O :   -0.529850
  11 O :   -0.529247
  12 N :   -0.610826
  13 C :   -0.267538
  14 C :    0.175304
  15 C :   -0.150369
  16 C :   -0.128300
  17 C :   -0.121761
  18 C :   -0.128707
  19 C :   -0.167552
  20 C :    0.407372
  21 N :   -0.334308
  22 C :   -0.002174
  23 C :   -0.022985
  24 C :    0.904219
  25 F :   -0.299061
  26 F :   -0.292270
  27 F :   -0.299762
  28 C :   -0.133549
  29 C :   -0.086647
  30 Cl:    0.022235
  31 C :   -0.159112
  32 C :   -0.131875
  33 H :    0.151058
  34 H :    0.168133
  35 H :    0.178224
  36 H :    0.152090
  37 H :    0.163915
  38 H :    0.167864
  39 H :    0.158973
  40 H :    0.187181
  41 H :    0.166057
  42 H :    0.175682
  43 H :    0.149499
  44 H :    0.132517
  45 H :    0.128500
  46 H :    0.127272
  47 H :    0.119779
  48 H :    0.185915
  49 H :    0.188776
  50 H :    0.178092
  51 H :    0.169493
Sum of atomic charges:   -0.0000000

LOEWDIN ATOMIC CHARGES
----------------------
   0 C :   -0.264992
   1 N :   -0.128267
   2 C :   -0.270639
   3 C :    0.138538
   4 O :   -0.272723
   5 C :   -0.029181
   6 C :   -0.109917
   7 C :   -0.093040
   8 C :   -0.171736
   9 S :    1.261146
  10 O :   -0.569382
  11 O :   -0.568398
  12 N :   -0.286496
  13 C :   -0.149293
  14 C :   -0.034659
  15 C :   -0.114470
  16 C :   -0.123401
  17 C :   -0.126038
  18 C :   -0.129161
  19 C :   -0.133715
  20 C :    0.065600
  21 N :   -0.082735
  22 C :   -0.044625
  23 C :   -0.071311
  24 C :    0.313152
  25 F :   -0.106588
  26 F :   -0.109744
  27 F :   -0.109016
  28 C :   -0.091005
  29 C :   -0.089804
  30 Cl:    0.059618
  31 C :   -0.120435
  32 C :   -0.092902
  33 H :    0.129215
  34 H :    0.132835
  35 H :    0.136443
  36 H :    0.116900
  37 H :    0.133459
  38 H :    0.133969
  39 H :    0.147447
  40 H :    0.161947
  41 H :    0.130404
  42 H :    0.144145
  43 H :    0.141550
  44 H :    0.133615
  45 H :    0.131583
  46 H :    0.130828
  47 H :    0.126609
  48 H :    0.154092
  49 H :    0.162556
  50 H :    0.152998
  51 H :    0.155024

  Mayer bond orders larger than 0.100000
B(  0-C ,  1-N ) :   0.9422 B(  0-C , 33-H ) :   0.9431 B(  0-C , 34-H ) :   0.9418
B(  0-C , 35-H ) :   0.9319 B(  1-N ,  2-C ) :   0.9517 B(  1-N ,  3-C ) :   1.0778
B(  2-C , 36-H ) :   0.9326 B(  2-C , 37-H ) :   0.9406 B(  2-C , 38-H ) :   0.9413
B(  3-C ,  4-O ) :   1.8096 B(  3-C ,  5-C ) :   0.9616 B(  5-C ,  6-C ) :   1.3882
B(  5-C , 32-C ) :   1.4143 B(  6-C ,  7-C ) :   1.4380 B(  6-C , 39-H ) :   0.9177
B(  7-C ,  8-C ) :   1.4096 B(  7-C , 40-H ) :   0.9095 B(  8-C ,  9-S ) :   0.8125
B(  8-C , 31-C ) :   1.3777 B(  9-S , 10-O ) :   1.6592 B(  9-S , 11-O ) :   1.6637
B(  9-S , 12-N ) :   0.7783 B( 12-N , 13-C ) :   0.9099 B( 12-N , 20-C ) :   0.9439
B( 13-C , 14-C ) :   0.9542 B( 13-C , 41-H ) :   0.9211 B( 13-C , 42-H ) :   0.9212
B( 14-C , 15-C ) :   1.4364 B( 14-C , 19-C ) :   1.4298 B( 15-C , 16-C ) :   1.4469
B( 15-C , 43-H ) :   0.9140 B( 16-C , 17-C ) :   1.4482 B( 16-C , 44-H ) :   0.9292
B( 17-C , 18-C ) :   1.4579 B( 17-C , 45-H ) :   0.9302 B( 18-C , 19-C ) :   1.4425
B( 18-C , 46-H ) :   0.9295 B( 19-C , 47-H ) :   0.9251 B( 20-C , 21-N ) :   1.3849
B( 20-C , 29-C ) :   1.3452 B( 21-N , 22-C ) :   1.4114 B( 22-C , 23-C ) :   1.3551
B( 22-C , 48-H ) :   0.9169 B( 23-C , 24-C ) :   0.9717 B( 23-C , 28-C ) :   1.4116
B( 24-C , 25-F ) :   0.9514 B( 24-C , 26-F ) :   0.9885 B( 24-C , 27-F ) :   0.9537
B( 28-C , 29-C ) :   1.3907 B( 28-C , 49-H ) :   0.9078 B( 29-C , 30-Cl) :   1.0422
B( 31-C , 32-C ) :   1.4257 B( 31-C , 50-H ) :   0.9039 B( 32-C , 51-H ) :   0.9145

FINAL SINGLE POINT ENERGY     -2396.513928787309

DIPOLE MOMENT
-------------

Method             : SCF
Type of density    : Electron Density
Multiplicity       :   1
Irrep              :   0
Energy             : -2396.5139287873093963 Eh
Relativity type    :
Basis              : AO
                                X                 Y                 Z
Electronic contribution:    -50.071031600      37.272194652     -15.414982651
Nuclear contribution   :     51.055857430     -38.832327769      14.834946648
                        -----------------------------------------
Total Dipole Moment    :      0.984825830      -1.560133117      -0.580036003
                        -----------------------------------------
Magnitude (a.u.)       :      1.933995611
Magnitude (Debye)      :      4.915826175

Rotational constants in cm-1:             0.006500             0.001827             0.001594
Rotational constants in MHz :           194.876977            54.768608            47.798445

                             ****ORCA TERMINATED NORMALLY****
TOTAL RUN TIME: 0 days 0 hours 6 minutes 0 seconds 919 msec
