                         Program Version 6.0.0  -   RELEASE  -
|  1> ! B3LYP 6-31G* SP
|  2>
|  3> * xyz 0 1
|  4> O 1.0349 -1.5421 0.9818
|  5> C 1.2959 -0.3906 0.5364
|  6> N 2.4370 -0.1936 -0.3133
|  7> C 3.5477 -1.1036 -0.3878
|  8> C 4.2595 -1.2257 -1.5918
|  9> C 5.3559 -2.0888 -1.6817
| 10> C 5.7599 -2.8266 -0.5659
| 11> F 6.8249 -3.6611 -0.6536
| 12> C 5.0717 -2.6962 0.6434
| 13> C 3.9738 -1.8349 0.7369
| 14> N 0.4024 0.7052 0.8203
| 15> C 0.9706 2.0272 1.1186
| 16> C 0.0611 3.1242 0.5776
| 17> C -1.3271 2.9520 1.1195
| 18> C -2.1522 4.0657 1.3266
| 19> C -3.4451 3.8937 1.8215
| 20> C -3.9061 2.6060 2.0952
| 21> N -3.1026 1.5333 1.8706
| 22> C -1.8349 1.6659 1.3885
| 23> C -1.0167 0.4177 1.1285
| 24> C -1.6551 -0.3557 -0.0076
| 25> C -1.5867 0.1250 -1.3261
| 26> C -2.1832 -0.5853 -2.3711
| 27> C -2.8813 -1.7775 -2.1149
| 28> C -3.4813 -2.5697 -3.2491
| 29> F -4.5804 -3.2904 -2.8147
| 30> F -2.5337 -3.4469 -3.7422
| 31> F -3.8916 -1.7287 -4.2692
| 32> C -2.9337 -2.2668 -0.7986
| 33> C -2.3367 -1.5565 0.2466
| 34> H 2.3996 0.5948 -0.9983
| 35> H 3.9579 -0.6579 -2.4631
| 36> H 5.8931 -2.1830 -2.6168
| 37> H 5.3929 -3.2567 1.5120
| 38> H 3.4758 -1.7252 1.6910
| 39> H 1.9791 2.1505 0.6716
| 40> H 1.0763 2.1374 2.2201
| 41> H 0.0304 3.0738 -0.5318
| 42> H 0.4752 4.1128 0.8735
| 43> H -1.7934 5.0644 1.1102
| 44> H -4.0845 4.7505 1.9902
| 45> H -4.9065 2.4577 2.4791
| 46> H -1.0442 -0.1895 2.0608
| 47> H -1.0639 1.0468 -1.5461
| 48> H -2.0973 -0.2026 -3.3803
| 49> H -3.4359 -3.2002 -0.5773
| 50> H -2.4013 -1.9488 1.2538
| 51> *
| 52>
| 53>                          ****END OF INPUT****

CARTESIAN COORDINATES (ANGSTROEM)
---------------------------------
  O      1.034900   -1.542100    0.981800
  C      1.295900   -0.390600    0.536400
  N      2.437000   -0.193600   -0.313300
  C      3.547700   -1.103600   -0.387800
  C      4.259500   -1.225700   -1.591800
  C      5.355900   -2.088800   -1.681700
  C      5.759900   -2.826600   -0.565900
  F      6.824900   -3.661100   -0.653600
  C      5.071700   -2.696200    0.643400
  C      3.973800   -1.834900    0.736900
  N      0.402400    0.705200    0.820300
  C      0.970600    2.027200    1.118600
  C      0.061100    3.124200    0.577600
  C     -1.327100    2.952000    1.119500
  C     -2.152200    4.065700    1.326600
  C     -3.445100    3.893700    1.821500
  C     -3.906100    2.606000    2.095200
  N     -3.102600    1.533300    1.870600
  C     -1.834900    1.665900    1.388500
  C     -1.016700    0.417700    1.128500
  C     -1.655100   -0.355700   -0.007600
  C     -1.586700    0.125000   -1.326100
  C     -2.183200   -0.585300   -2.371100
  C     -2.881300   -1.777500   -2.114900
  C     -3.481300   -2.569700   -3.249100
  F     -4.580400   -3.290400   -2.814700
  F     -2.533700   -3.446900   -3.742200
  F     -3.891600   -1.728700   -4.269200
  C     -2.933700   -2.266800   -0.798600
  C     -2.336700   -1.556500    0.246600
  H      2.399600    0.594800   -0.998300
  H      3.957900   -0.657900   -2.463100
  H      5.893100   -2.183000   -2.616800
  H      5.392900   -3.256700    1.512000
  H      3.475800   -1.725200    1.691000
  H      1.979100    2.150500    0.671600
  H      1.076300    2.137400    2.220100
  H      0.030400    3.073800   -0.531800
  H      0.475200    4.112800    0.873500
  H     -1.793400    5.064400    1.110200
  H     -4.084500    4.750500    1.990200
  H     -4.906500    2.457700    2.479100
  H     -1.044200   -0.189500    2.060800
  H     -1.063900    1.046800   -1.546100
  H     -2.097300   -0.202600   -3.380300
  H     -3.435900   -3.200200   -0.577300
  H     -2.401300   -1.948800    1.253800

 Total Charge           Charge          ....    0
 Multiplicity           Mult            ....    1
 Number of Electrons    NEL             ....  214
 Basis Dimension        Dim             ....  454

ORBITAL ENERGIES
----------------

  NO   OCC          E(Eh)            E(eV)
   0   2.0000     -24.711062      -672.4222
   1   2.0000     -24.710312      -672.4018
   2   2.0000     -24.706154      -672.2886
   3   2.0000     -24.692615      -671.9202
   4   2.0000     -19.110165      -520.0140
   5   2.0000     -14.373886      -391.1333
   6   2.0000     -14.362928      -390.8351
   7   2.0000     -14.332527      -390.0079
   8   2.0000     -10.425160      -283.6830
   9   2.0000     -10.322563      -280.8912
  10   2.0000     -10.262161      -279.2476
  11   2.0000     -10.239958      -278.6434
  12   2.0000     -10.239083      -278.6196
  13   2.0000     -10.235019      -278.5090
  14   2.0000     -10.234940      -278.5069
  15   2.0000     -10.225361      -278.2462
  16   2.0000     -10.208461      -277.7863
  17   2.0000     -10.206630      -277.7365
  18   2.0000     -10.205220      -277.6982
  19   2.0000     -10.203629      -277.6549
  20   2.0000     -10.201336      -277.5925
  21   2.0000     -10.197592      -277.4906
  22   2.0000     -10.194854      -277.4161
  23   2.0000     -10.193414      -277.3769
  24   2.0000     -10.191843      -277.3341
  25   2.0000     -10.191252      -277.3181
  26   2.0000     -10.189816      -277.2790
  27   2.0000     -10.187733      -277.2223
  28   2.0000     -10.187243      -277.2090
  29   2.0000     -10.186430      -277.1869
  30   2.0000      -1.270271       -34.5658
  31   2.0000      -1.205707       -32.8090
  32   2.0000      -1.196157       -32.5491
  33   2.0000      -1.194241       -32.4970
  34   2.0000      -1.025600       -27.9080
  35   2.0000      -0.947667       -25.7873
  36   2.0000      -0.925263       -25.1777
  37   2.0000      -0.919911       -25.0320
  38   2.0000      -0.863757       -23.5040
  39   2.0000      -0.846498       -23.0344
  40   2.0000      -0.825167       -22.4539
  41   2.0000      -0.801846       -21.8193
  42   2.0000      -0.784555       -21.3488
  43   2.0000      -0.755753       -20.5651
  44   2.0000      -0.753020       -20.4907
  45   2.0000      -0.750856       -20.4318
  46   2.0000      -0.739082       -20.1115
  47   2.0000      -0.704332       -19.1659
  48   2.0000      -0.673552       -18.3283
  49   2.0000      -0.659691       -17.9511
  50   2.0000      -0.630502       -17.1568
  51   2.0000      -0.629373       -17.1261
  52   2.0000      -0.620991       -16.8980
  53   2.0000      -0.616128       -16.7657
  54   2.0000      -0.600249       -16.3336
  55   2.0000      -0.591070       -16.0838
  56   2.0000      -0.563209       -15.3257
  57   2.0000      -0.560955       -15.2644
  58   2.0000      -0.557941       -15.1824
  59   2.0000      -0.551714       -15.0129
  60   2.0000      -0.543279       -14.7834
  61   2.0000      -0.535456       -14.5705
  62   2.0000      -0.523851       -14.2547
  63   2.0000      -0.515432       -14.0256
  64   2.0000      -0.500058       -13.6073
  65   2.0000      -0.489894       -13.3307
  66   2.0000      -0.477117       -12.9830
  67   2.0000      -0.476489       -12.9659
  68   2.0000      -0.471481       -12.8296
  69   2.0000      -0.454960       -12.3801
  70   2.0000      -0.451515       -12.2863
  71   2.0000      -0.448777       -12.2119
  72   2.0000      -0.448220       -12.1967
  73   2.0000      -0.439358       -11.9555
  74   2.0000      -0.439103       -11.9486
  75   2.0000      -0.434869       -11.8334
  76   2.0000      -0.428489       -11.6598
  77   2.0000      -0.428181       -11.6514
  78   2.0000      -0.420936       -11.4542
  79   2.0000      -0.417819       -11.3694
  80   2.0000      -0.417310       -11.3556
  81   2.0000      -0.411536       -11.1985
  82   2.0000      -0.409153       -11.1336
  83   2.0000      -0.402570       -10.9545
  84   2.0000      -0.400803       -10.9064
  85   2.0000      -0.400019       -10.8851
  86   2.0000      -0.396149       -10.7798
  87   2.0000      -0.389036       -10.5862
  88   2.0000      -0.384482       -10.4623
  89   2.0000      -0.377070       -10.2606
  90   2.0000      -0.375205       -10.2099
  91   2.0000      -0.363804        -9.8996
  92   2.0000      -0.357411        -9.7256
  93   2.0000      -0.351553        -9.5662
  94   2.0000      -0.348515        -9.4836
  95   2.0000      -0.345634        -9.4052
  96   2.0000      -0.342944        -9.3320
  97   2.0000      -0.292881        -7.9697
  98   2.0000      -0.285311        -7.7637
  99   2.0000      -0.267953        -7.2914
 100   2.0000      -0.263579        -7.1724
 101   2.0000      -0.255016        -6.9393
 102   2.0000      -0.252557        -6.8724
 103   2.0000      -0.250055        -6.8043
 104   2.0000      -0.246968        -6.7203
 105   2.0000      -0.234084        -6.3697
 106   2.0000      -0.212358        -5.7786
 107   0.0000      -0.036849        -1.0027
 108   0.0000      -0.028093        -0.7644
 109   0.0000      -0.012984        -0.3533
 110   0.0000      -0.006849        -0.1864
 111   0.0000      -0.005480        -0.1491

MULLIKEN ATOMIC CHARGES
-----------------------
   0 O :   -0.477890
   1 C :    0.684656
   2 N :   -0.713565
   3 C :    0.342920
   4 C :   -0.173773
   5 C :   -0.211242
   6 C :    0.407936
   7 F :   -0.321303
   8 C :   -0.219660
   9 C :   -0.125776
  10 N :   -0.483249
  11 C :   -0.144844
  12 C :   -0.348812
  13 C :    0.119623
  14 C :   -0.147431
  15 C :   -0.135053
  16 C :    0.014102
  17 N :   -0.411662
  18 C :    0.194780
  19 C :   -0.048023
  20 C :    0.185989
  21 C :   -0.172231
  22 C :   -0.157916
  23 C :   -0.014341
  24 C :    0.892402
  25 F :   -0.306376
  26 F :   -0.296843
  27 F :   -0.308059
  28 C :   -0.161566
  29 C :   -0.150271
  30 H :    0.326118
  31 H :    0.129574
  32 H :    0.144660
  33 H :    0.147835
  34 H :    0.157541
  35 H :    0.152153
  36 H :    0.152845
  37 H :    0.158212
  38 H :    0.148317
  39 H :    0.137322
  40 H :    0.135598
  41 H :    0.152975
  42 H :    0.177099
  43 H :    0.122701
  44 H :    0.145098
  45 H :    0.151782
  46 H :    0.147643
Sum of atomic charges:    0.0000000

LOEWDIN ATOMIC CHARGES
----------------------
   0 O :   -0.292828
   1 C :    0.165008
   2 N :   -0.221130
   3 C :    0.034071
   4 C :   -0.144691
   5 C :   -0.154551
   6 C :    0.106032
   7 F :   -0.107496
   8 C :   -0.151714
   9 C :   -0.120819
  10 N :   -0.128778
  11 C :   -0.150122
  12 C :   -0.232051
  13 C :   -0.039468
  14 C :   -0.106973
  15 C :   -0.143457
  16 C :   -0.066562
  17 N :   -0.129329
  18 C :    0.025539
  19 C :   -0.034812
  20 C :    0.006494
  21 C :   -0.128231
  22 C :   -0.114851
  23 C :   -0.071085
  24 C :    0.309340
  25 F :   -0.114498
  26 F :   -0.114520
  27 F :   -0.115998
  28 C :   -0.108893
  29 C :   -0.107121
  30 H :    0.255102
  31 H :    0.132963
  32 H :    0.143949
  33 H :    0.145321
  34 H :    0.149116
  35 H :    0.130278
  36 H :    0.119637
  37 H :    0.131846
  38 H :    0.132035
  39 H :    0.135968
  40 H :    0.136483
  41 H :    0.137129
  42 H :    0.147673
  43 H :    0.128944
  44 H :    0.140166
  45 H :    0.143693
  46 H :    0.143192

  Mayer bond orders larger than 0.100000
B(  0-O ,  1-C ) :   1.8037 B(  1-C ,  2-N ) :   1.0102 B(  1-C , 10-N ) :   1.0264
B(  2-N ,  3-C ) :   0.8694 B(  2-N , 30-H ) :   0.8262 B(  3-C ,  4-C ) :   1.4075
B(  3-C ,  9-C ) :   1.4178 B(  4-C ,  5-C ) :   1.4273 B(  4-C , 31-H ) :   0.9245
B(  5-C ,  6-C ) :   1.3981 B(  5-C , 32-H ) :   0.9205 B(  6-C ,  7-F ) :   0.9135
B(  6-C ,  8-C ) :   1.3835 B(  8-C ,  9-C ) :   1.4302 B(  8-C , 33-H ) :   0.9206
B(  9-C , 34-H ) :   0.9119 B( 10-N , 11-C ) :   0.9512 B( 10-N , 19-C ) :   0.8860
B( 11-C , 12-C ) :   0.9855 B( 11-C , 35-H ) :   0.9266 B( 11-C , 36-H ) :   0.9238
B( 12-C , 13-C ) :   0.9840 B( 12-C , 37-H ) :   0.9167 B( 12-C , 38-H ) :   0.9286
B( 13-C , 14-C ) :   1.4241 B( 13-C , 18-C ) :   1.3950 B( 14-C , 15-C ) :   1.4498
B( 14-C , 39-H ) :   0.9243 B( 15-C , 16-C ) :   1.4131 B( 15-C , 40-H ) :   0.9243
B( 16-C , 17-N ) :   1.4383 B( 16-C , 41-H ) :   0.9294 B( 17-N , 18-C ) :   1.3601
B( 18-C , 19-C ) :   0.9636 B( 19-C , 20-C ) :   0.9677 B( 19-C , 42-H ) :   0.8974
B( 20-C , 21-C ) :   1.4096 B( 20-C , 29-C ) :   1.4291 B( 21-C , 22-C ) :   1.4317
B( 21-C , 43-H ) :   0.9193 B( 22-C , 23-C ) :   1.4075 B( 22-C , 44-H ) :   0.9214
B( 23-C , 24-C ) :   0.9809 B( 23-C , 28-C ) :   1.4119 B( 24-C , 25-F ) :   0.9475
B( 24-C , 26-F ) :   0.9868 B( 24-C , 27-F ) :   0.9455 B( 28-C , 29-C ) :   1.4167
B( 28-C , 45-H ) :   0.9201 B( 29-C , 46-H ) :   0.9203

FINAL SINGLE POINT ENERGY     -1486.599144067610

DIPOLE MOMENT
-------------

Method             : SCF
Type of density    : Electron Density
Multiplicity       :   1
Irrep              :   0
Energy             : -1486.5991440676100410 Eh
Relativity type    :
Basis              : AO
                                X                 Y                 Z
Electronic contribution:     -9.167440869     -26.088343758     -19.191920748
Nuclear contribution   :      9.512029265      28.980365122      19.546228618
                        -----------------------------------------
Total Dipole Moment    :      0.344588396       2.892021364       0.354307869
                        -----------------------------------------
Magnitude (a.u.)       :      2.933950034
Magnitude (Debye)      :      7.457508328

Rotational constants in cm-1:             0.005260             0.003126             0.002149
Rotational constants in MHz :           157.678331            93.713034            64.426727

                             ****ORCA TERMINATED NORMALLY****
TOTAL RUN TIME: 0 days 0 hours 4 minutes 34 seconds 594 msec
