                         Program Version 6.0.0  -   RELEASE  -
|  1> ! B3LYP 6-31G* SP
|  2>
|  3> * xyz 0 1
|  4> C -4.5698 2.0448 2.5758
|  5> O -3.5600 1.2407 1.9748
|  6> C -3.7742 -0.0380 1.4319
|  7> C -5.0507 -0.6364 1.4361
|  8> C -5.2396 -1.9058 0.8881
|  9> C -4.1623 -2.5968 0.3371
| 10> C -2.8914 -2.0198 0.3258
| 11> C -2.6838 -0.7319 0.8609
| 12> C -1.3340 -0.1111 0.8732
| 13> C -0.3894 -0.3864 -0.0374
| 14> C 0.9411 0.2515 -0.0110
| 15> O 1.2420 1.0606 0.9097
| 16> N 1.9030 -0.0769 -1.0246
| 17> C 3.1659 0.5969 -1.1562
| 18> C 3.2020 2.0029 -1.1488
| 19> C 4.3991 2.6850 -1.3673
| 20> C 5.5731 1.9745 -1.6089
| 21> C 5.5562 0.5788 -1.6251
| 22> C 4.3613 -0.1295 -1.3925
| 23> C 4.4019 -1.6123 -1.3595
| 24> O 5.3293 -2.2327 -1.9469
| 25> O 3.4451 -2.3352 -0.6523
| 26> H -5.0017 1.5218 3.4550
| 27> H -5.3660 2.2740 1.8364
| 28> H -4.1177 2.9985 2.9172
| 29> H -5.9052 -0.1279 1.8608
| 30> H -6.2232 -2.3575 0.8965
| 31> H -4.3102 -3.5866 -0.0753
| 32> H -2.0711 -2.5971 -0.0789
| 33> H -1.1264 0.6302 1.6356
| 34> H -0.5961 -1.0753 -0.8454
| 35> H 1.6836 -0.8539 -1.6880
| 36> H 2.2935 2.5732 -1.0032
| 37> H 4.4136 3.7673 -1.3628
| 38> H 6.4999 2.5060 -1.7825
| 39> H 6.4857 0.0515 -1.8013
| 40> H 3.4765 -3.3472 -0.6189
| 41> *
| 42>
| 43>                          ****END OF INPUT****

CARTESIAN COORDINATES (ANGSTROEM)
---------------------------------
  C     -4.569800    2.044800    2.575800
  O     -3.560000    1.240700    1.974800
  C     -3.774200   -0.038000    1.431900
  C     -5.050700   -0.636400    1.436100
  C     -5.239600   -1.905800    0.888100
  C     -4.162300   -2.596800    0.337100
  C     -2.891400   -2.019800    0.325800
  C     -2.683800   -0.731900    0.860900
  C     -1.334000   -0.111100    0.873200
  C     -0.389400   -0.386400   -0.037400
  C      0.941100    0.251500   -0.011000
  O      1.242000    1.060600    0.909700
  N      1.903000   -0.076900   -1.024600
  C      3.165900    0.596900   -1.156200
  C      3.202000    2.002900   -1.148800
  C      4.399100    2.685000   -1.367300
  C      5.573100    1.974500   -1.608900
  C      5.556200    0.578800   -1.625100
  C      4.361300   -0.129500   -1.392500
  C      4.401900   -1.612300   -1.359500
  O      5.329300   -2.232700   -1.946900
  O      3.445100   -2.335200   -0.652300
  H     -5.001700    1.521800    3.455000
  H     -5.366000    2.274000    1.836400
  H     -4.117700    2.998500    2.917200
  H     -5.905200   -0.127900    1.860800
  H     -6.223200   -2.357500    0.896500
  H     -4.310200   -3.586600   -0.075300
  H     -2.071100   -2.597100   -0.078900
  H     -1.126400    0.630200    1.635600
  H     -0.596100   -1.075300   -0.845400
  H      1.683600   -0.853900   -1.688000
  H      2.293500    2.573200   -1.003200
  H      4.413600    3.767300   -1.362800
  H      6.499900    2.506000   -1.782500
  H      6.485700    0.051500   -1.801300
  H      3.476500   -3.347200   -0.618900

 Total Charge           Charge          ....    0
 Multiplicity           Mult            ....    1
 Number of Electrons    NEL             ....  156
 Basis Dimension        Dim             ....  338

ORBITAL ENERGIES
----------------

  NO   OCC          E(Eh)            E(eV)
   0   2.0000     -19.182593      -521.9849
   1   2.0000     -19.172395      -521.7074
   2   2.0000     -19.121494      -520.3223
   3   2.0000     -19.099249      -519.7170
   4   2.0000     -14.361392      -390.7933
   5   2.0000     -10.320232      -280.8278
   6   2.0000     -10.284475      -279.8548
   7   2.0000     -10.256342      -279.0892
   8   2.0000     -10.242122      -278.7023
   9   2.0000     -10.239330      -278.6263
  10   2.0000     -10.207621      -277.7635
  11   2.0000     -10.200842      -277.5790
  12   2.0000     -10.196016      -277.4477
  13   2.0000     -10.192352      -277.3480
  14   2.0000     -10.192224      -277.3445
  15   2.0000     -10.190984      -277.3108
  16   2.0000     -10.189885      -277.2809
  17   2.0000     -10.188350      -277.2391
  18   2.0000     -10.185914      -277.1728
  19   2.0000     -10.184997      -277.1479
  20   2.0000     -10.184362      -277.1306
  21   2.0000     -10.182901      -277.0908
  22   2.0000      -1.067590       -29.0506
  23   2.0000      -1.049242       -28.5513
  24   2.0000      -1.002268       -27.2731
  25   2.0000      -0.980176       -26.6719
  26   2.0000      -0.913159       -24.8483
  27   2.0000      -0.859524       -23.3888
  28   2.0000      -0.846834       -23.0435
  29   2.0000      -0.798396       -21.7255
  30   2.0000      -0.765229       -20.8230
  31   2.0000      -0.756991       -20.5988
  32   2.0000      -0.748083       -20.3564
  33   2.0000      -0.733415       -19.9572
  34   2.0000      -0.694798       -18.9064
  35   2.0000      -0.661190       -17.9919
  36   2.0000      -0.650232       -17.6937
  37   2.0000      -0.617514       -16.8034
  38   2.0000      -0.597551       -16.2602
  39   2.0000      -0.593107       -16.1393
  40   2.0000      -0.579992       -15.7824
  41   2.0000      -0.549387       -14.9496
  42   2.0000      -0.538377       -14.6500
  43   2.0000      -0.529758       -14.4154
  44   2.0000      -0.506348       -13.7784
  45   2.0000      -0.496190       -13.5020
  46   2.0000      -0.480536       -13.0760
  47   2.0000      -0.475376       -12.9356
  48   2.0000      -0.465339       -12.6625
  49   2.0000      -0.465068       -12.6551
  50   2.0000      -0.452002       -12.2996
  51   2.0000      -0.448107       -12.1936
  52   2.0000      -0.445546       -12.1239
  53   2.0000      -0.430921       -11.7260
  54   2.0000      -0.427440       -11.6312
  55   2.0000      -0.423432       -11.5222
  56   2.0000      -0.418497       -11.3879
  57   2.0000      -0.408821       -11.1246
  58   2.0000      -0.393467       -10.7068
  59   2.0000      -0.381733       -10.3875
  60   2.0000      -0.380548       -10.3552
  61   2.0000      -0.377700       -10.2778
  62   2.0000      -0.365754        -9.9527
  63   2.0000      -0.363291        -9.8857
  64   2.0000      -0.359033        -9.7698
  65   2.0000      -0.355849        -9.6831
  66   2.0000      -0.350909        -9.5487
  67   2.0000      -0.319416        -8.6918
  68   2.0000      -0.317680        -8.6445
  69   2.0000      -0.303208        -8.2507
  70   2.0000      -0.294695        -8.0191
  71   2.0000      -0.278958        -7.5908
  72   2.0000      -0.264518        -7.1979
  73   2.0000      -0.251409        -6.8412
  74   2.0000      -0.241894        -6.5823
  75   2.0000      -0.237885        -6.4732
  76   2.0000      -0.223599        -6.0845
  77   2.0000      -0.217571        -5.9204
  78   0.0000      -0.058136        -1.5820
  79   0.0000      -0.043139        -1.1739
  80   0.0000      -0.004384        -0.1193
  81   0.0000       0.002496         0.0679
  82   0.0000       0.023425         0.6374

MULLIKEN ATOMIC CHARGES
-----------------------
   0 C :   -0.196560
   1 O :   -0.507217
   2 C :    0.318610
   3 C :   -0.205407
   4 C :   -0.117692
   5 C :   -0.134896
   6 C :   -0.169500
   7 C :    0.074921
   8 C :   -0.119065
   9 C :   -0.201194
  10 C :    0.560916
  11 O :   -0.486879
  12 N :   -0.710777
  13 C :    0.289288
  14 C :   -0.125183
  15 C :   -0.127234
  16 C :   -0.125612
  17 C :   -0.164949
  18 C :    0.061480
  19 C :    0.492373
  20 O :   -0.451572
  21 O :   -0.616695
  22 H :    0.149138
  23 H :    0.148782
  24 H :    0.175409
  25 H :    0.135264
  26 H :    0.133992
  27 H :    0.127758
  28 H :    0.133536
  29 H :    0.186165
  30 H :    0.120644
  31 H :    0.330867
  32 H :    0.156356
  33 H :    0.139898
  34 H :    0.135742
  35 H :    0.164524
  36 H :    0.424768
Sum of atomic charges:   -0.0000000

LOEWDIN ATOMIC CHARGES
----------------------
   0 C :   -0.198207
   1 O :   -0.190058
   2 C :    0.099721
   3 C :   -0.171599
   4 C :   -0.116741
   5 C :   -0.146219
   6 C :   -0.113120
   7 C :   -0.045010
   8 C :   -0.058202
   9 C :   -0.181820
  10 C :    0.141347
  11 O :   -0.293179
  12 N :   -0.206626
  13 C :    0.057930
  14 C :   -0.116796
  15 C :   -0.109144
  16 C :   -0.136262
  17 C :   -0.090568
  18 C :   -0.069334
  19 C :    0.174956
  20 O :   -0.271231
  21 O :   -0.334335
  22 H :    0.117614
  23 H :    0.117614
  24 H :    0.138797
  25 H :    0.136656
  26 H :    0.134577
  27 H :    0.131808
  28 H :    0.136199
  29 H :    0.162572
  30 H :    0.125021
  31 H :    0.256944
  32 H :    0.148981
  33 H :    0.137565
  34 H :    0.135908
  35 H :    0.152167
  36 H :    0.342074

  Mayer bond orders larger than 0.100000
B(  0-C ,  1-O ) :   0.9142 B(  0-C , 22-H ) :   0.9303 B(  0-C , 23-H ) :   0.9302
B(  0-C , 24-H ) :   0.9437 B(  1-O ,  2-C ) :   0.9462 B(  2-C ,  3-C ) :   1.3522
B(  2-C ,  7-C ) :   1.3393 B(  3-C ,  4-C ) :   1.4431 B(  3-C , 25-H ) :   0.9184
B(  4-C ,  5-C ) :   1.4414 B(  4-C , 26-H ) :   0.9292 B(  5-C ,  6-C ) :   1.4499
B(  5-C , 27-H ) :   0.9294 B(  6-C ,  7-C ) :   1.4098 B(  6-C , 28-H ) :   0.9193
B(  7-C ,  8-C ) :   1.0396 B(  8-C ,  9-C ) :   1.7724 B(  8-C , 29-H ) :   0.8991
B(  9-C , 10-C ) :   1.0366 B(  9-C , 30-H ) :   0.9150 B( 10-C , 11-O ) :   1.8119
B( 10-C , 12-N ) :   0.9911 B( 12-N , 13-C ) :   0.8906 B( 12-N , 31-H ) :   0.8192
B( 13-C , 14-C ) :   1.4109 B( 13-C , 18-C ) :   1.3496 B( 14-C , 15-C ) :   1.4476
B( 14-C , 32-H ) :   0.9146 B( 15-C , 16-C ) :   1.4196 B( 15-C , 33-H ) :   0.9282
B( 16-C , 17-C ) :   1.4467 B( 16-C , 34-H ) :   0.9297 B( 17-C , 18-C ) :   1.3893
B( 17-C , 35-H ) :   0.9137 B( 18-C , 19-C ) :   0.9887 B( 19-C , 20-O ) :   1.8556
B( 19-C , 21-O ) :   1.0088 B( 21-O , 36-H ) :   0.7463

FINAL SINGLE POINT ENERGY     -1011.865871390508

DIPOLE MOMENT
-------------

Method             : SCF
Type of density    : Electron Density
Multiplicity       :   1
Irrep              :   0
Energy             : -1011.8658713905077775 Eh
Relativity type    :
Basis              : AO
                                X                 Y                 Z
Electronic contribution:     13.825446266      -3.985389317      -4.183276847
Nuclear contribution   :    -15.715187380       3.876925168       4.000460358
                        -----------------------------------------
Total Dipole Moment    :     -1.889741114      -0.108464149      -0.182816489
                        -----------------------------------------
Magnitude (a.u.)       :      1.901659227
Magnitude (Debye)      :      4.833633621

Rotational constants in cm-1:             0.020430             0.003491             0.003049
Rotational constants in MHz :           612.477078           104.643035            91.400969

                             ****ORCA TERMINATED NORMALLY****
TOTAL RUN TIME: 0 days 0 hours 4 minutes 25 seconds 617 msec
