                         Program Version 6.0.0  -   RELEASE  -
|  1> ! B3LYP 6-31G* SP
|  2>
|  3> * xyz 0 1
|  4> C 2.2729 3.2716 3.5555
|  5> O 1.4702 2.7646 2.4967
|  6> C 0.9432 1.4697 2.5056
|  7> O 1.1329 0.7121 3.4974
|  8> C 0.1207 1.0099 1.3274
|  9> C -0.4376 -0.4298 1.4967
| 10> C -1.0027 -0.9192 0.2053
| 11> C -0.7733 -0.3270 -1.0198
| 12> N -1.3443 -1.0344 -2.0216
| 13> C -1.9172 -2.0957 -1.4216
| 14> C -2.6066 -3.1416 -2.0330
| 15> C -3.1021 -4.1714 -1.2117
| 16> C -2.8965 -4.1362 0.1863
| 17> C -2.1947 -3.0701 0.7776
| 18> C -1.7225 -2.0622 -0.0605
| 19> C 0.0158 0.9422 -1.1820
| 20> C -0.8648 2.1385 -1.4926
| 21> C -2.1836 2.2501 -1.0044
| 22> C -2.9492 3.3854 -1.2857
| 23> C -2.4070 4.4280 -2.0396
| 24> C -1.0953 4.3404 -2.5093
| 25> C -0.3259 3.2064 -2.2327
| 26> N 0.8342 1.2206 0.0297
| 27> C 2.2486 0.7693 -0.0619
| 28> C 2.4420 -0.7200 0.1147
| 29> C 2.1720 -1.6114 -0.9387
| 30> C 2.3400 -2.9877 -0.7609
| 31> C 2.8040 -3.4848 0.4590
| 32> C 3.1118 -2.6053 1.4995
| 33> C 2.9418 -1.2285 1.3270
| 34> H 3.1847 2.6480 3.6727
| 35> H 2.5763 4.3114 3.3165
| 36> H 1.6944 3.2743 4.5031
| 37> H -0.7635 1.6830 1.3292
| 38> H -1.2394 -0.4273 2.2664
| 39> H 0.3446 -1.1373 1.8315
| 40> H -1.3253 -0.8146 -3.0425
| 41> H -2.7527 -3.1643 -3.1052
| 42> H -3.6428 -4.9978 -1.6547
| 43> H -3.2799 -4.9361 0.8062
| 44> H -2.0273 -3.0369 1.8466
| 45> H 0.6729 0.7904 -2.0664
| 46> H -2.6249 1.4647 -0.4046
| 47> H -3.9624 3.4592 -0.9129
| 48> H -3.0010 5.3071 -2.2536
| 49> H -0.6726 5.1535 -3.0844
| 50> H 0.6931 3.1609 -2.5963
| 51> H 2.6780 1.0739 -1.0412
| 52> H 2.8616 1.3216 0.6809
| 53> H 1.8343 -1.2465 -1.8986
| 54> H 2.1160 -3.6685 -1.5715
| 55> H 2.9367 -4.5506 0.5938
| 56> H 3.4838 -2.9900 2.4401
| 57> H 3.1891 -0.5615 2.1427
| 58> *
| 59>
| 60>                          ****END OF INPUT****

CARTESIAN COORDINATES (ANGSTROEM)
---------------------------------
  C      2.272900    3.271600    3.555500
  O      1.470200    2.764600    2.496700
  C      0.943200    1.469700    2.505600
  O      1.132900    0.712100    3.497400
  C      0.120700    1.009900    1.327400
  C     -0.437600   -0.429800    1.496700
  C     -1.002700   -0.919200    0.205300
  C     -0.773300   -0.327000   -1.019800
  N     -1.344300   -1.034400   -2.021600
  C     -1.917200   -2.095700   -1.421600
  C     -2.606600   -3.141600   -2.033000
  C     -3.102100   -4.171400   -1.211700
  C     -2.896500   -4.136200    0.186300
  C     -2.194700   -3.070100    0.777600
  C     -1.722500   -2.062200   -0.060500
  C      0.015800    0.942200   -1.182000
  C     -0.864800    2.138500   -1.492600
  C     -2.183600    2.250100   -1.004400
  C     -2.949200    3.385400   -1.285700
  C     -2.407000    4.428000   -2.039600
  C     -1.095300    4.340400   -2.509300
  C     -0.325900    3.206400   -2.232700
  N      0.834200    1.220600    0.029700
  C      2.248600    0.769300   -0.061900
  C      2.442000   -0.720000    0.114700
  C      2.172000   -1.611400   -0.938700
  C      2.340000   -2.987700   -0.760900
  C      2.804000   -3.484800    0.459000
  C      3.111800   -2.605300    1.499500
  C      2.941800   -1.228500    1.327000
  H      3.184700    2.648000    3.672700
  H      2.576300    4.311400    3.316500
  H      1.694400    3.274300    4.503100
  H     -0.763500    1.683000    1.329200
  H     -1.239400   -0.427300    2.266400
  H      0.344600   -1.137300    1.831500
  H     -1.325300   -0.814600   -3.042500
  H     -2.752700   -3.164300   -3.105200
  H     -3.642800   -4.997800   -1.654700
  H     -3.279900   -4.936100    0.806200
  H     -2.027300   -3.036900    1.846600
  H      0.672900    0.790400   -2.066400
  H     -2.624900    1.464700   -0.404600
  H     -3.962400    3.459200   -0.912900
  H     -3.001000    5.307100   -2.253600
  H     -0.672600    5.153500   -3.084400
  H      0.693100    3.160900   -2.596300
  H      2.678000    1.073900   -1.041200
  H      2.861600    1.321600    0.680900
  H      1.834300   -1.246500   -1.898600
  H      2.116000   -3.668500   -1.571500
  H      2.936700   -4.550600    0.593800
  H      3.483800   -2.990000    2.440100
  H      3.189100   -0.561500    2.142700

 Total Charge           Charge          ....    0
 Multiplicity           Mult            ....    1
 Number of Electrons    NEL             ....  210
 Basis Dimension        Dim             ....  468

ORBITAL ENERGIES
----------------

  NO   OCC          E(Eh)            E(eV)
   0   2.0000     -19.180207      -521.9200
   1   2.0000     -19.128623      -520.5163
   2   2.0000     -14.368702      -390.9923
   3   2.0000     -14.325329      -389.8120
   4   2.0000     -10.316508      -280.7265
   5   2.0000     -10.235948      -278.5343
   6   2.0000     -10.229176      -278.3500
   7   2.0000     -10.224783      -278.2305
   8   2.0000     -10.207815      -277.7688
   9   2.0000     -10.198159      -277.5060
  10   2.0000     -10.194423      -277.4043
  11   2.0000     -10.188249      -277.2363
  12   2.0000     -10.180387      -277.0224
  13   2.0000     -10.179965      -277.0109
  14   2.0000     -10.179514      -276.9986
  15   2.0000     -10.178933      -276.9829
  16   2.0000     -10.178712      -276.9768
  17   2.0000     -10.178550      -276.9724
  18   2.0000     -10.173995      -276.8485
  19   2.0000     -10.172860      -276.8176
  20   2.0000     -10.171998      -276.7941
  21   2.0000     -10.171577      -276.7827
  22   2.0000     -10.170591      -276.7559
  23   2.0000     -10.170537      -276.7544
  24   2.0000     -10.168458      -276.6978
  25   2.0000     -10.164744      -276.5967
  26   2.0000     -10.162460      -276.5346
  27   2.0000     -10.161288      -276.5027
  28   2.0000     -10.152819      -276.2723
  29   2.0000     -10.151875      -276.2466
  30   2.0000      -1.074316       -29.2336
  31   2.0000      -0.990685       -26.9579
  32   2.0000      -0.988614       -26.9015
  33   2.0000      -0.920595       -25.0507
  34   2.0000      -0.848757       -23.0959
  35   2.0000      -0.839741       -22.8505
  36   2.0000      -0.828448       -22.5432
  37   2.0000      -0.794570       -21.6214
  38   2.0000      -0.780823       -21.2473
  39   2.0000      -0.763702       -20.7814
  40   2.0000      -0.739959       -20.1353
  41   2.0000      -0.734998       -20.0003
  42   2.0000      -0.732600       -19.9351
  43   2.0000      -0.724780       -19.7223
  44   2.0000      -0.721453       -19.6317
  45   2.0000      -0.706683       -19.2298
  46   2.0000      -0.675469       -18.3804
  47   2.0000      -0.656297       -17.8587
  48   2.0000      -0.628917       -17.1137
  49   2.0000      -0.606979       -16.5167
  50   2.0000      -0.599226       -16.3058
  51   2.0000      -0.595126       -16.1942
  52   2.0000      -0.586330       -15.9549
  53   2.0000      -0.574070       -15.6212
  54   2.0000      -0.565054       -15.3759
  55   2.0000      -0.557852       -15.1799
  56   2.0000      -0.534781       -14.5521
  57   2.0000      -0.529090       -14.3973
  58   2.0000      -0.510644       -13.8953
  59   2.0000      -0.506974       -13.7955
  60   2.0000      -0.500655       -13.6235
  61   2.0000      -0.484195       -13.1756
  62   2.0000      -0.474617       -12.9150
  63   2.0000      -0.462601       -12.5880
  64   2.0000      -0.461404       -12.5554
  65   2.0000      -0.458192       -12.4680
  66   2.0000      -0.452774       -12.3206
  67   2.0000      -0.450391       -12.2558
  68   2.0000      -0.442595       -12.0436
  69   2.0000      -0.434249       -11.8165
  70   2.0000      -0.428622       -11.6634
  71   2.0000      -0.427687       -11.6380
  72   2.0000      -0.425040       -11.5659
  73   2.0000      -0.419822       -11.4239
  74   2.0000      -0.415409       -11.3039
  75   2.0000      -0.413242       -11.2449
  76   2.0000      -0.408851       -11.1254
  77   2.0000      -0.405643       -11.0381
  78   2.0000      -0.396328       -10.7846
  79   2.0000      -0.393124       -10.6975
  80   2.0000      -0.378984       -10.3127
  81   2.0000      -0.372547       -10.1375
  82   2.0000      -0.367572       -10.0021
  83   2.0000      -0.361666        -9.8414
  84   2.0000      -0.359950        -9.7947
  85   2.0000      -0.351141        -9.5550
  86   2.0000      -0.342701        -9.3254
  87   2.0000      -0.340345        -9.2613
  88   2.0000      -0.339451        -9.2369
  89   2.0000      -0.335625        -9.1328
  90   2.0000      -0.332343        -9.0435
  91   2.0000      -0.327264        -8.9053
  92   2.0000      -0.325266        -8.8509
  93   2.0000      -0.322989        -8.7890
  94   2.0000      -0.315835        -8.5943
  95   2.0000      -0.288705        -7.8561
  96   2.0000      -0.263025        -7.1573
  97   2.0000      -0.259527        -7.0621
  98   2.0000      -0.246193        -6.6993
  99   2.0000      -0.243924        -6.6375
 100   2.0000      -0.237903        -6.4737
 101   2.0000      -0.236209        -6.4276
 102   2.0000      -0.208721        -5.6796
 103   2.0000      -0.203131        -5.5275
 104   2.0000      -0.181223        -4.9313
 105   0.0000      -0.013668        -0.3719
 106   0.0000      -0.001242        -0.0338
 107   0.0000       0.000917         0.0250
 108   0.0000       0.003940         0.1072
 109   0.0000       0.009441         0.2569

MULLIKEN ATOMIC CHARGES
-----------------------
   0 C :   -0.197682
   1 O :   -0.457360
   2 C :    0.584644
   3 O :   -0.457432
   4 C :   -0.058116
   5 C :   -0.333785
   6 C :    0.042901
   7 C :    0.252555
   8 N :   -0.696297
   9 C :    0.307413
  10 C :   -0.198451
  11 C :   -0.142959
  12 C :   -0.151112
  13 C :   -0.201391
  14 C :    0.101652
  15 C :   -0.157306
  16 C :    0.181058
  17 C :   -0.182342
  18 C :   -0.132278
  19 C :   -0.123094
  20 C :   -0.129836
  21 C :   -0.165647
  22 N :   -0.364979
  23 C :   -0.260643
  24 C :    0.166916
  25 C :   -0.160609
  26 C :   -0.123084
  27 C :   -0.125182
  28 C :   -0.126434
  29 C :   -0.182947
  30 H :    0.158749
  31 H :    0.165436
  32 H :    0.164196
  33 H :    0.175439
  34 H :    0.142046
  35 H :    0.187074
  36 H :    0.328972
  37 H :    0.110503
  38 H :    0.115374
  39 H :    0.114945
  40 H :    0.124887
  41 H :    0.131161
  42 H :    0.140748
  43 H :    0.129295
  44 H :    0.126089
  45 H :    0.126671
  46 H :    0.121034
  47 H :    0.148119
  48 H :    0.153361
  49 H :    0.112244
  50 H :    0.125756
  51 H :    0.125323
  52 H :    0.127971
  53 H :    0.136431
Sum of atomic charges:    0.0000000

LOEWDIN ATOMIC CHARGES
----------------------
   0 C :   -0.199920
   1 O :   -0.174428
   2 C :    0.186999
   3 O :   -0.258924
   4 C :   -0.067699
   5 C :   -0.224426
   6 C :   -0.080967
   7 C :   -0.011614
   8 N :   -0.117936
   9 C :    0.009789
  10 C :   -0.157719
  11 C :   -0.146030
  12 C :   -0.147315
  13 C :   -0.134644
  14 C :   -0.041266
  15 C :   -0.053124
  16 C :   -0.020630
  17 C :   -0.138902
  18 C :   -0.129393
  19 C :   -0.130591
  20 C :   -0.129603
  21 C :   -0.125734
  22 N :   -0.144917
  23 C :   -0.153437
  24 C :   -0.038857
  25 C :   -0.128810
  26 C :   -0.127814
  27 C :   -0.130486
  28 C :   -0.130558
  29 C :   -0.135047
  30 H :    0.125253
  31 H :    0.133225
  32 H :    0.128216
  33 H :    0.151893
  34 H :    0.130645
  35 H :    0.150215
  36 H :    0.266082
  37 H :    0.124341
  38 H :    0.126691
  39 H :    0.125694
  40 H :    0.132037
  41 H :    0.127053
  42 H :    0.137686
  43 H :    0.131685
  44 H :    0.130400
  45 H :    0.130613
  46 H :    0.128708
  47 H :    0.127024
  48 H :    0.126951
  49 H :    0.123252
  50 H :    0.130424
  51 H :    0.130210
  52 H :    0.131317
  53 H :    0.134392

  Mayer bond orders larger than 0.100000
B(  0-C ,  1-O ) :   0.8856 B(  0-C , 30-H ) :   0.9362 B(  0-C , 31-H ) :   0.9435
B(  0-C , 32-H ) :   0.9356 B(  1-O ,  2-C ) :   1.0160 B(  2-C ,  3-O ) :   1.8156
B(  2-C ,  4-C ) :   0.9557 B(  4-C ,  5-C ) :   0.9586 B(  4-C , 22-N ) :   0.9694
B(  4-C , 33-H ) :   0.8929 B(  5-C ,  6-C ) :   0.9780 B(  5-C , 34-H ) :   0.9195
B(  5-C , 35-H ) :   0.9028 B(  6-C ,  7-C ) :   1.5315 B(  6-C , 14-C ) :   1.2640
B(  7-C ,  8-N ) :   1.0214 B(  7-C , 15-C ) :   0.9434 B(  8-N ,  9-C ) :   0.9974
B(  8-N , 36-H ) :   0.8391 B(  9-C , 10-C ) :   1.3591 B(  9-C , 14-C ) :   1.3075
B( 10-C , 11-C ) :   1.4704 B( 10-C , 13-C ) :   0.1017 B( 10-C , 37-H ) :   0.9240
B( 11-C , 12-C ) :   1.3868 B( 11-C , 38-H ) :   0.9326 B( 12-C , 13-C ) :   1.4608
B( 12-C , 39-H ) :   0.9325 B( 13-C , 14-C ) :   1.3505 B( 13-C , 40-H ) :   0.9243
B( 15-C , 16-C ) :   0.9451 B( 15-C , 22-N ) :   0.9677 B( 15-C , 41-H ) :   0.9086
B( 16-C , 17-C ) :   1.4281 B( 16-C , 21-C ) :   1.4184 B( 17-C , 18-C ) :   1.4287
B( 17-C , 42-H ) :   0.9119 B( 18-C , 19-C ) :   1.4575 B( 18-C , 43-H ) :   0.9297
B( 19-C , 20-C ) :   1.4483 B( 19-C , 44-H ) :   0.9305 B( 20-C , 21-C ) :   1.4452
B( 20-C , 45-H ) :   0.9297 B( 21-C , 46-H ) :   0.9258 B( 22-N , 23-C ) :   0.9801
B( 23-C , 24-C ) :   0.9308 B( 23-C , 47-H ) :   0.9324 B( 23-C , 48-H ) :   0.9242
B( 24-C , 25-C ) :   1.4212 B( 24-C , 29-C ) :   1.4267 B( 25-C , 26-C ) :   1.4475
B( 25-C , 49-H ) :   0.9228 B( 26-C , 27-C ) :   1.4499 B( 26-C , 50-H ) :   0.9299
B( 27-C , 28-C ) :   1.4564 B( 27-C , 51-H ) :   0.9306 B( 28-C , 29-C ) :   1.4357
B( 28-C , 52-H ) :   0.9297 B( 29-C , 53-H ) :   0.9156

FINAL SINGLE POINT ENERGY     -1264.338403510031

DIPOLE MOMENT
-------------

Method             : SCF
Type of density    : Electron Density
Multiplicity       :   1
Irrep              :   0
Energy             : -1264.3384035100309575 Eh
Relativity type    :
Basis              : AO
                                X                 Y                 Z
Electronic contribution:     -3.850559811      -1.745427431      -2.745930307
Nuclear contribution   :      4.153990650       2.553111312       1.755808389
                        -----------------------------------------
Total Dipole Moment    :      0.303430838       0.807683881      -0.990121918
                        -----------------------------------------
Magnitude (a.u.)       :      1.313303064
Magnitude (Debye)      :      3.338151101

Rotational constants in cm-1:             0.006052             0.005218             0.003568
Rotational constants in MHz :           181.429839           156.427804           106.956510

                             ****ORCA TERMINATED NORMALLY****
TOTAL RUN TIME: 0 days 0 hours 9 minutes 15 seconds 84 msec
