                         Program Version 6.0.0  -   RELEASE  -
|  1> ! B3LYP 6-31G* SP
|  2>
|  3> * xyz 0 1
|  4> C -2.2326 -2.9263 -0.6585
|  5> C -1.8199 -1.6971 0.1687
|  6> C -2.3067 -1.7576 1.6246
|  7> C -2.1395 -0.3569 -0.5215
|  8> C -1.0606 0.5085 -0.8626
|  9> N 0.2955 0.1886 -0.5292
| 10> C 0.8238 0.5179 0.7961
| 11> C 1.1837 1.9763 0.8716
| 12> C 2.5009 2.3969 0.6346
| 13> C 2.8274 3.7556 0.6752
| 14> C 1.8349 4.7171 0.9482
| 15> O 2.1053 6.0942 1.0009
| 16> C 3.3857 6.6903 0.8059
| 17> F 4.2769 6.2264 1.7565
| 18> F 3.2672 8.0603 0.9377
| 19> F 3.8575 6.4035 -0.4623
| 20> C 0.5208 4.2926 1.1782
| 21> C 0.1950 2.9343 1.1409
| 22> S 1.3562 -0.3885 -1.7762
| 23> O 2.4292 0.6291 -2.0440
| 24> O 0.5803 -0.6020 -3.0466
| 25> C 2.0741 -1.9164 -1.2788
| 26> C 1.4090 -3.1210 -1.5347
| 27> C 1.9627 -4.3345 -1.1181
| 28> C 3.1931 -4.3598 -0.4374
| 29> C 3.7851 -5.6416 0.0046
| 30> O 3.1988 -6.7322 -0.2346
| 31> O 4.9978 -5.6556 0.6887
| 32> C 3.8546 -3.1462 -0.1814
| 33> C 3.2979 -1.9338 -0.5989
| 34> N -1.2880 1.6680 -1.5285
| 35> C -2.5250 2.0764 -1.8819
| 36> C -3.6368 1.3010 -1.5608
| 37> C -4.9170 1.7469 -1.9257
| 38> C -6.0407 0.9881 -1.6121
| 39> C -5.8963 -0.2172 -0.9328
| 40> C -4.6283 -0.6743 -0.5649
| 41> C -3.4637 0.0687 -0.8707
| 42> H -2.0476 -2.7438 -1.7386
| 43> H -1.6232 -3.8036 -0.3514
| 44> H -3.2905 -3.2129 -0.5179
| 45> H -0.7202 -1.8062 0.2519
| 46> H -3.4023 -1.8621 1.7151
| 47> H -1.8446 -2.6293 2.1360
| 48> H -1.9988 -0.8401 2.1681
| 49> H 0.0720 0.2750 1.5760
| 50> H 1.7133 -0.1088 1.0172
| 51> H 3.2769 1.6725 0.4192
| 52> H 3.8530 4.0436 0.4921
| 53> H -0.2527 5.0210 1.3867
| 54> H -0.8291 2.6293 1.3180
| 55> H 0.4608 -3.1222 -2.0556
| 56> H 1.4267 -5.2515 -1.3281
| 57> H 5.4125 -6.5280 0.9941
| 58> H 4.8015 -3.1318 0.3429
| 59> H 3.8188 -1.0091 -0.3856
| 60> H -2.6361 3.0154 -2.4105
| 61> H -5.0477 2.6847 -2.4531
| 62> H -7.0260 1.3363 -1.8940
| 63> H -6.7732 -0.8029 -0.6871
| 64> H -4.6015 -1.6048 -0.0380
| 65> *
| 66>
| 67>                          ****END OF INPUT****

CARTESIAN COORDINATES (ANGSTROEM)
---------------------------------
  C     -2.232600   -2.926300   -0.658500
  C     -1.819900   -1.697100    0.168700
  C     -2.306700   -1.757600    1.624600
  C     -2.139500   -0.356900   -0.521500
  C     -1.060600    0.508500   -0.862600
  N      0.295500    0.188600   -0.529200
  C      0.823800    0.517900    0.796100
  C      1.183700    1.976300    0.871600
  C      2.500900    2.396900    0.634600
  C      2.827400    3.755600    0.675200
  C      1.834900    4.717100    0.948200
  O      2.105300    6.094200    1.000900
  C      3.385700    6.690300    0.805900
  F      4.276900    6.226400    1.756500
  F      3.267200    8.060300    0.937700
  F      3.857500    6.403500   -0.462300
  C      0.520800    4.292600    1.178200
  C      0.195000    2.934300    1.140900
  S      1.356200   -0.388500   -1.776200
  O      2.429200    0.629100   -2.044000
  O      0.580300   -0.602000   -3.046600
  C      2.074100   -1.916400   -1.278800
  C      1.409000   -3.121000   -1.534700
  C      1.962700   -4.334500   -1.118100
  C      3.193100   -4.359800   -0.437400
  C      3.785100   -5.641600    0.004600
  O      3.198800   -6.732200   -0.234600
  O      4.997800   -5.655600    0.688700
  C      3.854600   -3.146200   -0.181400
  C      3.297900   -1.933800   -0.598900
  N     -1.288000    1.668000   -1.528500
  C     -2.525000    2.076400   -1.881900
  C     -3.636800    1.301000   -1.560800
  C     -4.917000    1.746900   -1.925700
  C     -6.040700    0.988100   -1.612100
  C     -5.896300   -0.217200   -0.932800
  C     -4.628300   -0.674300   -0.564900
  C     -3.463700    0.068700   -0.870700
  H     -2.047600   -2.743800   -1.738600
  H     -1.623200   -3.803600   -0.351400
  H     -3.290500   -3.212900   -0.517900
  H     -0.720200   -1.806200    0.251900
  H     -3.402300   -1.862100    1.715100
  H     -1.844600   -2.629300    2.136000
  H     -1.998800   -0.840100    2.168100
  H      0.072000    0.275000    1.576000
  H      1.713300   -0.108800    1.017200
  H      3.276900    1.672500    0.419200
  H      3.853000    4.043600    0.492100
  H     -0.252700    5.021000    1.386700
  H     -0.829100    2.629300    1.318000
  H      0.460800   -3.122200   -2.055600
  H      1.426700   -5.251500   -1.328100
  H      5.412500   -6.528000    0.994100
  H      4.801500   -3.131800    0.342900
  H      3.818800   -1.009100   -0.385600
  H     -2.636100    3.015400   -2.410500
  H     -5.047700    2.684700   -2.453100
  H     -7.026000    1.336300   -1.894000
  H     -6.773200   -0.802900   -0.687100
  H     -4.601500   -1.604800   -0.038000

 Total Charge           Charge          ....    0
 Multiplicity           Mult            ....    1
 Number of Electrons    NEL             ....  282
 Basis Dimension        Dim             ....  582

ORBITAL ENERGIES
----------------

  NO   OCC          E(Eh)            E(eV)
   0   2.0000     -89.096324     -2424.4342
   1   2.0000     -24.734324      -673.0552
   2   2.0000     -24.731926      -672.9899
   3   2.0000     -24.730481      -672.9506
   4   2.0000     -19.204305      -522.5757
   5   2.0000     -19.200184      -522.4636
   6   2.0000     -19.142177      -520.8851
   7   2.0000     -19.123606      -520.3798
   8   2.0000     -19.121161      -520.3132
   9   2.0000     -14.368628      -390.9902
  10   2.0000     -14.326835      -389.8530
  11   2.0000     -10.496208      -285.6163
  12   2.0000     -10.339637      -281.3558
  13   2.0000     -10.260232      -279.1951
  14   2.0000     -10.259156      -279.1658
  15   2.0000     -10.246447      -278.8200
  16   2.0000     -10.237436      -278.5748
  17   2.0000     -10.236740      -278.5559
  18   2.0000     -10.225416      -278.2477
  19   2.0000     -10.224196      -278.2145
  20   2.0000     -10.222346      -278.1642
  21   2.0000     -10.222073      -278.1568
  22   2.0000     -10.222058      -278.1563
  23   2.0000     -10.212722      -277.9023
  24   2.0000     -10.212235      -277.8890
  25   2.0000     -10.201828      -277.6058
  26   2.0000     -10.201056      -277.5848
  27   2.0000     -10.198330      -277.5107
  28   2.0000     -10.197705      -277.4937
  29   2.0000     -10.196912      -277.4721
  30   2.0000     -10.195865      -277.4436
  31   2.0000     -10.188591      -277.2457
  32   2.0000     -10.188150      -277.2337
  33   2.0000     -10.187489      -277.2157
  34   2.0000     -10.186129      -277.1787
  35   2.0000     -10.185664      -277.1660
  36   2.0000     -10.183440      -277.1055
  37   2.0000     -10.180835      -277.0346
  38   2.0000      -8.131935      -221.2812
  39   2.0000      -6.096946      -165.9063
  40   2.0000      -6.094986      -165.8530
  41   2.0000      -6.094622      -165.8431
  42   2.0000      -1.296758       -35.2866
  43   2.0000      -1.217704       -33.1354
  44   2.0000      -1.216726       -33.1088
  45   2.0000      -1.084892       -29.5214
  46   2.0000      -1.080893       -29.4126
  47   2.0000      -1.074179       -29.2299
  48   2.0000      -0.999087       -27.1866
  49   2.0000      -0.961751       -26.1706
  50   2.0000      -0.958670       -26.0867
  51   2.0000      -0.913979       -24.8706
  52   2.0000      -0.895034       -24.3551
  53   2.0000      -0.865683       -23.5564
  54   2.0000      -0.854954       -23.2645
  55   2.0000      -0.823607       -22.4115
  56   2.0000      -0.811039       -22.0695
  57   2.0000      -0.783092       -21.3090
  58   2.0000      -0.781588       -21.2681
  59   2.0000      -0.772919       -21.0322
  60   2.0000      -0.769572       -20.9411
  61   2.0000      -0.749139       -20.3851
  62   2.0000      -0.736846       -20.0506
  63   2.0000      -0.725339       -19.7375
  64   2.0000      -0.703576       -19.1453
  65   2.0000      -0.692300       -18.8384
  66   2.0000      -0.676278       -18.4025
  67   2.0000      -0.661374       -17.9969
  68   2.0000      -0.653778       -17.7902
  69   2.0000      -0.641730       -17.4624
  70   2.0000      -0.625831       -17.0297
  71   2.0000      -0.622559       -16.9407
  72   2.0000      -0.618708       -16.8359
  73   2.0000      -0.612185       -16.6584
  74   2.0000      -0.596355       -16.2276
  75   2.0000      -0.588612       -16.0170
  76   2.0000      -0.584459       -15.9039
  77   2.0000      -0.577030       -15.7018
  78   2.0000      -0.566845       -15.4246
  79   2.0000      -0.561237       -15.2720
  80   2.0000      -0.543843       -14.7987
  81   2.0000      -0.526066       -14.3150
  82   2.0000      -0.520477       -14.1629
  83   2.0000      -0.507032       -13.7970
  84   2.0000      -0.496181       -13.5018
  85   2.0000      -0.491152       -13.3649
  86   2.0000      -0.486420       -13.2362
  87   2.0000      -0.480481       -13.0745
  88   2.0000      -0.477893       -13.0041
  89   2.0000      -0.471386       -12.8271
  90   2.0000      -0.470595       -12.8056
  91   2.0000      -0.464400       -12.6370
  92   2.0000      -0.462597       -12.5879
  93   2.0000      -0.462229       -12.5779
  94   2.0000      -0.454261       -12.3611
  95   2.0000      -0.453289       -12.3346
  96   2.0000      -0.448249       -12.1975
  97   2.0000      -0.446368       -12.1463
  98   2.0000      -0.442731       -12.0473
  99   2.0000      -0.440865       -11.9965
 100   2.0000      -0.437507       -11.9052
 101   2.0000      -0.430023       -11.7015
 102   2.0000      -0.427930       -11.6446
 103   2.0000      -0.426979       -11.6187
 104   2.0000      -0.426773       -11.6131
 105   2.0000      -0.421608       -11.4725
 106   2.0000      -0.418447       -11.3865
 107   2.0000      -0.416848       -11.3430
 108   2.0000      -0.409001       -11.1295
 109   2.0000      -0.406657       -11.0657
 110   2.0000      -0.404522       -11.0076
 111   2.0000      -0.397911       -10.8277
 112   2.0000      -0.396508       -10.7895
 113   2.0000      -0.391813       -10.6618
 114   2.0000      -0.388627       -10.5751
 115   2.0000      -0.381684       -10.3862
 116   2.0000      -0.376577       -10.2472
 117   2.0000      -0.373102       -10.1526
 118   2.0000      -0.370977       -10.0948
 119   2.0000      -0.368927       -10.0390
 120   2.0000      -0.354553        -9.6479
 121   2.0000      -0.350854        -9.5472
 122   2.0000      -0.349882        -9.5208
 123   2.0000      -0.339913        -9.2495
 124   2.0000      -0.339019        -9.2252
 125   2.0000      -0.329344        -8.9619
 126   2.0000      -0.324811        -8.8386
 127   2.0000      -0.320390        -8.7183
 128   2.0000      -0.307770        -8.3749
 129   2.0000      -0.297780        -8.1030
 130   2.0000      -0.290611        -7.9079
 131   2.0000      -0.285907        -7.7799
 132   2.0000      -0.283610        -7.7174
 133   2.0000      -0.278943        -7.5904
 134   2.0000      -0.272318        -7.4101
 135   2.0000      -0.267945        -7.2912
 136   2.0000      -0.252528        -6.8716
 137   2.0000      -0.249266        -6.7829
 138   2.0000      -0.244610        -6.6562
 139   2.0000      -0.230284        -6.2664
 140   2.0000      -0.222203        -6.0464
 141   0.0000      -0.088169        -2.3992
 142   0.0000      -0.061420        -1.6713
 143   0.0000      -0.037574        -1.0224
 144   0.0000      -0.031808        -0.8655
 145   0.0000      -0.003797        -0.1033

MULLIKEN ATOMIC CHARGES
-----------------------
   0 C :   -0.456335
   1 C :   -0.151080
   2 C :   -0.447365
   3 C :    0.085154
   4 C :    0.306087
   5 N :   -0.593654
   6 C :   -0.281634
   7 C :    0.196330
   8 C :   -0.144509
   9 C :   -0.191752
  10 C :    0.353991
  11 O :   -0.547163
  12 C :    1.085311
  13 F :   -0.293117
  14 F :   -0.280862
  15 F :   -0.289230
  16 C :   -0.173046
  17 C :   -0.146180
  18 S :    1.204276
  19 O :   -0.529265
  20 O :   -0.539892
  21 C :   -0.129560
  22 C :   -0.145262
  23 C :   -0.143512
  24 C :    0.082989
  25 C :    0.528985
  26 O :   -0.443437
  27 O :   -0.623275
  28 C :   -0.146801
  29 C :   -0.151278
  30 N :   -0.352529
  31 C :   -0.053235
  32 C :    0.140395
  33 C :   -0.201836
  34 C :   -0.125564
  35 C :   -0.123190
  36 C :   -0.194058
  37 C :    0.109292
  38 H :    0.168092
  39 H :    0.141776
  40 H :    0.145985
  41 H :    0.145243
  42 H :    0.147894
  43 H :    0.145669
  44 H :    0.146406
  45 H :    0.169742
  46 H :    0.158650
  47 H :    0.138805
  48 H :    0.151213
  49 H :    0.143033
  50 H :    0.132246
  51 H :    0.190490
  52 H :    0.181732
  53 H :    0.435293
  54 H :    0.174389
  55 H :    0.182688
  56 H :    0.156725
  57 H :    0.141849
  58 H :    0.136453
  59 H :    0.136945
  60 H :    0.134494
Sum of atomic charges:   -0.0000000

LOEWDIN ATOMIC CHARGES
----------------------
   0 C :   -0.356065
   1 C :   -0.130122
   2 C :   -0.352727
   3 C :   -0.003106
   4 C :    0.030085
   5 N :   -0.278513
   6 C :   -0.148511
   7 C :   -0.036760
   8 C :   -0.106991
   9 C :   -0.157208
  10 C :    0.088083
  11 O :   -0.160782
  12 C :    0.358681
  13 F :   -0.106323
  14 F :   -0.089056
  15 F :   -0.103212
  16 C :   -0.141256
  17 C :   -0.113319
  18 S :    1.263402
  19 O :   -0.564366
  20 O :   -0.568439
  21 C :   -0.174384
  22 C :   -0.102848
  23 C :   -0.086593
  24 C :   -0.038659
  25 C :    0.179988
  26 O :   -0.259697
  27 O :   -0.334045
  28 C :   -0.098924
  29 C :   -0.110647
  30 N :   -0.107322
  31 C :   -0.056559
  32 C :   -0.026671
  33 C :   -0.111286
  34 C :   -0.125516
  35 C :   -0.119861
  36 C :   -0.124434
  37 C :   -0.003899
  38 H :    0.134570
  39 H :    0.123415
  40 H :    0.121490
  41 H :    0.132554
  42 H :    0.122199
  43 H :    0.125862
  44 H :    0.122672
  45 H :    0.134712
  46 H :    0.133302
  47 H :    0.136254
  48 H :    0.141789
  49 H :    0.142819
  50 H :    0.134969
  51 H :    0.161905
  52 H :    0.160865
  53 H :    0.350607
  54 H :    0.155435
  55 H :    0.155869
  56 H :    0.139410
  57 H :    0.138561
  58 H :    0.135631
  59 H :    0.136264
  60 H :    0.136711

  Mayer bond orders larger than 0.100000
B(  0-C ,  1-C ) :   0.9853 B(  0-C , 38-H ) :   0.9407 B(  0-C , 39-H ) :   0.9459
B(  0-C , 40-H ) :   0.9403 B(  1-C ,  2-C ) :   0.9887 B(  1-C ,  3-C ) :   0.9934
B(  1-C , 41-H ) :   0.9131 B(  2-C , 42-H ) :   0.9395 B(  2-C , 43-H ) :   0.9465
B(  2-C , 44-H ) :   0.9441 B(  3-C ,  4-C ) :   1.4274 B(  3-C , 31-C ) :   0.1013
B(  3-C , 37-C ) :   1.2467 B(  4-C ,  5-N ) :   0.8948 B(  4-C , 30-N ) :   1.2911
B(  5-N ,  6-C ) :   0.9301 B(  5-N , 18-S ) :   0.8065 B(  6-C ,  7-C ) :   0.9389
B(  6-C , 45-H ) :   0.9190 B(  6-C , 46-H ) :   0.9238 B(  7-C ,  8-C ) :   1.4380
B(  7-C , 17-C ) :   1.4287 B(  8-C ,  9-C ) :   1.4374 B(  8-C , 47-H ) :   0.9166
B(  9-C , 10-C ) :   1.3926 B(  9-C , 48-H ) :   0.9095 B( 10-C , 11-O ) :   0.8207
B( 10-C , 16-C ) :   1.4192 B( 11-O , 12-C ) :   0.9930 B( 12-C , 13-F ) :   0.9671
B( 12-C , 14-F ) :   1.0061 B( 12-C , 15-F ) :   0.9712 B( 16-C , 17-C ) :   1.4415
B( 16-C , 49-H ) :   0.9189 B( 17-C , 50-H ) :   0.9218 B( 18-S , 19-O ) :   1.6528
B( 18-S , 20-O ) :   1.6300 B( 18-S , 21-C ) :   0.8082 B( 21-C , 22-C ) :   1.3835
B( 21-C , 29-C ) :   1.3903 B( 22-C , 23-C ) :   1.4225 B( 22-C , 51-H ) :   0.9031
B( 23-C , 24-C ) :   1.3978 B( 23-C , 52-H ) :   0.9093 B( 24-C , 25-C ) :   1.0075
B( 24-C , 28-C ) :   1.3882 B( 25-C , 26-O ) :   1.8631 B( 25-C , 27-O ) :   1.0264
B( 27-O , 53-H ) :   0.7411 B( 28-C , 29-C ) :   1.4126 B( 28-C , 54-H ) :   0.9144
B( 29-C , 55-H ) :   0.9087 B( 30-N , 31-C ) :   1.4976 B( 31-C , 32-C ) :   1.2327
B( 31-C , 56-H ) :   0.9258 B( 32-C , 33-C ) :   1.2827 B( 32-C , 37-C ) :   1.2871
B( 33-C , 34-C ) :   1.5141 B( 33-C , 36-C ) :   0.1047 B( 33-C , 57-H ) :   0.9229
B( 34-C , 35-C ) :   1.3543 B( 34-C , 58-H ) :   0.9287 B( 35-C , 36-C ) :   1.5155
B( 35-C , 59-H ) :   0.9289 B( 36-C , 37-C ) :   1.2885 B( 36-C , 60-H ) :   0.9110

FINAL SINGLE POINT ENERGY     -2224.870654493907

DIPOLE MOMENT
-------------

Method             : SCF
Type of density    : Electron Density
Multiplicity       :   1
Irrep              :   0
Energy             : -2224.8706544939072955 Eh
Relativity type    :
Basis              : AO
                                X                 Y                 Z
Electronic contribution:     37.468464162      45.145343667      -2.630759216
Nuclear contribution   :    -38.647003495     -46.693773481       4.594346121
                        -----------------------------------------
Total Dipole Moment    :     -1.178539333      -1.548429814       1.963586905
                        -----------------------------------------
Magnitude (a.u.)       :      2.764464393
Magnitude (Debye)      :      7.026710066

Rotational constants in cm-1:             0.003077             0.002027             0.001339
Rotational constants in MHz :            92.259326            60.769661            40.136125

                             ****ORCA TERMINATED NORMALLY****
TOTAL RUN TIME: 0 days 0 hours 8 minutes 7 seconds 889 msec
