                         Program Version 6.0.0  -   RELEASE  -
|  1> ! B3LYP 6-31G* SP
|  2>
|  3> * xyz 0 1
|  4> C 6.5788 0.6131 -0.0026
|  5> C 5.0959 0.3800 0.2703
|  6> C 4.3205 0.1618 -1.0330
|  7> C 2.8599 -0.0665 -0.7486
|  8> C 2.3845 -1.3576 -0.4862
|  9> C 1.0314 -1.5742 -0.1895
| 10> O 0.6035 -2.8573 0.1512
| 11> C 0.1205 -0.4922 -0.2072
| 12> C 0.6354 0.8173 -0.3368
| 13> C 1.9833 1.0201 -0.6437
| 14> O -0.1820 1.9356 -0.1361
| 15> C -1.4850 1.8537 0.4452
| 16> C -2.2327 3.1441 0.0642
| 17> C -1.3399 1.7933 1.9800
| 18> C -2.1917 0.5987 -0.1471
| 19> C -3.6219 0.3357 0.3669
| 20> C -4.2866 -0.8032 -0.4313
| 21> C -3.3351 -1.8938 -0.9021
| 22> C -3.9007 -3.0548 -1.6731
| 23> C -1.9953 -1.7953 -0.7550
| 24> C -1.3652 -0.6931 0.0765
| 25> H 7.0195 -0.2674 -0.5169
| 26> H 6.7173 1.5155 -0.6356
| 27> H 7.1137 0.7677 0.9581
| 28> H 4.6856 1.2632 0.8072
| 29> H 4.9864 -0.5120 0.9254
| 30> H 4.4398 1.0487 -1.6939
| 31> H 4.7384 -0.7143 -1.5765
| 32> H 3.0709 -2.1957 -0.4934
| 33> H 1.2427 -3.6432 0.1781
| 34> H 2.3533 2.0306 -0.7688
| 35> H -1.6217 4.0317 0.3361
| 36> H -2.4177 3.1802 -1.0307
| 37> H -3.2026 3.2268 0.5973
| 38> H -2.3326 1.7664 2.4758
| 39> H -0.7979 2.6922 2.3445
| 40> H -0.7553 0.9052 2.2956
| 41> H -2.2581 0.7723 -1.2478
| 42> H -3.5969 0.0549 1.4423
| 43> H -4.2537 1.2420 0.2693
| 44> H -4.7670 -0.3638 -1.3325
| 45> H -5.0899 -1.2586 0.1869
| 46> H -5.0060 -2.9789 -1.7514
| 47> H -3.4759 -3.0710 -2.6992
| 48> H -3.6489 -4.0055 -1.1575
| 49> H -1.3703 -2.5517 -1.2177
| 50> H -1.4510 -1.0010 1.1417
| 51> *
| 52>
| 53>                          ****END OF INPUT****

CARTESIAN COORDINATES (ANGSTROEM)
---------------------------------
  C      6.578800    0.613100   -0.002600
  C      5.095900    0.380000    0.270300
  C      4.320500    0.161800   -1.033000
  C      2.859900   -0.066500   -0.748600
  C      2.384500   -1.357600   -0.486200
  C      1.031400   -1.574200   -0.189500
  O      0.603500   -2.857300    0.151200
  C      0.120500   -0.492200   -0.207200
  C      0.635400    0.817300   -0.336800
  C      1.983300    1.020100   -0.643700
  O     -0.182000    1.935600   -0.136100
  C     -1.485000    1.853700    0.445200
  C     -2.232700    3.144100    0.064200
  C     -1.339900    1.793300    1.980000
  C     -2.191700    0.598700   -0.147100
  C     -3.621900    0.335700    0.366900
  C     -4.286600   -0.803200   -0.431300
  C     -3.335100   -1.893800   -0.902100
  C     -3.900700   -3.054800   -1.673100
  C     -1.995300   -1.795300   -0.755000
  C     -1.365200   -0.693100    0.076500
  H      7.019500   -0.267400   -0.516900
  H      6.717300    1.515500   -0.635600
  H      7.113700    0.767700    0.958100
  H      4.685600    1.263200    0.807200
  H      4.986400   -0.512000    0.925400
  H      4.439800    1.048700   -1.693900
  H      4.738400   -0.714300   -1.576500
  H      3.070900   -2.195700   -0.493400
  H      1.242700   -3.643200    0.178100
  H      2.353300    2.030600   -0.768800
  H     -1.621700    4.031700    0.336100
  H     -2.417700    3.180200   -1.030700
  H     -3.202600    3.226800    0.597300
  H     -2.332600    1.766400    2.475800
  H     -0.797900    2.692200    2.344500
  H     -0.755300    0.905200    2.295600
  H     -2.258100    0.772300   -1.247800
  H     -3.596900    0.054900    1.442300
  H     -4.253700    1.242000    0.269300
  H     -4.767000   -0.363800   -1.332500
  H     -5.089900   -1.258600    0.186900
  H     -5.006000   -2.978900   -1.751400
  H     -3.475900   -3.071000   -2.699200
  H     -3.648900   -4.005500   -1.157500
  H     -1.370300   -2.551700   -1.217700
  H     -1.451000   -1.001000    1.141700

 Total Charge           Charge          ....    0
 Multiplicity           Mult            ....    1
 Number of Electrons    NEL             ....  156
 Basis Dimension        Dim             ....  346

ORBITAL ENERGIES
----------------

  NO   OCC          E(Eh)            E(eV)
   0   2.0000     -19.161528      -521.4117
   1   2.0000     -19.148699      -521.0626
   2   2.0000     -10.238320      -278.5988
   3   2.0000     -10.236790      -278.5572
   4   2.0000     -10.231860      -278.4231
   5   2.0000     -10.178466      -276.9702
   6   2.0000     -10.178289      -276.9653
   7   2.0000     -10.175683      -276.8944
   8   2.0000     -10.173556      -276.8365
   9   2.0000     -10.173434      -276.8332
  10   2.0000     -10.172233      -276.8005
  11   2.0000     -10.172141      -276.7980
  12   2.0000     -10.170480      -276.7528
  13   2.0000     -10.167643      -276.6756
  14   2.0000     -10.166435      -276.6427
  15   2.0000     -10.163655      -276.5671
  16   2.0000     -10.163475      -276.5622
  17   2.0000     -10.163291      -276.5572
  18   2.0000     -10.161563      -276.5102
  19   2.0000     -10.158098      -276.4159
  20   2.0000     -10.151033      -276.2236
  21   2.0000      -1.035622       -28.1807
  22   2.0000      -1.025608       -27.9082
  23   2.0000      -0.841244       -22.8914
  24   2.0000      -0.831944       -22.6383
  25   2.0000      -0.792810       -21.5734
  26   2.0000      -0.781003       -21.2522
  27   2.0000      -0.754993       -20.5444
  28   2.0000      -0.738873       -20.1058
  29   2.0000      -0.715826       -19.4786
  30   2.0000      -0.709505       -19.3066
  31   2.0000      -0.678434       -18.4611
  32   2.0000      -0.664293       -18.0763
  33   2.0000      -0.662829       -18.0365
  34   2.0000      -0.614493       -16.7212
  35   2.0000      -0.611085       -16.6285
  36   2.0000      -0.595569       -16.2063
  37   2.0000      -0.579671       -15.7736
  38   2.0000      -0.572672       -15.5832
  39   2.0000      -0.528287       -14.3754
  40   2.0000      -0.510069       -13.8797
  41   2.0000      -0.501365       -13.6428
  42   2.0000      -0.485549       -13.2125
  43   2.0000      -0.478218       -13.0130
  44   2.0000      -0.465000       -12.6533
  45   2.0000      -0.449138       -12.2217
  46   2.0000      -0.441519       -12.0143
  47   2.0000      -0.437586       -11.9073
  48   2.0000      -0.429021       -11.6743
  49   2.0000      -0.419930       -11.4269
  50   2.0000      -0.411648       -11.2015
  51   2.0000      -0.409363       -11.1393
  52   2.0000      -0.406487       -11.0611
  53   2.0000      -0.401480       -10.9248
  54   2.0000      -0.393069       -10.6960
  55   2.0000      -0.386875       -10.5274
  56   2.0000      -0.384709       -10.4685
  57   2.0000      -0.377141       -10.2625
  58   2.0000      -0.372402       -10.1336
  59   2.0000      -0.368912       -10.0386
  60   2.0000      -0.361090        -9.8258
  61   2.0000      -0.356653        -9.7050
  62   2.0000      -0.352054        -9.5799
  63   2.0000      -0.350837        -9.5468
  64   2.0000      -0.345385        -9.3984
  65   2.0000      -0.340308        -9.2603
  66   2.0000      -0.337645        -9.1878
  67   2.0000      -0.333098        -9.0640
  68   2.0000      -0.329715        -8.9720
  69   2.0000      -0.322111        -8.7651
  70   2.0000      -0.315870        -8.5953
  71   2.0000      -0.308047        -8.3824
  72   2.0000      -0.291408        -7.9296
  73   2.0000      -0.279177        -7.5968
  74   2.0000      -0.270614        -7.3638
  75   2.0000      -0.212592        -5.7849
  76   2.0000      -0.205016        -5.5788
  77   2.0000      -0.198536        -5.4024
  78   0.0000       0.014910         0.4057
  79   0.0000       0.027527         0.7491
  80   0.0000       0.034214         0.9310
  81   0.0000       0.055901         1.5212
  82   0.0000       0.089486         2.4350

MULLIKEN ATOMIC CHARGES
-----------------------
   0 C :   -0.430816
   1 C :   -0.233739
   2 C :   -0.341396
   3 C :    0.188999
   4 C :   -0.266242
   5 C :    0.337914
   6 O :   -0.677720
   7 C :    0.020358
   8 C :    0.325418
   9 C :   -0.255188
  10 O :   -0.547380
  11 C :    0.338659
  12 C :   -0.463370
  13 C :   -0.465860
  14 C :   -0.121251
  15 C :   -0.275954
  16 C :   -0.328986
  17 C :    0.157369
  18 C :   -0.511744
  19 C :   -0.153457
  20 C :   -0.177216
  21 H :    0.136394
  22 H :    0.138927
  23 H :    0.138591
  24 H :    0.137962
  25 H :    0.131800
  26 H :    0.137827
  27 H :    0.132253
  28 H :    0.098805
  29 H :    0.413707
  30 H :    0.120048
  31 H :    0.151894
  32 H :    0.146537
  33 H :    0.145473
  34 H :    0.141330
  35 H :    0.148099
  36 H :    0.154326
  37 H :    0.130288
  38 H :    0.134882
  39 H :    0.130279
  40 H :    0.141018
  41 H :    0.135789
  42 H :    0.140296
  43 H :    0.157509
  44 H :    0.157894
  45 H :    0.129402
  46 H :    0.150271
Sum of atomic charges:   -0.0000000

LOEWDIN ATOMIC CHARGES
----------------------
   0 C :   -0.358971
   1 C :   -0.224907
   2 C :   -0.218825
   3 C :   -0.004440
   4 C :   -0.201738
   5 C :    0.086354
   6 O :   -0.348159
   7 C :   -0.082652
   8 C :    0.093355
   9 C :   -0.180325
  10 O :   -0.170478
  11 C :    0.074616
  12 C :   -0.352190
  13 C :   -0.363013
  14 C :   -0.114107
  15 C :   -0.225691
  16 C :   -0.224821
  17 C :   -0.045979
  18 C :   -0.355388
  19 C :   -0.147025
  20 C :   -0.108418
  21 H :    0.119010
  22 H :    0.120304
  23 H :    0.122124
  24 H :    0.121022
  25 H :    0.117948
  26 H :    0.124022
  27 H :    0.121156
  28 H :    0.120761
  29 H :    0.333904
  30 H :    0.133861
  31 H :    0.131218
  32 H :    0.127088
  33 H :    0.127784
  34 H :    0.125701
  35 H :    0.129079
  36 H :    0.129844
  37 H :    0.124695
  38 H :    0.118375
  39 H :    0.119589
  40 H :    0.124839
  41 H :    0.123593
  42 H :    0.123058
  43 H :    0.134640
  44 H :    0.134760
  45 H :    0.131659
  46 H :    0.132771

  Mayer bond orders larger than 0.100000
B(  0-C ,  1-C ) :   1.0094 B(  0-C , 21-H ) :   0.9524 B(  0-C , 22-H ) :   0.9521
B(  0-C , 23-H ) :   0.9527 B(  1-C ,  2-C ) :   0.9986 B(  1-C , 24-H ) :   0.9415
B(  1-C , 25-H ) :   0.9425 B(  2-C ,  3-C ) :   0.9764 B(  2-C , 26-H ) :   0.9339
B(  2-C , 27-H ) :   0.9341 B(  3-C ,  4-C ) :   1.4166 B(  3-C ,  9-C ) :   1.4222
B(  4-C ,  5-C ) :   1.3525 B(  4-C , 28-H ) :   0.9201 B(  5-C ,  6-O ) :   0.8880
B(  5-C ,  7-C ) :   1.3577 B(  6-O , 29-H ) :   0.7673 B(  7-C ,  8-C ) :   1.3636
B(  7-C , 20-C ) :   0.9496 B(  8-C ,  9-C ) :   1.3738 B(  8-C , 10-O ) :   0.9088
B(  9-C , 30-H ) :   0.9160 B( 10-O , 11-C ) :   0.8412 B( 11-C , 12-C ) :   0.9987
B( 11-C , 13-C ) :   0.9885 B( 11-C , 14-C ) :   0.9645 B( 12-C , 31-H ) :   0.9402
B( 12-C , 32-H ) :   0.9433 B( 12-C , 33-H ) :   0.9379 B( 13-C , 34-H ) :   0.9370
B( 13-C , 35-H ) :   0.9426 B( 13-C , 36-H ) :   0.9380 B( 14-C , 15-C ) :   0.9839
B( 14-C , 20-C ) :   0.9740 B( 14-C , 37-H ) :   0.9147 B( 15-C , 16-C ) :   0.9920
B( 15-C , 38-H ) :   0.9354 B( 15-C , 39-H ) :   0.9340 B( 16-C , 17-C ) :   1.0126
B( 16-C , 40-H ) :   0.9295 B( 16-C , 41-H ) :   0.9314 B( 17-C , 18-C ) :   0.9799
B( 17-C , 19-C ) :   1.8984 B( 18-C , 42-H ) :   0.9510 B( 18-C , 43-H ) :   0.9436
B( 18-C , 44-H ) :   0.9428 B( 19-C , 20-C ) :   0.9691 B( 19-C , 45-H ) :   0.9194
B( 20-C , 46-H ) :   0.9028

FINAL SINGLE POINT ENERGY      -889.518806753605

DIPOLE MOMENT
-------------

Method             : SCF
Type of density    : Electron Density
Multiplicity       :   1
Irrep              :   0
Energy             :  -889.5188067536054177 Eh
Relativity type    :
Basis              : AO
                                X                 Y                 Z
Electronic contribution:     -0.462836656      -4.430876552      -2.386067418
Nuclear contribution   :      0.467593297       3.929592609       2.594016484
                        -----------------------------------------
Total Dipole Moment    :      0.004756641      -0.501283943       0.207949066
                        -----------------------------------------
Magnitude (a.u.)       :      0.542725558
Magnitude (Debye)      :      1.379498737

Rotational constants in cm-1:             0.017551             0.006046             0.004826
Rotational constants in MHz :           526.166172           181.253495           144.668160

                             ****ORCA TERMINATED NORMALLY****
TOTAL RUN TIME: 0 days 0 hours 4 minutes 45 seconds 821 msec
