                         Program Version 6.0.0  -   RELEASE  -
|  1> ! B3LYP 6-31G* SP
|  2>
|  3> * xyz 0 1
|  4> C 0.1257 -2.8035 -3.0070
|  5> C -0.1552 -3.4812 -1.6612
|  6> C -0.2922 -2.5273 -0.4361
|  7> C -1.7381 -2.2225 -0.0391
|  8> C -2.7410 -1.9858 -1.0025
|  9> C -4.0330 -1.6224 -0.6131
| 10> C -4.3465 -1.4877 0.7395
| 11> F -5.5975 -1.1227 1.1131
| 12> C -3.3696 -1.7238 1.7072
| 13> C -2.0747 -2.0896 1.3268
| 14> F -1.1420 -2.2819 2.2945
| 15> N 0.5432 -1.3027 -0.5585
| 16> C -0.0415 -0.0461 -1.0731
| 17> C -0.8179 0.7078 -0.0135
| 18> C -0.4166 0.7136 1.3341
| 19> C -1.1622 1.4048 2.2898
| 20> C -2.3122 2.1016 1.9161
| 21> C -2.7261 2.1211 0.5743
| 22> C -3.9518 2.8514 0.1827
| 23> O -4.3321 2.8631 -1.0194
| 24> O -4.6999 3.5314 1.1403
| 25> C -1.9643 1.4310 -0.3861
| 26> C 1.9751 -1.4239 -0.3378
| 27> O 2.5022 -2.5702 -0.3365
| 28> C 2.8684 -0.2639 -0.1038
| 29> C 4.2626 -0.3196 -0.1145
| 30> C 4.6407 0.9666 0.1955
| 31> C 5.9177 1.5068 0.3299
| 32> C 6.0128 2.8676 0.6647
| 33> C 4.8473 3.6365 0.8543
| 34> C 3.5895 3.0323 0.7060
| 35> N 3.5445 1.7160 0.3801
| 36> N 2.4565 0.9879 0.2083
| 37> H 1.0752 -2.2301 -2.9708
| 38> H -0.6985 -2.1321 -3.3116
| 39> H 0.2310 -3.5832 -3.7905
| 40> H 0.6871 -4.1826 -1.4719
| 41> H -1.0616 -4.1179 -1.7559
| 42> H 0.1165 -3.1201 0.4131
| 43> H -2.5335 -2.0656 -2.0569
| 44> H -4.7897 -1.4357 -1.3642
| 45> H -3.6123 -1.6122 2.7562
| 46> H 0.7312 0.6130 -1.5157
| 47> H -0.7138 -0.2827 -1.9219
| 48> H 0.4514 0.1572 1.6590
| 49> H -0.8530 1.3915 3.3270
| 50> H -2.8775 2.6223 2.6786
| 51> H -5.5422 4.0322 0.8833
| 52> H -2.2722 1.4379 -1.4248
| 53> H 4.8994 -1.1720 -0.3128
| 54> H 6.8041 0.9028 0.1835
| 55> H 6.9860 3.3271 0.7792
| 56> H 4.9214 4.6845 1.1136
| 57> H 2.6791 3.6008 0.8487
| 58> *
| 59>
| 60>                          ****END OF INPUT****

CARTESIAN COORDINATES (ANGSTROEM)
---------------------------------
  C      0.125700   -2.803500   -3.007000
  C     -0.155200   -3.481200   -1.661200
  C     -0.292200   -2.527300   -0.436100
  C     -1.738100   -2.222500   -0.039100
  C     -2.741000   -1.985800   -1.002500
  C     -4.033000   -1.622400   -0.613100
  C     -4.346500   -1.487700    0.739500
  F     -5.597500   -1.122700    1.113100
  C     -3.369600   -1.723800    1.707200
  C     -2.074700   -2.089600    1.326800
  F     -1.142000   -2.281900    2.294500
  N      0.543200   -1.302700   -0.558500
  C     -0.041500   -0.046100   -1.073100
  C     -0.817900    0.707800   -0.013500
  C     -0.416600    0.713600    1.334100
  C     -1.162200    1.404800    2.289800
  C     -2.312200    2.101600    1.916100
  C     -2.726100    2.121100    0.574300
  C     -3.951800    2.851400    0.182700
  O     -4.332100    2.863100   -1.019400
  O     -4.699900    3.531400    1.140300
  C     -1.964300    1.431000   -0.386100
  C      1.975100   -1.423900   -0.337800
  O      2.502200   -2.570200   -0.336500
  C      2.868400   -0.263900   -0.103800
  C      4.262600   -0.319600   -0.114500
  C      4.640700    0.966600    0.195500
  C      5.917700    1.506800    0.329900
  C      6.012800    2.867600    0.664700
  C      4.847300    3.636500    0.854300
  C      3.589500    3.032300    0.706000
  N      3.544500    1.716000    0.380100
  N      2.456500    0.987900    0.208300
  H      1.075200   -2.230100   -2.970800
  H     -0.698500   -2.132100   -3.311600
  H      0.231000   -3.583200   -3.790500
  H      0.687100   -4.182600   -1.471900
  H     -1.061600   -4.117900   -1.755900
  H      0.116500   -3.120100    0.413100
  H     -2.533500   -2.065600   -2.056900
  H     -4.789700   -1.435700   -1.364200
  H     -3.612300   -1.612200    2.756200
  H      0.731200    0.613000   -1.515700
  H     -0.713800   -0.282700   -1.921900
  H      0.451400    0.157200    1.659000
  H     -0.853000    1.391500    3.327000
  H     -2.877500    2.622300    2.678600
  H     -5.542200    4.032200    0.883300
  H     -2.272200    1.437900   -1.424800
  H      4.899400   -1.172000   -0.312800
  H      6.804100    0.902800    0.183500
  H      6.986000    3.327100    0.779200
  H      4.921400    4.684500    1.113600
  H      2.679100    3.600800    0.848700

 Total Charge           Charge          ....    0
 Multiplicity           Mult            ....    1
 Number of Electrons    NEL             ....  234
 Basis Dimension        Dim             ....  504

ORBITAL ENERGIES
----------------

  NO   OCC          E(Eh)            E(eV)
   0   2.0000     -24.705883      -672.2813
   1   2.0000     -24.700028      -672.1219
   2   2.0000     -19.176394      -521.8162
   3   2.0000     -19.115080      -520.1478
   4   2.0000     -19.111210      -520.0425
   5   2.0000     -14.446284      -393.1034
   6   2.0000     -14.355923      -390.6445
   7   2.0000     -14.349524      -390.4704
   8   2.0000     -10.312405      -280.6148
   9   2.0000     -10.291015      -280.0327
  10   2.0000     -10.275922      -279.6221
  11   2.0000     -10.274063      -279.5715
  12   2.0000     -10.247424      -278.8466
  13   2.0000     -10.228715      -278.3375
  14   2.0000     -10.222759      -278.1754
  15   2.0000     -10.221679      -278.1460
  16   2.0000     -10.218029      -278.0467
  17   2.0000     -10.211140      -277.8593
  18   2.0000     -10.208526      -277.7881
  19   2.0000     -10.207175      -277.7514
  20   2.0000     -10.199401      -277.5398
  21   2.0000     -10.198042      -277.5028
  22   2.0000     -10.196698      -277.4663
  23   2.0000     -10.192884      -277.3625
  24   2.0000     -10.189751      -277.2772
  25   2.0000     -10.188380      -277.2399
  26   2.0000     -10.185406      -277.1590
  27   2.0000     -10.184217      -277.1266
  28   2.0000     -10.180712      -277.0313
  29   2.0000     -10.179735      -277.0047
  30   2.0000     -10.176742      -276.9232
  31   2.0000     -10.170114      -276.7429
  32   2.0000     -10.164859      -276.5999
  33   2.0000      -1.217438       -33.1282
  34   2.0000      -1.213061       -33.0091
  35   2.0000      -1.094196       -29.7746
  36   2.0000      -1.060356       -28.8537
  37   2.0000      -1.010875       -27.5073
  38   2.0000      -0.973723       -26.4964
  39   2.0000      -0.916934       -24.9510
  40   2.0000      -0.897293       -24.4166
  41   2.0000      -0.861684       -23.4476
  42   2.0000      -0.852831       -23.2067
  43   2.0000      -0.835366       -22.7315
  44   2.0000      -0.794601       -21.6222
  45   2.0000      -0.785567       -21.3764
  46   2.0000      -0.765170       -20.8213
  47   2.0000      -0.755097       -20.5472
  48   2.0000      -0.750677       -20.4270
  49   2.0000      -0.743518       -20.2322
  50   2.0000      -0.740622       -20.1533
  51   2.0000      -0.693444       -18.8696
  52   2.0000      -0.685710       -18.6591
  53   2.0000      -0.663454       -18.0535
  54   2.0000      -0.651000       -17.7146
  55   2.0000      -0.640867       -17.4389
  56   2.0000      -0.627974       -17.0880
  57   2.0000      -0.623273       -16.9601
  58   2.0000      -0.610217       -16.6049
  59   2.0000      -0.591030       -16.0828
  60   2.0000      -0.582831       -15.8596
  61   2.0000      -0.581869       -15.8335
  62   2.0000      -0.553969       -15.0743
  63   2.0000      -0.542169       -14.7532
  64   2.0000      -0.531553       -14.4643
  65   2.0000      -0.525077       -14.2881
  66   2.0000      -0.513950       -13.9853
  67   2.0000      -0.508561       -13.8387
  68   2.0000      -0.497876       -13.5479
  69   2.0000      -0.493607       -13.4317
  70   2.0000      -0.491494       -13.3742
  71   2.0000      -0.486567       -13.2402
  72   2.0000      -0.480562       -13.0768
  73   2.0000      -0.478559       -13.0223
  74   2.0000      -0.464984       -12.6529
  75   2.0000      -0.459094       -12.4926
  76   2.0000      -0.450776       -12.2662
  77   2.0000      -0.449320       -12.2266
  78   2.0000      -0.448236       -12.1971
  79   2.0000      -0.447054       -12.1650
  80   2.0000      -0.441738       -12.0203
  81   2.0000      -0.436963       -11.8904
  82   2.0000      -0.429305       -11.6820
  83   2.0000      -0.428492       -11.6598
  84   2.0000      -0.426589       -11.6081
  85   2.0000      -0.419654       -11.4194
  86   2.0000      -0.415465       -11.3054
  87   2.0000      -0.408035       -11.1032
  88   2.0000      -0.402650       -10.9567
  89   2.0000      -0.395829       -10.7711
  90   2.0000      -0.390903       -10.6370
  91   2.0000      -0.384341       -10.4584
  92   2.0000      -0.380005       -10.3405
  93   2.0000      -0.375090       -10.2067
  94   2.0000      -0.368813       -10.0359
  95   2.0000      -0.362445        -9.8626
  96   2.0000      -0.361765        -9.8441
  97   2.0000      -0.358271        -9.7491
  98   2.0000      -0.348909        -9.4943
  99   2.0000      -0.344014        -9.3611
 100   2.0000      -0.343412        -9.3447
 101   2.0000      -0.339503        -9.2383
 102   2.0000      -0.338209        -9.2031
 103   2.0000      -0.331051        -9.0083
 104   2.0000      -0.316760        -8.6195
 105   2.0000      -0.314402        -8.5553
 106   2.0000      -0.297746        -8.1021
 107   2.0000      -0.293310        -7.9814
 108   2.0000      -0.264649        -7.2015
 109   2.0000      -0.256265        -6.9733
 110   2.0000      -0.253082        -6.8867
 111   2.0000      -0.252068        -6.8591
 112   2.0000      -0.251053        -6.8315
 113   2.0000      -0.242047        -6.5864
 114   2.0000      -0.230388        -6.2692
 115   2.0000      -0.227375        -6.1872
 116   2.0000      -0.213299        -5.8042
 117   0.0000      -0.054446        -1.4816
 118   0.0000      -0.042527        -1.1572
 119   0.0000      -0.025949        -0.7061
 120   0.0000      -0.013276        -0.3612
 121   0.0000      -0.004100        -0.1116

MULLIKEN ATOMIC CHARGES
-----------------------
   0 C :   -0.448285
   1 C :   -0.263655
   2 C :   -0.010948
   3 C :    0.006550
   4 C :   -0.145331
   5 C :   -0.213049
   6 C :    0.434672
   7 F :   -0.315696
   8 C :   -0.288494
   9 C :    0.407923
  10 F :   -0.316276
  11 N :   -0.445971
  12 C :   -0.229401
  13 C :    0.155251
  14 C :   -0.120260
  15 C :   -0.143323
  16 C :   -0.162213
  17 C :    0.082997
  18 C :    0.518214
  19 O :   -0.461259
  20 O :   -0.627184
  21 C :   -0.205575
  22 C :    0.517644
  23 O :   -0.487412
  24 C :    0.201230
  25 C :   -0.292497
  26 C :    0.402362
  27 C :   -0.195739
  28 C :   -0.121979
  29 C :   -0.173795
  30 C :    0.046472
  31 N :   -0.260074
  32 N :   -0.355950
  33 H :    0.158131
  34 H :    0.133526
  35 H :    0.142865
  36 H :    0.165807
  37 H :    0.132885
  38 H :    0.170235
  39 H :    0.148952
  40 H :    0.151038
  41 H :    0.157696
  42 H :    0.186831
  43 H :    0.155665
  44 H :    0.142043
  45 H :    0.131352
  46 H :    0.149937
  47 H :    0.425682
  48 H :    0.151071
  49 H :    0.162382
  50 H :    0.157197
  51 H :    0.143046
  52 H :    0.153700
  53 H :    0.191013
Sum of atomic charges:    0.0000000

LOEWDIN ATOMIC CHARGES
----------------------
   0 C :   -0.361950
   1 C :   -0.237370
   2 C :   -0.043027
   3 C :   -0.059751
   4 C :   -0.116691
   5 C :   -0.162539
   6 C :    0.126722
   7 F :   -0.099192
   8 C :   -0.180731
   9 C :    0.131457
  10 F :   -0.095674
  11 N :   -0.092887
  12 C :   -0.150965
  13 C :   -0.024093
  14 C :   -0.097502
  15 C :   -0.136899
  16 C :   -0.110642
  17 C :   -0.061762
  18 C :    0.178220
  19 O :   -0.278457
  20 O :   -0.339660
  21 C :   -0.096178
  22 C :    0.140580
  23 O :   -0.281740
  24 C :   -0.033495
  25 C :   -0.178115
  26 C :    0.003515
  27 C :   -0.119634
  28 C :   -0.131309
  29 C :   -0.148578
  30 C :   -0.069786
  31 N :    0.134776
  32 N :   -0.157014
  33 H :    0.129456
  34 H :    0.110454
  35 H :    0.126151
  36 H :    0.137171
  37 H :    0.120231
  38 H :    0.146557
  39 H :    0.142136
  40 H :    0.146522
  41 H :    0.153780
  42 H :    0.150363
  43 H :    0.128706
  44 H :    0.141538
  45 H :    0.132923
  46 H :    0.142994
  47 H :    0.343933
  48 H :    0.145782
  49 H :    0.156298
  50 H :    0.149350
  51 H :    0.138897
  52 H :    0.146974
  53 H :    0.160155

  Mayer bond orders larger than 0.100000
B(  0-C ,  1-C ) :   1.0166 B(  0-C , 33-H ) :   0.9413 B(  0-C , 34-H ) :   0.9419
B(  0-C , 35-H ) :   0.9502 B(  1-C ,  2-C ) :   0.9573 B(  1-C , 36-H ) :   0.9325
B(  1-C , 37-H ) :   0.9340 B(  2-C ,  3-C ) :   0.9727 B(  2-C , 11-N ) :   0.9271
B(  2-C , 38-H ) :   0.9091 B(  3-C ,  4-C ) :   1.4138 B(  3-C ,  9-C ) :   1.3503
B(  4-C ,  5-C ) :   1.4254 B(  4-C , 39-H ) :   0.9155 B(  5-C ,  6-C ) :   1.3911
B(  5-C , 40-H ) :   0.9188 B(  6-C ,  7-F ) :   0.9139 B(  6-C ,  8-C ) :   1.3734
B(  8-C ,  9-C ) :   1.3653 B(  8-C , 41-H ) :   0.9111 B(  9-C , 10-F ) :   0.8991
B( 11-N , 12-C ) :   0.9432 B( 11-N , 22-C ) :   1.0382 B( 12-C , 13-C ) :   0.9516
B( 12-C , 42-H ) :   0.9040 B( 12-C , 43-H ) :   0.9168 B( 13-C , 14-C ) :   1.4172
B( 13-C , 21-C ) :   1.4007 B( 14-C , 15-C ) :   1.4336 B( 14-C , 44-H ) :   0.9101
B( 15-C , 16-C ) :   1.4241 B( 15-C , 45-H ) :   0.9303 B( 16-C , 17-C ) :   1.3876
B( 16-C , 46-H ) :   0.9192 B( 17-C , 18-C ) :   1.0144 B( 17-C , 21-C ) :   1.3830
B( 18-C , 19-O ) :   1.8511 B( 18-C , 20-O ) :   1.0154 B( 20-O , 47-H ) :   0.7469
B( 21-C , 48-H ) :   0.9088 B( 22-C , 23-O ) :   1.7682 B( 22-C , 24-C ) :   0.9849
B( 24-C , 25-C ) :   1.3826 B( 24-C , 32-N ) :   1.2966 B( 25-C , 26-C ) :   1.3357
B( 25-C , 49-H ) :   0.9285 B( 26-C , 27-C ) :   1.2794 B( 26-C , 31-N ) :   1.0251
B( 27-C , 28-C ) :   1.5355 B( 27-C , 30-C ) :   0.1087 B( 27-C , 50-H ) :   0.9247
B( 28-C , 29-C ) :   1.3104 B( 28-C , 51-H ) :   0.9287 B( 29-C , 30-C ) :   1.5604
B( 29-C , 52-H ) :   0.9292 B( 30-C , 31-N ) :   1.1360 B( 30-C , 53-H ) :   0.9166
B( 31-N , 32-N ) :   1.1876

FINAL SINGLE POINT ENERGY     -1553.972678510861

DIPOLE MOMENT
-------------

Method             : SCF
Type of density    : Electron Density
Multiplicity       :   1
Irrep              :   0
Energy             : -1553.9726785108614422 Eh
Relativity type    :
Basis              : AO
                                X                 Y                 Z
Electronic contribution:    -13.779690476       2.241516699      14.379364324
Nuclear contribution   :     14.948503020      -0.909280599     -14.064260975
                        -----------------------------------------
Total Dipole Moment    :      1.168812544       1.332236099       0.315103349
                        -----------------------------------------
Magnitude (a.u.)       :      1.800073862
Magnitude (Debye)      :      4.575424143

Rotational constants in cm-1:             0.006482             0.003045             0.002382
Rotational constants in MHz :           194.312717            91.297261            71.420171

                             ****ORCA TERMINATED NORMALLY****
TOTAL RUN TIME: 0 days 0 hours 6 minutes 38 seconds 499 msec
