                         Program Version 6.0.0  -   RELEASE  -
|  1> ! B3LYP 6-31G* SP
|  2>
|  3> * xyz 0 1
|  4> F -0.2158 3.8071 2.1963
|  5> C 0.7871 3.0062 1.6856
|  6> F 1.5491 2.5228 2.7341
|  7> F 1.5756 3.7644 0.8388
|  8> O 0.1953 1.9252 0.9692
|  9> C 0.8999 0.9036 0.3086
| 10> C 2.3180 0.8544 0.2980
| 11> C 2.9276 -0.1966 -0.3796
| 12> N 4.2378 -0.4467 -0.5258
| 13> N 4.3752 -1.5512 -1.2518
| 14> C 3.1407 -2.0102 -1.5720
| 15> C 2.2091 -1.1571 -1.0225
| 16> C 0.8208 -1.1532 -1.0439
| 17> C 0.1560 -0.1110 -0.3611
| 18> C -1.3208 -0.0663 -0.3705
| 19> C -1.9487 0.8812 -1.1947
| 20> C -3.3399 0.9489 -1.2645
| 21> C -4.1195 0.0691 -0.5161
| 22> C -3.5122 -0.8738 0.3158
| 23> C -2.1082 -0.9451 0.4205
| 24> C -1.4738 -1.9740 1.3372
| 25> F -0.9564 -3.0091 0.5816
| 26> F -0.4573 -1.3977 2.0779
| 27> F -2.3971 -2.4989 2.2254
| 28> H 2.9269 1.5975 0.7929
| 29> H 5.0306 0.1160 -0.1451
| 30> H 2.9447 -2.8968 -2.1602
| 31> H 0.2729 -1.9232 -1.5730
| 32> H -1.3565 1.5631 -1.7933
| 33> H -3.8144 1.6795 -1.9068
| 34> H -5.1990 0.1172 -0.5802
| 35> H -4.1476 -1.5449 0.8790
| 36> *
| 37>
| 38>                          ****END OF INPUT****

CARTESIAN COORDINATES (ANGSTROEM)
---------------------------------
  F     -0.215800    3.807100    2.196300
  C      0.787100    3.006200    1.685600
  F      1.549100    2.522800    2.734100
  F      1.575600    3.764400    0.838800
  O      0.195300    1.925200    0.969200
  C      0.899900    0.903600    0.308600
  C      2.318000    0.854400    0.298000
  C      2.927600   -0.196600   -0.379600
  N      4.237800   -0.446700   -0.525800
  N      4.375200   -1.551200   -1.251800
  C      3.140700   -2.010200   -1.572000
  C      2.209100   -1.157100   -1.022500
  C      0.820800   -1.153200   -1.043900
  C      0.156000   -0.111000   -0.361100
  C     -1.320800   -0.066300   -0.370500
  C     -1.948700    0.881200   -1.194700
  C     -3.339900    0.948900   -1.264500
  C     -4.119500    0.069100   -0.516100
  C     -3.512200   -0.873800    0.315800
  C     -2.108200   -0.945100    0.420500
  C     -1.473800   -1.974000    1.337200
  F     -0.956400   -3.009100    0.581600
  F     -0.457300   -1.397700    2.077900
  F     -2.397100   -2.498900    2.225400
  H      2.926900    1.597500    0.792900
  H      5.030600    0.116000   -0.145100
  H      2.944700   -2.896800   -2.160200
  H      0.272900   -1.923200   -1.573000
  H     -1.356500    1.563100   -1.793300
  H     -3.814400    1.679500   -1.906800
  H     -5.199000    0.117200   -0.580200
  H     -4.147600   -1.544900    0.879000

 Total Charge           Charge          ....    0
 Multiplicity           Mult            ....    1
 Number of Electrons    NEL             ....  174
 Basis Dimension        Dim             ....  352

ORBITAL ENERGIES
----------------

  NO   OCC          E(Eh)            E(eV)
   0   2.0000     -24.742376      -673.2743
   1   2.0000     -24.741454      -673.2492
   2   2.0000     -24.740287      -673.2174
   3   2.0000     -24.717962      -672.6099
   4   2.0000     -24.715155      -672.5335
   5   2.0000     -24.712790      -672.4692
   6   2.0000     -19.213872      -522.8360
   7   2.0000     -14.408935      -392.0870
   8   2.0000     -14.354714      -390.6116
   9   2.0000     -10.505192      -285.8608
  10   2.0000     -10.432329      -283.8781
  11   2.0000     -10.273341      -279.5518
  12   2.0000     -10.221595      -278.1437
  13   2.0000     -10.214087      -277.9394
  14   2.0000     -10.211856      -277.8787
  15   2.0000     -10.206510      -277.7332
  16   2.0000     -10.200989      -277.5830
  17   2.0000     -10.200021      -277.5567
  18   2.0000     -10.199402      -277.5398
  19   2.0000     -10.197838      -277.4973
  20   2.0000     -10.195435      -277.4319
  21   2.0000     -10.194234      -277.3992
  22   2.0000     -10.194056      -277.3944
  23   2.0000     -10.177833      -276.9529
  24   2.0000      -1.305536       -35.5254
  25   2.0000      -1.276533       -34.7362
  26   2.0000      -1.226643       -33.3787
  27   2.0000      -1.225461       -33.3465
  28   2.0000      -1.202124       -32.7115
  29   2.0000      -1.199675       -32.6448
  30   2.0000      -1.083520       -29.4841
  31   2.0000      -1.060841       -28.8670
  32   2.0000      -0.880918       -23.9710
  33   2.0000      -0.860216       -23.4077
  34   2.0000      -0.829649       -22.5759
  35   2.0000      -0.796878       -21.6842
  36   2.0000      -0.779585       -21.2136
  37   2.0000      -0.764225       -20.7956
  38   2.0000      -0.736777       -20.0487
  39   2.0000      -0.711746       -19.3676
  40   2.0000      -0.692543       -18.8451
  41   2.0000      -0.656297       -17.8587
  42   2.0000      -0.639133       -17.3917
  43   2.0000      -0.625531       -17.0216
  44   2.0000      -0.618337       -16.8258
  45   2.0000      -0.602735       -16.4012
  46   2.0000      -0.597788       -16.2666
  47   2.0000      -0.591876       -16.1058
  48   2.0000      -0.577986       -15.7278
  49   2.0000      -0.567296       -15.4369
  50   2.0000      -0.563056       -15.3215
  51   2.0000      -0.552743       -15.0409
  52   2.0000      -0.545645       -14.8478
  53   2.0000      -0.510744       -13.8981
  54   2.0000      -0.486245       -13.2314
  55   2.0000      -0.476351       -12.9622
  56   2.0000      -0.472844       -12.8667
  57   2.0000      -0.468938       -12.7604
  58   2.0000      -0.467573       -12.7233
  59   2.0000      -0.465376       -12.6635
  60   2.0000      -0.457930       -12.4609
  61   2.0000      -0.453176       -12.3315
  62   2.0000      -0.449664       -12.2360
  63   2.0000      -0.447187       -12.1686
  64   2.0000      -0.444743       -12.1021
  65   2.0000      -0.442223       -12.0335
  66   2.0000      -0.441516       -12.0143
  67   2.0000      -0.430809       -11.7229
  68   2.0000      -0.417863       -11.3706
  69   2.0000      -0.417604       -11.3636
  70   2.0000      -0.414587       -11.2815
  71   2.0000      -0.407384       -11.0855
  72   2.0000      -0.400242       -10.8911
  73   2.0000      -0.395101       -10.7512
  74   2.0000      -0.393838       -10.7169
  75   2.0000      -0.380845       -10.3633
  76   2.0000      -0.372827       -10.1451
  77   2.0000      -0.366124        -9.9627
  78   2.0000      -0.358038        -9.7427
  79   2.0000      -0.346522        -9.4293
  80   2.0000      -0.332954        -9.0601
  81   2.0000      -0.293888        -7.9971
  82   2.0000      -0.281864        -7.6699
  83   2.0000      -0.264120        -7.1871
  84   2.0000      -0.260379        -7.0853
  85   2.0000      -0.237325        -6.4579
  86   2.0000      -0.217917        -5.9298
  87   0.0000      -0.035840        -0.9753
  88   0.0000      -0.027590        -0.7508
  89   0.0000      -0.012445        -0.3386
  90   0.0000       0.016580         0.4512
  91   0.0000       0.052525         1.4293

MULLIKEN ATOMIC CHARGES
-----------------------
   0 F :   -0.278060
   1 C :    1.092585
   2 F :   -0.291466
   3 F :   -0.294051
   4 O :   -0.545551
   5 C :    0.319624
   6 C :   -0.240677
   7 C :    0.371301
   8 N :   -0.514975
   9 N :   -0.228100
  10 C :   -0.049531
  11 C :    0.092145
  12 C :   -0.215380
  13 C :   -0.046132
  14 C :    0.044501
  15 C :   -0.140397
  16 C :   -0.122473
  17 C :   -0.116553
  18 C :   -0.180241
  19 C :   -0.041957
  20 C :    0.920841
  21 F :   -0.300866
  22 F :   -0.302484
  23 F :   -0.305601
  24 H :    0.145967
  25 H :    0.351914
  26 H :    0.152548
  27 H :    0.149873
  28 H :    0.143614
  29 H :    0.138204
  30 H :    0.138128
  31 H :    0.153250
Sum of atomic charges:    0.0000000

LOEWDIN ATOMIC CHARGES
----------------------
   0 F :   -0.086347
   1 C :    0.360278
   2 F :   -0.103908
   3 F :   -0.106061
   4 O :   -0.156080
   5 C :    0.092725
   6 C :   -0.182152
   7 C :    0.004488
   8 N :   -0.074870
   9 N :   -0.117719
  10 C :   -0.123573
  11 C :   -0.066684
  12 C :   -0.102783
  13 C :   -0.045906
  14 C :    0.005140
  15 C :   -0.114821
  16 C :   -0.114435
  17 C :   -0.127209
  18 C :   -0.114447
  19 C :   -0.067033
  20 C :    0.313222
  21 F :   -0.112787
  22 F :   -0.108922
  23 F :   -0.111662
  24 H :    0.140324
  25 H :    0.274605
  26 H :    0.143074
  27 H :    0.146195
  28 H :    0.140487
  29 H :    0.136374
  30 H :    0.136767
  31 H :    0.143724

  Mayer bond orders larger than 0.100000
B(  0-F ,  1-C ) :   1.0100 B(  1-C ,  2-F ) :   0.9668 B(  1-C ,  3-F ) :   0.9634
B(  1-C ,  4-O ) :   0.9895 B(  4-O ,  5-C ) :   0.8349 B(  5-C ,  6-C ) :   1.4130
B(  5-C , 13-C ) :   1.3061 B(  6-C ,  7-C ) :   1.3094 B(  6-C , 12-C ) :   0.1056
B(  6-C , 24-H ) :   0.9026 B(  7-C ,  8-N ) :   0.9375 B(  7-C , 11-C ) :   1.3332
B(  8-N ,  9-N ) :   1.2139 B(  8-N , 25-H ) :   0.8308 B(  9-N , 10-C ) :   1.5092
B( 10-C , 11-C ) :   1.2524 B( 10-C , 26-H ) :   0.9329 B( 11-C , 12-C ) :   1.3007
B( 12-C , 13-C ) :   1.4707 B( 12-C , 27-H ) :   0.9154 B( 13-C , 14-C ) :   0.9533
B( 14-C , 15-C ) :   1.4228 B( 14-C , 19-C ) :   1.4103 B( 15-C , 16-C ) :   1.4308
B( 15-C , 28-H ) :   0.9242 B( 16-C , 17-C ) :   1.4498 B( 16-C , 29-H ) :   0.9277
B( 17-C , 18-C ) :   1.4358 B( 17-C , 30-H ) :   0.9293 B( 18-C , 19-C ) :   1.3904
B( 18-C , 31-H ) :   0.9190 B( 19-C , 20-C ) :   0.9743 B( 20-C , 21-F ) :   0.9561
B( 20-C , 22-F ) :   0.9426 B( 20-C , 23-F ) :   0.9433

FINAL SINGLE POINT ENERGY     -1359.480943624857

DIPOLE MOMENT
-------------

Method             : SCF
Type of density    : Electron Density
Multiplicity       :   1
Irrep              :   0
Energy             : -1359.4809436248574457 Eh
Relativity type    :
Basis              : AO
                                X                 Y                 Z
Electronic contribution:      2.272642124       5.029586753      16.218878522
Nuclear contribution   :     -2.525737840      -4.377503609     -16.784804148
                        -----------------------------------------
Total Dipole Moment    :     -0.253095717       0.652083144      -0.565925626
                        -----------------------------------------
Magnitude (a.u.)       :      0.899745343
Magnitude (Debye)      :      2.286970914

Rotational constants in cm-1:             0.008828             0.007056             0.005010
Rotational constants in MHz :           264.670601           211.540022           150.201215

                             ****ORCA TERMINATED NORMALLY****
TOTAL RUN TIME: 0 days 0 hours 3 minutes 4 seconds 355 msec
