                         Program Version 6.0.0  -   RELEASE  -
|  1> ! B3LYP 6-31G* SP
|  2>
|  3> * xyz 0 1
|  4> C -2.9143 0.0264 -1.4346
|  5> C -2.4788 -1.3078 -0.8882
|  6> C -3.3477 -2.4036 -1.0104
|  7> C -2.9874 -3.6514 -0.4852
|  8> C -3.8284 -4.7684 -0.6180
|  9> C -3.4361 -6.0039 -0.0931
| 10> C -2.2140 -6.1268 0.5773
| 11> C -1.3743 -5.0156 0.7171
| 12> C -1.7541 -3.7779 0.1830
| 13> N -0.9336 -2.7010 0.3052
| 14> C -1.2541 -1.4822 -0.2071
| 15> N -0.3244 -0.4039 -0.0542
| 16> C 0.5944 -0.0590 -1.1439
| 17> C 2.0404 -0.2886 -0.7651
| 18> C 2.4193 -1.3286 0.0991
| 19> C 3.7645 -1.5229 0.4218
| 20> C 4.7497 -0.7076 -0.1401
| 21> C 4.3992 0.3019 -1.0539
| 22> C 5.4560 1.2009 -1.6629
| 23> F 5.1246 1.4767 -2.9809
| 24> F 6.6846 0.5565 -1.6736
| 25> C 5.5060 2.5331 -0.8836
| 26> C 6.4996 2.6177 0.2686
| 27> C 6.7877 3.3430 -1.0430
| 28> C 3.0388 0.5106 -1.3487
| 29> S -0.3332 0.5028 1.4266
| 30> O 0.8749 1.4018 1.4978
| 31> O -0.2882 -0.4444 2.5970
| 32> C -1.7908 1.4838 1.4903
| 33> C -1.8361 2.7078 0.8105
| 34> C -3.0000 3.4799 0.8317
| 35> C -4.1443 3.0279 1.5156
| 36> C -5.3766 3.8432 1.5195
| 37> O -6.4133 3.4341 2.1094
| 38> O -5.4016 5.0733 0.8686
| 39> C -4.0970 1.7912 2.1863
| 40> C -2.9259 1.0262 2.1759
| 41> H -3.6697 0.4744 -0.7530
| 42> H -2.0685 0.7358 -1.5415
| 43> H -3.3697 -0.1052 -2.4398
| 44> H -4.3002 -2.2832 -1.5159
| 45> H -4.7788 -4.6876 -1.1342
| 46> H -4.0823 -6.8670 -0.1980
| 47> H -1.9186 -7.0838 0.9882
| 48> H -0.4316 -5.1188 1.2383
| 49> H 0.3696 -0.6656 -2.0510
| 50> H 0.4330 1.0100 -1.4136
| 51> H 1.6782 -1.9804 0.5398
| 52> H 4.0458 -2.3081 1.1104
| 53> H 5.7844 -0.8717 0.1354
| 54> H 4.5818 3.1469 -0.7727
| 55> H 6.1901 3.2953 1.0947
| 56> H 7.1444 1.7255 0.4434
| 57> H 6.6474 4.4437 -0.9888
| 58> H 7.5954 2.8792 -1.6571
| 59> H 2.7567 1.3006 -2.0333
| 60> H -0.9728 3.0603 0.2556
| 61> H -3.0065 4.4279 0.3071
| 62> H -6.2389 5.6403 0.8650
| 63> H -4.9653 1.4138 2.7136
| 64> H -2.9093 0.0723 2.6926
| 65> *
| 66>
| 67>                          ****END OF INPUT****

CARTESIAN COORDINATES (ANGSTROEM)
---------------------------------
  C     -2.914300    0.026400   -1.434600
  C     -2.478800   -1.307800   -0.888200
  C     -3.347700   -2.403600   -1.010400
  C     -2.987400   -3.651400   -0.485200
  C     -3.828400   -4.768400   -0.618000
  C     -3.436100   -6.003900   -0.093100
  C     -2.214000   -6.126800    0.577300
  C     -1.374300   -5.015600    0.717100
  C     -1.754100   -3.777900    0.183000
  N     -0.933600   -2.701000    0.305200
  C     -1.254100   -1.482200   -0.207100
  N     -0.324400   -0.403900   -0.054200
  C      0.594400   -0.059000   -1.143900
  C      2.040400   -0.288600   -0.765100
  C      2.419300   -1.328600    0.099100
  C      3.764500   -1.522900    0.421800
  C      4.749700   -0.707600   -0.140100
  C      4.399200    0.301900   -1.053900
  C      5.456000    1.200900   -1.662900
  F      5.124600    1.476700   -2.980900
  F      6.684600    0.556500   -1.673600
  C      5.506000    2.533100   -0.883600
  C      6.499600    2.617700    0.268600
  C      6.787700    3.343000   -1.043000
  C      3.038800    0.510600   -1.348700
  S     -0.333200    0.502800    1.426600
  O      0.874900    1.401800    1.497800
  O     -0.288200   -0.444400    2.597000
  C     -1.790800    1.483800    1.490300
  C     -1.836100    2.707800    0.810500
  C     -3.000000    3.479900    0.831700
  C     -4.144300    3.027900    1.515600
  C     -5.376600    3.843200    1.519500
  O     -6.413300    3.434100    2.109400
  O     -5.401600    5.073300    0.868600
  C     -4.097000    1.791200    2.186300
  C     -2.925900    1.026200    2.175900
  H     -3.669700    0.474400   -0.753000
  H     -2.068500    0.735800   -1.541500
  H     -3.369700   -0.105200   -2.439800
  H     -4.300200   -2.283200   -1.515900
  H     -4.778800   -4.687600   -1.134200
  H     -4.082300   -6.867000   -0.198000
  H     -1.918600   -7.083800    0.988200
  H     -0.431600   -5.118800    1.238300
  H      0.369600   -0.665600   -2.051000
  H      0.433000    1.010000   -1.413600
  H      1.678200   -1.980400    0.539800
  H      4.045800   -2.308100    1.110400
  H      5.784400   -0.871700    0.135400
  H      4.581800    3.146900   -0.772700
  H      6.190100    3.295300    1.094700
  H      7.144400    1.725500    0.443400
  H      6.647400    4.443700   -0.988800
  H      7.595400    2.879200   -1.657100
  H      2.756700    1.300600   -2.033300
  H     -0.972800    3.060300    0.255600
  H     -3.006500    4.427900    0.307100
  H     -6.238900    5.640300    0.865000
  H     -4.965300    1.413800    2.713600
  H     -2.909300    0.072300    2.692600

 Total Charge           Charge          ....    0
 Multiplicity           Mult            ....    1
 Number of Electrons    NEL             ....  272
 Basis Dimension        Dim             ....  570

ORBITAL ENERGIES
----------------

  NO   OCC          E(Eh)            E(eV)
   0   2.0000     -89.099422     -2424.5185
   1   2.0000     -24.690357      -671.8588
   2   2.0000     -24.675630      -671.4580
   3   2.0000     -19.200846      -522.4816
   4   2.0000     -19.142498      -520.8939
   5   2.0000     -19.127893      -520.4964
   6   2.0000     -19.124560      -520.4057
   7   2.0000     -14.372812      -391.1041
   8   2.0000     -14.334883      -390.0720
   9   2.0000     -10.339817      -281.3607
  10   2.0000     -10.336468      -281.2696
  11   2.0000     -10.269477      -279.4467
  12   2.0000     -10.245978      -278.8072
  13   2.0000     -10.237874      -278.5867
  14   2.0000     -10.237059      -278.5645
  15   2.0000     -10.225654      -278.2542
  16   2.0000     -10.225598      -278.2527
  17   2.0000     -10.224502      -278.2228
  18   2.0000     -10.222706      -278.1740
  19   2.0000     -10.222610      -278.1714
  20   2.0000     -10.214757      -277.9577
  21   2.0000     -10.207702      -277.7657
  22   2.0000     -10.203104      -277.6406
  23   2.0000     -10.197282      -277.4821
  24   2.0000     -10.196608      -277.4638
  25   2.0000     -10.196172      -277.4519
  26   2.0000     -10.194293      -277.4008
  27   2.0000     -10.191818      -277.3335
  28   2.0000     -10.191145      -277.3152
  29   2.0000     -10.185615      -277.1647
  30   2.0000     -10.184787      -277.1421
  31   2.0000     -10.180656      -277.0297
  32   2.0000     -10.177643      -276.9478
  33   2.0000     -10.177364      -276.9402
  34   2.0000     -10.173386      -276.8319
  35   2.0000     -10.170840      -276.7626
  36   2.0000     -10.166767      -276.6518
  37   2.0000      -8.134885      -221.3615
  38   2.0000      -6.100030      -165.9902
  39   2.0000      -6.097869      -165.9315
  40   2.0000      -6.097529      -165.9222
  41   2.0000      -1.222033       -33.2532
  42   2.0000      -1.167527       -31.7700
  43   2.0000      -1.085855       -29.5476
  44   2.0000      -1.082179       -29.4476
  45   2.0000      -0.999796       -27.2058
  46   2.0000      -0.967676       -26.3318
  47   2.0000      -0.960362       -26.1328
  48   2.0000      -0.920745       -25.0548
  49   2.0000      -0.894640       -24.3444
  50   2.0000      -0.854428       -23.2502
  51   2.0000      -0.850755       -23.1502
  52   2.0000      -0.841321       -22.8935
  53   2.0000      -0.825144       -22.4533
  54   2.0000      -0.811401       -22.0794
  55   2.0000      -0.781386       -21.2626
  56   2.0000      -0.778744       -21.1907
  57   2.0000      -0.766566       -20.8593
  58   2.0000      -0.751338       -20.4449
  59   2.0000      -0.746430       -20.3114
  60   2.0000      -0.718192       -19.5430
  61   2.0000      -0.701559       -19.0904
  62   2.0000      -0.687444       -18.7063
  63   2.0000      -0.677984       -18.4489
  64   2.0000      -0.667104       -18.1528
  65   2.0000      -0.643704       -17.5161
  66   2.0000      -0.629349       -17.1255
  67   2.0000      -0.618583       -16.8325
  68   2.0000      -0.611320       -16.6349
  69   2.0000      -0.602350       -16.3908
  70   2.0000      -0.598979       -16.2991
  71   2.0000      -0.582366       -15.8470
  72   2.0000      -0.579872       -15.7791
  73   2.0000      -0.571041       -15.5388
  74   2.0000      -0.563394       -15.3307
  75   2.0000      -0.545777       -14.8514
  76   2.0000      -0.540147       -14.6981
  77   2.0000      -0.524700       -14.2778
  78   2.0000      -0.521074       -14.1792
  79   2.0000      -0.510637       -13.8951
  80   2.0000      -0.507200       -13.8016
  81   2.0000      -0.500598       -13.6220
  82   2.0000      -0.494950       -13.4683
  83   2.0000      -0.484089       -13.1727
  84   2.0000      -0.477036       -12.9808
  85   2.0000      -0.475684       -12.9440
  86   2.0000      -0.469486       -12.7754
  87   2.0000      -0.465649       -12.6710
  88   2.0000      -0.457555       -12.4507
  89   2.0000      -0.456319       -12.4171
  90   2.0000      -0.453577       -12.3425
  91   2.0000      -0.450897       -12.2695
  92   2.0000      -0.447227       -12.1697
  93   2.0000      -0.443939       -12.0802
  94   2.0000      -0.439711       -11.9651
  95   2.0000      -0.433113       -11.7856
  96   2.0000      -0.427206       -11.6249
  97   2.0000      -0.424075       -11.5397
  98   2.0000      -0.418853       -11.3976
  99   2.0000      -0.414887       -11.2897
 100   2.0000      -0.412538       -11.2257
 101   2.0000      -0.410047       -11.1580
 102   2.0000      -0.407916       -11.1000
 103   2.0000      -0.405459       -11.0331
 104   2.0000      -0.397903       -10.8275
 105   2.0000      -0.392611       -10.6835
 106   2.0000      -0.391196       -10.6450
 107   2.0000      -0.389449       -10.5974
 108   2.0000      -0.385279       -10.4840
 109   2.0000      -0.375437       -10.2162
 110   2.0000      -0.373148       -10.1539
 111   2.0000      -0.367033        -9.9875
 112   2.0000      -0.360132        -9.7997
 113   2.0000      -0.359350        -9.7784
 114   2.0000      -0.354363        -9.6427
 115   2.0000      -0.347736        -9.4624
 116   2.0000      -0.343093        -9.3360
 117   2.0000      -0.337988        -9.1971
 118   2.0000      -0.325273        -8.8511
 119   2.0000      -0.324962        -8.8427
 120   2.0000      -0.316903        -8.6234
 121   2.0000      -0.308480        -8.3942
 122   2.0000      -0.306408        -8.3378
 123   2.0000      -0.295342        -8.0367
 124   2.0000      -0.290448        -7.9035
 125   2.0000      -0.285847        -7.7783
 126   2.0000      -0.282924        -7.6987
 127   2.0000      -0.279320        -7.6007
 128   2.0000      -0.277760        -7.5582
 129   2.0000      -0.272064        -7.4032
 130   2.0000      -0.262803        -7.1512
 131   2.0000      -0.257731        -7.0132
 132   2.0000      -0.252644        -6.8748
 133   2.0000      -0.235222        -6.4007
 134   2.0000      -0.231105        -6.2887
 135   2.0000      -0.227450        -6.1892
 136   0.0000      -0.087700        -2.3864
 137   0.0000      -0.070684        -1.9234
 138   0.0000      -0.036078        -0.9817
 139   0.0000      -0.026192        -0.7127
 140   0.0000      -0.000111        -0.0030

MULLIKEN ATOMIC CHARGES
-----------------------
   0 C :   -0.538392
   1 C :    0.153630
   2 C :   -0.206466
   3 C :    0.174676
   4 C :   -0.206298
   5 C :   -0.126853
   6 C :   -0.131862
   7 C :   -0.142975
   8 C :    0.210189
   9 N :   -0.416885
  10 C :    0.286828
  11 N :   -0.620965
  12 C :   -0.214022
  13 C :    0.168579
  14 C :   -0.160547
  15 C :   -0.129258
  16 C :   -0.163483
  17 C :    0.041541
  18 C :    0.672204
  19 F :   -0.339273
  20 F :   -0.340464
  21 C :   -0.173812
  22 C :   -0.304205
  23 C :   -0.317377
  24 C :   -0.220702
  25 S :    1.215182
  26 O :   -0.542061
  27 O :   -0.529015
  28 C :   -0.120528
  29 C :   -0.146258
  30 C :   -0.147089
  31 C :    0.080727
  32 C :    0.528195
  33 O :   -0.443672
  34 O :   -0.623082
  35 C :   -0.142932
  36 C :   -0.149188
  37 H :    0.175235
  38 H :    0.161472
  39 H :    0.160955
  40 H :    0.139598
  41 H :    0.134330
  42 H :    0.137066
  43 H :    0.140140
  44 H :    0.152981
  45 H :    0.184610
  46 H :    0.155570
  47 H :    0.176347
  48 H :    0.132499
  49 H :    0.134645
  50 H :    0.164203
  51 H :    0.153271
  52 H :    0.163620
  53 H :    0.147824
  54 H :    0.165204
  55 H :    0.123266
  56 H :    0.177346
  57 H :    0.173920
  58 H :    0.435110
  59 H :    0.182992
  60 H :    0.193709
Sum of atomic charges:   -0.0000000

LOEWDIN ATOMIC CHARGES
----------------------
   0 C :   -0.358669
   1 C :   -0.037336
   2 C :   -0.096857
   3 C :   -0.022790
   4 C :   -0.123521
   5 C :   -0.122161
   6 C :   -0.122270
   7 C :   -0.109258
   8 C :    0.014566
   9 N :   -0.104747
  10 C :    0.036053
  11 N :   -0.287415
  12 C :   -0.138695
  13 C :   -0.026617
  14 C :   -0.119527
  15 C :   -0.121535
  16 C :   -0.125319
  17 C :   -0.044685
  18 C :    0.238546
  19 F :   -0.139362
  20 F :   -0.130109
  21 C :   -0.159719
  22 C :   -0.249179
  23 C :   -0.255676
  24 C :   -0.128105
  25 S :    1.268384
  26 O :   -0.564263
  27 O :   -0.558841
  28 C :   -0.172782
  29 C :   -0.105396
  30 C :   -0.099883
  31 C :   -0.040611
  32 C :    0.179042
  33 O :   -0.259817
  34 O :   -0.333755
  35 C :   -0.087584
  36 C :   -0.104452
  37 H :    0.144220
  38 H :    0.133870
  39 H :    0.136453
  40 H :    0.138450
  41 H :    0.134057
  42 H :    0.135853
  43 H :    0.137883
  44 H :    0.148102
  45 H :    0.150653
  46 H :    0.126278
  47 H :    0.151498
  48 H :    0.134143
  49 H :    0.135156
  50 H :    0.145674
  51 H :    0.135511
  52 H :    0.138786
  53 H :    0.131695
  54 H :    0.139409
  55 H :    0.130084
  56 H :    0.155401
  57 H :    0.155150
  58 H :    0.350167
  59 H :    0.161366
  60 H :    0.164487

  Mayer bond orders larger than 0.100000
B(  0-C ,  1-C ) :   0.9841 B(  0-C , 37-H ) :   0.9259 B(  0-C , 38-H ) :   0.9355
B(  0-C , 39-H ) :   0.9393 B(  1-C ,  2-C ) :   1.4594 B(  1-C , 10-C ) :   1.3031
B(  2-C ,  3-C ) :   1.2964 B(  2-C , 40-H ) :   0.9193 B(  3-C ,  4-C ) :   1.2802
B(  3-C ,  8-C ) :   1.2446 B(  4-C ,  5-C ) :   1.5170 B(  4-C ,  7-C ) :   0.1085
B(  4-C , 41-H ) :   0.9249 B(  5-C ,  6-C ) :   1.3432 B(  5-C , 42-H ) :   0.9294
B(  6-C ,  7-C ) :   1.5188 B(  6-C , 43-H ) :   0.9289 B(  7-C ,  8-C ) :   1.2992
B(  7-C , 44-H ) :   0.9160 B(  8-C ,  9-N ) :   1.2376 B(  9-N , 10-C ) :   1.4654
B( 10-C , 11-N ) :   0.8940 B( 11-N , 12-C ) :   0.9088 B( 11-N , 25-S ) :   0.8024
B( 12-C , 13-C ) :   0.9618 B( 12-C , 45-H ) :   0.9123 B( 12-C , 46-H ) :   0.9254
B( 13-C , 14-C ) :   1.4385 B( 13-C , 24-C ) :   1.4063 B( 14-C , 15-C ) :   1.4413
B( 14-C , 47-H ) :   0.8948 B( 15-C , 16-C ) :   1.4272 B( 15-C , 48-H ) :   0.9299
B( 16-C , 17-C ) :   1.4188 B( 16-C , 49-H ) :   0.9227 B( 17-C , 18-C ) :   0.9692
B( 17-C , 24-C ) :   1.3966 B( 18-C , 19-F ) :   0.8962 B( 18-C , 20-F ) :   0.8650
B( 18-C , 21-C ) :   0.9967 B( 21-C , 22-C ) :   0.9355 B( 21-C , 23-C ) :   0.9359
B( 21-C , 50-H ) :   0.9241 B( 22-C , 23-C ) :   0.9608 B( 22-C , 51-H ) :   0.9424
B( 22-C , 52-H ) :   0.9381 B( 23-C , 53-H ) :   0.9456 B( 23-C , 54-H ) :   0.9378
B( 24-C , 55-H ) :   0.9179 B( 25-S , 26-O ) :   1.6248 B( 25-S , 27-O ) :   1.6583
B( 25-S , 28-C ) :   0.8116 B( 28-C , 29-C ) :   1.3874 B( 28-C , 36-C ) :   1.3865
B( 29-C , 30-C ) :   1.4228 B( 29-C , 56-H ) :   0.9118 B( 30-C , 31-C ) :   1.3804
B( 30-C , 57-H ) :   0.9143 B( 31-C , 32-C ) :   1.0092 B( 31-C , 35-C ) :   1.4004
B( 32-C , 33-O ) :   1.8633 B( 32-C , 34-O ) :   1.0262 B( 34-O , 58-H ) :   0.7413
B( 35-C , 36-C ) :   1.4116 B( 35-C , 59-H ) :   0.9093 B( 36-C , 60-H ) :   0.9068

FINAL SINGLE POINT ENERGY     -2088.533666690799

DIPOLE MOMENT
-------------

Method             : SCF
Type of density    : Electron Density
Multiplicity       :   1
Irrep              :   0
Energy             : -2088.5336666907987819 Eh
Relativity type    :
Basis              : AO
                                X                 Y                 Z
Electronic contribution:      3.657856318       1.949259866       0.953428086
Nuclear contribution   :     -6.032230246      -1.713997618      -2.259126291
                        -----------------------------------------
Total Dipole Moment    :     -2.374373928       0.235262248      -1.305698205
                        -----------------------------------------
Magnitude (a.u.)       :      2.719898469
Magnitude (Debye)      :      6.913432488

Rotational constants in cm-1:             0.003714             0.001980             0.001420
Rotational constants in MHz :           111.349452            59.367283            42.571492

                             ****ORCA TERMINATED NORMALLY****
TOTAL RUN TIME: 0 days 0 hours 12 minutes 30 seconds 284 msec
