                         Program Version 6.0.0  -   RELEASE  -
|  1> ! B3LYP 6-31G* SP
|  2>
|  3> * xyz 0 1
|  4> C 7.3665 1.4915 0.2889
|  5> C 6.9594 0.0523 0.5760
|  6> N 5.6500 -0.2237 -0.0007
|  7> N 5.4542 -0.6678 -1.2298
|  8> N 4.1523 -0.7518 -1.4495
|  9> C 3.5746 -0.3308 -0.3046
| 10> C 2.1158 -0.2544 -0.1088
| 11> S 0.9957 -0.6876 -1.2877
| 12> C -0.3456 -0.3304 -0.3332
| 13> C -1.7636 -0.4760 -0.7389
| 14> C -2.1012 -0.9460 -2.0184
| 15> C -3.4383 -1.0816 -2.3896
| 16> C -4.4558 -0.7514 -1.4938
| 17> C -4.1513 -0.2761 -0.2027
| 18> N -5.2085 0.0691 0.7301
| 19> C -6.5511 -0.5059 0.5816
| 20> C -4.9544 1.0006 1.8360
| 21> C -2.7937 -0.1443 0.1605
| 22> N 0.0415 0.1187 0.8824
| 23> C 1.3943 0.1652 1.0189
| 24> O 1.9631 0.6055 2.2129
| 25> N 4.5018 0.0106 0.6103
| 26> H 7.4184 1.6620 -0.8075
| 27> H 6.6285 2.1927 0.7333
| 28> H 8.3647 1.6929 0.7314
| 29> H 7.7130 -0.6404 0.1427
| 30> H 6.9260 -0.1120 1.6747
| 31> H -1.3356 -1.2101 -2.7360
| 32> H -3.6882 -1.4427 -3.3790
| 33> H -5.4798 -0.8594 -1.8230
| 34> H -7.1710 -0.3336 1.4869
| 35> H -6.4775 -1.6040 0.4317
| 36> H -7.0662 -0.0429 -0.2858
| 37> H -5.9004 1.3436 2.3059
| 38> H -4.3400 0.5029 2.6151
| 39> H -4.4243 1.9006 1.4583
| 40> H -2.5324 0.2055 1.1495
| 41> H 2.9591 0.6589 2.3666
| 42> *
| 43>
| 44>                          ****END OF INPUT****

CARTESIAN COORDINATES (ANGSTROEM)
---------------------------------
  C      7.366500    1.491500    0.288900
  C      6.959400    0.052300    0.576000
  N      5.650000   -0.223700   -0.000700
  N      5.454200   -0.667800   -1.229800
  N      4.152300   -0.751800   -1.449500
  C      3.574600   -0.330800   -0.304600
  C      2.115800   -0.254400   -0.108800
  S      0.995700   -0.687600   -1.287700
  C     -0.345600   -0.330400   -0.333200
  C     -1.763600   -0.476000   -0.738900
  C     -2.101200   -0.946000   -2.018400
  C     -3.438300   -1.081600   -2.389600
  C     -4.455800   -0.751400   -1.493800
  C     -4.151300   -0.276100   -0.202700
  N     -5.208500    0.069100    0.730100
  C     -6.551100   -0.505900    0.581600
  C     -4.954400    1.000600    1.836000
  C     -2.793700   -0.144300    0.160500
  N      0.041500    0.118700    0.882400
  C      1.394300    0.165200    1.018900
  O      1.963100    0.605500    2.212900
  N      4.501800    0.010600    0.610300
  H      7.418400    1.662000   -0.807500
  H      6.628500    2.192700    0.733300
  H      8.364700    1.692900    0.731400
  H      7.713000   -0.640400    0.142700
  H      6.926000   -0.112000    1.674700
  H     -1.335600   -1.210100   -2.736000
  H     -3.688200   -1.442700   -3.379000
  H     -5.479800   -0.859400   -1.823000
  H     -7.171000   -0.333600    1.486900
  H     -6.477500   -1.604000    0.431700
  H     -7.066200   -0.042900   -0.285800
  H     -5.900400    1.343600    2.305900
  H     -4.340000    0.502900    2.615100
  H     -4.424300    1.900600    1.458300
  H     -2.532400    0.205500    1.149500
  H      2.959100    0.658900    2.366600

 Total Charge           Charge          ....    0
 Multiplicity           Mult            ....    1
 Number of Electrons    NEL             ....  166
 Basis Dimension        Dim             ....  344

ORBITAL ENERGIES
----------------

  NO   OCC          E(Eh)            E(eV)
   0   2.0000     -88.893465     -2418.9142
   1   2.0000     -19.164684      -521.4976
   2   2.0000     -14.463488      -393.5715
   3   2.0000     -14.401906      -391.8958
   4   2.0000     -14.376210      -391.1966
   5   2.0000     -14.361528      -390.7970
   6   2.0000     -14.334065      -390.0497
   7   2.0000     -14.324384      -389.7863
   8   2.0000     -10.280635      -279.7503
   9   2.0000     -10.259940      -279.1872
  10   2.0000     -10.255626      -279.0698
  11   2.0000     -10.249890      -278.9137
  12   2.0000     -10.221564      -278.1429
  13   2.0000     -10.214877      -277.9609
  14   2.0000     -10.207861      -277.7700
  15   2.0000     -10.204931      -277.6903
  16   2.0000     -10.199692      -277.5477
  17   2.0000     -10.198717      -277.5212
  18   2.0000     -10.179142      -276.9885
  19   2.0000     -10.175048      -276.8771
  20   2.0000     -10.174302      -276.8568
  21   2.0000     -10.173927      -276.8466
  22   2.0000      -7.970252      -216.8816
  23   2.0000      -5.933188      -161.4503
  24   2.0000      -5.929235      -161.3427
  25   2.0000      -5.927322      -161.2906
  26   2.0000      -1.151052       -31.3217
  27   2.0000      -1.033939       -28.1349
  28   2.0000      -0.955639       -26.0043
  29   2.0000      -0.951469       -25.8908
  30   2.0000      -0.916448       -24.9378
  31   2.0000      -0.900450       -24.5025
  32   2.0000      -0.842018       -22.9125
  33   2.0000      -0.814903       -22.1746
  34   2.0000      -0.790271       -21.5044
  35   2.0000      -0.769486       -20.9388
  36   2.0000      -0.738245       -20.0887
  37   2.0000      -0.721801       -19.6412
  38   2.0000      -0.707389       -19.2490
  39   2.0000      -0.691031       -18.8039
  40   2.0000      -0.664898       -18.0928
  41   2.0000      -0.643788       -17.5184
  42   2.0000      -0.620379       -16.8814
  43   2.0000      -0.611287       -16.6340
  44   2.0000      -0.598755       -16.2930
  45   2.0000      -0.577207       -15.7066
  46   2.0000      -0.546770       -14.8784
  47   2.0000      -0.537345       -14.6219
  48   2.0000      -0.524797       -14.2804
  49   2.0000      -0.507374       -13.8063
  50   2.0000      -0.503375       -13.6975
  51   2.0000      -0.478944       -13.0327
  52   2.0000      -0.469838       -12.7849
  53   2.0000      -0.467775       -12.7288
  54   2.0000      -0.452670       -12.3178
  55   2.0000      -0.449485       -12.2311
  56   2.0000      -0.436810       -11.8862
  57   2.0000      -0.432620       -11.7722
  58   2.0000      -0.419455       -11.4139
  59   2.0000      -0.417680       -11.3657
  60   2.0000      -0.409159       -11.1338
  61   2.0000      -0.401026       -10.9125
  62   2.0000      -0.399587       -10.8733
  63   2.0000      -0.397945       -10.8286
  64   2.0000      -0.388749       -10.5784
  65   2.0000      -0.385792       -10.4979
  66   2.0000      -0.376634       -10.2487
  67   2.0000      -0.371802       -10.1172
  68   2.0000      -0.368226       -10.0200
  69   2.0000      -0.353382        -9.6160
  70   2.0000      -0.342785        -9.3277
  71   2.0000      -0.340518        -9.2660
  72   2.0000      -0.331815        -9.0291
  73   2.0000      -0.321241        -8.7414
  74   2.0000      -0.315578        -8.5873
  75   2.0000      -0.307038        -8.3549
  76   2.0000      -0.291410        -7.9297
  77   2.0000      -0.273029        -7.4295
  78   2.0000      -0.265133        -7.2146
  79   2.0000      -0.263976        -7.1832
  80   2.0000      -0.248787        -6.7698
  81   2.0000      -0.202901        -5.5212
  82   2.0000      -0.183408        -4.9908
  83   0.0000      -0.052438        -1.4269
  84   0.0000      -0.025439        -0.6922
  85   0.0000       0.008447         0.2299
  86   0.0000       0.019714         0.5364
  87   0.0000       0.043357         1.1798

MULLIKEN ATOMIC CHARGES
-----------------------
   0 C :   -0.444777
   1 C :   -0.147447
   2 N :   -0.023787
   3 N :   -0.060315
   4 N :   -0.320589
   5 C :    0.428977
   6 C :   -0.246644
   7 S :    0.292626
   8 C :   -0.016487
   9 C :    0.148533
  10 C :   -0.204966
  11 C :   -0.133972
  12 C :   -0.180493
  13 C :    0.327286
  14 N :   -0.450143
  15 C :   -0.303589
  16 C :   -0.305775
  17 C :   -0.230796
  18 N :   -0.407502
  19 C :    0.491001
  20 O :   -0.656746
  21 N :   -0.362030
  22 H :    0.176721
  23 H :    0.171025
  24 H :    0.159661
  25 H :    0.192065
  26 H :    0.185473
  27 H :    0.139162
  28 H :    0.130943
  29 H :    0.126795
  30 H :    0.153907
  31 H :    0.156364
  32 H :    0.146417
  33 H :    0.151179
  34 H :    0.154527
  35 H :    0.160158
  36 H :    0.162437
  37 H :    0.440801
Sum of atomic charges:   -0.0000000

LOEWDIN ATOMIC CHARGES
----------------------
   0 C :   -0.362274
   1 C :   -0.153182
   2 N :    0.097121
   3 N :   -0.068612
   4 N :   -0.122577
   5 C :    0.000302
   6 C :   -0.270448
   7 S :    0.421384
   8 C :   -0.109893
   9 C :   -0.024786
  10 C :   -0.149982
  11 C :   -0.121910
  12 C :   -0.156721
  13 C :    0.046542
  14 N :   -0.139572
  15 C :   -0.268024
  16 C :   -0.268737
  17 C :   -0.141149
  18 N :   -0.165031
  19 C :    0.100597
  20 O :   -0.338383
  21 N :   -0.160717
  22 H :    0.140369
  23 H :    0.137424
  24 H :    0.136151
  25 H :    0.152076
  26 H :    0.148476
  27 H :    0.136355
  28 H :    0.133801
  29 H :    0.133685
  30 H :    0.130194
  31 H :    0.124743
  32 H :    0.113432
  33 H :    0.128810
  34 H :    0.117848
  35 H :    0.127004
  36 H :    0.151279
  37 H :    0.344408

  Mayer bond orders larger than 0.100000
B(  0-C ,  1-C ) :   1.0033 B(  0-C , 22-H ) :   0.9434 B(  0-C , 23-H ) :   0.9443
B(  0-C , 24-H ) :   0.9417 B(  1-C ,  2-N ) :   0.8980 B(  1-C , 25-H ) :   0.9259
B(  1-C , 26-H ) :   0.9275 B(  2-N ,  3-N ) :   1.2489 B(  2-N , 21-N ) :   1.2188
B(  3-N ,  4-N ) :   1.4262 B(  3-N , 21-N ) :   0.1318 B(  4-N ,  5-C ) :   1.2862
B(  5-C ,  6-C ) :   1.0581 B(  5-C , 21-N ) :   1.3582 B(  6-C ,  7-S ) :   1.0777
B(  6-C ,  8-C ) :   0.1198 B(  6-C , 19-C ) :   1.3806 B(  7-S ,  8-C ) :   1.1521
B(  8-C ,  9-C ) :   1.0199 B(  8-C , 18-N ) :   1.4285 B(  9-C , 10-C ) :   1.3853
B(  9-C , 17-C ) :   1.4043 B( 10-C , 11-C ) :   1.4407 B( 10-C , 27-H ) :   0.9166
B( 11-C , 12-C ) :   1.4483 B( 11-C , 28-H ) :   0.9289 B( 12-C , 13-C ) :   1.3673
B( 12-C , 29-H ) :   0.9194 B( 13-C , 14-N ) :   0.9971 B( 13-C , 17-C ) :   1.3454
B( 14-N , 15-C ) :   0.9771 B( 14-N , 16-C ) :   0.9723 B( 15-C , 30-H ) :   0.9453
B( 15-C , 31-H ) :   0.9363 B( 15-C , 32-H ) :   0.9313 B( 16-C , 33-H ) :   0.9452
B( 16-C , 34-H ) :   0.9307 B( 16-C , 35-H ) :   0.9359 B( 17-C , 36-H ) :   0.8985
B( 18-N , 19-C ) :   1.3195 B( 19-C , 20-O ) :   1.0084 B( 20-O , 37-H ) :   0.7201

FINAL SINGLE POINT ENERGY     -1344.335515226951

DIPOLE MOMENT
-------------

Method             : SCF
Type of density    : Electron Density
Multiplicity       :   1
Irrep              :   0
Energy             : -1344.3355152269505197 Eh
Relativity type    :
Basis              : AO
                                X                 Y                 Z
Electronic contribution:     15.366497958      -6.024480453      -7.123855325
Nuclear contribution   :    -14.902865035       6.416105371       7.835282559
                        -----------------------------------------
Total Dipole Moment    :      0.463632923       0.391624918       0.711427234
                        -----------------------------------------
Magnitude (a.u.)       :      0.935122598
Magnitude (Debye)      :      2.376892748

Rotational constants in cm-1:             0.028536             0.003096             0.002831
Rotational constants in MHz :           855.481268            92.824231            84.862593

                             ****ORCA TERMINATED NORMALLY****
TOTAL RUN TIME: 0 days 0 hours 4 minutes 46 seconds 769 msec
