                         Program Version 6.0.0  -   RELEASE  -
|  1> ! B3LYP 6-31G* SP
|  2>
|  3> * xyz 0 1
|  4> C -1.3204 -0.9407 0.9927
|  5> C -1.8410 -1.8930 -0.0605
|  6> C -2.0560 -1.4541 -1.3890
|  7> N -1.8149 -0.0953 -1.7741
|  8> C -0.6425 0.2277 -2.5893
|  9> C 0.6033 0.1481 -1.7507
| 10> C 1.0566 1.2740 -1.0472
| 11> C 2.1596 1.1773 -0.1954
| 12> C 2.8279 -0.0482 -0.0317
| 13> C 3.9854 -0.1530 0.8890
| 14> C 3.9091 0.4029 2.1794
| 15> C 4.9911 0.3028 3.0587
| 16> C 6.1599 -0.3488 2.6598
| 17> C 6.2506 -0.8995 1.3793
| 18> C 5.1718 -0.8045 0.4936
| 19> F 5.3011 -1.3169 -0.7569
| 20> C 2.3672 -1.1762 -0.7321
| 21> C 1.2634 -1.0787 -1.5831
| 22> S -3.0708 1.0824 -1.5451
| 23> O -4.1073 0.5456 -0.5970
| 24> O -3.7344 1.3692 -2.8629
| 25> C -2.3919 2.5626 -0.8741
| 26> C -2.2501 2.7082 0.5113
| 27> C -1.6718 3.8640 1.0434
| 28> C -1.2296 4.8950 0.1951
| 29> C -0.6114 6.1181 0.7521
| 30> O -0.4752 6.2542 1.9983
| 31> O -0.1731 7.1318 -0.0962
| 32> C -1.3824 4.7464 -1.1943
| 33> C -1.9600 3.5888 -1.7237
| 34> N -2.4856 -2.3289 -2.3355
| 35> C -2.7374 -3.6315 -2.0620
| 36> C -2.5615 -4.1237 -0.7666
| 37> C -2.8276 -5.4715 -0.4796
| 38> C -2.6527 -5.9609 0.8151
| 39> C -2.2134 -5.1118 1.8305
| 40> C -1.9438 -3.7678 1.5588
| 41> C -2.1107 -3.2503 0.2548
| 42> H -1.0730 0.0574 0.5861
| 43> H -2.0845 -0.8063 1.7866
| 44> H -0.3865 -1.3452 1.4367
| 45> H -0.5759 -0.4766 -3.4472
| 46> H -0.7389 1.2458 -3.0234
| 47> H 0.5517 2.2253 -1.1494
| 48> H 2.4946 2.0616 0.3325
| 49> H 3.0064 0.9006 2.5121
| 50> H 4.9219 0.7285 4.0515
| 51> H 6.9969 -0.4245 3.3418
| 52> H 7.1616 -1.3962 1.0706
| 53> H 2.8446 -2.1392 -0.5999
| 54> H 0.9093 -1.9651 -2.0951
| 55> H -2.5822 1.9262 1.1817
| 56> H -1.5693 3.9486 2.1180
| 57> H 0.2522 7.9731 0.2745
| 58> H -1.0515 5.5216 -1.8738
| 59> H -2.0581 3.4892 -2.7971
| 60> H -3.0784 -4.2802 -2.8593
| 61> H -3.1709 -6.1451 -1.2560
| 62> H -2.8595 -7.0010 1.0323
| 63> H -2.0816 -5.4962 2.8339
| 64> H -1.6101 -3.1458 2.3780
| 65> *
| 66>
| 67>                          ****END OF INPUT****

CARTESIAN COORDINATES (ANGSTROEM)
---------------------------------
  C     -1.320400   -0.940700    0.992700
  C     -1.841000   -1.893000   -0.060500
  C     -2.056000   -1.454100   -1.389000
  N     -1.814900   -0.095300   -1.774100
  C     -0.642500    0.227700   -2.589300
  C      0.603300    0.148100   -1.750700
  C      1.056600    1.274000   -1.047200
  C      2.159600    1.177300   -0.195400
  C      2.827900   -0.048200   -0.031700
  C      3.985400   -0.153000    0.889000
  C      3.909100    0.402900    2.179400
  C      4.991100    0.302800    3.058700
  C      6.159900   -0.348800    2.659800
  C      6.250600   -0.899500    1.379300
  C      5.171800   -0.804500    0.493600
  F      5.301100   -1.316900   -0.756900
  C      2.367200   -1.176200   -0.732100
  C      1.263400   -1.078700   -1.583100
  S     -3.070800    1.082400   -1.545100
  O     -4.107300    0.545600   -0.597000
  O     -3.734400    1.369200   -2.862900
  C     -2.391900    2.562600   -0.874100
  C     -2.250100    2.708200    0.511300
  C     -1.671800    3.864000    1.043400
  C     -1.229600    4.895000    0.195100
  C     -0.611400    6.118100    0.752100
  O     -0.475200    6.254200    1.998300
  O     -0.173100    7.131800   -0.096200
  C     -1.382400    4.746400   -1.194300
  C     -1.960000    3.588800   -1.723700
  N     -2.485600   -2.328900   -2.335500
  C     -2.737400   -3.631500   -2.062000
  C     -2.561500   -4.123700   -0.766600
  C     -2.827600   -5.471500   -0.479600
  C     -2.652700   -5.960900    0.815100
  C     -2.213400   -5.111800    1.830500
  C     -1.943800   -3.767800    1.558800
  C     -2.110700   -3.250300    0.254800
  H     -1.073000    0.057400    0.586100
  H     -2.084500   -0.806300    1.786600
  H     -0.386500   -1.345200    1.436700
  H     -0.575900   -0.476600   -3.447200
  H     -0.738900    1.245800   -3.023400
  H      0.551700    2.225300   -1.149400
  H      2.494600    2.061600    0.332500
  H      3.006400    0.900600    2.512100
  H      4.921900    0.728500    4.051500
  H      6.996900   -0.424500    3.341800
  H      7.161600   -1.396200    1.070600
  H      2.844600   -2.139200   -0.599900
  H      0.909300   -1.965100   -2.095100
  H     -2.582200    1.926200    1.181700
  H     -1.569300    3.948600    2.118000
  H      0.252200    7.973100    0.274500
  H     -1.051500    5.521600   -1.873800
  H     -2.058100    3.489200   -2.797100
  H     -3.078400   -4.280200   -2.859300
  H     -3.170900   -6.145100   -1.256000
  H     -2.859500   -7.001000    1.032300
  H     -2.081600   -5.496200    2.833900
  H     -1.610100   -3.145800    2.378000

 Total Charge           Charge          ....    0
 Multiplicity           Mult            ....    1
 Number of Electrons    NEL             ....  274
 Basis Dimension        Dim             ....  582

ORBITAL ENERGIES
----------------

  NO   OCC          E(Eh)            E(eV)
   0   2.0000     -89.093955     -2424.3698
   1   2.0000     -24.703328      -672.2117
   2   2.0000     -19.200232      -522.4649
   3   2.0000     -19.142410      -520.8915
   4   2.0000     -19.122281      -520.3437
   5   2.0000     -19.117996      -520.2271
   6   2.0000     -14.365277      -390.8991
   7   2.0000     -14.326165      -389.8348
   8   2.0000     -10.339794      -281.3601
   9   2.0000     -10.273146      -279.5465
  10   2.0000     -10.254326      -279.0344
  11   2.0000     -10.245981      -278.8073
  12   2.0000     -10.237017      -278.5634
  13   2.0000     -10.229746      -278.3655
  14   2.0000     -10.224529      -278.2236
  15   2.0000     -10.224030      -278.2100
  16   2.0000     -10.222219      -278.1607
  17   2.0000     -10.221965      -278.1538
  18   2.0000     -10.220027      -278.1011
  19   2.0000     -10.206130      -277.7229
  20   2.0000     -10.204208      -277.6706
  21   2.0000     -10.202544      -277.6253
  22   2.0000     -10.200072      -277.5581
  23   2.0000     -10.196597      -277.4635
  24   2.0000     -10.194992      -277.4198
  25   2.0000     -10.194704      -277.4120
  26   2.0000     -10.194657      -277.4107
  27   2.0000     -10.194549      -277.4078
  28   2.0000     -10.194111      -277.3959
  29   2.0000     -10.193240      -277.3722
  30   2.0000     -10.193196      -277.3710
  31   2.0000     -10.193012      -277.3660
  32   2.0000     -10.189323      -277.2656
  33   2.0000     -10.188874      -277.2534
  34   2.0000     -10.188249      -277.2364
  35   2.0000     -10.187794      -277.2240
  36   2.0000     -10.187109      -277.2053
  37   2.0000     -10.179073      -276.9867
  38   2.0000      -8.129765      -221.2222
  39   2.0000      -6.094712      -165.8455
  40   2.0000      -6.092881      -165.7957
  41   2.0000      -6.092383      -165.7822
  42   2.0000      -1.215986       -33.0887
  43   2.0000      -1.084962       -29.5233
  44   2.0000      -1.078654       -29.3517
  45   2.0000      -0.999302       -27.1924
  46   2.0000      -0.957598       -26.0576
  47   2.0000      -0.956611       -26.0307
  48   2.0000      -0.910132       -24.7660
  49   2.0000      -0.894614       -24.3437
  50   2.0000      -0.872195       -23.7336
  51   2.0000      -0.861107       -23.4319
  52   2.0000      -0.851119       -23.1601
  53   2.0000      -0.811060       -22.0701
  54   2.0000      -0.804336       -21.8871
  55   2.0000      -0.790862       -21.5205
  56   2.0000      -0.781212       -21.2579
  57   2.0000      -0.771929       -21.0053
  58   2.0000      -0.752725       -20.4827
  59   2.0000      -0.748627       -20.3712
  60   2.0000      -0.746773       -20.3207
  61   2.0000      -0.737934       -20.0802
  62   2.0000      -0.715498       -19.4697
  63   2.0000      -0.697075       -18.9684
  64   2.0000      -0.681970       -18.5573
  65   2.0000      -0.655461       -17.8360
  66   2.0000      -0.641246       -17.4492
  67   2.0000      -0.640127       -17.4187
  68   2.0000      -0.629287       -17.1238
  69   2.0000      -0.624201       -16.9854
  70   2.0000      -0.614848       -16.7309
  71   2.0000      -0.605089       -16.4653
  72   2.0000      -0.595709       -16.2101
  73   2.0000      -0.592085       -16.1115
  74   2.0000      -0.581236       -15.8162
  75   2.0000      -0.560911       -15.2632
  76   2.0000      -0.543027       -14.7765
  77   2.0000      -0.541417       -14.7327
  78   2.0000      -0.529990       -14.4217
  79   2.0000      -0.519476       -14.1357
  80   2.0000      -0.507741       -13.8163
  81   2.0000      -0.499454       -13.5908
  82   2.0000      -0.495282       -13.4773
  83   2.0000      -0.492034       -13.3889
  84   2.0000      -0.482584       -13.1318
  85   2.0000      -0.479349       -13.0437
  86   2.0000      -0.475809       -12.9474
  87   2.0000      -0.469963       -12.7883
  88   2.0000      -0.464827       -12.6486
  89   2.0000      -0.464432       -12.6378
  90   2.0000      -0.462777       -12.5928
  91   2.0000      -0.453418       -12.3381
  92   2.0000      -0.452198       -12.3049
  93   2.0000      -0.447463       -12.1761
  94   2.0000      -0.445861       -12.1325
  95   2.0000      -0.443840       -12.0775
  96   2.0000      -0.442232       -12.0337
  97   2.0000      -0.429639       -11.6911
  98   2.0000      -0.428118       -11.6497
  99   2.0000      -0.425450       -11.5771
 100   2.0000      -0.423917       -11.5354
 101   2.0000      -0.418363       -11.3842
 102   2.0000      -0.416584       -11.3358
 103   2.0000      -0.402970       -10.9654
 104   2.0000      -0.401886       -10.9359
 105   2.0000      -0.397121       -10.8062
 106   2.0000      -0.393549       -10.7090
 107   2.0000      -0.392134       -10.6705
 108   2.0000      -0.389470       -10.5980
 109   2.0000      -0.383680       -10.4405
 110   2.0000      -0.380363       -10.3502
 111   2.0000      -0.372502       -10.1363
 112   2.0000      -0.367973       -10.0131
 113   2.0000      -0.365060        -9.9338
 114   2.0000      -0.364066        -9.9067
 115   2.0000      -0.354252        -9.6397
 116   2.0000      -0.351082        -9.5534
 117   2.0000      -0.348159        -9.4739
 118   2.0000      -0.344555        -9.3758
 119   2.0000      -0.337725        -9.1900
 120   2.0000      -0.324807        -8.8385
 121   2.0000      -0.320327        -8.7165
 122   2.0000      -0.306605        -8.3431
 123   2.0000      -0.294691        -8.0190
 124   2.0000      -0.288763        -7.8576
 125   2.0000      -0.284457        -7.7405
 126   2.0000      -0.282774        -7.6947
 127   2.0000      -0.279066        -7.5938
 128   2.0000      -0.275318        -7.4918
 129   2.0000      -0.269640        -7.3373
 130   2.0000      -0.266009        -7.2385
 131   2.0000      -0.255185        -6.9439
 132   2.0000      -0.251033        -6.8310
 133   2.0000      -0.248070        -6.7503
 134   2.0000      -0.242902        -6.6097
 135   2.0000      -0.228021        -6.2048
 136   2.0000      -0.217976        -5.9314
 137   0.0000      -0.087970        -2.3938
 138   0.0000      -0.057276        -1.5585
 139   0.0000      -0.037775        -1.0279
 140   0.0000      -0.032348        -0.8802
 141   0.0000      -0.029597        -0.8054

MULLIKEN ATOMIC CHARGES
-----------------------
   0 C :   -0.544826
   1 C :    0.128224
   2 C :    0.322603
   3 N :   -0.606481
   4 C :   -0.248486
   5 C :    0.177910
   6 C :   -0.185508
   7 C :   -0.167079
   8 C :    0.090043
   9 C :   -0.023145
  10 C :   -0.155526
  11 C :   -0.135861
  12 C :   -0.113008
  13 C :   -0.206824
  14 C :    0.364857
  15 F :   -0.312379
  16 C :   -0.157455
  17 C :   -0.179088
  18 S :    1.200596
  19 O :   -0.548920
  20 O :   -0.526868
  21 C :   -0.130465
  22 C :   -0.138911
  23 C :   -0.142800
  24 C :    0.082889
  25 C :    0.528886
  26 O :   -0.443451
  27 O :   -0.622948
  28 C :   -0.147968
  29 C :   -0.153328
  30 N :   -0.382118
  31 C :   -0.055007
  32 C :    0.137891
  33 C :   -0.202867
  34 C :   -0.126307
  35 C :   -0.120897
  36 C :   -0.196083
  37 C :    0.118792
  38 H :    0.169342
  39 H :    0.166318
  40 H :    0.162096
  41 H :    0.185260
  42 H :    0.165436
  43 H :    0.130532
  44 H :    0.134863
  45 H :    0.140497
  46 H :    0.132840
  47 H :    0.137797
  48 H :    0.144822
  49 H :    0.140115
  50 H :    0.141418
  51 H :    0.188763
  52 H :    0.181387
  53 H :    0.435518
  54 H :    0.175881
  55 H :    0.187267
  56 H :    0.152956
  57 H :    0.139082
  58 H :    0.135248
  59 H :    0.136316
  60 H :    0.138162
Sum of atomic charges:   -0.0000000

LOEWDIN ATOMIC CHARGES
----------------------
   0 C :   -0.361774
   1 C :    0.001759
   2 C :    0.031743
   3 N :   -0.279484
   4 C :   -0.144749
   5 C :   -0.032215
   6 C :   -0.135474
   7 C :   -0.125760
   8 C :   -0.013863
   9 C :   -0.043040
  10 C :   -0.120418
  11 C :   -0.136615
  12 C :   -0.122666
  13 C :   -0.154687
  14 C :    0.118131
  15 F :   -0.100433
  16 C :   -0.118289
  17 C :   -0.129140
  18 S :    1.260709
  19 O :   -0.573519
  20 O :   -0.567381
  21 C :   -0.174001
  22 C :   -0.100556
  23 C :   -0.086191
  24 C :   -0.039415
  25 C :    0.179901
  26 O :   -0.259725
  27 O :   -0.333823
  28 C :   -0.101170
  29 C :   -0.109632
  30 N :   -0.122465
  31 C :   -0.059900
  32 C :   -0.027465
  33 C :   -0.111789
  34 C :   -0.126204
  35 C :   -0.118369
  36 C :   -0.121667
  37 C :   -0.006511
  38 H :    0.138886
  39 H :    0.138669
  40 H :    0.137158
  41 H :    0.143015
  42 H :    0.138497
  43 H :    0.133388
  44 H :    0.135161
  45 H :    0.138487
  46 H :    0.133915
  47 H :    0.136526
  48 H :    0.143502
  49 H :    0.137942
  50 H :    0.137500
  51 H :    0.161776
  52 H :    0.160804
  53 H :    0.350749
  54 H :    0.156076
  55 H :    0.159740
  56 H :    0.137472
  57 H :    0.137145
  58 H :    0.135100
  59 H :    0.135912
  60 H :    0.138729

  Mayer bond orders larger than 0.100000
B(  0-C ,  1-C ) :   1.0055 B(  0-C , 38-H ) :   0.9200 B(  0-C , 39-H ) :   0.9231
B(  0-C , 40-H ) :   0.9252 B(  1-C ,  2-C ) :   1.4295 B(  1-C , 31-C ) :   0.1005
B(  1-C , 37-C ) :   1.2652 B(  2-C ,  3-N ) :   0.8863 B(  2-C , 30-N ) :   1.2881
B(  3-N ,  4-C ) :   0.9172 B(  3-N , 18-S ) :   0.8140 B(  4-C ,  5-C ) :   0.9414
B(  4-C , 41-H ) :   0.9168 B(  4-C , 42-H ) :   0.9232 B(  5-C ,  6-C ) :   1.4219
B(  5-C , 17-C ) :   1.4266 B(  6-C ,  7-C ) :   1.4279 B(  6-C , 43-H ) :   0.9168
B(  7-C ,  8-C ) :   1.4151 B(  7-C , 44-H ) :   0.9218 B(  8-C ,  9-C ) :   0.9811
B(  8-C , 16-C ) :   1.4095 B(  9-C , 10-C ) :   1.4074 B(  9-C , 14-C ) :   1.3373
B( 10-C , 11-C ) :   1.4433 B( 10-C , 45-H ) :   0.9222 B( 11-C , 12-C ) :   1.4509
B( 11-C , 46-H ) :   0.9287 B( 12-C , 13-C ) :   1.4331 B( 12-C , 47-H ) :   0.9296
B( 13-C , 14-C ) :   1.3862 B( 13-C , 48-H ) :   0.9198 B( 14-C , 15-F ) :   0.9260
B( 16-C , 17-C ) :   1.4237 B( 16-C , 49-H ) :   0.9221 B( 17-C , 50-H ) :   0.9208
B( 18-S , 19-O ) :   1.6176 B( 18-S , 20-O ) :   1.6702 B( 18-S , 21-C ) :   0.8075
B( 21-C , 22-C ) :   1.3844 B( 21-C , 29-C ) :   1.3912 B( 22-C , 23-C ) :   1.4211
B( 22-C , 51-H ) :   0.9062 B( 23-C , 24-C ) :   1.3992 B( 23-C , 52-H ) :   0.9094
B( 24-C , 25-C ) :   1.0073 B( 24-C , 28-C ) :   1.3841 B( 25-C , 26-O ) :   1.8632
B( 25-C , 27-O ) :   1.0269 B( 27-O , 53-H ) :   0.7409 B( 28-C , 29-C ) :   1.4087
B( 28-C , 54-H ) :   0.9142 B( 29-C , 55-H ) :   0.9079 B( 30-N , 31-C ) :   1.4971
B( 31-C , 32-C ) :   1.2362 B( 31-C , 56-H ) :   0.9264 B( 32-C , 33-C ) :   1.2840
B( 32-C , 37-C ) :   1.2913 B( 33-C , 34-C ) :   1.5121 B( 33-C , 36-C ) :   0.1061
B( 33-C , 57-H ) :   0.9232 B( 34-C , 35-C ) :   1.3535 B( 34-C , 58-H ) :   0.9294
B( 35-C , 36-C ) :   1.5082 B( 35-C , 59-H ) :   0.9293 B( 36-C , 37-C ) :   1.2949
B( 36-C , 60-H ) :   0.9162

FINAL SINGLE POINT ENERGY     -2064.332307010749

DIPOLE MOMENT
-------------

Method             : SCF
Type of density    : Electron Density
Multiplicity       :   1
Irrep              :   0
Energy             : -2064.3323070107489912 Eh
Relativity type    :
Basis              : AO
                                X                 Y                 Z
Electronic contribution:     -1.314655936       7.458230868      -9.468447000
Nuclear contribution   :      3.441618670      -7.524399219      10.689268889
                        -----------------------------------------
Total Dipole Moment    :      2.126962733      -0.066168350       1.220821889
                        -----------------------------------------
Magnitude (a.u.)       :      2.453315064
Magnitude (Debye)      :      6.235831324

Rotational constants in cm-1:             0.002873             0.002684             0.001630
Rotational constants in MHz :            86.140062            80.473727            48.860488

                             ****ORCA TERMINATED NORMALLY****
TOTAL RUN TIME: 0 days 0 hours 8 minutes 24 seconds 224 msec
