                         Program Version 6.0.0  -   RELEASE  -
|  1> ! B3LYP 6-31G* SP
|  2>
|  3> * xyz 0 1
|  4> C 4.0488 3.4065 -0.4471
|  5> O 3.0224 2.7173 0.2588
|  6> C 2.6102 1.4068 -0.0256
|  7> C 3.1934 0.6385 -1.0502
|  8> C 2.7498 -0.6642 -1.2906
|  9> C 1.7199 -1.2086 -0.5212
| 10> C 1.1207 -0.4525 0.4967
| 11> C -0.0217 -1.0242 1.3044
| 12> N -1.1993 -1.3525 0.4699
| 13> C -1.5436 -0.5532 -0.6844
| 14> O -1.9435 -1.1241 -1.7361
| 15> C -1.4191 0.9195 -0.6704
| 16> C -1.7419 1.6539 0.4830
| 17> C -1.5742 3.0416 0.5030
| 18> C -1.0912 3.7062 -0.6276
| 19> C -0.7867 2.9853 -1.7853
| 20> C -0.9573 1.5984 -1.8108
| 21> C -2.0780 -2.4907 0.8162
| 22> C -2.4263 -2.5053 2.3098
| 23> C -1.4785 -3.8088 0.3946
| 24> N -2.3280 -4.8996 0.0386
| 25> O -0.2291 -3.9749 0.3949
| 26> C 1.5807 0.8533 0.7441
| 27> H 4.1864 4.4115 0.0023
| 28> H 3.7635 3.5258 -1.5145
| 29> H 5.0078 2.8513 -0.3668
| 30> H 3.9894 1.0368 -1.6643
| 31> H 3.2020 -1.2509 -2.0800
| 32> H 1.3810 -2.2146 -0.7297
| 33> H -0.3312 -0.3189 2.1039
| 34> H 0.3538 -1.9331 1.8182
| 35> H -2.1206 1.1553 1.3660
| 36> H -1.8204 3.6023 1.3967
| 37> H -0.9507 4.7776 -0.6076
| 38> H -0.4178 3.4998 -2.6628
| 39> H -0.7022 1.0521 -2.7103
| 40> H -3.0459 -2.3754 0.2772
| 41> H -1.5414 -2.7604 2.9314
| 42> H -2.8105 -1.5097 2.6178
| 43> H -3.2169 -3.2606 2.5063
| 44> H -3.3648 -4.7875 0.0295
| 45> H -1.9163 -5.8221 -0.2265
| 46> H 1.1273 1.4521 1.5254
| 47> *
| 48>
| 49>                          ****END OF INPUT****

CARTESIAN COORDINATES (ANGSTROEM)
---------------------------------
  C      4.048800    3.406500   -0.447100
  O      3.022400    2.717300    0.258800
  C      2.610200    1.406800   -0.025600
  C      3.193400    0.638500   -1.050200
  C      2.749800   -0.664200   -1.290600
  C      1.719900   -1.208600   -0.521200
  C      1.120700   -0.452500    0.496700
  C     -0.021700   -1.024200    1.304400
  N     -1.199300   -1.352500    0.469900
  C     -1.543600   -0.553200   -0.684400
  O     -1.943500   -1.124100   -1.736100
  C     -1.419100    0.919500   -0.670400
  C     -1.741900    1.653900    0.483000
  C     -1.574200    3.041600    0.503000
  C     -1.091200    3.706200   -0.627600
  C     -0.786700    2.985300   -1.785300
  C     -0.957300    1.598400   -1.810800
  C     -2.078000   -2.490700    0.816200
  C     -2.426300   -2.505300    2.309800
  C     -1.478500   -3.808800    0.394600
  N     -2.328000   -4.899600    0.038600
  O     -0.229100   -3.974900    0.394900
  C      1.580700    0.853300    0.744100
  H      4.186400    4.411500    0.002300
  H      3.763500    3.525800   -1.514500
  H      5.007800    2.851300   -0.366800
  H      3.989400    1.036800   -1.664300
  H      3.202000   -1.250900   -2.080000
  H      1.381000   -2.214600   -0.729700
  H     -0.331200   -0.318900    2.103900
  H      0.353800   -1.933100    1.818200
  H     -2.120600    1.155300    1.366000
  H     -1.820400    3.602300    1.396700
  H     -0.950700    4.777600   -0.607600
  H     -0.417800    3.499800   -2.662800
  H     -0.702200    1.052100   -2.710300
  H     -3.045900   -2.375400    0.277200
  H     -1.541400   -2.760400    2.931400
  H     -2.810500   -1.509700    2.617800
  H     -3.216900   -3.260600    2.506300
  H     -3.364800   -4.787500    0.029500
  H     -1.916300   -5.822100   -0.226500
  H      1.127300    1.452100    1.525400

 Total Charge           Charge          ....    0
 Multiplicity           Mult            ....    1
 Number of Electrons    NEL             ....  166
 Basis Dimension        Dim             ....  362

ORBITAL ENERGIES
----------------

  NO   OCC          E(Eh)            E(eV)
   0   2.0000     -19.153624      -521.1966
   1   2.0000     -19.106646      -519.9183
   2   2.0000     -19.105929      -519.8988
   3   2.0000     -14.353171      -390.5696
   4   2.0000     -14.341728      -390.2583
   5   2.0000     -10.287206      -279.9291
   6   2.0000     -10.279242      -279.7124
   7   2.0000     -10.234678      -278.4998
   8   2.0000     -10.233189      -278.4592
   9   2.0000     -10.230119      -278.3757
  10   2.0000     -10.209825      -277.8235
  11   2.0000     -10.190182      -277.2889
  12   2.0000     -10.188970      -277.2560
  13   2.0000     -10.185933      -277.1733
  14   2.0000     -10.184210      -277.1265
  15   2.0000     -10.182887      -277.0904
  16   2.0000     -10.181857      -277.0624
  17   2.0000     -10.180898      -277.0363
  18   2.0000     -10.180018      -277.0124
  19   2.0000     -10.169193      -276.7178
  20   2.0000     -10.167885      -276.6822
  21   2.0000     -10.167018      -276.6586
  22   2.0000     -10.156925      -276.3840
  23   2.0000      -1.031745       -28.0752
  24   2.0000      -1.009303       -27.4645
  25   2.0000      -1.000313       -27.2199
  26   2.0000      -0.908395       -24.7187
  27   2.0000      -0.876980       -23.8638
  28   2.0000      -0.850020       -23.1302
  29   2.0000      -0.835963       -22.7477
  30   2.0000      -0.779988       -21.2246
  31   2.0000      -0.754212       -20.5231
  32   2.0000      -0.742037       -20.1919
  33   2.0000      -0.739485       -20.1224
  34   2.0000      -0.738879       -20.1059
  35   2.0000      -0.678275       -18.4568
  36   2.0000      -0.677217       -18.4280
  37   2.0000      -0.653586       -17.7850
  38   2.0000      -0.623152       -16.9568
  39   2.0000      -0.602128       -16.3847
  40   2.0000      -0.589175       -16.0323
  41   2.0000      -0.575709       -15.6658
  42   2.0000      -0.567610       -15.4454
  43   2.0000      -0.538751       -14.6602
  44   2.0000      -0.522927       -14.2296
  45   2.0000      -0.518448       -14.1077
  46   2.0000      -0.497799       -13.5458
  47   2.0000      -0.489132       -13.3100
  48   2.0000      -0.472116       -12.8469
  49   2.0000      -0.468160       -12.7393
  50   2.0000      -0.466294       -12.6885
  51   2.0000      -0.463691       -12.6177
  52   2.0000      -0.451107       -12.2753
  53   2.0000      -0.448363       -12.2006
  54   2.0000      -0.439950       -11.9717
  55   2.0000      -0.427341       -11.6285
  56   2.0000      -0.422121       -11.4865
  57   2.0000      -0.418950       -11.4002
  58   2.0000      -0.418037       -11.3754
  59   2.0000      -0.403597       -10.9824
  60   2.0000      -0.400021       -10.8851
  61   2.0000      -0.399502       -10.8710
  62   2.0000      -0.393339       -10.7033
  63   2.0000      -0.379502       -10.3268
  64   2.0000      -0.371709       -10.1147
  65   2.0000      -0.367054        -9.9881
  66   2.0000      -0.357520        -9.7286
  67   2.0000      -0.353721        -9.6252
  68   2.0000      -0.349549        -9.5117
  69   2.0000      -0.343388        -9.3441
  70   2.0000      -0.341819        -9.3014
  71   2.0000      -0.335465        -9.1285
  72   2.0000      -0.331100        -9.0097
  73   2.0000      -0.303429        -8.2567
  74   2.0000      -0.298248        -8.1157
  75   2.0000      -0.257920        -7.0184
  76   2.0000      -0.256527        -6.9805
  77   2.0000      -0.249009        -6.7759
  78   2.0000      -0.246961        -6.7201
  79   2.0000      -0.235634        -6.4119
  80   2.0000      -0.230734        -6.2786
  81   2.0000      -0.216221        -5.8837
  82   2.0000      -0.202910        -5.5215
  83   0.0000      -0.035578        -0.9681
  84   0.0000       0.000762         0.0207
  85   0.0000       0.009937         0.2704
  86   0.0000       0.014441         0.3930
  87   0.0000       0.022626         0.6157

MULLIKEN ATOMIC CHARGES
-----------------------
   0 C :   -0.190856
   1 O :   -0.516288
   2 C :    0.372958
   3 C :   -0.206773
   4 C :   -0.127606
   5 C :   -0.168348
   6 C :    0.106921
   7 C :   -0.200096
   8 N :   -0.415419
   9 C :    0.439847
  10 O :   -0.464670
  11 C :    0.100474
  12 C :   -0.163978
  13 C :   -0.131996
  14 C :   -0.111096
  15 C :   -0.129626
  16 C :   -0.133841
  17 C :   -0.061071
  18 C :   -0.447641
  19 C :    0.601841
  20 N :   -0.766485
  21 O :   -0.482220
  22 C :   -0.215770
  23 H :    0.163346
  24 H :    0.142882
  25 H :    0.144163
  26 H :    0.123693
  27 H :    0.129341
  28 H :    0.166326
  29 H :    0.128931
  30 H :    0.188004
  31 H :    0.132127
  32 H :    0.129627
  33 H :    0.130948
  34 H :    0.131875
  35 H :    0.155973
  36 H :    0.157817
  37 H :    0.166733
  38 H :    0.159469
  39 H :    0.148829
  40 H :    0.331900
  41 H :    0.350674
  42 H :    0.129081
Sum of atomic charges:   -0.0000000

LOEWDIN ATOMIC CHARGES
----------------------
   0 C :   -0.198693
   1 O :   -0.197568
   2 C :    0.086276
   3 C :   -0.178594
   4 C :   -0.122961
   5 C :   -0.140639
   6 C :   -0.027150
   7 C :   -0.143422
   8 N :   -0.109592
   9 C :    0.149038
  10 O :   -0.268547
  11 C :   -0.044064
  12 C :   -0.118879
  13 C :   -0.131542
  14 C :   -0.114997
  15 C :   -0.126971
  16 C :   -0.089446
  17 C :   -0.073342
  18 C :   -0.352216
  19 C :    0.147792
  20 N :   -0.400669
  21 O :   -0.296567
  22 C :   -0.148646
  23 H :    0.132171
  24 H :    0.113998
  25 H :    0.114505
  26 H :    0.131099
  27 H :    0.132146
  28 H :    0.149428
  29 H :    0.109418
  30 H :    0.149869
  31 H :    0.132552
  32 H :    0.131879
  33 H :    0.132886
  34 H :    0.133437
  35 H :    0.147735
  36 H :    0.140476
  37 H :    0.134805
  38 H :    0.132119
  39 H :    0.130413
  40 H :    0.250383
  41 H :    0.264961
  42 H :    0.137119

  Mayer bond orders larger than 0.100000
B(  0-C ,  1-O ) :   0.9270 B(  0-C , 23-H ) :   0.9463 B(  0-C , 24-H ) :   0.9309
B(  0-C , 25-H ) :   0.9302 B(  1-O ,  2-C ) :   0.9068 B(  2-C ,  3-C ) :   1.3761
B(  2-C , 22-C ) :   1.3859 B(  3-C ,  4-C ) :   1.4290 B(  3-C , 26-H ) :   0.9206
B(  4-C ,  5-C ) :   1.4403 B(  4-C , 27-H ) :   0.9304 B(  5-C ,  6-C ) :   1.4286
B(  5-C , 28-H ) :   0.9049 B(  6-C ,  7-C ) :   0.9928 B(  6-C , 22-C ) :   1.4300
B(  7-C ,  8-N ) :   0.9133 B(  7-C , 29-H ) :   0.9185 B(  7-C , 30-H ) :   0.9062
B(  8-N ,  9-C ) :   1.0342 B(  8-N , 17-C ) :   0.9914 B(  9-C , 10-O ) :   1.8216
B(  9-C , 11-C ) :   0.9718 B( 11-C , 12-C ) :   1.3934 B( 11-C , 16-C ) :   1.4064
B( 12-C , 13-C ) :   1.4347 B( 12-C , 31-H ) :   0.9215 B( 13-C , 14-C ) :   1.4522
B( 13-C , 32-H ) :   0.9298 B( 14-C , 15-C ) :   1.4412 B( 14-C , 33-H ) :   0.9302
B( 15-C , 16-C ) :   1.4382 B( 15-C , 34-H ) :   0.9300 B( 16-C , 35-H ) :   0.9173
B( 17-C , 18-C ) :   0.9908 B( 17-C , 19-C ) :   0.9063 B( 17-C , 36-H ) :   0.9120
B( 18-C , 37-H ) :   0.9373 B( 18-C , 38-H ) :   0.9408 B( 18-C , 39-H ) :   0.9415
B( 19-C , 20-N ) :   1.0740 B( 19-C , 21-O ) :   1.8336 B( 20-N , 40-H ) :   0.8324
B( 20-N , 41-H ) :   0.8224 B( 22-C , 42-H ) :   0.9105

FINAL SINGLE POINT ENERGY     -1032.480342410284

DIPOLE MOMENT
-------------

Method             : SCF
Type of density    : Electron Density
Multiplicity       :   1
Irrep              :   0
Energy             : -1032.4803424102835834 Eh
Relativity type    :
Basis              : AO
                                X                 Y                 Z
Electronic contribution:     -2.034125410      -2.697133136      -4.800899818
Nuclear contribution   :      1.449950334       3.065761715       5.468413987
                        -----------------------------------------
Total Dipole Moment    :     -0.584175076       0.368628579       0.667514169
                        -----------------------------------------
Magnitude (a.u.)       :      0.960584569
Magnitude (Debye)      :      2.441611937

Rotational constants in cm-1:             0.013830             0.006236             0.005110
Rotational constants in MHz :           414.624333           186.941620           153.193308

                             ****ORCA TERMINATED NORMALLY****
TOTAL RUN TIME: 0 days 0 hours 3 minutes 50 seconds 758 msec
