                         Program Version 6.0.0  -   RELEASE  -
|  1> ! B3LYP 6-31G* SP
|  2>
|  3> * xyz 0 1
|  4> O 2.3447 2.5270 1.0074
|  5> C 1.7314 1.6366 0.3605
|  6> C 0.3542 1.8061 -0.2078
|  7> C -0.7120 2.1187 0.8544
|  8> C -2.0591 1.8713 0.2466
|  9> C -2.2993 0.9432 -0.7560
| 10> N -3.6169 0.8817 -1.0563
| 11> C -4.2111 1.7662 -0.2314
| 12> C -5.5729 2.0499 -0.1390
| 13> C -5.9846 2.9964 0.8175
| 14> C -5.0381 3.6278 1.6556
| 15> C -3.6696 3.3204 1.5454
| 16> C -3.2916 2.3843 0.5847
| 17> C -1.2235 0.0676 -1.3439
| 18> C -1.5070 -1.3729 -0.9730
| 19> C -1.8309 -2.3105 -1.9689
| 20> C -2.1004 -3.6391 -1.6267
| 21> C -2.0530 -4.0427 -0.2895
| 22> F -2.3147 -5.3317 0.0394
| 23> C -1.7377 -3.1171 0.7088
| 24> C -1.4680 -1.7878 0.3717
| 25> N 0.0942 0.5021 -0.8369
| 26> C 1.2914 -0.2707 -0.7457
| 27> O 1.4167 -1.4240 -1.2380
| 28> N 2.3097 0.3837 -0.0013
| 29> C 3.6006 -0.1332 0.3665
| 30> C 4.1303 0.1194 1.6415
| 31> C 5.3884 -0.3736 1.9927
| 32> C 6.1270 -1.1295 1.0801
| 33> C 5.6040 -1.4167 -0.1921
| 34> C 6.4213 -2.1872 -1.1986
| 35> F 7.2685 -3.0787 -0.5634
| 36> F 5.5973 -2.9049 -2.0483
| 37> F 7.1765 -1.3019 -1.9448
| 38> C 4.3478 -0.8940 -0.5484
| 39> H 0.3651 2.5983 -0.9883
| 40> H -0.5893 1.4534 1.7364
| 41> H -0.6239 3.1776 1.1784
| 42> H -4.0775 0.2571 -1.7553
| 43> H -6.2921 1.5562 -0.7797
| 44> H -7.0347 3.2397 0.9143
| 45> H -5.3683 4.3514 2.3895
| 46> H -2.9388 3.7956 2.1867
| 47> H -1.2309 0.1947 -2.4479
| 48> H -1.8745 -2.0150 -3.0097
| 49> H -2.3469 -4.3555 -2.3997
| 50> H -1.7026 -3.4285 1.7448
| 51> H -1.2260 -1.0815 1.1560
| 52> H 3.5656 0.6859 2.3701
| 53> H 5.7929 -0.1681 2.9755
| 54> H 7.1072 -1.4878 1.3685
| 55> H 3.9610 -1.0596 -1.5457
| 56> *
| 57>
| 58>                          ****END OF INPUT****

CARTESIAN COORDINATES (ANGSTROEM)
---------------------------------
  O      2.344700    2.527000    1.007400
  C      1.731400    1.636600    0.360500
  C      0.354200    1.806100   -0.207800
  C     -0.712000    2.118700    0.854400
  C     -2.059100    1.871300    0.246600
  C     -2.299300    0.943200   -0.756000
  N     -3.616900    0.881700   -1.056300
  C     -4.211100    1.766200   -0.231400
  C     -5.572900    2.049900   -0.139000
  C     -5.984600    2.996400    0.817500
  C     -5.038100    3.627800    1.655600
  C     -3.669600    3.320400    1.545400
  C     -3.291600    2.384300    0.584700
  C     -1.223500    0.067600   -1.343900
  C     -1.507000   -1.372900   -0.973000
  C     -1.830900   -2.310500   -1.968900
  C     -2.100400   -3.639100   -1.626700
  C     -2.053000   -4.042700   -0.289500
  F     -2.314700   -5.331700    0.039400
  C     -1.737700   -3.117100    0.708800
  C     -1.468000   -1.787800    0.371700
  N      0.094200    0.502100   -0.836900
  C      1.291400   -0.270700   -0.745700
  O      1.416700   -1.424000   -1.238000
  N      2.309700    0.383700   -0.001300
  C      3.600600   -0.133200    0.366500
  C      4.130300    0.119400    1.641500
  C      5.388400   -0.373600    1.992700
  C      6.127000   -1.129500    1.080100
  C      5.604000   -1.416700   -0.192100
  C      6.421300   -2.187200   -1.198600
  F      7.268500   -3.078700   -0.563400
  F      5.597300   -2.904900   -2.048300
  F      7.176500   -1.301900   -1.944800
  C      4.347800   -0.894000   -0.548400
  H      0.365100    2.598300   -0.988300
  H     -0.589300    1.453400    1.736400
  H     -0.623900    3.177600    1.178400
  H     -4.077500    0.257100   -1.755300
  H     -6.292100    1.556200   -0.779700
  H     -7.034700    3.239700    0.914300
  H     -5.368300    4.351400    2.389500
  H     -2.938800    3.795600    2.186700
  H     -1.230900    0.194700   -2.447900
  H     -1.874500   -2.015000   -3.009700
  H     -2.346900   -4.355500   -2.399700
  H     -1.702600   -3.428500    1.744800
  H     -1.226000   -1.081500    1.156000
  H      3.565600    0.685900    2.370100
  H      5.792900   -0.168100    2.975500
  H      7.107200   -1.487800    1.368500
  H      3.961000   -1.059600   -1.545700

 Total Charge           Charge          ....    0
 Multiplicity           Mult            ....    1
 Number of Electrons    NEL             ....  246
 Basis Dimension        Dim             ....  524

ORBITAL ENERGIES
----------------

  NO   OCC          E(Eh)            E(eV)
   0   2.0000     -24.716560      -672.5718
   1   2.0000     -24.714359      -672.5119
   2   2.0000     -24.712391      -672.4583
   3   2.0000     -24.699780      -672.1152
   4   2.0000     -19.142306      -520.8886
   5   2.0000     -19.122173      -520.3408
   6   2.0000     -14.408799      -392.0834
   7   2.0000     -14.389143      -391.5485
   8   2.0000     -14.379792      -391.2940
   9   2.0000     -10.431887      -283.8661
  10   2.0000     -10.333965      -281.2015
  11   2.0000     -10.317174      -280.7446
  12   2.0000     -10.272266      -279.5226
  13   2.0000     -10.259734      -279.1816
  14   2.0000     -10.254716      -279.0450
  15   2.0000     -10.253687      -279.0170
  16   2.0000     -10.227966      -278.3171
  17   2.0000     -10.215185      -277.9693
  18   2.0000     -10.213138      -277.9136
  19   2.0000     -10.208114      -277.7769
  20   2.0000     -10.206111      -277.7224
  21   2.0000     -10.204642      -277.6824
  22   2.0000     -10.203226      -277.6439
  23   2.0000     -10.202591      -277.6266
  24   2.0000     -10.199801      -277.5507
  25   2.0000     -10.198669      -277.5199
  26   2.0000     -10.198040      -277.5028
  27   2.0000     -10.194575      -277.4085
  28   2.0000     -10.194155      -277.3971
  29   2.0000     -10.184125      -277.1241
  30   2.0000     -10.180223      -277.0180
  31   2.0000     -10.179652      -277.0024
  32   2.0000     -10.178544      -276.9723
  33   2.0000     -10.177073      -276.9322
  34   2.0000     -10.173224      -276.8275
  35   2.0000      -1.275375       -34.7047
  36   2.0000      -1.213149       -33.0115
  37   2.0000      -1.200956       -32.6797
  38   2.0000      -1.199411       -32.6376
  39   2.0000      -1.063251       -28.9325
  40   2.0000      -1.025084       -27.8939
  41   2.0000      -1.010823       -27.5059
  42   2.0000      -0.965391       -26.2696
  43   2.0000      -0.943700       -25.6794
  44   2.0000      -0.873626       -23.7726
  45   2.0000      -0.864840       -23.5335
  46   2.0000      -0.846859       -23.0442
  47   2.0000      -0.817770       -22.2526
  48   2.0000      -0.812690       -22.1144
  49   2.0000      -0.784483       -21.3469
  50   2.0000      -0.766576       -20.8596
  51   2.0000      -0.762623       -20.7520
  52   2.0000      -0.758716       -20.6457
  53   2.0000      -0.740801       -20.1582
  54   2.0000      -0.730140       -19.8681
  55   2.0000      -0.696530       -18.9536
  56   2.0000      -0.688645       -18.7390
  57   2.0000      -0.683698       -18.6044
  58   2.0000      -0.652594       -17.7580
  59   2.0000      -0.631388       -17.1809
  60   2.0000      -0.628829       -17.1113
  61   2.0000      -0.621775       -16.9194
  62   2.0000      -0.611627       -16.6432
  63   2.0000      -0.605687       -16.4816
  64   2.0000      -0.590284       -16.0624
  65   2.0000      -0.583607       -15.8808
  66   2.0000      -0.571077       -15.5398
  67   2.0000      -0.566101       -15.4044
  68   2.0000      -0.561660       -15.2836
  69   2.0000      -0.551231       -14.9998
  70   2.0000      -0.544082       -14.8052
  71   2.0000      -0.539763       -14.6877
  72   2.0000      -0.523259       -14.2386
  73   2.0000      -0.509114       -13.8537
  74   2.0000      -0.505693       -13.7606
  75   2.0000      -0.498214       -13.5571
  76   2.0000      -0.495647       -13.4873
  77   2.0000      -0.485024       -13.1982
  78   2.0000      -0.478496       -13.0206
  79   2.0000      -0.477331       -12.9888
  80   2.0000      -0.456771       -12.4294
  81   2.0000      -0.456181       -12.4133
  82   2.0000      -0.454383       -12.3644
  83   2.0000      -0.453735       -12.3467
  84   2.0000      -0.447115       -12.1666
  85   2.0000      -0.446001       -12.1363
  86   2.0000      -0.442683       -12.0460
  87   2.0000      -0.442058       -12.0290
  88   2.0000      -0.438422       -11.9301
  89   2.0000      -0.434728       -11.8296
  90   2.0000      -0.433410       -11.7937
  91   2.0000      -0.430147       -11.7049
  92   2.0000      -0.422896       -11.5076
  93   2.0000      -0.417146       -11.3511
  94   2.0000      -0.413937       -11.2638
  95   2.0000      -0.408197       -11.1076
  96   2.0000      -0.403690       -10.9850
  97   2.0000      -0.402700       -10.9580
  98   2.0000      -0.398761       -10.8508
  99   2.0000      -0.394208       -10.7269
 100   2.0000      -0.392649       -10.6845
 101   2.0000      -0.388990       -10.5850
 102   2.0000      -0.380361       -10.3502
 103   2.0000      -0.375906       -10.2289
 104   2.0000      -0.370302       -10.0764
 105   2.0000      -0.369083       -10.0433
 106   2.0000      -0.360083        -9.7984
 107   2.0000      -0.357740        -9.7346
 108   2.0000      -0.350281        -9.5316
 109   2.0000      -0.346038        -9.4162
 110   2.0000      -0.342169        -9.3109
 111   2.0000      -0.334372        -9.0987
 112   2.0000      -0.304275        -8.2797
 113   2.0000      -0.286121        -7.7857
 114   2.0000      -0.280530        -7.6336
 115   2.0000      -0.267381        -7.2758
 116   2.0000      -0.264958        -7.2099
 117   2.0000      -0.261886        -7.1263
 118   2.0000      -0.258928        -7.0458
 119   2.0000      -0.247844        -6.7442
 120   2.0000      -0.237454        -6.4614
 121   2.0000      -0.224896        -6.1197
 122   2.0000      -0.202752        -5.5172
 123   0.0000      -0.039276        -1.0688
 124   0.0000      -0.025628        -0.6974
 125   0.0000      -0.020553        -0.5593
 126   0.0000      -0.017477        -0.4756
 127   0.0000      -0.015275        -0.4156

MULLIKEN ATOMIC CHARGES
-----------------------
   0 O :   -0.465018
   1 C :    0.531950
   2 C :   -0.039111
   3 C :   -0.333593
   4 C :    0.027208
   5 C :    0.242092
   6 N :   -0.698170
   7 C :    0.311447
   8 C :   -0.194807
   9 C :   -0.140492
  10 C :   -0.149127
  11 C :   -0.201912
  12 C :    0.097862
  13 C :   -0.061248
  14 C :    0.175310
  15 C :   -0.172983
  16 C :   -0.206830
  17 C :    0.413411
  18 F :   -0.316745
  19 C :   -0.202876
  20 C :   -0.149304
  21 N :   -0.511658
  22 C :    0.703880
  23 O :   -0.482426
  24 N :   -0.572810
  25 C :    0.293874
  26 C :   -0.127263
  27 C :   -0.139097
  28 C :   -0.151813
  29 C :   -0.027537
  30 C :    0.899426
  31 F :   -0.305515
  32 F :   -0.301183
  33 F :   -0.296509
  34 C :   -0.168941
  35 H :    0.192033
  36 H :    0.160348
  37 H :    0.172186
  38 H :    0.337750
  39 H :    0.119573
  40 H :    0.124242
  41 H :    0.122764
  42 H :    0.125329
  43 H :    0.156521
  44 H :    0.132808
  45 H :    0.146336
  46 H :    0.147893
  47 H :    0.138534
  48 H :    0.163514
  49 H :    0.147518
  50 H :    0.153625
  51 H :    0.179534
Sum of atomic charges:    0.0000000

LOEWDIN ATOMIC CHARGES
----------------------
   0 O :   -0.254904
   1 C :    0.151255
   2 C :   -0.061374
   3 C :   -0.209039
   4 C :   -0.088120
   5 C :   -0.004080
   6 N :   -0.109424
   7 C :    0.012255
   8 C :   -0.152948
   9 C :   -0.139630
  10 C :   -0.142220
  11 C :   -0.135828
  12 C :   -0.043191
  13 C :   -0.032146
  14 C :   -0.022601
  15 C :   -0.124890
  16 C :   -0.153485
  17 C :    0.119948
  18 F :   -0.102986
  19 C :   -0.149948
  20 C :   -0.110530
  21 N :   -0.100223
  22 C :    0.162514
  23 O :   -0.286022
  24 N :   -0.038205
  25 C :    0.038428
  26 C :   -0.107907
  27 C :   -0.123225
  28 C :   -0.110589
  29 C :   -0.067206
  30 C :    0.312026
  31 F :   -0.112757
  32 F :   -0.110215
  33 F :   -0.113670
  34 C :   -0.101624
  35 H :    0.151254
  36 H :    0.134627
  37 H :    0.145221
  38 H :    0.271810
  39 H :    0.128605
  40 H :    0.130935
  41 H :    0.129412
  42 H :    0.131860
  43 H :    0.131795
  44 H :    0.133811
  45 H :    0.144356
  46 H :    0.145048
  47 H :    0.136744
  48 H :    0.151260
  49 H :    0.141866
  50 H :    0.144409
  51 H :    0.159549

  Mayer bond orders larger than 0.100000
B(  0-O ,  1-C ) :   1.8479 B(  1-C ,  2-C ) :   0.9329 B(  1-C , 24-N ) :   1.0294
B(  2-C ,  3-C ) :   0.9707 B(  2-C , 21-N ) :   0.9241 B(  2-C , 35-H ) :   0.8972
B(  3-C ,  4-C ) :   0.9768 B(  3-C , 36-H ) :   0.9201 B(  3-C , 37-H ) :   0.9153
B(  4-C ,  5-C ) :   1.5137 B(  4-C , 12-C ) :   1.2778 B(  5-C ,  6-N ) :   1.0402
B(  5-C , 13-C ) :   0.9672 B(  6-N ,  7-C ) :   0.9969 B(  6-N , 38-H ) :   0.8313
B(  7-C ,  8-C ) :   1.3564 B(  7-C , 12-C ) :   1.3087 B(  8-C ,  9-C ) :   1.4741
B(  8-C , 11-C ) :   0.1032 B(  8-C , 39-H ) :   0.9230 B(  9-C , 10-C ) :   1.3854
B(  9-C , 40-H ) :   0.9314 B( 10-C , 11-C ) :   1.4652 B( 10-C , 41-H ) :   0.9314
B( 11-C , 12-C ) :   1.3493 B( 11-C , 42-H ) :   0.9241 B( 13-C , 14-C ) :   0.9683
B( 13-C , 21-N ) :   0.8804 B( 13-C , 43-H ) :   0.9075 B( 14-C , 15-C ) :   1.4201
B( 14-C , 20-C ) :   1.4037 B( 15-C , 16-C ) :   1.4095 B( 15-C , 44-H ) :   0.9245
B( 16-C , 17-C ) :   1.4011 B( 16-C , 45-H ) :   0.9202 B( 17-C , 18-F ) :   0.9197
B( 17-C , 19-C ) :   1.3826 B( 19-C , 20-C ) :   1.4356 B( 19-C , 46-H ) :   0.9204
B( 20-C , 47-H ) :   0.9186 B( 21-N , 22-C ) :   1.0492 B( 22-C , 23-O ) :   1.8225
B( 22-C , 24-N ) :   0.9497 B( 24-N , 25-C ) :   0.8411 B( 25-C , 26-C ) :   1.4235
B( 25-C , 34-C ) :   1.4061 B( 26-C , 27-C ) :   1.4375 B( 26-C , 48-H ) :   0.9112
B( 27-C , 28-C ) :   1.4340 B( 27-C , 49-H ) :   0.9269 B( 28-C , 29-C ) :   1.4118
B( 28-C , 50-H ) :   0.9201 B( 29-C , 30-C ) :   0.9767 B( 29-C , 34-C ) :   1.3944
B( 30-C , 31-F ) :   0.9468 B( 30-C , 32-F ) :   0.9526 B( 30-C , 33-F ) :   0.9867
B( 34-C , 51-H ) :   0.8998

FINAL SINGLE POINT ENERGY     -1714.142424102190

DIPOLE MOMENT
-------------

Method             : SCF
Type of density    : Electron Density
Multiplicity       :   1
Irrep              :   0
Energy             : -1714.1424241021900343 Eh
Relativity type    :
Basis              : AO
                                X                 Y                 Z
Electronic contribution:     35.990988665     -22.537803689     -11.169091576
Nuclear contribution   :    -37.583301068      23.185312565      11.175897442
                        -----------------------------------------
Total Dipole Moment    :     -1.592312403       0.647508876       0.006805867
                        -----------------------------------------
Magnitude (a.u.)       :      1.718945273
Magnitude (Debye)      :      4.369211657

Rotational constants in cm-1:             0.006388             0.002001             0.001659
Rotational constants in MHz :           191.503319            60.002011            49.732221

                             ****ORCA TERMINATED NORMALLY****
TOTAL RUN TIME: 0 days 0 hours 10 minutes 33 seconds 458 msec
