                         Program Version 6.0.0  -   RELEASE  -
|  1> ! B3LYP 6-31G* SP
|  2>
|  3> * xyz 0 1
|  4> C 7.9807 0.2237 -1.4797
|  5> C 6.8027 -0.5844 -1.9372
|  6> O 6.9331 -1.3053 -2.9639
|  7> C 5.5017 -0.5553 -1.2144
|  8> C 5.3236 0.2283 -0.0559
|  9> C 4.0995 0.2319 0.6205
| 10> C 3.0321 -0.5436 0.1513
| 11> S 1.4892 -0.5576 0.9968
| 12> O 1.4910 0.4400 2.1217
| 13> O 1.2623 -1.9298 1.5679
| 14> N 0.2166 -0.1570 -0.1144
| 15> C 0.2579 1.1058 -0.8518
| 16> C -0.8693 1.9944 -0.4026
| 17> C -2.1404 1.8747 -0.9850
| 18> C -3.2116 2.6335 -0.5040
| 19> C -3.0338 3.5179 0.5667
| 20> O -4.1470 4.2463 1.0177
| 21> C -4.1360 5.1859 2.0913
| 22> F -5.4124 5.6887 2.2595
| 23> F -3.2765 6.2319 1.7996
| 24> F -3.7443 4.5658 3.2662
| 25> C -1.7574 3.6385 1.1502
| 26> C -0.6874 2.8753 0.6726
| 27> C -0.7844 -1.1344 -0.4254
| 28> N -0.7081 -1.7821 -1.6173
| 29> C -1.6046 -2.7262 -1.9914
| 30> C -2.6545 -3.0752 -1.1387
| 31> C -3.5776 -4.0624 -1.5194
| 32> C -4.6241 -4.4122 -0.6650
| 33> C -4.7548 -3.7845 0.5734
| 34> C -3.8440 -2.7990 0.9648
| 35> C -2.7803 -2.4232 0.1138
| 36> C -1.8413 -1.4206 0.4728
| 37> C -1.9760 -0.6610 1.7745
| 38> C 3.1950 -1.3163 -1.0032
| 39> C 4.4185 -1.3247 -1.6805
| 40> H 8.8562 0.0462 -2.1410
| 41> H 7.7294 1.3050 -1.5110
| 42> H 8.2607 -0.0664 -0.4449
| 43> H 6.1261 0.8370 0.3369
| 44> H 3.9904 0.8372 1.5120
| 45> H 1.2297 1.6196 -0.6827
| 46> H 0.1872 0.9080 -1.9442
| 47> H -2.3050 1.1811 -1.7998
| 48> H -4.1884 2.5271 -0.9598
| 49> H -1.5811 4.3099 1.9774
| 50> H 0.2814 2.9639 1.1487
| 51> H -1.4907 -3.2081 -2.9541
| 52> H -3.4892 -4.5630 -2.4762
| 53> H -5.3342 -5.1735 -0.9623
| 54> H -5.5656 -4.0630 1.2350
| 55> H -3.9813 -2.3446 1.9359
| 56> H -2.9883 -0.2115 1.8440
| 57> H -1.2551 0.1732 1.8645
| 58> H -1.8120 -1.3489 2.6292
| 59> H 2.3752 -1.9178 -1.3766
| 60> H 4.5164 -1.9394 -2.5678
| 61> *
| 62>
| 63>                          ****END OF INPUT****

CARTESIAN COORDINATES (ANGSTROEM)
---------------------------------
  C      7.980700    0.223700   -1.479700
  C      6.802700   -0.584400   -1.937200
  O      6.933100   -1.305300   -2.963900
  C      5.501700   -0.555300   -1.214400
  C      5.323600    0.228300   -0.055900
  C      4.099500    0.231900    0.620500
  C      3.032100   -0.543600    0.151300
  S      1.489200   -0.557600    0.996800
  O      1.491000    0.440000    2.121700
  O      1.262300   -1.929800    1.567900
  N      0.216600   -0.157000   -0.114400
  C      0.257900    1.105800   -0.851800
  C     -0.869300    1.994400   -0.402600
  C     -2.140400    1.874700   -0.985000
  C     -3.211600    2.633500   -0.504000
  C     -3.033800    3.517900    0.566700
  O     -4.147000    4.246300    1.017700
  C     -4.136000    5.185900    2.091300
  F     -5.412400    5.688700    2.259500
  F     -3.276500    6.231900    1.799600
  F     -3.744300    4.565800    3.266200
  C     -1.757400    3.638500    1.150200
  C     -0.687400    2.875300    0.672600
  C     -0.784400   -1.134400   -0.425400
  N     -0.708100   -1.782100   -1.617300
  C     -1.604600   -2.726200   -1.991400
  C     -2.654500   -3.075200   -1.138700
  C     -3.577600   -4.062400   -1.519400
  C     -4.624100   -4.412200   -0.665000
  C     -4.754800   -3.784500    0.573400
  C     -3.844000   -2.799000    0.964800
  C     -2.780300   -2.423200    0.113800
  C     -1.841300   -1.420600    0.472800
  C     -1.976000   -0.661000    1.774500
  C      3.195000   -1.316300   -1.003200
  C      4.418500   -1.324700   -1.680500
  H      8.856200    0.046200   -2.141000
  H      7.729400    1.305000   -1.511000
  H      8.260700   -0.066400   -0.444900
  H      6.126100    0.837000    0.336900
  H      3.990400    0.837200    1.512000
  H      1.229700    1.619600   -0.682700
  H      0.187200    0.908000   -1.944200
  H     -2.305000    1.181100   -1.799800
  H     -4.188400    2.527100   -0.959800
  H     -1.581100    4.309900    1.977400
  H      0.281400    2.963900    1.148700
  H     -1.490700   -3.208100   -2.954100
  H     -3.489200   -4.563000   -2.476200
  H     -5.334200   -5.173500   -0.962300
  H     -5.565600   -4.063000    1.235000
  H     -3.981300   -2.344600    1.935900
  H     -2.988300   -0.211500    1.844000
  H     -1.255100    0.173200    1.864500
  H     -1.812000   -1.348900    2.629200
  H      2.375200   -1.917800   -1.376600
  H      4.516400   -1.939400   -2.567800

 Total Charge           Charge          ....    0
 Multiplicity           Mult            ....    1
 Number of Electrons    NEL             ....  266
 Basis Dimension        Dim             ....  550

ORBITAL ENERGIES
----------------

  NO   OCC          E(Eh)            E(eV)
   0   2.0000     -89.097717     -2424.4721
   1   2.0000     -24.740568      -673.2251
   2   2.0000     -24.737847      -673.1510
   3   2.0000     -24.737575      -673.1436
   4   2.0000     -19.212154      -522.7893
   5   2.0000     -19.139210      -520.8044
   6   2.0000     -19.126862      -520.4684
   7   2.0000     -19.125971      -520.4441
   8   2.0000     -14.370424      -391.0391
   9   2.0000     -14.333752      -390.0412
  10   2.0000     -10.503105      -285.8040
  11   2.0000     -10.283668      -279.8328
  12   2.0000     -10.267962      -279.4054
  13   2.0000     -10.257412      -279.1184
  14   2.0000     -10.240646      -278.6621
  15   2.0000     -10.234604      -278.4977
  16   2.0000     -10.225426      -278.2480
  17   2.0000     -10.220814      -278.1225
  18   2.0000     -10.219437      -278.0850
  19   2.0000     -10.217731      -278.0386
  20   2.0000     -10.216939      -278.0170
  21   2.0000     -10.211772      -277.8764
  22   2.0000     -10.208425      -277.7854
  23   2.0000     -10.205176      -277.6969
  24   2.0000     -10.200509      -277.5700
  25   2.0000     -10.197779      -277.4957
  26   2.0000     -10.197310      -277.4829
  27   2.0000     -10.196679      -277.4657
  28   2.0000     -10.196241      -277.4538
  29   2.0000     -10.196092      -277.4498
  30   2.0000     -10.195812      -277.4421
  31   2.0000     -10.195310      -277.4285
  32   2.0000     -10.195119      -277.4233
  33   2.0000     -10.194635      -277.4101
  34   2.0000     -10.192950      -277.3643
  35   2.0000     -10.170341      -276.7490
  36   2.0000      -8.133440      -221.3221
  37   2.0000      -6.098517      -165.9491
  38   2.0000      -6.096433      -165.8924
  39   2.0000      -6.096075      -165.8826
  40   2.0000      -1.302313       -35.4377
  41   2.0000      -1.223310       -33.2880
  42   2.0000      -1.222998       -33.2795
  43   2.0000      -1.084044       -29.4983
  44   2.0000      -1.081631       -29.4327
  45   2.0000      -1.022208       -27.8157
  46   2.0000      -0.964247       -26.2385
  47   2.0000      -0.961556       -26.1653
  48   2.0000      -0.914946       -24.8969
  49   2.0000      -0.887119       -24.1397
  50   2.0000      -0.865786       -23.5592
  51   2.0000      -0.861307       -23.4374
  52   2.0000      -0.808377       -21.9970
  53   2.0000      -0.803941       -21.8763
  54   2.0000      -0.785344       -21.3703
  55   2.0000      -0.774732       -21.0815
  56   2.0000      -0.773801       -21.0562
  57   2.0000      -0.757381       -20.6094
  58   2.0000      -0.751504       -20.4495
  59   2.0000      -0.741968       -20.1900
  60   2.0000      -0.723948       -19.6996
  61   2.0000      -0.702150       -19.1065
  62   2.0000      -0.689080       -18.7508
  63   2.0000      -0.673641       -18.3307
  64   2.0000      -0.644018       -17.5246
  65   2.0000      -0.640584       -17.4312
  66   2.0000      -0.632288       -17.2054
  67   2.0000      -0.631907       -17.1951
  68   2.0000      -0.620490       -16.8844
  69   2.0000      -0.598710       -16.2917
  70   2.0000      -0.594628       -16.1806
  71   2.0000      -0.593063       -16.1381
  72   2.0000      -0.590198       -16.0601
  73   2.0000      -0.572472       -15.5778
  74   2.0000      -0.570885       -15.5346
  75   2.0000      -0.554522       -15.0893
  76   2.0000      -0.534070       -14.5328
  77   2.0000      -0.519649       -14.1404
  78   2.0000      -0.502680       -13.6786
  79   2.0000      -0.499766       -13.5993
  80   2.0000      -0.496193       -13.5021
  81   2.0000      -0.490268       -13.3409
  82   2.0000      -0.481704       -13.1078
  83   2.0000      -0.474573       -12.9138
  84   2.0000      -0.471321       -12.8253
  85   2.0000      -0.469770       -12.7831
  86   2.0000      -0.468647       -12.7525
  87   2.0000      -0.468375       -12.7451
  88   2.0000      -0.458481       -12.4759
  89   2.0000      -0.453152       -12.3309
  90   2.0000      -0.450674       -12.2635
  91   2.0000      -0.448163       -12.1951
  92   2.0000      -0.446441       -12.1483
  93   2.0000      -0.445256       -12.1160
  94   2.0000      -0.444132       -12.0854
  95   2.0000      -0.434188       -11.8149
  96   2.0000      -0.430807       -11.7228
  97   2.0000      -0.429034       -11.6746
  98   2.0000      -0.428698       -11.6655
  99   2.0000      -0.424046       -11.5389
 100   2.0000      -0.419453       -11.4139
 101   2.0000      -0.415324       -11.3015
 102   2.0000      -0.415288       -11.3006
 103   2.0000      -0.409004       -11.1296
 104   2.0000      -0.405855       -11.0439
 105   2.0000      -0.401128       -10.9153
 106   2.0000      -0.397240       -10.8094
 107   2.0000      -0.392578       -10.6826
 108   2.0000      -0.386247       -10.5103
 109   2.0000      -0.383215       -10.4278
 110   2.0000      -0.377555       -10.2738
 111   2.0000      -0.375256       -10.2112
 112   2.0000      -0.368319       -10.0225
 113   2.0000      -0.365086        -9.9345
 114   2.0000      -0.357566        -9.7299
 115   2.0000      -0.353780        -9.6269
 116   2.0000      -0.349756        -9.5173
 117   2.0000      -0.346780        -9.4364
 118   2.0000      -0.345004        -9.3880
 119   2.0000      -0.325173        -8.8484
 120   2.0000      -0.307263        -8.3611
 121   2.0000      -0.303729        -8.2649
 122   2.0000      -0.288699        -7.8559
 123   2.0000      -0.281341        -7.6557
 124   2.0000      -0.278165        -7.5693
 125   2.0000      -0.274773        -7.4769
 126   2.0000      -0.267092        -7.2679
 127   2.0000      -0.260297        -7.0830
 128   2.0000      -0.256620        -6.9830
 129   2.0000      -0.255588        -6.9549
 130   2.0000      -0.252201        -6.8627
 131   2.0000      -0.237346        -6.4585
 132   2.0000      -0.222268        -6.0482
 133   0.0000      -0.085777        -2.3341
 134   0.0000      -0.060501        -1.6463
 135   0.0000      -0.035084        -0.9547
 136   0.0000      -0.029065        -0.7909
 137   0.0000      -0.012826        -0.3490

MULLIKEN ATOMIC CHARGES
-----------------------
   0 C :   -0.540483
   1 C :    0.378756
   2 O :   -0.425569
   3 C :    0.082774
   4 C :   -0.166314
   5 C :   -0.147654
   6 C :   -0.131614
   7 S :    1.213538
   8 O :   -0.554081
   9 O :   -0.534586
  10 N :   -0.614148
  11 C :   -0.248639
  12 C :    0.166439
  13 C :   -0.166843
  14 C :   -0.174349
  15 C :    0.352875
  16 O :   -0.546187
  17 C :    1.086495
  18 F :   -0.279489
  19 F :   -0.291781
  20 F :   -0.290909
  21 C :   -0.190393
  22 C :   -0.164555
  23 C :    0.315364
  24 N :   -0.406013
  25 C :   -0.057717
  26 C :    0.138332
  27 C :   -0.203993
  28 C :   -0.125371
  29 C :   -0.120820
  30 C :   -0.193974
  31 C :    0.117498
  32 C :    0.127671
  33 C :   -0.546731
  34 C :   -0.143119
  35 C :   -0.145572
  36 H :    0.190497
  37 H :    0.171293
  38 H :    0.172732
  39 H :    0.150762
  40 H :    0.185293
  41 H :    0.166427
  42 H :    0.175790
  43 H :    0.145768
  44 H :    0.147935
  45 H :    0.155084
  46 H :    0.157488
  47 H :    0.150731
  48 H :    0.138087
  49 H :    0.136588
  50 H :    0.139010
  51 H :    0.145284
  52 H :    0.154561
  53 H :    0.200050
  54 H :    0.177468
  55 H :    0.191935
  56 H :    0.178379
Sum of atomic charges:    0.0000000

LOEWDIN ATOMIC CHARGES
----------------------
   0 C :   -0.382352
   1 C :    0.134549
   2 O :   -0.228064
   3 C :   -0.042348
   4 C :   -0.113622
   5 C :   -0.105313
   6 C :   -0.177845
   7 S :    1.261308
   8 O :   -0.582154
   9 O :   -0.566335
  10 N :   -0.280618
  11 C :   -0.146027
  12 C :   -0.039285
  13 C :   -0.122273
  14 C :   -0.142975
  15 C :    0.086657
  16 O :   -0.160820
  17 C :    0.361447
  18 F :   -0.088102
  19 F :   -0.105861
  20 F :   -0.105228
  21 C :   -0.157936
  22 C :   -0.113420
  23 C :    0.025110
  24 N :   -0.140702
  25 C :   -0.064269
  26 C :   -0.027654
  27 C :   -0.113244
  28 C :   -0.124620
  29 C :   -0.117108
  30 C :   -0.117909
  31 C :   -0.006087
  32 C :    0.008317
  33 C :   -0.363609
  34 C :   -0.101245
  35 C :   -0.086279
  36 H :    0.154133
  37 H :    0.146673
  38 H :    0.146961
  39 H :    0.144050
  40 H :    0.160545
  41 H :    0.139854
  42 H :    0.137290
  43 H :    0.140540
  44 H :    0.144752
  45 H :    0.143267
  46 H :    0.145702
  47 H :    0.136121
  48 H :    0.136607
  49 H :    0.135699
  50 H :    0.137152
  51 H :    0.142076
  52 H :    0.133652
  53 H :    0.153935
  54 H :    0.146847
  55 H :    0.161389
  56 H :    0.158675

  Mayer bond orders larger than 0.100000
B(  0-C ,  1-C ) :   0.9878 B(  0-C , 36-H ) :   0.9373 B(  0-C , 37-H ) :   0.9245
B(  0-C , 38-H ) :   0.9241 B(  1-C ,  2-O ) :   1.8887 B(  1-C ,  3-C ) :   0.9890
B(  3-C ,  4-C ) :   1.3889 B(  3-C , 35-C ) :   1.3834 B(  4-C ,  5-C ) :   1.4213
B(  4-C , 39-H ) :   0.9170 B(  5-C ,  6-C ) :   1.4047 B(  5-C , 40-H ) :   0.9081
B(  6-C ,  7-S ) :   0.8112 B(  6-C , 34-C ) :   1.3739 B(  7-S ,  8-O ) :   1.6130
B(  7-S ,  9-O ) :   1.6658 B(  7-S , 10-N ) :   0.7987 B( 10-N , 11-C ) :   0.9234
B( 10-N , 23-C ) :   0.8909 B( 11-C , 12-C ) :   0.9516 B( 11-C , 41-H ) :   0.9228
B( 11-C , 42-H ) :   0.9187 B( 12-C , 13-C ) :   1.4332 B( 12-C , 22-C ) :   1.4314
B( 13-C , 14-C ) :   1.4325 B( 13-C , 43-H ) :   0.9199 B( 14-C , 15-C ) :   1.4197
B( 14-C , 44-H ) :   0.9184 B( 15-C , 16-O ) :   0.8235 B( 15-C , 21-C ) :   1.3891
B( 16-O , 17-C ) :   0.9905 B( 17-C , 18-F ) :   1.0072 B( 17-C , 19-F ) :   0.9686
B( 17-C , 20-F ) :   0.9679 B( 21-C , 22-C ) :   1.4331 B( 21-C , 45-H ) :   0.9092
B( 22-C , 46-H ) :   0.9144 B( 23-C , 24-N ) :   1.2749 B( 23-C , 32-C ) :   1.4327
B( 24-N , 25-C ) :   1.4927 B( 25-C , 26-C ) :   1.2412 B( 25-C , 47-H ) :   0.9266
B( 26-C , 27-C ) :   1.2834 B( 26-C , 31-C ) :   1.2914 B( 27-C , 28-C ) :   1.5121
B( 27-C , 30-C ) :   0.1061 B( 27-C , 48-H ) :   0.9236 B( 28-C , 29-C ) :   1.3532
B( 28-C , 49-H ) :   0.9292 B( 29-C , 30-C ) :   1.5068 B( 29-C , 50-H ) :   0.9289
B( 30-C , 31-C ) :   1.2971 B( 30-C , 51-H ) :   0.9150 B( 31-C , 32-C ) :   1.2608
B( 32-C , 33-C ) :   1.0103 B( 33-C , 52-H ) :   0.9263 B( 33-C , 53-H ) :   0.9139
B( 33-C , 54-H ) :   0.9210 B( 34-C , 35-C ) :   1.4341 B( 34-C , 55-H ) :   0.9017
B( 35-C , 56-H ) :   0.9094

FINAL SINGLE POINT ENERGY     -2110.413080687265

DIPOLE MOMENT
-------------

Method             : SCF
Type of density    : Electron Density
Multiplicity       :   1
Irrep              :   0
Energy             : -2110.4130806872653920 Eh
Relativity type    :
Basis              : AO
                                X                 Y                 Z
Electronic contribution:    -25.468209794      29.494091485      13.951163627
Nuclear contribution   :     25.178958039     -29.314607087     -14.736901860
                        -----------------------------------------
Total Dipole Moment    :     -0.289251755       0.179484398      -0.785738233
                        -----------------------------------------
Magnitude (a.u.)       :      0.856309405
Magnitude (Debye)      :      2.176565534

Rotational constants in cm-1:             0.003891             0.001952             0.001431
Rotational constants in MHz :           116.646264            58.517086            42.912096

                             ****ORCA TERMINATED NORMALLY****
TOTAL RUN TIME: 0 days 0 hours 9 minutes 55 seconds 838 msec
