                         Program Version 6.0.0  -   RELEASE  -
|  1> ! B3LYP 6-31G* SP
|  2>
|  3> * xyz 0 1
|  4> C 1.9393 -1.5548 -3.2630
|  5> C 0.9096 -1.2264 -2.1800
|  6> C 1.5016 -0.3347 -1.0609
|  7> C 2.6660 -0.9611 -0.3045
|  8> C 3.7485 -0.1481 0.0819
|  9> C 4.8140 -0.6813 0.8132
| 10> C 4.8082 -2.0288 1.1774
| 11> C 3.7349 -2.8446 0.8154
| 12> C 2.6664 -2.3170 0.0845
| 13> N 0.4572 0.1229 -0.1199
| 14> C 0.3838 1.5390 0.1497
| 15> O 1.3408 2.1007 0.7496
| 16> C -0.7763 2.3488 -0.2878
| 17> C -1.0736 3.5623 0.3578
| 18> C -2.1925 4.3102 -0.0218
| 19> C -3.0142 3.8639 -1.0590
| 20> C -2.7176 2.6702 -1.7197
| 21> C -1.6021 1.9178 -1.3408
| 22> C -0.2753 -0.8369 0.7427
| 23> C 0.3563 -0.9672 2.1123
| 24> N 0.0604 -2.1026 2.9284
| 25> O 1.1248 -0.0724 2.5566
| 26> C -1.7522 -0.4949 0.8297
| 27> C -2.6426 -1.0362 -0.1161
| 28> C -3.9938 -0.6782 -0.1043
| 29> C -4.4709 0.2288 0.8454
| 30> C -3.5968 0.7802 1.7852
| 31> C -2.2452 0.4236 1.7802
| 32> H 1.4612 -2.1622 -4.0597
| 33> H 2.7815 -2.1391 -2.8375
| 34> H 2.3352 -0.6208 -3.7167
| 35> H 0.0699 -0.6842 -2.6627
| 36> H 0.4943 -2.1742 -1.7856
| 37> H 1.8977 0.5589 -1.5989
| 38> H 3.7687 0.9019 -0.1829
| 39> H 5.6433 -0.0479 1.1013
| 40> H 5.6336 -2.4398 1.7451
| 41> H 3.7282 -3.8873 1.1046
| 42> H 1.8473 -2.9735 -0.1688
| 43> H -0.4591 3.9166 1.1782
| 44> H -2.4220 5.2366 0.4892
| 45> H -3.8807 4.4429 -1.3510
| 46> H -3.3538 2.3253 -2.5253
| 47> H -1.3956 0.9950 -1.8624
| 48> H -0.2040 -1.8501 0.2989
| 49> H 0.4992 -2.2038 3.8707
| 50> H -0.5888 -2.8467 2.5894
| 51> H -2.2858 -1.7235 -0.8750
| 52> H -4.6696 -1.0965 -0.8392
| 53> H -5.5155 0.5106 0.8468
| 54> H -3.9636 1.4954 2.5094
| 55> H -1.5804 0.8834 2.5001
| 56> *
| 57>
| 58>                          ****END OF INPUT****

CARTESIAN COORDINATES (ANGSTROEM)
---------------------------------
  C      1.939300   -1.554800   -3.263000
  C      0.909600   -1.226400   -2.180000
  C      1.501600   -0.334700   -1.060900
  C      2.666000   -0.961100   -0.304500
  C      3.748500   -0.148100    0.081900
  C      4.814000   -0.681300    0.813200
  C      4.808200   -2.028800    1.177400
  C      3.734900   -2.844600    0.815400
  C      2.666400   -2.317000    0.084500
  N      0.457200    0.122900   -0.119900
  C      0.383800    1.539000    0.149700
  O      1.340800    2.100700    0.749600
  C     -0.776300    2.348800   -0.287800
  C     -1.073600    3.562300    0.357800
  C     -2.192500    4.310200   -0.021800
  C     -3.014200    3.863900   -1.059000
  C     -2.717600    2.670200   -1.719700
  C     -1.602100    1.917800   -1.340800
  C     -0.275300   -0.836900    0.742700
  C      0.356300   -0.967200    2.112300
  N      0.060400   -2.102600    2.928400
  O      1.124800   -0.072400    2.556600
  C     -1.752200   -0.494900    0.829700
  C     -2.642600   -1.036200   -0.116100
  C     -3.993800   -0.678200   -0.104300
  C     -4.470900    0.228800    0.845400
  C     -3.596800    0.780200    1.785200
  C     -2.245200    0.423600    1.780200
  H      1.461200   -2.162200   -4.059700
  H      2.781500   -2.139100   -2.837500
  H      2.335200   -0.620800   -3.716700
  H      0.069900   -0.684200   -2.662700
  H      0.494300   -2.174200   -1.785600
  H      1.897700    0.558900   -1.598900
  H      3.768700    0.901900   -0.182900
  H      5.643300   -0.047900    1.101300
  H      5.633600   -2.439800    1.745100
  H      3.728200   -3.887300    1.104600
  H      1.847300   -2.973500   -0.168800
  H     -0.459100    3.916600    1.178200
  H     -2.422000    5.236600    0.489200
  H     -3.880700    4.442900   -1.351000
  H     -3.353800    2.325300   -2.525300
  H     -1.395600    0.995000   -1.862400
  H     -0.204000   -1.850100    0.298900
  H      0.499200   -2.203800    3.870700
  H     -0.588800   -2.846700    2.589400
  H     -2.285800   -1.723500   -0.875000
  H     -4.669600   -1.096500   -0.839200
  H     -5.515500    0.510600    0.846800
  H     -3.963600    1.495400    2.509400
  H     -1.580400    0.883400    2.500100

 Total Charge           Charge          ....    0
 Multiplicity           Mult            ....    1
 Number of Electrons    NEL             ....  198
 Basis Dimension        Dim             ....  440

ORBITAL ENERGIES
----------------

  NO   OCC          E(Eh)            E(eV)
   0   2.0000     -19.111967      -520.0631
   1   2.0000     -19.095157      -519.6056
   2   2.0000     -14.344892      -390.3443
   3   2.0000     -14.324438      -389.7878
   4   2.0000     -10.278865      -279.7021
   5   2.0000     -10.277392      -279.6620
   6   2.0000     -10.234963      -278.5075
   7   2.0000     -10.218153      -278.0501
   8   2.0000     -10.196825      -277.4697
   9   2.0000     -10.188594      -277.2457
  10   2.0000     -10.186510      -277.1890
  11   2.0000     -10.184849      -277.1438
  12   2.0000     -10.184597      -277.1370
  13   2.0000     -10.183524      -277.1078
  14   2.0000     -10.183384      -277.1040
  15   2.0000     -10.182737      -277.0864
  16   2.0000     -10.182297      -277.0744
  17   2.0000     -10.181444      -277.0512
  18   2.0000     -10.181230      -277.0454
  19   2.0000     -10.180514      -277.0259
  20   2.0000     -10.179093      -276.9872
  21   2.0000     -10.175721      -276.8954
  22   2.0000     -10.170797      -276.7614
  23   2.0000     -10.169628      -276.7297
  24   2.0000     -10.168054      -276.6868
  25   2.0000     -10.166813      -276.6530
  26   2.0000     -10.165848      -276.6268
  27   2.0000     -10.163712      -276.5687
  28   2.0000      -1.006634       -27.3919
  29   2.0000      -0.992585       -27.0096
  30   2.0000      -0.907765       -24.7016
  31   2.0000      -0.868919       -23.6445
  32   2.0000      -0.852430       -23.1958
  33   2.0000      -0.848595       -23.0915
  34   2.0000      -0.834372       -22.7044
  35   2.0000      -0.789301       -21.4780
  36   2.0000      -0.764604       -20.8059
  37   2.0000      -0.751422       -20.4472
  38   2.0000      -0.744333       -20.2543
  39   2.0000      -0.740353       -20.1460
  40   2.0000      -0.730728       -19.8841
  41   2.0000      -0.727506       -19.7964
  42   2.0000      -0.701872       -19.0989
  43   2.0000      -0.665269       -18.1029
  44   2.0000      -0.621854       -16.9215
  45   2.0000      -0.609535       -16.5863
  46   2.0000      -0.602016       -16.3817
  47   2.0000      -0.600877       -16.3507
  48   2.0000      -0.596487       -16.2312
  49   2.0000      -0.586575       -15.9615
  50   2.0000      -0.570922       -15.5356
  51   2.0000      -0.561273       -15.2730
  52   2.0000      -0.536970       -14.6117
  53   2.0000      -0.520178       -14.1548
  54   2.0000      -0.518168       -14.1001
  55   2.0000      -0.505070       -13.7437
  56   2.0000      -0.493728       -13.4350
  57   2.0000      -0.485642       -13.2150
  58   2.0000      -0.474059       -12.8998
  59   2.0000      -0.465843       -12.6762
  60   2.0000      -0.454537       -12.3686
  61   2.0000      -0.453034       -12.3277
  62   2.0000      -0.446215       -12.1421
  63   2.0000      -0.440041       -11.9741
  64   2.0000      -0.434752       -11.8302
  65   2.0000      -0.432584       -11.7712
  66   2.0000      -0.427234       -11.6256
  67   2.0000      -0.422078       -11.4853
  68   2.0000      -0.417003       -11.3472
  69   2.0000      -0.415283       -11.3004
  70   2.0000      -0.404656       -11.0112
  71   2.0000      -0.403789       -10.9876
  72   2.0000      -0.400686       -10.9032
  73   2.0000      -0.383416       -10.4333
  74   2.0000      -0.380363       -10.3502
  75   2.0000      -0.376654       -10.2493
  76   2.0000      -0.365416        -9.9435
  77   2.0000      -0.357819        -9.7367
  78   2.0000      -0.357430        -9.7262
  79   2.0000      -0.353411        -9.6168
  80   2.0000      -0.346682        -9.4337
  81   2.0000      -0.343567        -9.3489
  82   2.0000      -0.343185        -9.3385
  83   2.0000      -0.340400        -9.2627
  84   2.0000      -0.338692        -9.2163
  85   2.0000      -0.332790        -9.0557
  86   2.0000      -0.328262        -8.9325
  87   2.0000      -0.321990        -8.7618
  88   2.0000      -0.316350        -8.6083
  89   2.0000      -0.260914        -7.0998
  90   2.0000      -0.255505        -6.9527
  91   2.0000      -0.252966        -6.8836
  92   2.0000      -0.246170        -6.6986
  93   2.0000      -0.241944        -6.5836
  94   2.0000      -0.238468        -6.4891
  95   2.0000      -0.233538        -6.3549
  96   2.0000      -0.228911        -6.2290
  97   2.0000      -0.221913        -6.0385
  98   2.0000      -0.200815        -5.4645
  99   0.0000      -0.046936        -1.2772
 100   0.0000      -0.010537        -0.2867
 101   0.0000      -0.005265        -0.1433
 102   0.0000       0.006819         0.1855
 103   0.0000       0.010905         0.2967

MULLIKEN ATOMIC CHARGES
-----------------------
   0 C :   -0.442924
   1 C :   -0.262404
   2 C :   -0.062296
   3 C :    0.183681
   4 C :   -0.148156
   5 C :   -0.123194
   6 C :   -0.124062
   7 C :   -0.125938
   8 C :   -0.185302
   9 N :   -0.423796
  10 C :    0.426799
  11 O :   -0.409427
  12 C :    0.109052
  13 C :   -0.152647
  14 C :   -0.133948
  15 C :   -0.116072
  16 C :   -0.128922
  17 C :   -0.151729
  18 C :   -0.148970
  19 C :    0.585935
  20 N :   -0.771629
  21 O :   -0.460616
  22 C :    0.140176
  23 C :   -0.180467
  24 C :   -0.127027
  25 C :   -0.120164
  26 C :   -0.120845
  27 C :   -0.170443
  28 H :    0.139055
  29 H :    0.159879
  30 H :    0.142454
  31 H :    0.139471
  32 H :    0.125510
  33 H :    0.147636
  34 H :    0.139981
  35 H :    0.126734
  36 H :    0.120676
  37 H :    0.117955
  38 H :    0.109125
  39 H :    0.157785
  40 H :    0.131561
  41 H :    0.129252
  42 H :    0.126869
  43 H :    0.142251
  44 H :    0.140935
  45 H :    0.349076
  46 H :    0.324954
  47 H :    0.124003
  48 H :    0.127070
  49 H :    0.127897
  50 H :    0.133506
  51 H :    0.161697
Sum of atomic charges:   -0.0000000

LOEWDIN ATOMIC CHARGES
----------------------
   0 C :   -0.361464
   1 C :   -0.235789
   2 C :   -0.041327
   3 C :   -0.017943
   4 C :   -0.110344
   5 C :   -0.123152
   6 C :   -0.131873
   7 C :   -0.131580
   8 C :   -0.146228
   9 N :   -0.127040
  10 C :    0.152615
  11 O :   -0.212660
  12 C :   -0.050968
  13 C :   -0.095555
  14 C :   -0.132980
  15 C :   -0.116066
  16 C :   -0.130886
  17 C :   -0.104826
  18 C :   -0.064685
  19 C :    0.131711
  20 N :   -0.408573
  21 O :   -0.268331
  22 C :   -0.024449
  23 C :   -0.132645
  24 C :   -0.130778
  25 C :   -0.125135
  26 C :   -0.121468
  27 C :   -0.122955
  28 H :    0.123811
  29 H :    0.131054
  30 H :    0.122543
  31 H :    0.119820
  32 H :    0.111895
  33 H :    0.135244
  34 H :    0.138057
  35 H :    0.131058
  36 H :    0.127895
  37 H :    0.126468
  38 H :    0.120545
  39 H :    0.148041
  40 H :    0.132924
  41 H :    0.131624
  42 H :    0.130912
  43 H :    0.136753
  44 H :    0.135150
  45 H :    0.264289
  46 H :    0.246485
  47 H :    0.128464
  48 H :    0.130716
  49 H :    0.131397
  50 H :    0.134150
  51 H :    0.146079

  Mayer bond orders larger than 0.100000
B(  0-C ,  1-C ) :   1.0085 B(  0-C , 28-H ) :   0.9505 B(  0-C , 29-H ) :   0.9411
B(  0-C , 30-H ) :   0.9501 B(  1-C ,  2-C ) :   0.9868 B(  1-C , 31-H ) :   0.9315
B(  1-C , 32-H ) :   0.9291 B(  2-C ,  3-C ) :   0.9459 B(  2-C ,  9-N ) :   0.9466
B(  2-C , 33-H ) :   0.9188 B(  3-C ,  4-C ) :   1.4288 B(  3-C ,  8-C ) :   1.4118
B(  4-C ,  5-C ) :   1.4450 B(  4-C , 34-H ) :   0.9176 B(  5-C ,  6-C ) :   1.4493
B(  5-C , 35-H ) :   0.9299 B(  6-C ,  7-C ) :   1.4592 B(  6-C , 36-H ) :   0.9311
B(  7-C ,  8-C ) :   1.4382 B(  7-C , 37-H ) :   0.9310 B(  8-C , 38-H ) :   0.9225
B(  9-N , 10-C ) :   0.9426 B(  9-N , 18-C ) :   0.9913 B( 10-C , 11-O ) :   1.8729
B( 10-C , 12-C ) :   0.9961 B( 12-C , 13-C ) :   1.3858 B( 12-C , 17-C ) :   1.3952
B( 13-C , 14-C ) :   1.4375 B( 13-C , 39-H ) :   0.9152 B( 14-C , 15-C ) :   1.4367
B( 14-C , 40-H ) :   0.9304 B( 15-C , 16-C ) :   1.4488 B( 15-C , 41-H ) :   0.9306
B( 16-C , 17-C ) :   1.4337 B( 16-C , 42-H ) :   0.9305 B( 17-C , 43-H ) :   0.9078
B( 18-C , 19-C ) :   0.8898 B( 18-C , 22-C ) :   0.9644 B( 18-C , 44-H ) :   0.8977
B( 19-C , 20-N ) :   1.0533 B( 19-C , 21-O ) :   1.8468 B( 20-N , 45-H ) :   0.8238
B( 20-N , 46-H ) :   0.8342 B( 22-C , 23-C ) :   1.4234 B( 22-C , 27-C ) :   1.4259
B( 23-C , 24-C ) :   1.4416 B( 23-C , 47-H ) :   0.9239 B( 24-C , 25-C ) :   1.4493
B( 24-C , 48-H ) :   0.9296 B( 25-C , 26-C ) :   1.4539 B( 25-C , 49-H ) :   0.9304
B( 26-C , 27-C ) :   1.4333 B( 26-C , 50-H ) :   0.9292 B( 27-C , 51-H ) :   0.9093

FINAL SINGLE POINT ENERGY     -1188.174910647433

DIPOLE MOMENT
-------------

Method             : SCF
Type of density    : Electron Density
Multiplicity       :   1
Irrep              :   0
Energy             : -1188.1749106474326254 Eh
Relativity type    :
Basis              : AO
                                X                 Y                 Z
Electronic contribution:     -0.783462642       8.000421790      10.515011409
Nuclear contribution   :     -0.873457017      -9.189662920     -11.073155259
                        -----------------------------------------
Total Dipole Moment    :     -1.656919659      -1.189241131      -0.558143851
                        -----------------------------------------
Magnitude (a.u.)       :      2.114521643
Magnitude (Debye)      :      5.374686884

Rotational constants in cm-1:             0.010321             0.004570             0.004234
Rotational constants in MHz :           309.422783           136.992007           126.942604

                             ****ORCA TERMINATED NORMALLY****
TOTAL RUN TIME: 0 days 0 hours 8 minutes 41 seconds 404 msec
