                         Program Version 6.0.0  -   RELEASE  -
|  1> ! B3LYP 6-31G* SP
|  2>
|  3> * xyz 0 1
|  4> N -3.2136 -0.7128 -2.7151
|  5> C -1.8549 -0.2842 -2.6222
|  6> O -1.1838 -0.1413 -3.6783
|  7> C -1.2583 0.0655 -1.2763
|  8> C -1.4958 -1.0229 -0.2430
|  9> C -1.3216 -2.3854 -0.5593
| 10> C -1.4754 -3.3661 0.4243
| 11> C -1.7937 -3.0001 1.7333
| 12> C -1.9604 -1.6523 2.0612
| 13> C -1.8138 -0.6680 1.0804
| 14> N 0.1801 0.3958 -1.3813
| 15> C 0.5921 1.7697 -1.7042
| 16> C 0.3388 2.6954 -0.5424
| 17> C 1.2362 2.7364 0.5384
| 18> C 0.9848 3.5727 1.6302
| 19> C -0.1594 4.3754 1.6520
| 20> C -1.0591 4.3422 0.5800
| 21> Cl -2.5081 5.3317 0.6190
| 22> C -0.8080 3.5100 -0.5171
| 23> C 1.1576 -0.6503 -1.5247
| 24> O 1.4020 -1.1031 -2.6784
| 25> C 1.8938 -1.1802 -0.3474
| 26> C 1.6204 -0.7078 0.9492
| 27> C 2.3295 -1.1992 2.0495
| 28> C 3.3225 -2.1638 1.8708
| 29> C 3.5999 -2.6469 0.5909
| 30> C 2.8859 -2.1654 -0.5132
| 31> H -3.6344 -0.9339 -3.6449
| 32> H -3.8012 -0.8106 -1.8585
| 33> H -1.8090 0.9697 -0.9437
| 34> H -1.0526 -2.6880 -1.5627
| 35> H -1.3398 -4.4103 0.1729
| 36> H -1.9049 -3.7599 2.4949
| 37> H -2.1953 -1.3694 3.0784
| 38> H -1.9248 0.3736 1.3576
| 39> H 1.6775 1.8036 -1.9556
| 40> H 0.0501 2.1184 -2.6118
| 41> H 2.1290 2.1214 0.5353
| 42> H 1.6815 3.5980 2.4607
| 43> H -0.3481 5.0163 2.5044
| 44> H -1.5145 3.4886 -1.3418
| 45> H 0.8612 0.0421 1.1187
| 46> H 2.1144 -0.8233 3.0410
| 47> H 3.8821 -2.5318 2.7215
| 48> H 4.3692 -3.3958 0.4527
| 49> H 3.1220 -2.5535 -1.4952
| 50> *
| 51>
| 52>                          ****END OF INPUT****

CARTESIAN COORDINATES (ANGSTROEM)
---------------------------------
  N     -3.213600   -0.712800   -2.715100
  C     -1.854900   -0.284200   -2.622200
  O     -1.183800   -0.141300   -3.678300
  C     -1.258300    0.065500   -1.276300
  C     -1.495800   -1.022900   -0.243000
  C     -1.321600   -2.385400   -0.559300
  C     -1.475400   -3.366100    0.424300
  C     -1.793700   -3.000100    1.733300
  C     -1.960400   -1.652300    2.061200
  C     -1.813800   -0.668000    1.080400
  N      0.180100    0.395800   -1.381300
  C      0.592100    1.769700   -1.704200
  C      0.338800    2.695400   -0.542400
  C      1.236200    2.736400    0.538400
  C      0.984800    3.572700    1.630200
  C     -0.159400    4.375400    1.652000
  C     -1.059100    4.342200    0.580000
  Cl    -2.508100    5.331700    0.619000
  C     -0.808000    3.510000   -0.517100
  C      1.157600   -0.650300   -1.524700
  O      1.402000   -1.103100   -2.678400
  C      1.893800   -1.180200   -0.347400
  C      1.620400   -0.707800    0.949200
  C      2.329500   -1.199200    2.049500
  C      3.322500   -2.163800    1.870800
  C      3.599900   -2.646900    0.590900
  C      2.885900   -2.165400   -0.513200
  H     -3.634400   -0.933900   -3.644900
  H     -3.801200   -0.810600   -1.858500
  H     -1.809000    0.969700   -0.943700
  H     -1.052600   -2.688000   -1.562700
  H     -1.339800   -4.410300    0.172900
  H     -1.904900   -3.759900    2.494900
  H     -2.195300   -1.369400    3.078400
  H     -1.924800    0.373600    1.357600
  H      1.677500    1.803600   -1.955600
  H      0.050100    2.118400   -2.611800
  H      2.129000    2.121400    0.535300
  H      1.681500    3.598000    2.460700
  H     -0.348100    5.016300    2.504400
  H     -1.514500    3.488600   -1.341800
  H      0.861200    0.042100    1.118700
  H      2.114400   -0.823300    3.041000
  H      3.882100   -2.531800    2.721500
  H      4.369200   -3.395800    0.452700
  H      3.122000   -2.553500   -1.495200

 Total Charge           Charge          ....    0
 Multiplicity           Mult            ....    1
 Number of Electrons    NEL             ....  198
 Basis Dimension        Dim             ....  420

ORBITAL ENERGIES
----------------

  NO   OCC          E(Eh)            E(eV)
   0   2.0000    -101.529384     -2762.7550
   1   2.0000     -19.122321      -520.3448
   2   2.0000     -19.099519      -519.7243
   3   2.0000     -14.346562      -390.3898
   4   2.0000     -14.326170      -389.8349
   5   2.0000     -10.288644      -279.9682
   6   2.0000     -10.280095      -279.7356
   7   2.0000     -10.249269      -278.8968
   8   2.0000     -10.237421      -278.5744
   9   2.0000     -10.216968      -278.0178
  10   2.0000     -10.200908      -277.5808
  11   2.0000     -10.200399      -277.5670
  12   2.0000     -10.197920      -277.4995
  13   2.0000     -10.197678      -277.4929
  14   2.0000     -10.196721      -277.4669
  15   2.0000     -10.195378      -277.4304
  16   2.0000     -10.191634      -277.3285
  17   2.0000     -10.190637      -277.3013
  18   2.0000     -10.190015      -277.2844
  19   2.0000     -10.188681      -277.2481
  20   2.0000     -10.188241      -277.2361
  21   2.0000     -10.188188      -277.2347
  22   2.0000     -10.188002      -277.2296
  23   2.0000     -10.187803      -277.2242
  24   2.0000     -10.187338      -277.2116
  25   2.0000     -10.186952      -277.2011
  26   2.0000     -10.186871      -277.1988
  27   2.0000      -9.461287      -257.4547
  28   2.0000      -7.224275      -196.5825
  29   2.0000      -7.214915      -196.3278
  30   2.0000      -7.214608      -196.3195
  31   2.0000      -1.014191       -27.5975
  32   2.0000      -0.997897       -27.1541
  33   2.0000      -0.912756       -24.8374
  34   2.0000      -0.888283       -24.1714
  35   2.0000      -0.872269       -23.7357
  36   2.0000      -0.855460       -23.2783
  37   2.0000      -0.855073       -23.2677
  38   2.0000      -0.836572       -22.7643
  39   2.0000      -0.783706       -21.3257
  40   2.0000      -0.767135       -20.8748
  41   2.0000      -0.755768       -20.5655
  42   2.0000      -0.749016       -20.3818
  43   2.0000      -0.746195       -20.3050
  44   2.0000      -0.736687       -20.0463
  45   2.0000      -0.707711       -19.2578
  46   2.0000      -0.680759       -18.5244
  47   2.0000      -0.629373       -17.1261
  48   2.0000      -0.613038       -16.6816
  49   2.0000      -0.612799       -16.6751
  50   2.0000      -0.604381       -16.4461
  51   2.0000      -0.599861       -16.3230
  52   2.0000      -0.587507       -15.9869
  53   2.0000      -0.575520       -15.6607
  54   2.0000      -0.543810       -14.7978
  55   2.0000      -0.525839       -14.3088
  56   2.0000      -0.521586       -14.1931
  57   2.0000      -0.516525       -14.0554
  58   2.0000      -0.500188       -13.6108
  59   2.0000      -0.490869       -13.3572
  60   2.0000      -0.482354       -13.1255
  61   2.0000      -0.474205       -12.9038
  62   2.0000      -0.471955       -12.8425
  63   2.0000      -0.460677       -12.5357
  64   2.0000      -0.453452       -12.3391
  65   2.0000      -0.450907       -12.2698
  66   2.0000      -0.441819       -12.0225
  67   2.0000      -0.436005       -11.8643
  68   2.0000      -0.433317       -11.7912
  69   2.0000      -0.425792       -11.5864
  70   2.0000      -0.422834       -11.5059
  71   2.0000      -0.420167       -11.4333
  72   2.0000      -0.416983       -11.3467
  73   2.0000      -0.409608       -11.1460
  74   2.0000      -0.392776       -10.6880
  75   2.0000      -0.390731       -10.6323
  76   2.0000      -0.382827       -10.4172
  77   2.0000      -0.380141       -10.3442
  78   2.0000      -0.368811       -10.0358
  79   2.0000      -0.362342        -9.8598
  80   2.0000      -0.361102        -9.8261
  81   2.0000      -0.355009        -9.6603
  82   2.0000      -0.354130        -9.6364
  83   2.0000      -0.348177        -9.4744
  84   2.0000      -0.344587        -9.3767
  85   2.0000      -0.341467        -9.2918
  86   2.0000      -0.337569        -9.1857
  87   2.0000      -0.329062        -8.9542
  88   2.0000      -0.312414        -8.5012
  89   2.0000      -0.265432        -7.2228
  90   2.0000      -0.258882        -7.0445
  91   2.0000      -0.256731        -6.9860
  92   2.0000      -0.254733        -6.9316
  93   2.0000      -0.252287        -6.8651
  94   2.0000      -0.249326        -6.7845
  95   2.0000      -0.246823        -6.7164
  96   2.0000      -0.243471        -6.6252
  97   2.0000      -0.231860        -6.3092
  98   2.0000      -0.207106        -5.6356
  99   0.0000      -0.059091        -1.6079
 100   0.0000      -0.019626        -0.5340
 101   0.0000      -0.013925        -0.3789
 102   0.0000      -0.011028        -0.3001
 103   0.0000      -0.007203        -0.1960

MULLIKEN ATOMIC CHARGES
-----------------------
   0 N :   -0.766080
   1 C :    0.562147
   2 O :   -0.458036
   3 C :   -0.142435
   4 C :    0.121980
   5 C :   -0.170692
   6 C :   -0.127640
   7 C :   -0.121211
   8 C :   -0.125972
   9 C :   -0.190097
  10 N :   -0.418392
  11 C :   -0.234991
  12 C :    0.180882
  13 C :   -0.176477
  14 C :   -0.123569
  15 C :   -0.133402
  16 C :   -0.066754
  17 Cl:   -0.021193
  18 C :   -0.192932
  19 C :    0.420520
  20 O :   -0.401326
  21 C :    0.109059
  22 C :   -0.163070
  23 C :   -0.136758
  24 C :   -0.113915
  25 C :   -0.133129
  26 C :   -0.156322
  27 H :    0.348427
  28 H :    0.330203
  29 H :    0.164511
  30 H :    0.162843
  31 H :    0.136233
  32 H :    0.130939
  33 H :    0.131056
  34 H :    0.138730
  35 H :    0.168711
  36 H :    0.167564
  37 H :    0.143635
  38 H :    0.139749
  39 H :    0.149560
  40 H :    0.152496
  41 H :    0.156566
  42 H :    0.129799
  43 H :    0.133249
  44 H :    0.135061
  45 H :    0.160468
Sum of atomic charges:   -0.0000000

LOEWDIN ATOMIC CHARGES
----------------------
   0 N :   -0.408224
   1 C :    0.123951
   2 O :   -0.270292
   3 C :   -0.066511
   4 C :   -0.031556
   5 C :   -0.126452
   6 C :   -0.123614
   7 C :   -0.124748
   8 C :   -0.129280
   9 C :   -0.132948
  10 N :   -0.142373
  11 C :   -0.136421
  12 C :   -0.021246
  13 C :   -0.130265
  14 C :   -0.122819
  15 C :   -0.138309
  16 C :   -0.087907
  17 Cl:    0.033214
  18 C :   -0.147955
  19 C :    0.155337
  20 O :   -0.209504
  21 C :   -0.060344
  22 C :   -0.105712
  23 C :   -0.134753
  24 C :   -0.111885
  25 C :   -0.131842
  26 C :   -0.092398
  27 H :    0.263742
  28 H :    0.249935
  29 H :    0.148105
  30 H :    0.146361
  31 H :    0.135263
  32 H :    0.132813
  33 H :    0.132661
  34 H :    0.134918
  35 H :    0.142689
  36 H :    0.130816
  37 H :    0.138422
  38 H :    0.137309
  39 H :    0.143338
  40 H :    0.142960
  41 H :    0.146067
  42 H :    0.132083
  43 H :    0.133374
  44 H :    0.134472
  45 H :    0.149530

  Mayer bond orders larger than 0.100000
B(  0-N ,  1-C ) :   1.0639 B(  0-N , 27-H ) :   0.8238 B(  0-N , 28-H ) :   0.8276
B(  1-C ,  2-O ) :   1.8605 B(  1-C ,  3-C ) :   0.8860 B(  3-C ,  4-C ) :   0.9684
B(  3-C , 10-N ) :   0.9949 B(  3-C , 29-H ) :   0.8939 B(  4-C ,  5-C ) :   1.4237
B(  4-C ,  9-C ) :   1.4198 B(  5-C ,  6-C ) :   1.4344 B(  5-C , 30-H ) :   0.9127
B(  6-C ,  7-C ) :   1.4535 B(  6-C , 31-H ) :   0.9288 B(  7-C ,  8-C ) :   1.4512
B(  7-C , 32-H ) :   0.9299 B(  8-C ,  9-C ) :   1.4387 B(  8-C , 33-H ) :   0.9293
B(  9-C , 34-H ) :   0.9221 B( 10-N , 11-C ) :   0.9446 B( 10-N , 19-C ) :   0.9260
B( 11-C , 12-C ) :   0.9406 B( 11-C , 35-H ) :   0.9291 B( 11-C , 36-H ) :   0.9147
B( 12-C , 13-C ) :   1.4158 B( 12-C , 18-C ) :   1.4258 B( 13-C , 14-C ) :   1.4423
B( 13-C , 37-H ) :   0.9173 B( 14-C , 15-C ) :   1.4414 B( 14-C , 38-H ) :   0.9278
B( 15-C , 16-C ) :   1.4251 B( 15-C , 39-H ) :   0.9245 B( 16-C , 17-Cl) :   1.0090
B( 16-C , 18-C ) :   1.3919 B( 18-C , 40-H ) :   0.9161 B( 19-C , 20-O ) :   1.9008
B( 19-C , 21-C ) :   1.0090 B( 21-C , 22-C ) :   1.3821 B( 21-C , 26-C ) :   1.3792
B( 22-C , 23-C ) :   1.4298 B( 22-C , 41-H ) :   0.8982 B( 23-C , 24-C ) :   1.4485
B( 23-C , 42-H ) :   0.9306 B( 24-C , 25-C ) :   1.4345 B( 24-C , 43-H ) :   0.9299
B( 25-C , 26-C ) :   1.4382 B( 25-C , 44-H ) :   0.9301 B( 26-C , 45-H ) :   0.9125

FINAL SINGLE POINT ENERGY     -1569.145428311534

DIPOLE MOMENT
-------------

Method             : SCF
Type of density    : Electron Density
Multiplicity       :   1
Irrep              :   0
Energy             : -1569.1454283115335784 Eh
Relativity type    :
Basis              : AO
                                X                 Y                 Z
Electronic contribution:     -7.009384776      17.078188436      -4.284034705
Nuclear contribution   :      6.657203116     -17.694022779       6.297078713
                        -----------------------------------------
Total Dipole Moment    :     -0.352181660      -0.615834344       2.013044007
                        -----------------------------------------
Magnitude (a.u.)       :      2.134392194
Magnitude (Debye)      :      5.425193809

Rotational constants in cm-1:             0.007724             0.004533             0.003978
Rotational constants in MHz :           231.544884           135.902758           119.247712

                             ****ORCA TERMINATED NORMALLY****
TOTAL RUN TIME: 0 days 0 hours 7 minutes 53 seconds 385 msec
