                         Program Version 6.0.0  -   RELEASE  -
|  1> ! B3LYP 6-31G* SP
|  2>
|  3> * xyz 0 1
|  4> O 2.2054 -0.2811 1.7898
|  5> C 1.7088 -0.4187 0.6378
|  6> N 2.1640 0.4247 -0.4376
|  7> C 3.1613 1.4464 -0.2753
|  8> C 4.3406 1.2027 0.4519
|  9> C 5.3106 2.2018 0.5779
| 10> C 5.1187 3.4453 -0.0292
| 11> C 3.9598 3.6893 -0.7704
| 12> C 2.9867 2.6930 -0.9009
| 13> F 1.8649 2.9478 -1.6207
| 14> N 0.6632 -1.3982 0.4296
| 15> C 0.5282 -2.4893 1.4061
| 16> C 0.0963 -3.7725 0.7118
| 17> C -1.1601 -3.5450 -0.0731
| 18> C -2.0634 -4.6041 -0.2595
| 19> C -3.2002 -4.4310 -1.0506
| 20> C -3.4323 -3.2089 -1.6812
| 21> C -2.5316 -2.1544 -1.5173
| 22> C -1.3955 -2.3010 -0.6969
| 23> C -0.4070 -1.1480 -0.5653
| 24> C -1.1309 0.1425 -0.2243
| 25> C -1.8280 0.2728 0.9884
| 26> C -2.4804 1.4670 1.3061
| 27> C -2.4342 2.5606 0.4252
| 28> C -3.1766 3.8329 0.7470
| 29> F -4.4680 3.7411 0.2625
| 30> F -3.2216 4.0401 2.1149
| 31> F -2.5528 4.9230 0.1650
| 32> C -1.7657 2.4181 -0.8024
| 33> C -1.1153 1.2232 -1.1210
| 34> H 1.6965 0.3696 -1.3669
| 35> H 4.5234 0.2351 0.9004
| 36> H 6.2156 2.0089 1.1394
| 37> H 5.8711 4.2171 0.0686
| 38> H 3.8166 4.6516 -1.2450
| 39> H -0.2152 -2.2075 2.1820
| 40> H 1.4975 -2.6881 1.9139
| 41> H -0.0593 -4.5605 1.4809
| 42> H 0.8981 -4.1100 0.0200
| 43> H -1.8830 -5.5672 0.2019
| 44> H -3.8944 -5.2501 -1.1870
| 45> H -4.3064 -3.0810 -2.3066
| 46> H -2.7198 -1.2213 -2.0333
| 47> H 0.0639 -1.0704 -1.5677
| 48> H -1.8758 -0.5538 1.6845
| 49> H -3.0232 1.5345 2.2406
| 50> H -1.7477 3.2308 -1.5177
| 51> H -0.6028 1.1421 -2.0712
| 52> *
| 53>
| 54>                          ****END OF INPUT****

CARTESIAN COORDINATES (ANGSTROEM)
---------------------------------
  O      2.205400   -0.281100    1.789800
  C      1.708800   -0.418700    0.637800
  N      2.164000    0.424700   -0.437600
  C      3.161300    1.446400   -0.275300
  C      4.340600    1.202700    0.451900
  C      5.310600    2.201800    0.577900
  C      5.118700    3.445300   -0.029200
  C      3.959800    3.689300   -0.770400
  C      2.986700    2.693000   -0.900900
  F      1.864900    2.947800   -1.620700
  N      0.663200   -1.398200    0.429600
  C      0.528200   -2.489300    1.406100
  C      0.096300   -3.772500    0.711800
  C     -1.160100   -3.545000   -0.073100
  C     -2.063400   -4.604100   -0.259500
  C     -3.200200   -4.431000   -1.050600
  C     -3.432300   -3.208900   -1.681200
  C     -2.531600   -2.154400   -1.517300
  C     -1.395500   -2.301000   -0.696900
  C     -0.407000   -1.148000   -0.565300
  C     -1.130900    0.142500   -0.224300
  C     -1.828000    0.272800    0.988400
  C     -2.480400    1.467000    1.306100
  C     -2.434200    2.560600    0.425200
  C     -3.176600    3.832900    0.747000
  F     -4.468000    3.741100    0.262500
  F     -3.221600    4.040100    2.114900
  F     -2.552800    4.923000    0.165000
  C     -1.765700    2.418100   -0.802400
  C     -1.115300    1.223200   -1.121000
  H      1.696500    0.369600   -1.366900
  H      4.523400    0.235100    0.900400
  H      6.215600    2.008900    1.139400
  H      5.871100    4.217100    0.068600
  H      3.816600    4.651600   -1.245000
  H     -0.215200   -2.207500    2.182000
  H      1.497500   -2.688100    1.913900
  H     -0.059300   -4.560500    1.480900
  H      0.898100   -4.110000    0.020000
  H     -1.883000   -5.567200    0.201900
  H     -3.894400   -5.250100   -1.187000
  H     -4.306400   -3.081000   -2.306600
  H     -2.719800   -1.221300   -2.033300
  H      0.063900   -1.070400   -1.567700
  H     -1.875800   -0.553800    1.684500
  H     -3.023200    1.534500    2.240600
  H     -1.747700    3.230800   -1.517700
  H     -0.602800    1.142100   -2.071200

 Total Charge           Charge          ....    0
 Multiplicity           Mult            ....    1
 Number of Electrons    NEL             ....  214
 Basis Dimension        Dim             ....  456

ORBITAL ENERGIES
----------------

  NO   OCC          E(Eh)            E(eV)
   0   2.0000     -24.714155      -672.5063
   1   2.0000     -24.714114      -672.5052
   2   2.0000     -24.711029      -672.4213
   3   2.0000     -24.704880      -672.2540
   4   2.0000     -19.102699      -519.8109
   5   2.0000     -14.368486      -390.9864
   6   2.0000     -14.357122      -390.6771
   7   2.0000     -10.429591      -283.8036
   8   2.0000     -10.317171      -280.7445
   9   2.0000     -10.268414      -279.4177
  10   2.0000     -10.245883      -278.8047
  11   2.0000     -10.234087      -278.4837
  12   2.0000     -10.217979      -278.0454
  13   2.0000     -10.209724      -277.8207
  14   2.0000     -10.206332      -277.7284
  15   2.0000     -10.203503      -277.6514
  16   2.0000     -10.200572      -277.5717
  17   2.0000     -10.199899      -277.5534
  18   2.0000     -10.197726      -277.4942
  19   2.0000     -10.197338      -277.4837
  20   2.0000     -10.195602      -277.4364
  21   2.0000     -10.190738      -277.3041
  22   2.0000     -10.190051      -277.2854
  23   2.0000     -10.187601      -277.2187
  24   2.0000     -10.186979      -277.2018
  25   2.0000     -10.186590      -277.1912
  26   2.0000     -10.186244      -277.1818
  27   2.0000     -10.184990      -277.1477
  28   2.0000     -10.184317      -277.1294
  29   2.0000     -10.180811      -277.0339
  30   2.0000      -1.274121       -34.6706
  31   2.0000      -1.217475       -33.1292
  32   2.0000      -1.199471       -32.6393
  33   2.0000      -1.198636       -32.6165
  34   2.0000      -1.018448       -27.7134
  35   2.0000      -0.931154       -25.3380
  36   2.0000      -0.915462       -24.9110
  37   2.0000      -0.869672       -23.6650
  38   2.0000      -0.858970       -23.3738
  39   2.0000      -0.843757       -22.9598
  40   2.0000      -0.807066       -21.9614
  41   2.0000      -0.785279       -21.3685
  42   2.0000      -0.762480       -20.7481
  43   2.0000      -0.758175       -20.6310
  44   2.0000      -0.744780       -20.2665
  45   2.0000      -0.742226       -20.1970
  46   2.0000      -0.732593       -19.9349
  47   2.0000      -0.698787       -19.0150
  48   2.0000      -0.667343       -18.1593
  49   2.0000      -0.649052       -17.6616
  50   2.0000      -0.625624       -17.0241
  51   2.0000      -0.622741       -16.9457
  52   2.0000      -0.616768       -16.7831
  53   2.0000      -0.609911       -16.5965
  54   2.0000      -0.596553       -16.2330
  55   2.0000      -0.580797       -15.8043
  56   2.0000      -0.565210       -15.3801
  57   2.0000      -0.562477       -15.3058
  58   2.0000      -0.558430       -15.1957
  59   2.0000      -0.551868       -15.0171
  60   2.0000      -0.545875       -14.8540
  61   2.0000      -0.528599       -14.3839
  62   2.0000      -0.512838       -13.9550
  63   2.0000      -0.507178       -13.8010
  64   2.0000      -0.499490       -13.5918
  65   2.0000      -0.483820       -13.1654
  66   2.0000      -0.476258       -12.9596
  67   2.0000      -0.471687       -12.8352
  68   2.0000      -0.462422       -12.5832
  69   2.0000      -0.460013       -12.5176
  70   2.0000      -0.457803       -12.4575
  71   2.0000      -0.452193       -12.3048
  72   2.0000      -0.446979       -12.1629
  73   2.0000      -0.443092       -12.0571
  74   2.0000      -0.440151       -11.9771
  75   2.0000      -0.438559       -11.9338
  76   2.0000      -0.434603       -11.8261
  77   2.0000      -0.430741       -11.7211
  78   2.0000      -0.419719       -11.4211
  79   2.0000      -0.416947       -11.3457
  80   2.0000      -0.414755       -11.2861
  81   2.0000      -0.405412       -11.0318
  82   2.0000      -0.401442       -10.9238
  83   2.0000      -0.398818       -10.8524
  84   2.0000      -0.396516       -10.7898
  85   2.0000      -0.392871       -10.6906
  86   2.0000      -0.389260       -10.5923
  87   2.0000      -0.384434       -10.4610
  88   2.0000      -0.379230       -10.3194
  89   2.0000      -0.369121       -10.0443
  90   2.0000      -0.367434        -9.9984
  91   2.0000      -0.359441        -9.7809
  92   2.0000      -0.357621        -9.7314
  93   2.0000      -0.351700        -9.5702
  94   2.0000      -0.349488        -9.5100
  95   2.0000      -0.349110        -9.4998
  96   2.0000      -0.337577        -9.1859
  97   2.0000      -0.330191        -8.9849
  98   2.0000      -0.288132        -7.8405
  99   2.0000      -0.271665        -7.3924
 100   2.0000      -0.262748        -7.1497
 101   2.0000      -0.255995        -6.9660
 102   2.0000      -0.247413        -6.7325
 103   2.0000      -0.244049        -6.6409
 104   2.0000      -0.241313        -6.5665
 105   2.0000      -0.227752        -6.1975
 106   2.0000      -0.220184        -5.9915
 107   0.0000      -0.029115        -0.7923
 108   0.0000      -0.018703        -0.5089
 109   0.0000      -0.014192        -0.3862
 110   0.0000      -0.006415        -0.1746
 111   0.0000      -0.001111        -0.0302

MULLIKEN ATOMIC CHARGES
-----------------------
   0 O :   -0.490315
   1 C :    0.695898
   2 N :   -0.707985
   3 C :    0.242863
   4 C :   -0.118105
   5 C :   -0.145641
   6 C :   -0.113145
   7 C :   -0.210989
   8 C :    0.352395
   9 F :   -0.319410
  10 N :   -0.464323
  11 C :   -0.124193
  12 C :   -0.346260
  13 C :    0.107746
  14 C :   -0.185243
  15 C :   -0.121267
  16 C :   -0.129648
  17 C :   -0.174180
  18 C :    0.092362
  19 C :   -0.127030
  20 C :    0.193764
  21 C :   -0.160110
  22 C :   -0.157464
  23 C :   -0.015135
  24 C :    0.894864
  25 F :   -0.297909
  26 F :   -0.305049
  27 F :   -0.305334
  28 C :   -0.155589
  29 C :   -0.191033
  30 H :    0.331272
  31 H :    0.159659
  32 H :    0.134080
  33 H :    0.134324
  34 H :    0.143877
  35 H :    0.145872
  36 H :    0.176528
  37 H :    0.147973
  38 H :    0.160844
  39 H :    0.126555
  40 H :    0.129679
  41 H :    0.132012
  42 H :    0.134082
  43 H :    0.146814
  44 H :    0.145332
  45 H :    0.154452
  46 H :    0.153895
  47 H :    0.128215
Sum of atomic charges:    0.0000000

LOEWDIN ATOMIC CHARGES
----------------------
   0 O :   -0.305869
   1 C :    0.173642
   2 N :   -0.223057
   3 C :    0.007662
   4 C :   -0.112601
   5 C :   -0.135425
   6 C :   -0.128495
   7 C :   -0.157320
   8 C :    0.101206
   9 F :   -0.108058
  10 N :   -0.125712
  11 C :   -0.139808
  12 C :   -0.228442
  13 C :   -0.024293
  14 C :   -0.131795
  15 C :   -0.125705
  16 C :   -0.130689
  17 C :   -0.124281
  18 C :   -0.027223
  19 C :   -0.043801
  20 C :   -0.010997
  21 C :   -0.113632
  22 C :   -0.107647
  23 C :   -0.069462
  24 C :    0.310139
  25 F :   -0.115182
  26 F :   -0.113280
  27 F :   -0.113583
  28 C :   -0.107840
  29 C :   -0.138424
  30 H :    0.252300
  31 H :    0.151300
  32 H :    0.135030
  33 H :    0.135006
  34 H :    0.143619
  35 H :    0.115427
  36 H :    0.146072
  37 H :    0.132960
  38 H :    0.136439
  39 H :    0.131607
  40 H :    0.132435
  41 H :    0.133744
  42 H :    0.135935
  43 H :    0.127641
  44 H :    0.140554
  45 H :    0.144793
  46 H :    0.144646
  47 H :    0.130462

  Mayer bond orders larger than 0.100000
B(  0-O ,  1-C ) :   1.7902 B(  1-C ,  2-N ) :   1.0120 B(  1-C , 10-N ) :   1.0293
B(  2-N ,  3-C ) :   0.8717 B(  2-N , 30-H ) :   0.8093 B(  3-C ,  4-C ) :   1.4231
B(  3-C ,  8-C ) :   1.3385 B(  4-C ,  5-C ) :   1.4464 B(  4-C , 31-H ) :   0.9121
B(  5-C ,  6-C ) :   1.4435 B(  5-C , 32-H ) :   0.9289 B(  6-C ,  7-C ) :   1.4373
B(  6-C , 33-H ) :   0.9304 B(  7-C ,  8-C ) :   1.3881 B(  7-C , 34-H ) :   0.9198
B(  8-C ,  9-F ) :   0.9271 B( 10-N , 11-C ) :   0.9344 B( 10-N , 19-C ) :   0.9251
B( 11-C , 12-C ) :   0.9839 B( 11-C , 35-H ) :   0.9241 B( 11-C , 36-H ) :   0.9228
B( 12-C , 13-C ) :   0.9868 B( 12-C , 37-H ) :   0.9293 B( 12-C , 38-H ) :   0.9190
B( 13-C , 14-C ) :   1.4082 B( 13-C , 18-C ) :   1.4421 B( 14-C , 15-C ) :   1.4501
B( 14-C , 39-H ) :   0.9248 B( 15-C , 16-C ) :   1.4384 B( 15-C , 40-H ) :   0.9292
B( 16-C , 17-C ) :   1.4500 B( 16-C , 41-H ) :   0.9295 B( 17-C , 18-C ) :   1.3958
B( 17-C , 42-H ) :   0.9186 B( 18-C , 19-C ) :   0.9698 B( 19-C , 20-C ) :   0.9365
B( 19-C , 43-H ) :   0.9066 B( 20-C , 21-C ) :   1.4134 B( 20-C , 29-C ) :   1.4064
B( 21-C , 22-C ) :   1.4387 B( 21-C , 44-H ) :   0.9166 B( 22-C , 23-C ) :   1.3995
B( 22-C , 45-H ) :   0.9197 B( 23-C , 24-C ) :   0.9796 B( 23-C , 28-C ) :   1.4211
B( 24-C , 25-F ) :   0.9850 B( 24-C , 26-F ) :   0.9488 B( 24-C , 27-F ) :   0.9485
B( 28-C , 29-C ) :   1.4173 B( 28-C , 46-H ) :   0.9190 B( 29-C , 47-H ) :   0.9225

FINAL SINGLE POINT ENERGY     -1470.565513685584

DIPOLE MOMENT
-------------

Method             : SCF
Type of density    : Electron Density
Multiplicity       :   1
Irrep              :   0
Energy             : -1470.5655136855839373 Eh
Relativity type    :
Basis              : AO
                                X                 Y                 Z
Electronic contribution:    -14.565842720      33.201979098       1.523598586
Nuclear contribution   :     14.699659840     -34.551259958      -2.581022400
                        -----------------------------------------
Total Dipole Moment    :      0.133817119      -1.349280860      -1.057423814
                        -----------------------------------------
Magnitude (a.u.)       :      1.719479859
Magnitude (Debye)      :      4.370570466

Rotational constants in cm-1:             0.005103             0.004146             0.002592
Rotational constants in MHz :           152.976275           124.305334            77.717521

                             ****ORCA TERMINATED NORMALLY****
TOTAL RUN TIME: 0 days 0 hours 7 minutes 23 seconds 136 msec
