                         Program Version 6.0.0  -   RELEASE  -
|  1> ! B3LYP 6-31G* SP
|  2>
|  3> * xyz 0 1
|  4> C 6.8136 3.2509 0.1515
|  5> C 5.7545 2.3142 -0.3333
|  6> O 6.0884 1.2832 -0.9784
|  7> N 4.3693 2.6437 -0.1453
|  8> C 3.2824 1.7347 -0.3951
|  9> C 2.0485 2.2414 -0.8294
| 10> C 0.9695 1.3835 -1.0582
| 11> C 1.0989 0.0040 -0.8320
| 12> C -0.0684 -0.9204 -1.0744
| 13> N -0.4800 -1.6318 0.1435
| 14> C -1.1982 -2.8617 -0.0173
| 15> N -2.5558 -2.8580 0.0874
| 16> C -3.2978 -3.9836 -0.0784
| 17> C -2.6752 -5.2059 -0.3694
| 18> C -3.5007 -6.4424 -0.6193
| 19> F -2.7573 -7.5877 -0.3921
| 20> F -4.6019 -6.4648 0.2202
| 21> F -3.9343 -6.4406 -1.9327
| 22> C -1.2783 -5.2270 -0.5043
| 23> C -0.5332 -4.0599 -0.3179
| 24> Cl 1.2169 -4.1341 -0.4472
| 25> S -0.6920 -0.7583 1.6377
| 26> O -1.4963 -1.5804 2.6067
| 27> O 0.6552 -0.4904 2.2529
| 28> C -1.5485 0.7521 1.3372
| 29> C -2.8625 0.7186 0.8530
| 30> C -3.5448 1.9080 0.5811
| 31> C -2.9178 3.1524 0.7854
| 32> C -3.6325 4.4139 0.4861
| 33> O -4.8309 4.3901 0.0874
| 34> O -2.9869 5.6410 0.6385
| 35> C -1.5990 3.1798 1.2759
| 36> C -0.9218 1.9881 1.5552
| 37> C 2.3301 -0.5042 -0.3896
| 38> C 3.4097 0.3543 -0.1603
| 39> H 6.5602 3.6076 1.1719
| 40> H 7.7994 2.7407 0.1852
| 41> H 6.8780 4.1214 -0.5339
| 42> H 4.1373 3.6332 0.1086
| 43> H 1.9262 3.3033 -0.9994
| 44> H 0.0284 1.7991 -1.3974
| 45> H -0.9422 -0.3579 -1.4703
| 46> H 0.2294 -1.6498 -1.8599
| 47> H -4.3756 -3.9183 -0.0000
| 48> H -0.7651 -6.1474 -0.7528
| 49> H -3.3585 -0.2287 0.6824
| 50> H -4.5596 1.8535 0.2050
| 51> H -3.4672 6.5085 0.4342
| 52> H -1.0891 4.1222 1.4428
| 53> H 0.0955 2.0324 1.9252
| 54> H 2.4487 -1.5624 -0.1983
| 55> H 4.3312 -0.0600 0.2265
| 56> *
| 57>
| 58>                          ****END OF INPUT****

CARTESIAN COORDINATES (ANGSTROEM)
---------------------------------
  C      6.813600    3.250900    0.151500
  C      5.754500    2.314200   -0.333300
  O      6.088400    1.283200   -0.978400
  N      4.369300    2.643700   -0.145300
  C      3.282400    1.734700   -0.395100
  C      2.048500    2.241400   -0.829400
  C      0.969500    1.383500   -1.058200
  C      1.098900    0.004000   -0.832000
  C     -0.068400   -0.920400   -1.074400
  N     -0.480000   -1.631800    0.143500
  C     -1.198200   -2.861700   -0.017300
  N     -2.555800   -2.858000    0.087400
  C     -3.297800   -3.983600   -0.078400
  C     -2.675200   -5.205900   -0.369400
  C     -3.500700   -6.442400   -0.619300
  F     -2.757300   -7.587700   -0.392100
  F     -4.601900   -6.464800    0.220200
  F     -3.934300   -6.440600   -1.932700
  C     -1.278300   -5.227000   -0.504300
  C     -0.533200   -4.059900   -0.317900
  Cl     1.216900   -4.134100   -0.447200
  S     -0.692000   -0.758300    1.637700
  O     -1.496300   -1.580400    2.606700
  O      0.655200   -0.490400    2.252900
  C     -1.548500    0.752100    1.337200
  C     -2.862500    0.718600    0.853000
  C     -3.544800    1.908000    0.581100
  C     -2.917800    3.152400    0.785400
  C     -3.632500    4.413900    0.486100
  O     -4.830900    4.390100    0.087400
  O     -2.986900    5.641000    0.638500
  C     -1.599000    3.179800    1.275900
  C     -0.921800    1.988100    1.555200
  C      2.330100   -0.504200   -0.389600
  C      3.409700    0.354300   -0.160300
  H      6.560200    3.607600    1.171900
  H      7.799400    2.740700    0.185200
  H      6.878000    4.121400   -0.533900
  H      4.137300    3.633200    0.108600
  H      1.926200    3.303300   -0.999400
  H      0.028400    1.799100   -1.397400
  H     -0.942200   -0.357900   -1.470300
  H      0.229400   -1.649800   -1.859900
  H     -4.375600   -3.918300   -0.000000
  H     -0.765100   -6.147400   -0.752800
  H     -3.358500   -0.228700    0.682400
  H     -4.559600    1.853500    0.205000
  H     -3.467200    6.508500    0.434200
  H     -1.089100    4.122200    1.442800
  H      0.095500    2.032400    1.925200
  H      2.448700   -1.562400   -0.198300
  H      4.331200   -0.060000    0.226500

 Total Charge           Charge          ....    0
 Multiplicity           Mult            ....    1
 Number of Electrons    NEL             ....  270
 Basis Dimension        Dim             ....  532

ORBITAL ENERGIES
----------------

  NO   OCC          E(Eh)            E(eV)
   0   2.0000    -101.552281     -2763.3781
   1   2.0000     -89.101208     -2424.5671
   2   2.0000     -24.735269      -673.0809
   3   2.0000     -24.734020      -673.0469
   4   2.0000     -24.731372      -672.9748
   5   2.0000     -19.199990      -522.4583
   6   2.0000     -19.141800      -520.8749
   7   2.0000     -19.126577      -520.4606
   8   2.0000     -19.126506      -520.4587
   9   2.0000     -19.114536      -520.1330
  10   2.0000     -14.386626      -391.4800
  11   2.0000     -14.372677      -391.1004
  12   2.0000     -14.365886      -390.9156
  13   2.0000     -10.453247      -284.4473
  14   2.0000     -10.339173      -281.3432
  15   2.0000     -10.299054      -280.2515
  16   2.0000     -10.297931      -280.2209
  17   2.0000     -10.281465      -279.7729
  18   2.0000     -10.256890      -279.1042
  19   2.0000     -10.244252      -278.7603
  20   2.0000     -10.243602      -278.7426
  21   2.0000     -10.241634      -278.6890
  22   2.0000     -10.240966      -278.6709
  23   2.0000     -10.235564      -278.5239
  24   2.0000     -10.235439      -278.5205
  25   2.0000     -10.221651      -278.1453
  26   2.0000     -10.221291      -278.1355
  27   2.0000     -10.219792      -278.0947
  28   2.0000     -10.219619      -278.0900
  29   2.0000     -10.196554      -277.4623
  30   2.0000     -10.194407      -277.4039
  31   2.0000     -10.191687      -277.3299
  32   2.0000     -10.189516      -277.2708
  33   2.0000     -10.184052      -277.1222
  34   2.0000     -10.181631      -277.0563
  35   2.0000      -9.483403      -258.0565
  36   2.0000      -8.137006      -221.4192
  37   2.0000      -7.246736      -197.1937
  38   2.0000      -7.237038      -196.9298
  39   2.0000      -7.236483      -196.9147
  40   2.0000      -6.102377      -166.0541
  41   2.0000      -6.099727      -165.9820
  42   2.0000      -6.099574      -165.9778
  43   2.0000      -1.294197       -35.2169
  44   2.0000      -1.219741       -33.1908
  45   2.0000      -1.218337       -33.1526
  46   2.0000      -1.085356       -29.5340
  47   2.0000      -1.083447       -29.4821
  48   2.0000      -1.014673       -27.6106
  49   2.0000      -0.997903       -27.1543
  50   2.0000      -0.990003       -26.9394
  51   2.0000      -0.962055       -26.1789
  52   2.0000      -0.934428       -25.4271
  53   2.0000      -0.919992       -25.0343
  54   2.0000      -0.894093       -24.3295
  55   2.0000      -0.891549       -24.2603
  56   2.0000      -0.851081       -23.1591
  57   2.0000      -0.837742       -22.7961
  58   2.0000      -0.809054       -22.0155
  59   2.0000      -0.786533       -21.4026
  60   2.0000      -0.777949       -21.1691
  61   2.0000      -0.770919       -20.9778
  62   2.0000      -0.748464       -20.3667
  63   2.0000      -0.745059       -20.2741
  64   2.0000      -0.728691       -19.8287
  65   2.0000      -0.711050       -19.3486
  66   2.0000      -0.687312       -18.7027
  67   2.0000      -0.672106       -18.2889
  68   2.0000      -0.653056       -17.7706
  69   2.0000      -0.641622       -17.4594
  70   2.0000      -0.629465       -17.1286
  71   2.0000      -0.621832       -16.9209
  72   2.0000      -0.610230       -16.6052
  73   2.0000      -0.594774       -16.1846
  74   2.0000      -0.586241       -15.9524
  75   2.0000      -0.585016       -15.9191
  76   2.0000      -0.573922       -15.6172
  77   2.0000      -0.568532       -15.4705
  78   2.0000      -0.563408       -15.3311
  79   2.0000      -0.544854       -14.8262
  80   2.0000      -0.535137       -14.5618
  81   2.0000      -0.533478       -14.5167
  82   2.0000      -0.522301       -14.2125
  83   2.0000      -0.492149       -13.3920
  84   2.0000      -0.487838       -13.2748
  85   2.0000      -0.481527       -13.1030
  86   2.0000      -0.478976       -13.0336
  87   2.0000      -0.475828       -12.9480
  88   2.0000      -0.472763       -12.8645
  89   2.0000      -0.466363       -12.6904
  90   2.0000      -0.464247       -12.6328
  91   2.0000      -0.461971       -12.5709
  92   2.0000      -0.459750       -12.5104
  93   2.0000      -0.457510       -12.4495
  94   2.0000      -0.451294       -12.2803
  95   2.0000      -0.449546       -12.2328
  96   2.0000      -0.444992       -12.1089
  97   2.0000      -0.442002       -12.0275
  98   2.0000      -0.439773       -11.9668
  99   2.0000      -0.436264       -11.8714
 100   2.0000      -0.430504       -11.7146
 101   2.0000      -0.426934       -11.6175
 102   2.0000      -0.426278       -11.5996
 103   2.0000      -0.425963       -11.5910
 104   2.0000      -0.417563       -11.3625
 105   2.0000      -0.415061       -11.2944
 106   2.0000      -0.412029       -11.2119
 107   2.0000      -0.410441       -11.1687
 108   2.0000      -0.396581       -10.7915
 109   2.0000      -0.394531       -10.7357
 110   2.0000      -0.391685       -10.6583
 111   2.0000      -0.387937       -10.5563
 112   2.0000      -0.380168       -10.3449
 113   2.0000      -0.370250       -10.0750
 114   2.0000      -0.368416       -10.0251
 115   2.0000      -0.366403        -9.9703
 116   2.0000      -0.352565        -9.5938
 117   2.0000      -0.352117        -9.5816
 118   2.0000      -0.335024        -9.1165
 119   2.0000      -0.329006        -8.9527
 120   2.0000      -0.324143        -8.8204
 121   2.0000      -0.316318        -8.6075
 122   2.0000      -0.308589        -8.3971
 123   2.0000      -0.305685        -8.3181
 124   2.0000      -0.294588        -8.0162
 125   2.0000      -0.287087        -7.8120
 126   2.0000      -0.286565        -7.7978
 127   2.0000      -0.282673        -7.6919
 128   2.0000      -0.279662        -7.6100
 129   2.0000      -0.277984        -7.5643
 130   2.0000      -0.271486        -7.3875
 131   2.0000      -0.256041        -6.9672
 132   2.0000      -0.252624        -6.8742
 133   2.0000      -0.242599        -6.6015
 134   2.0000      -0.219952        -5.9852
 135   0.0000      -0.087477        -2.3804
 136   0.0000      -0.065905        -1.7934
 137   0.0000      -0.053587        -1.4582
 138   0.0000      -0.032947        -0.8965
 139   0.0000      -0.022674        -0.6170

MULLIKEN ATOMIC CHARGES
-----------------------
   0 C :   -0.534187
   1 C :    0.552431
   2 O :   -0.458396
   3 N :   -0.695844
   4 C :    0.346981
   5 C :   -0.187955
   6 C :   -0.181279
   7 C :    0.107756
   8 C :   -0.228415
   9 N :   -0.612118
  10 C :    0.415600
  11 N :   -0.376314
  12 C :    0.005079
  13 C :   -0.029959
  14 C :    0.904806
  15 F :   -0.300008
  16 F :   -0.299130
  17 F :   -0.292382
  18 C :   -0.130568
  19 C :   -0.097607
  20 Cl:    0.038098
  21 S :    1.237583
  22 O :   -0.534012
  23 O :   -0.530088
  24 C :   -0.142808
  25 C :   -0.150395
  26 C :   -0.142226
  27 C :    0.081869
  28 C :    0.528678
  29 O :   -0.444122
  30 O :   -0.625235
  31 C :   -0.151790
  32 C :   -0.135894
  33 C :   -0.131476
  34 C :   -0.132874
  35 H :    0.160922
  36 H :    0.200012
  37 H :    0.177931
  38 H :    0.325199
  39 H :    0.120364
  40 H :    0.130986
  41 H :    0.159168
  42 H :    0.187936
  43 H :    0.182485
  44 H :    0.190720
  45 H :    0.197288
  46 H :    0.180860
  47 H :    0.434327
  48 H :    0.169432
  49 H :    0.193237
  50 H :    0.156600
  51 H :    0.158736
Sum of atomic charges:    0.0000000

LOEWDIN ATOMIC CHARGES
----------------------
   0 C :   -0.380679
   1 C :    0.143044
   2 O :   -0.276339
   3 N :   -0.217679
   4 C :    0.044729
   5 C :   -0.157284
   6 C :   -0.129016
   7 C :   -0.056658
   8 C :   -0.145085
   9 N :   -0.281428
  10 C :    0.065888
  11 N :   -0.114550
  12 C :   -0.044970
  13 C :   -0.077398
  14 C :    0.313810
  15 F :   -0.108293
  16 F :   -0.108060
  17 F :   -0.109997
  18 C :   -0.089427
  19 C :   -0.095732
  20 Cl:    0.070086
  21 S :    1.272578
  22 O :   -0.561668
  23 O :   -0.557351
  24 C :   -0.177698
  25 C :   -0.105298
  26 C :   -0.088611
  27 C :   -0.039302
  28 C :    0.181744
  29 O :   -0.260912
  30 O :   -0.336672
  31 C :   -0.104620
  32 C :   -0.094523
  33 C :   -0.097447
  34 C :   -0.117874
  35 H :    0.138042
  36 H :    0.160721
  37 H :    0.151016
  38 H :    0.255260
  39 H :    0.128410
  40 H :    0.132467
  41 H :    0.123210
  42 H :    0.150142
  43 H :    0.152094
  44 H :    0.164023
  45 H :    0.163959
  46 H :    0.160379
  47 H :    0.349690
  48 H :    0.153114
  49 H :    0.164791
  50 H :    0.145345
  51 H :    0.150027

  Mayer bond orders larger than 0.100000
B(  0-C ,  1-C ) :   0.9846 B(  0-C , 35-H ) :   0.9333 B(  0-C , 36-H ) :   0.9380
B(  0-C , 37-H ) :   0.9280 B(  1-C ,  2-O ) :   1.8635 B(  1-C ,  3-N ) :   1.0330
B(  3-N ,  4-C ) :   0.8717 B(  3-N , 38-H ) :   0.8303 B(  4-C ,  5-C ) :   1.4103
B(  4-C , 34-C ) :   1.4074 B(  5-C ,  6-C ) :   1.4285 B(  5-C , 39-H ) :   0.9247
B(  6-C ,  7-C ) :   1.4360 B(  6-C , 40-H ) :   0.9197 B(  7-C ,  8-C ) :   0.9757
B(  7-C , 33-C ) :   1.4064 B(  8-C ,  9-N ) :   0.8926 B(  8-C , 41-H ) :   0.9227
B(  8-C , 42-H ) :   0.9118 B(  9-N , 10-C ) :   0.9483 B(  9-N , 21-S ) :   0.7670
B( 10-C , 11-N ) :   1.3716 B( 10-C , 19-C ) :   1.3454 B( 11-N , 12-C ) :   1.4119
B( 12-C , 13-C ) :   1.3586 B( 12-C , 43-H ) :   0.9176 B( 13-C , 14-C ) :   0.9739
B( 13-C , 18-C ) :   1.4116 B( 14-C , 15-F ) :   0.9510 B( 14-C , 16-F ) :   0.9538
B( 14-C , 17-F ) :   0.9874 B( 18-C , 19-C ) :   1.3876 B( 18-C , 44-H ) :   0.9071
B( 19-C , 20-Cl) :   1.0546 B( 21-S , 22-O ) :   1.6459 B( 21-S , 23-O ) :   1.6390
B( 21-S , 24-C ) :   0.8151 B( 24-C , 25-C ) :   1.3791 B( 24-C , 32-C ) :   1.4000
B( 25-C , 26-C ) :   1.4241 B( 25-C , 45-H ) :   0.8943 B( 26-C , 27-C ) :   1.3982
B( 26-C , 46-H ) :   0.9101 B( 27-C , 28-C ) :   1.0083 B( 27-C , 31-C ) :   1.3838
B( 28-C , 29-O ) :   1.8614 B( 28-C , 30-O ) :   1.0228 B( 30-O , 47-H ) :   0.7418
B( 31-C , 32-C ) :   1.4074 B( 31-C , 48-H ) :   0.9161 B( 32-C , 49-H ) :   0.9047
B( 33-C , 34-C ) :   1.4491 B( 33-C , 50-H ) :   0.9114 B( 34-C , 51-H ) :   0.9113

FINAL SINGLE POINT ENERGY     -2545.718675309956

DIPOLE MOMENT
-------------

Method             : SCF
Type of density    : Electron Density
Multiplicity       :   1
Irrep              :   0
Energy             : -2545.7186753099563248 Eh
Relativity type    :
Basis              : AO
                                X                 Y                 Z
Electronic contribution:    -29.172806697     -50.970163215      -1.191448614
Nuclear contribution   :     29.267528629      53.166332720       0.186891779
                        -----------------------------------------
Total Dipole Moment    :      0.094721932       2.196169505      -1.004556835
                        -----------------------------------------
Magnitude (a.u.)       :      2.416871361
Magnitude (Debye)      :      6.143198792

Rotational constants in cm-1:             0.003857             0.002021             0.001425
Rotational constants in MHz :           115.619658            60.581059            42.733244

                             ****ORCA TERMINATED NORMALLY****
TOTAL RUN TIME: 0 days 0 hours 6 minutes 56 seconds 559 msec
