                         Program Version 6.0.0  -   RELEASE  -
|  1> ! B3LYP 6-31G* SP
|  2>
|  3> * xyz 0 1
|  4> C -0.9123 -4.3374 0.8087
|  5> C -1.7830 -3.6041 -0.1836
|  6> C -2.6575 -4.3982 -0.9494
|  7> C -3.3429 -3.8702 -2.0366
|  8> C -3.1521 -2.5455 -2.4018
|  9> C -2.3222 -1.7133 -1.6400
| 10> C -2.1250 -0.3929 -2.0517
| 11> N -1.3309 0.4330 -1.3372
| 12> C -0.7512 0.0511 -0.1738
| 13> N 0.0722 0.9977 0.5187
| 14> C 1.4704 1.1657 0.1161
| 15> C 2.2402 -0.1069 0.3419
| 16> C 2.3658 -1.0498 -0.6892
| 17> C 3.0152 -2.2647 -0.4574
| 18> C 3.5420 -2.5624 0.8049
| 19> O 4.1797 -3.8009 0.9810
| 20> C 4.7326 -4.2759 2.2067
| 21> F 3.7459 -4.3588 3.1747
| 22> F 5.2602 -5.5356 2.0010
| 23> F 5.7429 -3.4332 2.6327
| 24> C 3.4108 -1.6183 1.8417
| 25> C 2.7599 -0.4024 1.6103
| 26> S -0.7051 2.2498 1.4315
| 27> O -2.0262 1.7544 1.9522
| 28> O 0.1515 2.6272 2.6072
| 29> C -0.9617 3.6470 0.3936
| 30> C -2.1305 3.7525 -0.3704
| 31> C -2.3249 4.8518 -1.2130
| 32> C -1.3482 5.8592 -1.3072
| 33> C -1.5462 7.0242 -2.1969
| 34> O -2.5931 7.1267 -2.8915
| 35> O -0.5755 8.0182 -2.2774
| 36> C -0.1732 5.7409 -0.5444
| 37> C 0.0185 4.6412 0.2973
| 38> C -0.9684 -1.2503 0.3423
| 39> C -0.5497 -1.5332 1.7688
| 40> C -1.6778 -2.1993 -0.4649
| 41> H -0.8990 -5.4300 0.6061
| 42> H -1.2930 -4.2113 1.8411
| 43> H 0.1422 -4.0097 0.7126
| 44> H -2.7804 -5.4524 -0.7312
| 45> H -3.9940 -4.5038 -2.6251
| 46> H -3.6597 -2.1679 -3.2815
| 47> H -2.5862 -0.0195 -2.9577
| 48> H 1.9436 1.9906 0.6908
| 49> H 1.5117 1.4574 -0.9554
| 50> H 1.9508 -0.8489 -1.6680
| 51> H 3.1037 -2.9836 -1.2619
| 52> H 3.7982 -1.8141 2.8320
| 53> H 2.6499 0.3039 2.4240
| 54> H -2.8901 2.9829 -0.3181
| 55> H -3.2386 4.9114 -1.7912
| 56> H -0.6974 8.8147 -2.8893
| 57> H 0.6003 6.4961 -0.5992
| 58> H 0.9339 4.5644 0.8701
| 59> H -0.3790 -0.6035 2.3488
| 60> H -1.3627 -2.0561 2.3091
| 61> H 0.3955 -2.1078 1.7988
| 62> *
| 63>
| 64>                          ****END OF INPUT****

CARTESIAN COORDINATES (ANGSTROEM)
---------------------------------
  C     -0.912300   -4.337400    0.808700
  C     -1.783000   -3.604100   -0.183600
  C     -2.657500   -4.398200   -0.949400
  C     -3.342900   -3.870200   -2.036600
  C     -3.152100   -2.545500   -2.401800
  C     -2.322200   -1.713300   -1.640000
  C     -2.125000   -0.392900   -2.051700
  N     -1.330900    0.433000   -1.337200
  C     -0.751200    0.051100   -0.173800
  N      0.072200    0.997700    0.518700
  C      1.470400    1.165700    0.116100
  C      2.240200   -0.106900    0.341900
  C      2.365800   -1.049800   -0.689200
  C      3.015200   -2.264700   -0.457400
  C      3.542000   -2.562400    0.804900
  O      4.179700   -3.800900    0.981000
  C      4.732600   -4.275900    2.206700
  F      3.745900   -4.358800    3.174700
  F      5.260200   -5.535600    2.001000
  F      5.742900   -3.433200    2.632700
  C      3.410800   -1.618300    1.841700
  C      2.759900   -0.402400    1.610300
  S     -0.705100    2.249800    1.431500
  O     -2.026200    1.754400    1.952200
  O      0.151500    2.627200    2.607200
  C     -0.961700    3.647000    0.393600
  C     -2.130500    3.752500   -0.370400
  C     -2.324900    4.851800   -1.213000
  C     -1.348200    5.859200   -1.307200
  C     -1.546200    7.024200   -2.196900
  O     -2.593100    7.126700   -2.891500
  O     -0.575500    8.018200   -2.277400
  C     -0.173200    5.740900   -0.544400
  C      0.018500    4.641200    0.297300
  C     -0.968400   -1.250300    0.342300
  C     -0.549700   -1.533200    1.768800
  C     -1.677800   -2.199300   -0.464900
  H     -0.899000   -5.430000    0.606100
  H     -1.293000   -4.211300    1.841100
  H      0.142200   -4.009700    0.712600
  H     -2.780400   -5.452400   -0.731200
  H     -3.994000   -4.503800   -2.625100
  H     -3.659700   -2.167900   -3.281500
  H     -2.586200   -0.019500   -2.957700
  H      1.943600    1.990600    0.690800
  H      1.511700    1.457400   -0.955400
  H      1.950800   -0.848900   -1.668000
  H      3.103700   -2.983600   -1.261900
  H      3.798200   -1.814100    2.832000
  H      2.649900    0.303900    2.424000
  H     -2.890100    2.982900   -0.318100
  H     -3.238600    4.911400   -1.791200
  H     -0.697400    8.814700   -2.889300
  H      0.600300    6.496100   -0.599200
  H      0.933900    4.564400    0.870100
  H     -0.379000   -0.603500    2.348800
  H     -1.362700   -2.056100    2.309100
  H      0.395500   -2.107800    1.798800

 Total Charge           Charge          ....    0
 Multiplicity           Mult            ....    1
 Number of Electrons    NEL             ....  274
 Basis Dimension        Dim             ....  564

ORBITAL ENERGIES
----------------

  NO   OCC          E(Eh)            E(eV)
   0   2.0000     -89.094365     -2424.3809
   1   2.0000     -24.744600      -673.3348
   2   2.0000     -24.742404      -673.2750
   3   2.0000     -24.742009      -673.2643
   4   2.0000     -19.217457      -522.9336
   5   2.0000     -19.193390      -522.2787
   6   2.0000     -19.134361      -520.6724
   7   2.0000     -19.126569      -520.4604
   8   2.0000     -19.124368      -520.4005
   9   2.0000     -14.370800      -391.0493
  10   2.0000     -14.331986      -389.9932
  11   2.0000     -10.507576      -285.9257
  12   2.0000     -10.331798      -281.1425
  13   2.0000     -10.274531      -279.5842
  14   2.0000     -10.255761      -279.0735
  15   2.0000     -10.236132      -278.5393
  16   2.0000     -10.235025      -278.5092
  17   2.0000     -10.226754      -278.2841
  18   2.0000     -10.223776      -278.2031
  19   2.0000     -10.215845      -277.9873
  20   2.0000     -10.213512      -277.9238
  21   2.0000     -10.212708      -277.9019
  22   2.0000     -10.212057      -277.8842
  23   2.0000     -10.211539      -277.8701
  24   2.0000     -10.210291      -277.8361
  25   2.0000     -10.208641      -277.7912
  26   2.0000     -10.202504      -277.6243
  27   2.0000     -10.202189      -277.6157
  28   2.0000     -10.201651      -277.6010
  29   2.0000     -10.200748      -277.5765
  30   2.0000     -10.200293      -277.5641
  31   2.0000     -10.199201      -277.5344
  32   2.0000     -10.192786      -277.3598
  33   2.0000     -10.192464      -277.3510
  34   2.0000     -10.192087      -277.3408
  35   2.0000     -10.183448      -277.1057
  36   2.0000     -10.171504      -276.7807
  37   2.0000      -8.130384      -221.2390
  38   2.0000      -6.095308      -165.8618
  39   2.0000      -6.093506      -165.8127
  40   2.0000      -6.092979      -165.7984
  41   2.0000      -1.307345       -35.5747
  42   2.0000      -1.228080       -33.4178
  43   2.0000      -1.227558       -33.4036
  44   2.0000      -1.087351       -29.5883
  45   2.0000      -1.082727       -29.4625
  46   2.0000      -1.078306       -29.3422
  47   2.0000      -0.992016       -26.9941
  48   2.0000      -0.965087       -26.2614
  49   2.0000      -0.960863       -26.1464
  50   2.0000      -0.915216       -24.9043
  51   2.0000      -0.884980       -24.0815
  52   2.0000      -0.870259       -23.6810
  53   2.0000      -0.864296       -23.5187
  54   2.0000      -0.807703       -21.9787
  55   2.0000      -0.802675       -21.8419
  56   2.0000      -0.788864       -21.4661
  57   2.0000      -0.781819       -21.2744
  58   2.0000      -0.770979       -20.9794
  59   2.0000      -0.763532       -20.7768
  60   2.0000      -0.756261       -20.5789
  61   2.0000      -0.730503       -19.8780
  62   2.0000      -0.707346       -19.2479
  63   2.0000      -0.703277       -19.1371
  64   2.0000      -0.688838       -18.7442
  65   2.0000      -0.674888       -18.3646
  66   2.0000      -0.650236       -17.6938
  67   2.0000      -0.637656       -17.3515
  68   2.0000      -0.635284       -17.2870
  69   2.0000      -0.629623       -17.1329
  70   2.0000      -0.627012       -17.0619
  71   2.0000      -0.612461       -16.6659
  72   2.0000      -0.599445       -16.3117
  73   2.0000      -0.595328       -16.1997
  74   2.0000      -0.592994       -16.1362
  75   2.0000      -0.580333       -15.7917
  76   2.0000      -0.577211       -15.7067
  77   2.0000      -0.558373       -15.1941
  78   2.0000      -0.538390       -14.6503
  79   2.0000      -0.527563       -14.3557
  80   2.0000      -0.520389       -14.1605
  81   2.0000      -0.502097       -13.6627
  82   2.0000      -0.493841       -13.4381
  83   2.0000      -0.493393       -13.4259
  84   2.0000      -0.484769       -13.1912
  85   2.0000      -0.480208       -13.0671
  86   2.0000      -0.475720       -12.9450
  87   2.0000      -0.473314       -12.8795
  88   2.0000      -0.470879       -12.8133
  89   2.0000      -0.467641       -12.7251
  90   2.0000      -0.462757       -12.5923
  91   2.0000      -0.457503       -12.4493
  92   2.0000      -0.453356       -12.3364
  93   2.0000      -0.449690       -12.2367
  94   2.0000      -0.449034       -12.2188
  95   2.0000      -0.443194       -12.0599
  96   2.0000      -0.441159       -12.0045
  97   2.0000      -0.440799       -11.9948
  98   2.0000      -0.438866       -11.9421
  99   2.0000      -0.438553       -11.9336
 100   2.0000      -0.432733       -11.7753
 101   2.0000      -0.424998       -11.5648
 102   2.0000      -0.419968       -11.4279
 103   2.0000      -0.419536       -11.4162
 104   2.0000      -0.416908       -11.3446
 105   2.0000      -0.413494       -11.2517
 106   2.0000      -0.411150       -11.1880
 107   2.0000      -0.410309       -11.1651
 108   2.0000      -0.404255       -11.0003
 109   2.0000      -0.395757       -10.7691
 110   2.0000      -0.389439       -10.5972
 111   2.0000      -0.384375       -10.4594
 112   2.0000      -0.381932       -10.3929
 113   2.0000      -0.379840       -10.3360
 114   2.0000      -0.378007       -10.2861
 115   2.0000      -0.372069       -10.1245
 116   2.0000      -0.364240        -9.9115
 117   2.0000      -0.359909        -9.7936
 118   2.0000      -0.352885        -9.6025
 119   2.0000      -0.350021        -9.5246
 120   2.0000      -0.348782        -9.4909
 121   2.0000      -0.338972        -9.2239
 122   2.0000      -0.324475        -8.8294
 123   2.0000      -0.318017        -8.6537
 124   2.0000      -0.305328        -8.3084
 125   2.0000      -0.293652        -7.9907
 126   2.0000      -0.285272        -7.7627
 127   2.0000      -0.282554        -7.6887
 128   2.0000      -0.274156        -7.4602
 129   2.0000      -0.272600        -7.4178
 130   2.0000      -0.270903        -7.3717
 131   2.0000      -0.266805        -7.2601
 132   2.0000      -0.264013        -7.1842
 133   2.0000      -0.258084        -7.0228
 134   2.0000      -0.252494        -6.8707
 135   2.0000      -0.244290        -6.6475
 136   2.0000      -0.216761        -5.8984
 137   0.0000      -0.077417        -2.1066
 138   0.0000      -0.059977        -1.6321
 139   0.0000      -0.033891        -0.9222
 140   0.0000      -0.025186        -0.6854
 141   0.0000      -0.018486        -0.5030

MULLIKEN ATOMIC CHARGES
-----------------------
   0 C :   -0.525962
   1 C :    0.102959
   2 C :   -0.175817
   3 C :   -0.118133
   4 C :   -0.205830
   5 C :    0.140376
   6 C :   -0.061095
   7 N :   -0.393193
   8 C :    0.304868
   9 N :   -0.599515
  10 C :   -0.234393
  11 C :    0.149950
  12 C :   -0.162273
  13 C :   -0.176821
  14 C :    0.351890
  15 O :   -0.545619
  16 C :    1.086541
  17 F :   -0.291693
  18 F :   -0.278344
  19 F :   -0.289702
  20 C :   -0.194017
  21 C :   -0.165646
  22 S :    1.228376
  23 O :   -0.554807
  24 O :   -0.554613
  25 C :   -0.118973
  26 C :   -0.126641
  27 C :   -0.143292
  28 C :    0.083629
  29 C :    0.526622
  30 O :   -0.445845
  31 O :   -0.623855
  32 C :   -0.147627
  33 C :   -0.152772
  34 C :    0.102598
  35 C :   -0.539116
  36 C :    0.066618
  37 H :    0.155291
  38 H :    0.168502
  39 H :    0.168295
  40 H :    0.133792
  41 H :    0.134175
  42 H :    0.135144
  43 H :    0.150534
  44 H :    0.180533
  45 H :    0.163148
  46 H :    0.148082
  47 H :    0.150526
  48 H :    0.157772
  49 H :    0.164403
  50 H :    0.186509
  51 H :    0.178214
  52 H :    0.433039
  53 H :    0.169529
  54 H :    0.173464
  55 H :    0.201578
  56 H :    0.160889
  57 H :    0.167749
Sum of atomic charges:   -0.0000000

LOEWDIN ATOMIC CHARGES
----------------------
   0 C :   -0.352872
   1 C :   -0.004895
   2 C :   -0.126432
   3 C :   -0.124382
   4 C :   -0.122242
   5 C :   -0.025035
   6 C :   -0.066858
   7 N :   -0.138298
   8 C :    0.019628
   9 N :   -0.278285
  10 C :   -0.146965
  11 C :   -0.037421
  12 C :   -0.118703
  13 C :   -0.145611
  14 C :    0.085633
  15 O :   -0.160009
  16 C :    0.359919
  17 F :   -0.105716
  18 F :   -0.086779
  19 F :   -0.103278
  20 C :   -0.160914
  21 C :   -0.109404
  22 S :    1.264582
  23 O :   -0.570884
  24 O :   -0.576475
  25 C :   -0.172647
  26 C :   -0.091930
  27 C :   -0.086024
  28 C :   -0.040722
  29 C :    0.179314
  30 O :   -0.261992
  31 O :   -0.334867
  32 C :   -0.101156
  33 C :   -0.110920
  34 C :    0.007318
  35 C :   -0.359199
  36 C :   -0.008161
  37 H :    0.130909
  38 H :    0.139571
  39 H :    0.139331
  40 H :    0.135022
  41 H :    0.134808
  42 H :    0.135589
  43 H :    0.136163
  44 H :    0.146669
  45 H :    0.126629
  46 H :    0.141886
  47 H :    0.145917
  48 H :    0.144267
  49 H :    0.148697
  50 H :    0.162481
  51 H :    0.159443
  52 H :    0.348866
  53 H :    0.153110
  54 H :    0.153568
  55 H :    0.151523
  56 H :    0.137264
  57 H :    0.140970

  Mayer bond orders larger than 0.100000
B(  0-C ,  1-C ) :   0.9921 B(  0-C , 37-H ) :   0.9429 B(  0-C , 38-H ) :   0.9262
B(  0-C , 39-H ) :   0.9314 B(  1-C ,  2-C ) :   1.4982 B(  1-C ,  4-C ) :   0.1018
B(  1-C , 36-C ) :   1.2664 B(  2-C ,  3-C ) :   1.3475 B(  2-C , 40-H ) :   0.9234
B(  3-C ,  4-C ) :   1.5137 B(  3-C , 41-H ) :   0.9280 B(  4-C ,  5-C ) :   1.2828
B(  4-C , 42-H ) :   0.9239 B(  5-C ,  6-C ) :   1.2412 B(  5-C , 36-C ) :   1.2780
B(  6-C ,  7-N ) :   1.4943 B(  6-C , 34-C ) :   0.1016 B(  6-C , 43-H ) :   0.9264
B(  7-N ,  8-C ) :   1.2882 B(  8-C ,  9-N ) :   0.8950 B(  8-C , 34-C ) :   1.4367
B(  9-N , 10-C ) :   0.9201 B(  9-N , 22-S ) :   0.8063 B( 10-C , 11-C ) :   0.9698
B( 10-C , 44-H ) :   0.9132 B( 10-C , 45-H ) :   0.9200 B( 11-C , 12-C ) :   1.4343
B( 11-C , 21-C ) :   1.4285 B( 12-C , 13-C ) :   1.4305 B( 12-C , 46-H ) :   0.9198
B( 13-C , 14-C ) :   1.4170 B( 13-C , 47-H ) :   0.9179 B( 14-C , 15-O ) :   0.8264
B( 14-C , 20-C ) :   1.3850 B( 15-O , 16-C ) :   0.9881 B( 16-C , 17-F ) :   0.9689
B( 16-C , 18-F ) :   1.0087 B( 16-C , 19-F ) :   0.9698 B( 20-C , 21-C ) :   1.4294
B( 20-C , 48-H ) :   0.9090 B( 21-C , 49-H ) :   0.9163 B( 22-S , 23-O ) :   1.6205
B( 22-S , 24-O ) :   1.6280 B( 22-S , 25-C ) :   0.8098 B( 25-C , 26-C ) :   1.3881
B( 25-C , 33-C ) :   1.3948 B( 26-C , 27-C ) :   1.4219 B( 26-C , 50-H ) :   0.9077
B( 27-C , 28-C ) :   1.3990 B( 27-C , 51-H ) :   0.9103 B( 28-C , 29-C ) :   1.0088
B( 28-C , 32-C ) :   1.3868 B( 29-C , 30-O ) :   1.8627 B( 29-C , 31-O ) :   1.0242
B( 31-O , 52-H ) :   0.7425 B( 32-C , 33-C ) :   1.4168 B( 32-C , 53-H ) :   0.9154
B( 33-C , 54-H ) :   0.9124 B( 34-C , 35-C ) :   1.0032 B( 34-C , 36-C ) :   1.2508
B( 35-C , 55-H ) :   0.9186 B( 35-C , 56-H ) :   0.9318 B( 35-C , 57-H ) :   0.9154

FINAL SINGLE POINT ENERGY     -2185.599636827939

DIPOLE MOMENT
-------------

Method             : SCF
Type of density    : Electron Density
Multiplicity       :   1
Irrep              :   0
Energy             : -2185.5996368279388662 Eh
Relativity type    :
Basis              : AO
                                X                 Y                 Z
Electronic contribution:     25.670144097      -6.511879996      11.730734065
Nuclear contribution   :    -25.029556522       5.914001184     -13.347813542
                        -----------------------------------------
Total Dipole Moment    :      0.640587575      -0.597878812      -1.617079477
                        -----------------------------------------
Magnitude (a.u.)       :      1.839227433
Magnitude (Debye)      :      4.674944610

Rotational constants in cm-1:             0.004809             0.001708             0.001401
Rotational constants in MHz :           144.165128            51.203616            42.002996

                             ****ORCA TERMINATED NORMALLY****
TOTAL RUN TIME: 0 days 0 hours 7 minutes 22 seconds 627 msec
