                         Program Version 6.0.0  -   RELEASE  -
|  1> ! B3LYP 6-31G* SP
|  2>
|  3> * xyz 0 1
|  4> O 7.1833 1.9615 -3.3218
|  5> C 7.1663 1.5163 -2.1422
|  6> O 8.3437 1.5116 -1.3986
|  7> C 5.9096 1.0045 -1.5523
|  8> C 5.8930 0.5088 -0.2377
|  9> C 4.7073 0.0241 0.3219
| 10> C 3.5139 0.0408 -0.4126
| 11> N 2.3155 -0.4871 0.1805
| 12> C 1.0034 0.0669 -0.0246
| 13> O 0.8558 1.1074 -0.7208
| 14> N -0.1532 -0.5615 0.5583
| 15> C -0.1274 -1.0522 1.9389
| 16> C -0.5004 -2.5297 1.9543
| 17> C -1.7664 -2.7870 1.1761
| 18> C -2.5086 -3.9479 1.4474
| 19> C -3.6479 -4.2511 0.6993
| 20> C -4.0488 -3.4087 -0.3378
| 21> C -3.3123 -2.2594 -0.6307
| 22> C -2.1673 -1.9340 0.1181
| 23> C -1.4008 -0.6639 -0.2169
| 24> C -2.2522 0.5765 -0.0086
| 25> C -2.2587 1.5903 -0.9809
| 26> C -3.0177 2.7490 -0.7958
| 27> C -3.7706 2.9284 0.3764
| 28> C -4.6291 4.1550 0.5560
| 29> F -4.7360 4.4820 1.8968
| 30> F -5.8915 3.9046 0.0512
| 31> F -4.0835 5.2384 -0.1111
| 32> C -3.7854 1.9052 1.3384
| 33> C -3.0261 0.7469 1.1539
| 34> C 3.5324 0.5121 -1.7363
| 35> C 4.7177 0.9963 -2.2980
| 36> H 9.2095 1.8597 -1.7928
| 37> H 6.7959 0.4927 0.3596
| 38> H 4.7151 -0.3559 1.3360
| 39> H 2.4218 -1.2949 0.8334
| 40> H 0.8677 -0.9107 2.4099
| 41> H -0.8506 -0.4764 2.5525
| 42> H -0.6227 -2.8570 3.0098
| 43> H 0.3240 -3.1196 1.4989
| 44> H -2.2009 -4.6222 2.2373
| 45> H -4.2166 -5.1455 0.9192
| 46> H -4.9303 -3.6483 -0.9184
| 47> H -3.6356 -1.6170 -1.4407
| 48> H -1.1349 -0.7486 -1.2955
| 49> H -1.6793 1.4833 -1.8895
| 50> H -3.0163 3.5046 -1.5714
| 51> H -4.3877 1.9999 2.2333
| 52> H -3.0599 -0.0237 1.9128
| 53> H 2.6410 0.4811 -2.3481
| 54> H 4.7020 1.3547 -3.3197
| 55> *
| 56>
| 57>                          ****END OF INPUT****

CARTESIAN COORDINATES (ANGSTROEM)
---------------------------------
  O      7.183300    1.961500   -3.321800
  C      7.166300    1.516300   -2.142200
  O      8.343700    1.511600   -1.398600
  C      5.909600    1.004500   -1.552300
  C      5.893000    0.508800   -0.237700
  C      4.707300    0.024100    0.321900
  C      3.513900    0.040800   -0.412600
  N      2.315500   -0.487100    0.180500
  C      1.003400    0.066900   -0.024600
  O      0.855800    1.107400   -0.720800
  N     -0.153200   -0.561500    0.558300
  C     -0.127400   -1.052200    1.938900
  C     -0.500400   -2.529700    1.954300
  C     -1.766400   -2.787000    1.176100
  C     -2.508600   -3.947900    1.447400
  C     -3.647900   -4.251100    0.699300
  C     -4.048800   -3.408700   -0.337800
  C     -3.312300   -2.259400   -0.630700
  C     -2.167300   -1.934000    0.118100
  C     -1.400800   -0.663900   -0.216900
  C     -2.252200    0.576500   -0.008600
  C     -2.258700    1.590300   -0.980900
  C     -3.017700    2.749000   -0.795800
  C     -3.770600    2.928400    0.376400
  C     -4.629100    4.155000    0.556000
  F     -4.736000    4.482000    1.896800
  F     -5.891500    3.904600    0.051200
  F     -4.083500    5.238400   -0.111100
  C     -3.785400    1.905200    1.338400
  C     -3.026100    0.746900    1.153900
  C      3.532400    0.512100   -1.736300
  C      4.717700    0.996300   -2.298000
  H      9.209500    1.859700   -1.792800
  H      6.795900    0.492700    0.359600
  H      4.715100   -0.355900    1.336000
  H      2.421800   -1.294900    0.833400
  H      0.867700   -0.910700    2.409900
  H     -0.850600   -0.476400    2.552500
  H     -0.622700   -2.857000    3.009800
  H      0.324000   -3.119600    1.498900
  H     -2.200900   -4.622200    2.237300
  H     -4.216600   -5.145500    0.919200
  H     -4.930300   -3.648300   -0.918400
  H     -3.635600   -1.617000   -1.440700
  H     -1.134900   -0.748600   -1.295500
  H     -1.679300    1.483300   -1.889500
  H     -3.016300    3.504600   -1.571400
  H     -4.387700    1.999900    2.233300
  H     -3.059900   -0.023700    1.912800
  H      2.641000    0.481100   -2.348100
  H      4.702000    1.354700   -3.319700

 Total Charge           Charge          ....    0
 Multiplicity           Mult            ....    1
 Number of Electrons    NEL             ....  228
 Basis Dimension        Dim             ....  486

ORBITAL ENERGIES
----------------

  NO   OCC          E(Eh)            E(eV)
   0   2.0000     -24.711148      -672.4245
   1   2.0000     -24.710867      -672.4169
   2   2.0000     -24.707532      -672.3261
   3   2.0000     -19.179888      -521.9113
   4   2.0000     -19.117626      -520.2170
   5   2.0000     -19.116281      -520.1805
   6   2.0000     -14.381512      -391.3408
   7   2.0000     -14.358530      -390.7155
   8   2.0000     -10.425793      -283.7003
   9   2.0000     -10.327995      -281.0390
  10   2.0000     -10.315990      -280.7124
  11   2.0000     -10.245846      -278.8037
  12   2.0000     -10.241663      -278.6898
  13   2.0000     -10.233971      -278.4805
  14   2.0000     -10.204494      -277.6784
  15   2.0000     -10.203956      -277.6638
  16   2.0000     -10.203159      -277.6421
  17   2.0000     -10.202001      -277.6106
  18   2.0000     -10.199360      -277.5387
  19   2.0000     -10.198799      -277.5234
  20   2.0000     -10.198054      -277.5032
  21   2.0000     -10.195951      -277.4459
  22   2.0000     -10.194708      -277.4121
  23   2.0000     -10.194613      -277.4095
  24   2.0000     -10.192538      -277.3531
  25   2.0000     -10.190903      -277.3086
  26   2.0000     -10.190430      -277.2957
  27   2.0000     -10.189710      -277.2761
  28   2.0000     -10.189464      -277.2694
  29   2.0000     -10.188809      -277.2516
  30   2.0000     -10.188387      -277.2401
  31   2.0000     -10.186673      -277.1935
  32   2.0000      -1.270866       -34.5820
  33   2.0000      -1.196425       -32.5564
  34   2.0000      -1.195282       -32.5253
  35   2.0000      -1.063673       -28.9440
  36   2.0000      -1.030801       -28.0495
  37   2.0000      -0.976702       -26.5774
  38   2.0000      -0.939106       -25.5544
  39   2.0000      -0.928123       -25.2555
  40   2.0000      -0.865132       -23.5414
  41   2.0000      -0.860169       -23.4064
  42   2.0000      -0.853710       -23.2306
  43   2.0000      -0.806763       -21.9531
  44   2.0000      -0.788052       -21.4440
  45   2.0000      -0.763047       -20.7636
  46   2.0000      -0.758853       -20.6494
  47   2.0000      -0.754920       -20.5424
  48   2.0000      -0.751111       -20.4388
  49   2.0000      -0.739663       -20.1273
  50   2.0000      -0.700355       -19.0576
  51   2.0000      -0.672427       -18.2977
  52   2.0000      -0.655624       -17.8404
  53   2.0000      -0.649693       -17.6790
  54   2.0000      -0.627349       -17.0710
  55   2.0000      -0.620178       -16.8759
  56   2.0000      -0.612260       -16.6604
  57   2.0000      -0.600491       -16.3402
  58   2.0000      -0.597365       -16.2551
  59   2.0000      -0.585635       -15.9359
  60   2.0000      -0.561858       -15.2889
  61   2.0000      -0.559398       -15.2220
  62   2.0000      -0.558512       -15.1979
  63   2.0000      -0.552236       -15.0271
  64   2.0000      -0.543858       -14.7991
  65   2.0000      -0.532675       -14.4948
  66   2.0000      -0.517372       -14.0784
  67   2.0000      -0.504817       -13.7368
  68   2.0000      -0.493741       -13.4354
  69   2.0000      -0.490284       -13.3413
  70   2.0000      -0.469888       -12.7863
  71   2.0000      -0.465328       -12.6622
  72   2.0000      -0.463024       -12.5995
  73   2.0000      -0.454229       -12.3602
  74   2.0000      -0.450365       -12.2551
  75   2.0000      -0.446931       -12.1616
  76   2.0000      -0.444255       -12.0888
  77   2.0000      -0.440042       -11.9742
  78   2.0000      -0.437356       -11.9010
  79   2.0000      -0.436758       -11.8848
  80   2.0000      -0.431354       -11.7377
  81   2.0000      -0.427934       -11.6447
  82   2.0000      -0.424031       -11.5385
  83   2.0000      -0.420893       -11.4531
  84   2.0000      -0.419131       -11.4051
  85   2.0000      -0.416568       -11.3354
  86   2.0000      -0.412254       -11.2180
  87   2.0000      -0.402729       -10.9588
  88   2.0000      -0.397560       -10.8181
  89   2.0000      -0.396386       -10.7862
  90   2.0000      -0.391742       -10.6598
  91   2.0000      -0.389737       -10.6053
  92   2.0000      -0.388815       -10.5802
  93   2.0000      -0.386486       -10.5168
  94   2.0000      -0.368377       -10.0240
  95   2.0000      -0.366155        -9.9636
  96   2.0000      -0.360721        -9.8157
  97   2.0000      -0.355928        -9.6853
  98   2.0000      -0.354674        -9.6512
  99   2.0000      -0.350712        -9.5434
 100   2.0000      -0.346658        -9.4331
 101   2.0000      -0.340106        -9.2548
 102   2.0000      -0.339179        -9.2295
 103   2.0000      -0.306417        -8.3380
 104   2.0000      -0.290533        -7.9058
 105   2.0000      -0.277641        -7.5550
 106   2.0000      -0.262923        -7.1545
 107   2.0000      -0.257513        -7.0073
 108   2.0000      -0.256010        -6.9664
 109   2.0000      -0.250523        -6.8171
 110   2.0000      -0.249173        -6.7803
 111   2.0000      -0.242324        -6.5940
 112   2.0000      -0.234342        -6.3768
 113   2.0000      -0.228331        -6.2132
 114   0.0000      -0.050576        -1.3763
 115   0.0000      -0.024143        -0.6570
 116   0.0000      -0.015456        -0.4206
 117   0.0000      -0.011189        -0.3045
 118   0.0000      -0.008781        -0.2389

MULLIKEN ATOMIC CHARGES
-----------------------
   0 O :   -0.456430
   1 C :    0.517302
   2 O :   -0.628470
   3 C :    0.085396
   4 C :   -0.163923
   5 C :   -0.183497
   6 C :    0.345197
   7 N :   -0.709328
   8 C :    0.671986
   9 O :   -0.471621
  10 N :   -0.435159
  11 C :   -0.165381
  12 C :   -0.329471
  13 C :    0.105705
  14 C :   -0.183996
  15 C :   -0.120882
  16 C :   -0.131053
  17 C :   -0.165852
  18 C :    0.095387
  19 C :   -0.141246
  20 C :    0.210181
  21 C :   -0.158882
  22 C :   -0.163803
  23 C :   -0.014056
  24 C :    0.892938
  25 F :   -0.307114
  26 F :   -0.298708
  27 F :   -0.305808
  28 C :   -0.162907
  29 C :   -0.180944
  30 C :   -0.131026
  31 C :   -0.167143
  32 H :    0.427324
  33 H :    0.158674
  34 H :    0.128114
  35 H :    0.332464
  36 H :    0.146575
  37 H :    0.161478
  38 H :    0.143481
  39 H :    0.149976
  40 H :    0.124936
  41 H :    0.130204
  42 H :    0.133278
  43 H :    0.135742
  44 H :    0.167763
  45 H :    0.146992
  46 H :    0.151542
  47 H :    0.147641
  48 H :    0.136066
  49 H :    0.160114
  50 H :    0.170242
Sum of atomic charges:    0.0000000

LOEWDIN ATOMIC CHARGES
----------------------
   0 O :   -0.274167
   1 C :    0.176929
   2 O :   -0.341088
   3 C :   -0.064892
   4 C :   -0.100913
   5 C :   -0.150261
   6 C :    0.052198
   7 N :   -0.219822
   8 C :    0.168659
   9 O :   -0.289996
  10 N :   -0.119417
  11 C :   -0.154192
  12 C :   -0.231534
  13 C :   -0.029625
  14 C :   -0.131222
  15 C :   -0.127245
  16 C :   -0.128113
  17 C :   -0.122597
  18 C :   -0.024155
  19 C :   -0.034590
  20 C :   -0.005919
  21 C :   -0.114682
  22 C :   -0.111995
  23 C :   -0.071744
  24 C :    0.309537
  25 F :   -0.115362
  26 F :   -0.116019
  27 F :   -0.113864
  28 C :   -0.114785
  29 C :   -0.131028
  30 C :   -0.123268
  31 C :   -0.086438
  32 H :    0.344987
  33 H :    0.147975
  34 H :    0.132160
  35 H :    0.256188
  36 H :    0.127538
  37 H :    0.125559
  38 H :    0.129136
  39 H :    0.129131
  40 H :    0.130803
  41 H :    0.132757
  42 H :    0.134229
  43 H :    0.136229
  44 H :    0.146475
  45 H :    0.142072
  46 H :    0.143350
  47 H :    0.141281
  48 H :    0.135002
  49 H :    0.151340
  50 H :    0.155398

  Mayer bond orders larger than 0.100000
B(  0-O ,  1-C ) :   1.8561 B(  1-C ,  2-O ) :   1.0143 B(  1-C ,  3-C ) :   1.0194
B(  2-O , 32-H ) :   0.7459 B(  3-C ,  4-C ) :   1.3825 B(  3-C , 31-C ) :   1.3867
B(  4-C ,  5-C ) :   1.4327 B(  4-C , 33-H ) :   0.9164 B(  5-C ,  6-C ) :   1.3994
B(  5-C , 34-H ) :   0.9253 B(  6-C ,  7-N ) :   0.8738 B(  6-C , 30-C ) :   1.4050
B(  7-N ,  8-C ) :   1.0108 B(  7-N , 35-H ) :   0.8197 B(  8-C ,  9-O ) :   1.8058
B(  8-C , 10-N ) :   1.0299 B( 10-N , 11-C ) :   0.9503 B( 10-N , 19-C ) :   0.9380
B( 11-C , 12-C ) :   0.9792 B( 11-C , 36-H ) :   0.9324 B( 11-C , 37-H ) :   0.9181
B( 12-C , 13-C ) :   0.9921 B( 12-C , 38-H ) :   0.9273 B( 12-C , 39-H ) :   0.9232
B( 13-C , 14-C ) :   1.4048 B( 13-C , 18-C ) :   1.4425 B( 14-C , 15-C ) :   1.4511
B( 14-C , 40-H ) :   0.9258 B( 15-C , 16-C ) :   1.4378 B( 15-C , 41-H ) :   0.9293
B( 16-C , 17-C ) :   1.4478 B( 16-C , 42-H ) :   0.9291 B( 17-C , 18-C ) :   1.3972
B( 17-C , 43-H ) :   0.9222 B( 18-C , 19-C ) :   0.9537 B( 19-C , 20-C ) :   0.9259
B( 19-C , 44-H ) :   0.9122 B( 20-C , 21-C ) :   1.4246 B( 20-C , 29-C ) :   1.4119
B( 21-C , 22-C ) :   1.4216 B( 21-C , 45-H ) :   0.9177 B( 22-C , 23-C ) :   1.4108
B( 22-C , 46-H ) :   0.9201 B( 23-C , 24-C ) :   0.9805 B( 23-C , 28-C ) :   1.4084
B( 24-C , 25-F ) :   0.9471 B( 24-C , 26-F ) :   0.9843 B( 24-C , 27-F ) :   0.9479
B( 28-C , 29-C ) :   1.4310 B( 28-C , 47-H ) :   0.9210 B( 29-C , 48-H ) :   0.9166
B( 30-C , 31-C ) :   1.4304 B( 30-C , 49-H ) :   0.9110 B( 31-C , 50-H ) :   0.9116

FINAL SINGLE POINT ENERGY     -1559.834098126723

DIPOLE MOMENT
-------------

Method             : SCF
Type of density    : Electron Density
Multiplicity       :   1
Irrep              :   0
Energy             : -1559.8340981267228926 Eh
Relativity type    :
Basis              : AO
                                X                 Y                 Z
Electronic contribution:    -17.244113249      31.832728587      -2.641516145
Nuclear contribution   :     17.575351715     -34.328583660       4.047133962
                        -----------------------------------------
Total Dipole Moment    :      0.331238466      -2.495855072       1.405617817
                        -----------------------------------------
Magnitude (a.u.)       :      2.883534794
Magnitude (Debye)      :      7.329362974

Rotational constants in cm-1:             0.005446             0.002017             0.001584
Rotational constants in MHz :           163.261168            60.474250            47.475570

                             ****ORCA TERMINATED NORMALLY****
TOTAL RUN TIME: 0 days 0 hours 8 minutes 56 seconds 772 msec
