                         Program Version 6.0.0  -   RELEASE  -
|  1> ! B3LYP 6-31G* SP
|  2>
|  3> * xyz 0 1
|  4> C 4.3278 -1.7534 -2.3588
|  5> O 3.4730 -0.9155 -1.5880
|  6> C 2.7949 -1.3265 -0.4309
|  7> C 2.9271 -2.6226 0.0999
|  8> C 2.2260 -2.9835 1.2516
|  9> C 1.3796 -2.0654 1.8757
| 10> C 1.2126 -0.7752 1.3458
| 11> C 0.2703 0.1900 2.0349
| 12> N -0.4406 1.0779 1.0901
| 13> C 0.0491 2.4314 0.9202
| 14> O 1.2782 2.6688 1.0743
| 15> C -0.8369 3.5685 0.5941
| 16> C -0.4280 4.7501 -0.0160
| 17> C -1.4495 5.7008 -0.1336
| 18> C -2.6622 5.2858 0.3988
| 19> S -2.4581 3.7373 1.0177
| 20> C -1.6181 0.5943 0.3268
| 21> C -2.8490 0.4725 1.1989
| 22> N -4.1109 0.1593 0.6087
| 23> O -2.7811 0.6657 2.4426
| 24> C -1.3090 -0.6945 -0.4171
| 25> C -0.7142 -0.6278 -1.6905
| 26> C -0.3480 -1.7958 -2.3654
| 27> C -0.5683 -3.0430 -1.7775
| 28> C -1.1561 -3.1251 -0.5136
| 29> C -1.5228 -1.9605 0.1670
| 30> C 1.9530 -0.4073 0.2066
| 31> H 4.7195 -1.1762 -3.2212
| 32> H 5.1849 -2.0959 -1.7413
| 33> H 3.7598 -2.6267 -2.7435
| 34> H 3.5694 -3.3560 -0.3678
| 35> H 2.3351 -3.9800 1.6597
| 36> H 0.8398 -2.3684 2.7643
| 37> H 0.8524 0.7877 2.7693
| 38> H -0.4749 -0.3781 2.6305
| 39> H 0.5810 4.9248 -0.3665
| 40> H -1.3046 6.6719 -0.5878
| 41> H -3.5751 5.8654 0.4210
| 42> H -1.8796 1.3449 -0.4504
| 43> H -4.9653 0.0781 1.2031
| 44> H -4.1944 0.0111 -0.4215
| 45> H -0.5147 0.3313 -2.1524
| 46> H 0.1168 -1.7331 -3.3408
| 47> H -0.2776 -3.9458 -2.2988
| 48> H -1.3161 -4.0920 -0.0545
| 49> H -1.9490 -2.0487 1.1579
| 50> H 1.8539 0.5793 -0.2210
| 51> *
| 52>
| 53>                          ****END OF INPUT****

CARTESIAN COORDINATES (ANGSTROEM)
---------------------------------
  C      4.327800   -1.753400   -2.358800
  O      3.473000   -0.915500   -1.588000
  C      2.794900   -1.326500   -0.430900
  C      2.927100   -2.622600    0.099900
  C      2.226000   -2.983500    1.251600
  C      1.379600   -2.065400    1.875700
  C      1.212600   -0.775200    1.345800
  C      0.270300    0.190000    2.034900
  N     -0.440600    1.077900    1.090100
  C      0.049100    2.431400    0.920200
  O      1.278200    2.668800    1.074300
  C     -0.836900    3.568500    0.594100
  C     -0.428000    4.750100   -0.016000
  C     -1.449500    5.700800   -0.133600
  C     -2.662200    5.285800    0.398800
  S     -2.458100    3.737300    1.017700
  C     -1.618100    0.594300    0.326800
  C     -2.849000    0.472500    1.198900
  N     -4.110900    0.159300    0.608700
  O     -2.781100    0.665700    2.442600
  C     -1.309000   -0.694500   -0.417100
  C     -0.714200   -0.627800   -1.690500
  C     -0.348000   -1.795800   -2.365400
  C     -0.568300   -3.043000   -1.777500
  C     -1.156100   -3.125100   -0.513600
  C     -1.522800   -1.960500    0.167000
  C      1.953000   -0.407300    0.206600
  H      4.719500   -1.176200   -3.221200
  H      5.184900   -2.095900   -1.741300
  H      3.759800   -2.626700   -2.743500
  H      3.569400   -3.356000   -0.367800
  H      2.335100   -3.980000    1.659700
  H      0.839800   -2.368400    2.764300
  H      0.852400    0.787700    2.769300
  H     -0.474900   -0.378100    2.630500
  H      0.581000    4.924800   -0.366500
  H     -1.304600    6.671900   -0.587800
  H     -3.575100    5.865400    0.421000
  H     -1.879600    1.344900   -0.450400
  H     -4.965300    0.078100    1.203100
  H     -4.194400    0.011100   -0.421500
  H     -0.514700    0.331300   -2.152400
  H      0.116800   -1.733100   -3.340800
  H     -0.277600   -3.945800   -2.298800
  H     -1.316100   -4.092000   -0.054500
  H     -1.949000   -2.048700    1.157900
  H      1.853900    0.579300   -0.221000

 Total Charge           Charge          ....    0
 Multiplicity           Mult            ....    1
 Number of Electrons    NEL             ....  200
 Basis Dimension        Dim             ....  422

ORBITAL ENERGIES
----------------

  NO   OCC          E(Eh)            E(eV)
   0   2.0000     -88.892906     -2418.8990
   1   2.0000     -19.150484      -521.1112
   2   2.0000     -19.113992      -520.1182
   3   2.0000     -19.108918      -519.9801
   4   2.0000     -14.357007      -390.6740
   5   2.0000     -14.353161      -390.5694
   6   2.0000     -10.293715      -280.1062
   7   2.0000     -10.292251      -280.0664
   8   2.0000     -10.242297      -278.7071
   9   2.0000     -10.228261      -278.3251
  10   2.0000     -10.228046      -278.3193
  11   2.0000     -10.212576      -277.8983
  12   2.0000     -10.211040      -277.8565
  13   2.0000     -10.206746      -277.7397
  14   2.0000     -10.197383      -277.4849
  15   2.0000     -10.187123      -277.2057
  16   2.0000     -10.186113      -277.1782
  17   2.0000     -10.185248      -277.1547
  18   2.0000     -10.185197      -277.1533
  19   2.0000     -10.183588      -277.1095
  20   2.0000     -10.183103      -277.0963
  21   2.0000     -10.182875      -277.0901
  22   2.0000     -10.174776      -276.8697
  23   2.0000     -10.167420      -276.6696
  24   2.0000     -10.163324      -276.5581
  25   2.0000     -10.158777      -276.4344
  26   2.0000     -10.157032      -276.3869
  27   2.0000      -7.969455      -216.8599
  28   2.0000      -5.932358      -161.4277
  29   2.0000      -5.928304      -161.3174
  30   2.0000      -5.926766      -161.2755
  31   2.0000      -1.028544       -27.9881
  32   2.0000      -1.015548       -27.6345
  33   2.0000      -1.006954       -27.4006
  34   2.0000      -0.914949       -24.8970
  35   2.0000      -0.894614       -24.3437
  36   2.0000      -0.882080       -24.0026
  37   2.0000      -0.850701       -23.1488
  38   2.0000      -0.831938       -22.6382
  39   2.0000      -0.777376       -21.1535
  40   2.0000      -0.755907       -20.5693
  41   2.0000      -0.744370       -20.2553
  42   2.0000      -0.738346       -20.0914
  43   2.0000      -0.737242       -20.0614
  44   2.0000      -0.734388       -19.9837
  45   2.0000      -0.704183       -19.1618
  46   2.0000      -0.675774       -18.3887
  47   2.0000      -0.669504       -18.2181
  48   2.0000      -0.613803       -16.7024
  49   2.0000      -0.608082       -16.5467
  50   2.0000      -0.598768       -16.2933
  51   2.0000      -0.583884       -15.8883
  52   2.0000      -0.571989       -15.5646
  53   2.0000      -0.565920       -15.3995
  54   2.0000      -0.556550       -15.1445
  55   2.0000      -0.532323       -14.4853
  56   2.0000      -0.525085       -14.2883
  57   2.0000      -0.519787       -14.1441
  58   2.0000      -0.511695       -13.9239
  59   2.0000      -0.502430       -13.6718
  60   2.0000      -0.482344       -13.1253
  61   2.0000      -0.472671       -12.8620
  62   2.0000      -0.468540       -12.7496
  63   2.0000      -0.466565       -12.6959
  64   2.0000      -0.454766       -12.3748
  65   2.0000      -0.449122       -12.2212
  66   2.0000      -0.440727       -11.9928
  67   2.0000      -0.437068       -11.8932
  68   2.0000      -0.427092       -11.6218
  69   2.0000      -0.424322       -11.5464
  70   2.0000      -0.417248       -11.3539
  71   2.0000      -0.413754       -11.2588
  72   2.0000      -0.411633       -11.2011
  73   2.0000      -0.401374       -10.9219
  74   2.0000      -0.398261       -10.8372
  75   2.0000      -0.394329       -10.7302
  76   2.0000      -0.390778       -10.6336
  77   2.0000      -0.384786       -10.4705
  78   2.0000      -0.377890       -10.2829
  79   2.0000      -0.373138       -10.1536
  80   2.0000      -0.365454        -9.9445
  81   2.0000      -0.353984        -9.6324
  82   2.0000      -0.346396        -9.4259
  83   2.0000      -0.344844        -9.3837
  84   2.0000      -0.342044        -9.3075
  85   2.0000      -0.340021        -9.2525
  86   2.0000      -0.336025        -9.1437
  87   2.0000      -0.330783        -9.0011
  88   2.0000      -0.300077        -8.1655
  89   2.0000      -0.294611        -8.0168
  90   2.0000      -0.267809        -7.2875
  91   2.0000      -0.260635        -7.0922
  92   2.0000      -0.254610        -6.9283
  93   2.0000      -0.251289        -6.8379
  94   2.0000      -0.249671        -6.7939
  95   2.0000      -0.246115        -6.6971
  96   2.0000      -0.233641        -6.3577
  97   2.0000      -0.227227        -6.1832
  98   2.0000      -0.216355        -5.8873
  99   2.0000      -0.199533        -5.4296
 100   0.0000      -0.044810        -1.2193
 101   0.0000      -0.013500        -0.3673
 102   0.0000      -0.007147        -0.1945
 103   0.0000       0.007211         0.1962
 104   0.0000       0.022667         0.6168

MULLIKEN ATOMIC CHARGES
-----------------------
   0 C :   -0.189911
   1 O :   -0.515696
   2 C :    0.376751
   3 C :   -0.207844
   4 C :   -0.121237
   5 C :   -0.188678
   6 C :    0.158069
   7 C :   -0.227995
   8 N :   -0.400395
   9 C :    0.524273
  10 O :   -0.468364
  11 C :   -0.235006
  12 C :   -0.085297
  13 C :   -0.115302
  14 C :   -0.342770
  15 S :    0.306713
  16 C :   -0.172497
  17 C :    0.582979
  18 N :   -0.763042
  19 O :   -0.477919
  20 C :    0.141601
  21 C :   -0.167404
  22 C :   -0.120318
  23 C :   -0.117820
  24 C :   -0.118458
  25 C :   -0.161806
  26 C :   -0.208900
  27 H :    0.163226
  28 H :    0.145017
  29 H :    0.138488
  30 H :    0.118518
  31 H :    0.119151
  32 H :    0.110027
  33 H :    0.191301
  34 H :    0.172138
  35 H :    0.161327
  36 H :    0.141841
  37 H :    0.181942
  38 H :    0.172290
  39 H :    0.351521
  40 H :    0.335627
  41 H :    0.131500
  42 H :    0.131137
  43 H :    0.127563
  44 H :    0.130460
  45 H :    0.142981
  46 H :    0.150217
Sum of atomic charges:    0.0000000

LOEWDIN ATOMIC CHARGES
----------------------
   0 C :   -0.198673
   1 O :   -0.196716
   2 C :    0.088263
   3 C :   -0.182740
   4 C :   -0.126367
   5 C :   -0.156891
   6 C :   -0.018076
   7 C :   -0.141090
   8 N :   -0.087480
   9 C :    0.142488
  10 O :   -0.272621
  11 C :   -0.237898
  12 C :   -0.126100
  13 C :   -0.164564
  14 C :   -0.307008
  15 S :    0.424615
  16 C :   -0.075745
  17 C :    0.134770
  18 N :   -0.400967
  19 O :   -0.283519
  20 C :   -0.032034
  21 C :   -0.121143
  22 C :   -0.124013
  23 C :   -0.121045
  24 C :   -0.120758
  25 C :   -0.122133
  26 C :   -0.142058
  27 H :    0.131998
  28 H :    0.114943
  29 H :    0.111709
  30 H :    0.128698
  31 H :    0.127368
  32 H :    0.123329
  33 H :    0.156237
  34 H :    0.138273
  35 H :    0.151438
  36 H :    0.137894
  37 H :    0.160084
  38 H :    0.152574
  39 H :    0.265656
  40 H :    0.253400
  41 H :    0.132690
  42 H :    0.133156
  43 H :    0.131428
  44 H :    0.132828
  45 H :    0.137211
  46 H :    0.148587

  Mayer bond orders larger than 0.100000
B(  0-C ,  1-O ) :   0.9288 B(  0-C , 27-H ) :   0.9464 B(  0-C , 28-H ) :   0.9304
B(  0-C , 29-H ) :   0.9311 B(  1-O ,  2-C ) :   0.9067 B(  2-C ,  3-C ) :   1.3679
B(  2-C , 26-C ) :   1.3766 B(  3-C ,  4-C ) :   1.4409 B(  3-C , 30-H ) :   0.9209
B(  4-C ,  5-C ) :   1.4479 B(  4-C , 31-H ) :   0.9308 B(  5-C ,  6-C ) :   1.4128
B(  5-C , 32-H ) :   0.9261 B(  6-C ,  7-C ) :   0.9469 B(  6-C , 26-C ) :   1.4475
B(  7-C ,  8-N ) :   0.9287 B(  7-C , 33-H ) :   0.9106 B(  7-C , 34-H ) :   0.9144
B(  8-N ,  9-C ) :   1.0410 B(  8-N , 16-C ) :   0.9761 B(  9-C , 10-O ) :   1.7816
B(  9-C , 11-C ) :   1.0006 B( 11-C , 12-C ) :   1.4980 B( 11-C , 14-C ) :   0.1349
B( 11-C , 15-S ) :   1.1182 B( 12-C , 13-C ) :   1.3741 B( 12-C , 35-H ) :   0.9212
B( 13-C , 14-C ) :   1.5461 B( 13-C , 36-H ) :   0.9279 B( 14-C , 15-S ) :   1.1764
B( 14-C , 37-H ) :   0.9167 B( 16-C , 17-C ) :   0.8902 B( 16-C , 20-C ) :   0.9601
B( 16-C , 38-H ) :   0.8944 B( 17-C , 18-N ) :   1.0747 B( 17-C , 19-O ) :   1.8134
B( 18-N , 39-H ) :   0.8229 B( 18-N , 40-H ) :   0.8280 B( 20-C , 21-C ) :   1.4166
B( 20-C , 25-C ) :   1.4266 B( 21-C , 22-C ) :   1.4455 B( 21-C , 41-H ) :   0.9245
B( 22-C , 23-C ) :   1.4491 B( 22-C , 42-H ) :   0.9287 B( 23-C , 24-C ) :   1.4545
B( 23-C , 43-H ) :   0.9301 B( 24-C , 25-C ) :   1.4374 B( 24-C , 44-H ) :   0.9292
B( 25-C , 45-H ) :   0.9157 B( 26-C , 46-H ) :   0.8984

FINAL SINGLE POINT ENERGY     -1544.828897819767

DIPOLE MOMENT
-------------

Method             : SCF
Type of density    : Electron Density
Multiplicity       :   1
Irrep              :   0
Energy             : -1544.8288978197672350 Eh
Relativity type    :
Basis              : AO
                                X                 Y                 Z
Electronic contribution:     -8.946414287      14.251141347       7.784443753
Nuclear contribution   :      7.549794260     -15.041369216      -9.490806251
                        -----------------------------------------
Total Dipole Moment    :     -1.396620027      -0.790227869      -1.706362499
                        -----------------------------------------
Magnitude (a.u.)       :      2.342366445
Magnitude (Debye)      :      5.953822345

Rotational constants in cm-1:             0.009931             0.004371             0.003749
Rotational constants in MHz :           297.735650           131.053423           112.385068

                             ****ORCA TERMINATED NORMALLY****
TOTAL RUN TIME: 0 days 0 hours 5 minutes 15 seconds 772 msec
