                         Program Version 6.0.0  -   RELEASE  -
|  1> ! B3LYP 6-31G* SP
|  2>
|  3> * xyz 0 1
|  4> C -3.1392 -1.7920 2.5254
|  5> N -3.3668 -0.8016 1.4543
|  6> C -2.6787 -0.9088 0.2773
|  7> O -1.8578 -1.8548 0.1382
|  8> C -2.8747 0.0323 -0.7626
|  9> C -2.2179 -0.0457 -2.0396
| 10> C -1.2483 -1.1433 -2.4444
| 11> C 0.1061 -0.9358 -1.8262
| 12> O 0.6348 0.2090 -1.8618
| 13> N 0.8138 -2.0483 -1.2570
| 14> C 2.0567 -1.9219 -0.5533
| 15> C 2.7670 -2.9711 -0.0098
| 16> C 3.8677 -2.3699 0.5637
| 17> N 3.7910 -1.0344 0.3622
| 18> C 4.7352 -0.0298 0.7890
| 19> C 5.7585 -0.3284 1.7113
| 20> C 6.6615 0.6606 2.1140
| 21> C 6.5555 1.9580 1.6065
| 22> Cl 7.6899 3.1958 2.1146
| 23> C 5.5425 2.2684 0.6959
| 24> C 4.6371 1.2834 0.2906
| 25> N 2.6890 -0.7568 -0.3197
| 26> C -2.4477 0.9592 -2.9922
| 27> C -3.3164 2.0054 -2.7324
| 28> C -3.9744 2.0826 -1.5144
| 29> C -3.7718 1.1098 -0.5061
| 30> N -4.4177 1.2038 0.7096
| 31> C -5.3442 2.3251 0.9833
| 32> C -4.2016 0.2579 1.6798
| 33> O -4.7745 0.3645 2.8021
| 34> H -4.0401 -1.9174 3.1633
| 35> H -2.9217 -2.7984 2.1079
| 36> H -2.2864 -1.4672 3.1581
| 37> H -1.1113 -1.1634 -3.5474
| 38> H -1.6662 -2.1417 -2.2019
| 39> H 0.3957 -3.0023 -1.3412
| 40> H 2.5223 -4.0247 -0.0317
| 41> H 4.6670 -2.8886 1.0739
| 42> H 5.8601 -1.3166 2.1356
| 43> H 7.4416 0.4171 2.8242
| 44> H 5.4551 3.2725 0.3008
| 45> H 3.8628 1.5472 -0.4183
| 46> H -1.9494 0.9348 -3.9539
| 47> H -3.4821 2.7665 -3.4844
| 48> H -4.6379 2.9239 -1.3781
| 49> H -5.8100 2.2788 1.9889
| 50> H -4.7970 3.2903 0.9267
| 51> H -6.1774 2.3158 0.2486
| 52> *
| 53>
| 54>                          ****END OF INPUT****

CARTESIAN COORDINATES (ANGSTROEM)
---------------------------------
  C     -3.139200   -1.792000    2.525400
  N     -3.366800   -0.801600    1.454300
  C     -2.678700   -0.908800    0.277300
  O     -1.857800   -1.854800    0.138200
  C     -2.874700    0.032300   -0.762600
  C     -2.217900   -0.045700   -2.039600
  C     -1.248300   -1.143300   -2.444400
  C      0.106100   -0.935800   -1.826200
  O      0.634800    0.209000   -1.861800
  N      0.813800   -2.048300   -1.257000
  C      2.056700   -1.921900   -0.553300
  C      2.767000   -2.971100   -0.009800
  C      3.867700   -2.369900    0.563700
  N      3.791000   -1.034400    0.362200
  C      4.735200   -0.029800    0.789000
  C      5.758500   -0.328400    1.711300
  C      6.661500    0.660600    2.114000
  C      6.555500    1.958000    1.606500
  Cl     7.689900    3.195800    2.114600
  C      5.542500    2.268400    0.695900
  C      4.637100    1.283400    0.290600
  N      2.689000   -0.756800   -0.319700
  C     -2.447700    0.959200   -2.992200
  C     -3.316400    2.005400   -2.732400
  C     -3.974400    2.082600   -1.514400
  C     -3.771800    1.109800   -0.506100
  N     -4.417700    1.203800    0.709600
  C     -5.344200    2.325100    0.983300
  C     -4.201600    0.257900    1.679800
  O     -4.774500    0.364500    2.802100
  H     -4.040100   -1.917400    3.163300
  H     -2.921700   -2.798400    2.107900
  H     -2.286400   -1.467200    3.158100
  H     -1.111300   -1.163400   -3.547400
  H     -1.666200   -2.141700   -2.201900
  H      0.395700   -3.002300   -1.341200
  H      2.522300   -4.024700   -0.031700
  H      4.667000   -2.888600    1.073900
  H      5.860100   -1.316600    2.135600
  H      7.441600    0.417100    2.824200
  H      5.455100    3.272500    0.300800
  H      3.862800    1.547200   -0.418300
  H     -1.949400    0.934800   -3.953900
  H     -3.482100    2.766500   -3.484400
  H     -4.637900    2.923900   -1.378100
  H     -5.810000    2.278800    1.988900
  H     -4.797000    3.290300    0.926700
  H     -6.177400    2.315800    0.248600

 Total Charge           Charge          ....    0
 Multiplicity           Mult            ....    1
 Number of Electrons    NEL             ....  220
 Basis Dimension        Dim             ....  460

ORBITAL ENERGIES
----------------

  NO   OCC          E(Eh)            E(eV)
   0   2.0000    -101.524335     -2762.6176
   1   2.0000     -19.110473      -520.0224
   2   2.0000     -19.106122      -519.9040
   3   2.0000     -19.097617      -519.6726
   4   2.0000     -14.414686      -392.2435
   5   2.0000     -14.399273      -391.8241
   6   2.0000     -14.393796      -391.6751
   7   2.0000     -14.361835      -390.8054
   8   2.0000     -14.325983      -389.8298
   9   2.0000     -10.322346      -280.8853
  10   2.0000     -10.291767      -280.0532
  11   2.0000     -10.282424      -279.7990
  12   2.0000     -10.254246      -279.0322
  13   2.0000     -10.242841      -278.7219
  14   2.0000     -10.242473      -278.7119
  15   2.0000     -10.236883      -278.5597
  16   2.0000     -10.230571      -278.3880
  17   2.0000     -10.218941      -278.0715
  18   2.0000     -10.216893      -278.0158
  19   2.0000     -10.209838      -277.8238
  20   2.0000     -10.208366      -277.7838
  21   2.0000     -10.200938      -277.5816
  22   2.0000     -10.199402      -277.5398
  23   2.0000     -10.199068      -277.5308
  24   2.0000     -10.195883      -277.4441
  25   2.0000     -10.195499      -277.4336
  26   2.0000     -10.194904      -277.4175
  27   2.0000     -10.191412      -277.3224
  28   2.0000     -10.187054      -277.2038
  29   2.0000     -10.170711      -276.7591
  30   2.0000      -9.456253      -257.3177
  31   2.0000      -7.219246      -196.4457
  32   2.0000      -7.209862      -196.1903
  33   2.0000      -7.209578      -196.1826
  34   2.0000      -1.065509       -28.9940
  35   2.0000      -1.057028       -28.7632
  36   2.0000      -1.020528       -27.7700
  37   2.0000      -0.997780       -27.1510
  38   2.0000      -0.966955       -26.3122
  39   2.0000      -0.937306       -25.5054
  40   2.0000      -0.906574       -24.6691
  41   2.0000      -0.886970       -24.1357
  42   2.0000      -0.864052       -23.5121
  43   2.0000      -0.849835       -23.1252
  44   2.0000      -0.804070       -21.8799
  45   2.0000      -0.790599       -21.5133
  46   2.0000      -0.782023       -21.2799
  47   2.0000      -0.780726       -21.2446
  48   2.0000      -0.755491       -20.5580
  49   2.0000      -0.741596       -20.1799
  50   2.0000      -0.727252       -19.7895
  51   2.0000      -0.717208       -19.5162
  52   2.0000      -0.703263       -19.1368
  53   2.0000      -0.653593       -17.7852
  54   2.0000      -0.649100       -17.6629
  55   2.0000      -0.635884       -17.3033
  56   2.0000      -0.627460       -17.0741
  57   2.0000      -0.607810       -16.5394
  58   2.0000      -0.591782       -16.1032
  59   2.0000      -0.587182       -15.9780
  60   2.0000      -0.567396       -15.4396
  61   2.0000      -0.553100       -15.0506
  62   2.0000      -0.544706       -14.8222
  63   2.0000      -0.537636       -14.6298
  64   2.0000      -0.511173       -13.9097
  65   2.0000      -0.500842       -13.6286
  66   2.0000      -0.499677       -13.5969
  67   2.0000      -0.483569       -13.1586
  68   2.0000      -0.478975       -13.0336
  69   2.0000      -0.475989       -12.9523
  70   2.0000      -0.469036       -12.7631
  71   2.0000      -0.466576       -12.6962
  72   2.0000      -0.458824       -12.4852
  73   2.0000      -0.457096       -12.4382
  74   2.0000      -0.455708       -12.4005
  75   2.0000      -0.448521       -12.2049
  76   2.0000      -0.438093       -11.9211
  77   2.0000      -0.433148       -11.7866
  78   2.0000      -0.431158       -11.7324
  79   2.0000      -0.430248       -11.7077
  80   2.0000      -0.420438       -11.4407
  81   2.0000      -0.407626       -11.0921
  82   2.0000      -0.401453       -10.9241
  83   2.0000      -0.399579       -10.8731
  84   2.0000      -0.392420       -10.6783
  85   2.0000      -0.390410       -10.6236
  86   2.0000      -0.386852       -10.5268
  87   2.0000      -0.383971       -10.4484
  88   2.0000      -0.380650       -10.3580
  89   2.0000      -0.376978       -10.2581
  90   2.0000      -0.371996       -10.1225
  91   2.0000      -0.367135        -9.9903
  92   2.0000      -0.362754        -9.8710
  93   2.0000      -0.358445        -9.7538
  94   2.0000      -0.354124        -9.6362
  95   2.0000      -0.331146        -9.0109
  96   2.0000      -0.309869        -8.4320
  97   2.0000      -0.308097        -8.3838
  98   2.0000      -0.297148        -8.0858
  99   2.0000      -0.277136        -7.5413
 100   2.0000      -0.271220        -7.3803
 101   2.0000      -0.263279        -7.1642
 102   2.0000      -0.261040        -7.1033
 103   2.0000      -0.259833        -7.0704
 104   2.0000      -0.252784        -6.8786
 105   2.0000      -0.246169        -6.6986
 106   2.0000      -0.234933        -6.3929
 107   2.0000      -0.226024        -6.1504
 108   2.0000      -0.224883        -6.1194
 109   2.0000      -0.200827        -5.4648
 110   0.0000      -0.053512        -1.4561
 111   0.0000      -0.025185        -0.6853
 112   0.0000      -0.014859        -0.4043
 113   0.0000      -0.011281        -0.3070
 114   0.0000       0.017208         0.4682

MULLIKEN ATOMIC CHARGES
-----------------------
   0 C :   -0.312095
   1 N :   -0.464720
   2 C :    0.511859
   3 O :   -0.510757
   4 C :    0.008459
   5 C :    0.138171
   6 C :   -0.440576
   7 C :    0.588014
   8 O :   -0.455401
   9 N :   -0.681114
  10 C :    0.505620
  11 C :   -0.281220
  12 C :    0.053719
  13 N :   -0.309111
  14 C :    0.307246
  15 C :   -0.159965
  16 C :   -0.140568
  17 C :   -0.062085
  18 Cl:   -0.021787
  19 C :   -0.135418
  20 C :   -0.150652
  21 N :   -0.304211
  22 C :   -0.175950
  23 C :   -0.105667
  24 C :   -0.197419
  25 C :    0.318241
  26 N :   -0.511269
  27 C :   -0.335441
  28 C :    0.671975
  29 O :   -0.512439
  30 H :    0.194109
  31 H :    0.187591
  32 H :    0.180865
  33 H :    0.169711
  34 H :    0.168337
  35 H :    0.336278
  36 H :    0.133508
  37 H :    0.153854
  38 H :    0.144091
  39 H :    0.154787
  40 H :    0.158673
  41 H :    0.194928
  42 H :    0.139595
  43 H :    0.142570
  44 H :    0.139022
  45 H :    0.222662
  46 H :    0.174113
  47 H :    0.169865
Sum of atomic charges:    0.0000000

LOEWDIN ATOMIC CHARGES
----------------------
   0 C :   -0.258040
   1 N :   -0.020354
   2 C :    0.116884
   3 O :   -0.296869
   4 C :   -0.072204
   5 C :    0.050037
   6 C :   -0.242563
   7 C :    0.156358
   8 O :   -0.266467
   9 N :   -0.198051
  10 C :    0.042069
  11 C :   -0.211348
  12 C :   -0.113686
  13 N :    0.084337
  14 C :    0.040248
  15 C :   -0.137494
  16 C :   -0.129431
  17 C :   -0.093638
  18 Cl:    0.033519
  19 C :   -0.125822
  20 C :   -0.118314
  21 N :   -0.142406
  22 C :   -0.134293
  23 C :   -0.098299
  24 C :   -0.166096
  25 C :    0.052935
  26 N :   -0.026755
  27 C :   -0.265084
  28 C :    0.136946
  29 O :   -0.321351
  30 H :    0.151898
  31 H :    0.148606
  32 H :    0.142264
  33 H :    0.144474
  34 H :    0.142244
  35 H :    0.263502
  36 H :    0.137865
  37 H :    0.138035
  38 H :    0.139941
  39 H :    0.146496
  40 H :    0.148228
  41 H :    0.166082
  42 H :    0.138882
  43 H :    0.139753
  44 H :    0.139353
  45 H :    0.167186
  46 H :    0.136286
  47 H :    0.134141

  Mayer bond orders larger than 0.100000
B(  0-C ,  1-N ) :   0.9190 B(  0-C , 30-H ) :   0.9257 B(  0-C , 31-H ) :   0.9265
B(  0-C , 32-H ) :   0.9401 B(  1-N ,  2-C ) :   1.0013 B(  1-N , 28-C ) :   1.0392
B(  2-C ,  3-O ) :   1.7313 B(  2-C ,  4-C ) :   1.0661 B(  4-C ,  5-C ) :   1.3581
B(  4-C , 25-C ) :   1.2853 B(  5-C ,  6-C ) :   1.0000 B(  5-C , 22-C ) :   1.4408
B(  6-C ,  7-C ) :   0.9327 B(  6-C , 33-H ) :   0.9135 B(  6-C , 34-H ) :   0.9057
B(  7-C ,  8-O ) :   1.8802 B(  7-C ,  9-N ) :   1.0169 B(  9-N , 10-C ) :   0.9165
B(  9-N , 35-H ) :   0.8275 B( 10-C , 11-C ) :   1.3367 B( 10-C , 21-N ) :   1.4228
B( 11-C , 12-C ) :   1.5188 B( 11-C , 36-H ) :   0.9272 B( 12-C , 13-N ) :   1.1683
B( 12-C , 21-N ) :   0.1050 B( 12-C , 37-H ) :   0.9206 B( 13-N , 14-C ) :   0.8782
B( 13-N , 21-N ) :   1.1657 B( 14-C , 15-C ) :   1.3978 B( 14-C , 20-C ) :   1.4089
B( 15-C , 16-C ) :   1.4477 B( 15-C , 38-H ) :   0.9155 B( 16-C , 17-C ) :   1.4150
B( 16-C , 39-H ) :   0.9226 B( 17-C , 18-Cl) :   1.0110 B( 17-C , 19-C ) :   1.4100
B( 19-C , 20-C ) :   1.4347 B( 19-C , 40-H ) :   0.9231 B( 20-C , 41-H ) :   0.8986
B( 22-C , 23-C ) :   1.4050 B( 22-C , 42-H ) :   0.9215 B( 23-C , 24-C ) :   1.4676
B( 23-C , 43-H ) :   0.9261 B( 24-C , 25-C ) :   1.3465 B( 24-C , 44-H ) :   0.9149
B( 25-C , 26-N ) :   0.9662 B( 26-N , 27-C ) :   0.9354 B( 26-N , 28-C ) :   1.0488
B( 27-C , 45-H ) :   0.9145 B( 27-C , 46-H ) :   0.9317 B( 27-C , 47-H ) :   0.9323
B( 28-C , 29-O ) :   1.7830

FINAL SINGLE POINT ENERGY     -1769.868391822038

DIPOLE MOMENT
-------------

Method             : SCF
Type of density    : Electron Density
Multiplicity       :   1
Irrep              :   0
Energy             : -1769.8683918220376654 Eh
Relativity type    :
Basis              : AO
                                X                 Y                 Z
Electronic contribution:     26.654011983       7.087946963       3.606233949
Nuclear contribution   :    -27.792575890      -7.954232809      -4.340441898
                        -----------------------------------------
Total Dipole Moment    :     -1.138563907      -0.866285845      -0.734207949
                        -----------------------------------------
Magnitude (a.u.)       :      1.608054803
Magnitude (Debye)      :      4.087350482

Rotational constants in cm-1:             0.007584             0.001930             0.001863
Rotational constants in MHz :           227.355027            57.855393            55.853526

                             ****ORCA TERMINATED NORMALLY****
TOTAL RUN TIME: 0 days 0 hours 7 minutes 56 seconds 35 msec
