                         Program Version 6.0.0  -   RELEASE  -
|  1> ! B3LYP 6-31G* SP
|  2>
|  3> * xyz 0 1
|  4> C 4.7036 -0.2310 -0.5979
|  5> C 3.3876 -0.5303 -1.2452
|  6> O 3.3772 -1.0242 -2.4046
|  7> C 2.1040 -0.2637 -0.5652
|  8> S 0.5903 -0.5751 -1.2327
|  9> C -0.2605 -0.0175 0.1125
| 10> C -1.7344 0.0160 0.2533
| 11> C -2.5717 -0.4401 -0.7826
| 12> C -3.9620 -0.4031 -0.6371
| 13> C -4.5315 0.0878 0.5396
| 14> C -3.7117 0.5433 1.5747
| 15> F -4.2655 1.0198 2.7169
| 16> C -2.3204 0.5085 1.4344
| 17> N 0.5911 0.4074 1.0742
| 18> C 1.8947 0.2744 0.7072
| 19> O 2.9276 0.6550 1.5573
| 20> H 4.8046 -0.8175 0.3391
| 21> H 5.5410 -0.5043 -1.2748
| 22> H 4.7746 0.8535 -0.3725
| 23> H -2.1577 -0.8255 -1.7050
| 24> H -4.5986 -0.7558 -1.4383
| 25> H -5.6081 0.1148 0.6483
| 26> H -1.7039 0.8666 2.2494
| 27> H 2.7297 1.0412 2.4724
| 28> *
| 29>
| 30>                          ****END OF INPUT****

CARTESIAN COORDINATES (ANGSTROEM)
---------------------------------
  C      4.703600   -0.231000   -0.597900
  C      3.387600   -0.530300   -1.245200
  O      3.377200   -1.024200   -2.404600
  C      2.104000   -0.263700   -0.565200
  S      0.590300   -0.575100   -1.232700
  C     -0.260500   -0.017500    0.112500
  C     -1.734400    0.016000    0.253300
  C     -2.571700   -0.440100   -0.782600
  C     -3.962000   -0.403100   -0.637100
  C     -4.531500    0.087800    0.539600
  C     -3.711700    0.543300    1.574700
  F     -4.265500    1.019800    2.716900
  C     -2.320400    0.508500    1.434400
  N      0.591100    0.407400    1.074200
  C      1.894700    0.274400    0.707200
  O      2.927600    0.655000    1.557300
  H      4.804600   -0.817500    0.339100
  H      5.541000   -0.504300   -1.274800
  H      4.774600    0.853500   -0.372500
  H     -2.157700   -0.825500   -1.705000
  H     -4.598600   -0.755800   -1.438300
  H     -5.608100    0.114800    0.648300
  H     -1.703900    0.866600    2.249400
  H      2.729700    1.041200    2.472400

 Total Charge           Charge          ....    0
 Multiplicity           Mult            ....    1
 Number of Electrons    NEL             ....  122
 Basis Dimension        Dim             ....  244

ORBITAL ENERGIES
----------------

  NO   OCC          E(Eh)            E(eV)
   0   2.0000     -88.909784     -2419.3582
   1   2.0000     -24.707802      -672.3335
   2   2.0000     -19.192455      -522.2533
   3   2.0000     -19.119618      -520.2713
   4   2.0000     -14.343605      -390.3093
   5   2.0000     -10.298276      -280.2303
   6   2.0000     -10.281974      -279.7867
   7   2.0000     -10.273968      -279.5689
   8   2.0000     -10.270932      -279.4863
   9   2.0000     -10.226511      -278.2775
  10   2.0000     -10.220524      -278.1146
  11   2.0000     -10.205739      -277.7123
  12   2.0000     -10.204007      -277.6652
  13   2.0000     -10.203254      -277.6446
  14   2.0000     -10.203195      -277.6431
  15   2.0000     -10.177975      -276.9568
  16   2.0000      -7.986336      -217.3193
  17   2.0000      -5.949325      -161.8894
  18   2.0000      -5.945237      -161.7781
  19   2.0000      -5.943447      -161.7294
  20   2.0000      -1.220850       -33.2210
  21   2.0000      -1.061459       -28.8838
  22   2.0000      -1.007166       -27.4064
  23   2.0000      -0.971347       -26.4317
  24   2.0000      -0.874890       -23.8070
  25   2.0000      -0.822216       -22.3736
  26   2.0000      -0.795436       -21.6449
  27   2.0000      -0.762236       -20.7415
  28   2.0000      -0.752749       -20.4833
  29   2.0000      -0.722619       -19.6635
  30   2.0000      -0.652805       -17.7637
  31   2.0000      -0.636730       -17.3263
  32   2.0000      -0.616415       -16.7735
  33   2.0000      -0.594242       -16.1701
  34   2.0000      -0.554547       -15.0900
  35   2.0000      -0.542376       -14.7588
  36   2.0000      -0.522845       -14.2273
  37   2.0000      -0.508269       -13.8307
  38   2.0000      -0.487051       -13.2533
  39   2.0000      -0.471779       -12.8378
  40   2.0000      -0.464235       -12.6325
  41   2.0000      -0.456235       -12.4148
  42   2.0000      -0.445182       -12.1140
  43   2.0000      -0.443510       -12.0685
  44   2.0000      -0.425905       -11.5895
  45   2.0000      -0.417382       -11.3575
  46   2.0000      -0.405889       -11.0448
  47   2.0000      -0.394317       -10.7299
  48   2.0000      -0.388083       -10.5603
  49   2.0000      -0.386527       -10.5179
  50   2.0000      -0.376931       -10.2568
  51   2.0000      -0.361827        -9.8458
  52   2.0000      -0.361590        -9.8394
  53   2.0000      -0.356787        -9.7087
  54   2.0000      -0.341792        -9.3006
  55   2.0000      -0.292596        -7.9620
  56   2.0000      -0.291300        -7.9267
  57   2.0000      -0.274349        -7.4654
  58   2.0000      -0.258546        -7.0354
  59   2.0000      -0.239097        -6.5061
  60   2.0000      -0.226662        -6.1678
  61   0.0000      -0.078239        -2.1290
  62   0.0000      -0.020631        -0.5614
  63   0.0000      -0.010859        -0.2955
  64   0.0000       0.017971         0.4890
  65   0.0000       0.034638         0.9425

MULLIKEN ATOMIC CHARGES
-----------------------
   0 C :   -0.515435
   1 C :    0.415044
   2 O :   -0.447225
   3 C :   -0.247135
   4 S :    0.313685
   5 C :   -0.017564
   6 C :    0.153964
   7 C :   -0.195029
   8 C :   -0.121114
   9 C :   -0.198503
  10 C :    0.420219
  11 F :   -0.314968
  12 C :   -0.243494
  13 N :   -0.428523
  14 C :    0.490020
  15 O :   -0.648665
  16 H :    0.174144
  17 H :    0.176151
  18 H :    0.174128
  19 H :    0.156760
  20 H :    0.148875
  21 H :    0.151463
  22 H :    0.171728
  23 H :    0.431476
Sum of atomic charges:   -0.0000000

LOEWDIN ATOMIC CHARGES
----------------------
   0 C :   -0.373577
   1 C :    0.127199
   2 O :   -0.250594
   3 C :   -0.271032
   4 S :    0.442506
   5 C :   -0.106576
   6 C :   -0.023104
   7 C :   -0.129018
   8 C :   -0.116131
   9 C :   -0.147137
  10 C :    0.119928
  11 F :   -0.100262
  12 C :   -0.134442
  13 N :   -0.189417
  14 C :    0.097381
  15 O :   -0.329558
  16 H :    0.149199
  17 H :    0.146087
  18 H :    0.149195
  19 H :    0.144162
  20 H :    0.141931
  21 H :    0.146542
  22 H :    0.158520
  23 H :    0.348197

  Mayer bond orders larger than 0.100000
B(  0-C ,  1-C ) :   1.0076 B(  0-C , 16-H ) :   0.9247 B(  0-C , 17-H ) :   0.9349
B(  0-C , 18-H ) :   0.9247 B(  1-C ,  2-O ) :   1.8394 B(  1-C ,  3-C ) :   1.0149
B(  3-C ,  4-S ) :   1.0787 B(  3-C ,  5-C ) :   0.1105 B(  3-C , 14-C ) :   1.3987
B(  4-S ,  5-C ) :   1.1806 B(  5-C ,  6-C ) :   1.0264 B(  5-C , 13-N ) :   1.4293
B(  6-C ,  7-C ) :   1.3913 B(  6-C , 12-C ) :   1.3739 B(  7-C ,  8-C ) :   1.4480
B(  7-C , 19-H ) :   0.9150 B(  8-C ,  9-C ) :   1.4263 B(  8-C , 20-H ) :   0.9275
B(  9-C , 10-C ) :   1.3852 B(  9-C , 21-H ) :   0.9199 B( 10-C , 11-F ) :   0.9129
B( 10-C , 12-C ) :   1.3738 B( 12-C , 22-H ) :   0.9040 B( 13-N , 14-C ) :   1.3013
B( 14-C , 15-O ) :   0.9750 B( 15-O , 23-H ) :   0.7506

FINAL SINGLE POINT ENERGY     -1126.724691762926

DIPOLE MOMENT
-------------

Method             : SCF
Type of density    : Electron Density
Multiplicity       :   1
Irrep              :   0
Energy             : -1126.7246917629256586 Eh
Relativity type    :
Basis              : AO
                                X                 Y                 Z
Electronic contribution:     -9.069907366       1.184724260       3.163806497
Nuclear contribution   :      8.502331118      -0.824533887      -2.293802572
                        -----------------------------------------
Total Dipole Moment    :     -0.567576247       0.360190372       0.870003925
                        -----------------------------------------
Magnitude (a.u.)       :      1.099448376
Magnitude (Debye)      :      2.794575682

Rotational constants in cm-1:             0.042518             0.007515             0.006395
Rotational constants in MHz :          1274.649612           225.308870           191.706766

                             ****ORCA TERMINATED NORMALLY****
TOTAL RUN TIME: 0 days 0 hours 2 minutes 23 seconds 330 msec
