                         Program Version 6.0.0  -   RELEASE  -
|  1> ! B3LYP 6-31G* SP
|  2>
|  3> * xyz 0 1
|  4> C -1.1479 4.7471 0.7361
|  5> C -0.7022 3.3130 1.0049
|  6> C -1.1139 2.3820 -0.1407
|  7> C -0.6520 0.9448 0.1274
|  8> N -1.0752 0.0462 -0.9633
|  9> C -0.5406 0.2436 -2.2891
| 10> O -1.3023 0.1475 -3.2897
| 11> C 0.8786 0.5996 -2.5021
| 12> C 1.1948 1.6539 -3.3743
| 13> C 2.5238 2.0238 -3.5833
| 14> C 3.5495 1.3369 -2.9352
| 15> C 3.2515 0.2724 -2.0819
| 16> C 1.9141 -0.1133 -1.8592
| 17> O 1.5792 -1.2044 -1.0362
| 18> C 2.4924 -1.9655 -0.2439
| 19> C 2.9219 -1.1843 0.9687
| 20> C 1.9694 -0.8004 1.9263
| 21> C 2.3536 -0.0576 3.0462
| 22> C 3.6935 0.2957 3.2253
| 23> C 4.6513 -0.0975 2.2866
| 24> C 4.2698 -0.8379 1.1631
| 25> C -2.0972 -0.9997 -0.7494
| 26> C -3.4385 -0.3879 -0.3015
| 27> C -4.4969 -1.4809 -0.1040
| 28> C -4.0156 -2.5427 0.8944
| 29> C -2.6784 -3.1599 0.4472
| 30> N -2.2379 -4.1553 1.4265
| 31> C -1.6108 -2.0622 0.2560
| 32> H -0.8364 5.3973 1.5804
| 33> H -0.6802 5.1282 -0.1968
| 34> H -2.2534 4.7957 0.6390
| 35> H -1.1632 2.9652 1.9552
| 36> H 0.4034 3.2959 1.1227
| 37> H -2.2200 2.3966 -0.2515
| 38> H -0.6612 2.7476 -1.0877
| 39> H 0.4520 0.9243 0.2288
| 40> H -1.0707 0.6146 1.0999
| 41> H 0.4090 2.2029 -3.8789
| 42> H 2.7587 2.8446 -4.2486
| 43> H 4.5799 1.6240 -3.1013
| 44> H 4.0721 -0.2506 -1.6164
| 45> H 1.9729 -2.8846 0.0999
| 46> H 3.3556 -2.2999 -0.8583
| 47> H 0.9304 -1.0743 1.8032
| 48> H 1.6126 0.2425 3.7759
| 49> H 3.9903 0.8699 4.0934
| 50> H 5.6900 0.1708 2.4298
| 51> H 5.0253 -1.1391 0.4488
| 52> H -2.2826 -1.5330 -1.7100
| 53> H -3.3176 0.1698 0.6518
| 54> H -3.7939 0.3269 -1.0748
| 55> H -4.7251 -1.9620 -1.0805
| 56> H -5.4338 -1.0191 0.2755
| 57> H -4.7840 -3.3421 0.9711
| 58> H -3.9024 -2.0784 1.8991
| 59> H -2.8390 -3.6771 -0.5259
| 60> H -1.9854 -3.6756 2.3215
| 61> H -1.3713 -4.6168 1.0658
| 62> H -1.3915 -1.5981 1.2396
| 63> H -0.6746 -2.5230 -0.1255
| 64> *
| 65>
| 66>                          ****END OF INPUT****

CARTESIAN COORDINATES (ANGSTROEM)
---------------------------------
  C     -1.147900    4.747100    0.736100
  C     -0.702200    3.313000    1.004900
  C     -1.113900    2.382000   -0.140700
  C     -0.652000    0.944800    0.127400
  N     -1.075200    0.046200   -0.963300
  C     -0.540600    0.243600   -2.289100
  O     -1.302300    0.147500   -3.289700
  C      0.878600    0.599600   -2.502100
  C      1.194800    1.653900   -3.374300
  C      2.523800    2.023800   -3.583300
  C      3.549500    1.336900   -2.935200
  C      3.251500    0.272400   -2.081900
  C      1.914100   -0.113300   -1.859200
  O      1.579200   -1.204400   -1.036200
  C      2.492400   -1.965500   -0.243900
  C      2.921900   -1.184300    0.968700
  C      1.969400   -0.800400    1.926300
  C      2.353600   -0.057600    3.046200
  C      3.693500    0.295700    3.225300
  C      4.651300   -0.097500    2.286600
  C      4.269800   -0.837900    1.163100
  C     -2.097200   -0.999700   -0.749400
  C     -3.438500   -0.387900   -0.301500
  C     -4.496900   -1.480900   -0.104000
  C     -4.015600   -2.542700    0.894400
  C     -2.678400   -3.159900    0.447200
  N     -2.237900   -4.155300    1.426500
  C     -1.610800   -2.062200    0.256000
  H     -0.836400    5.397300    1.580400
  H     -0.680200    5.128200   -0.196800
  H     -2.253400    4.795700    0.639000
  H     -1.163200    2.965200    1.955200
  H      0.403400    3.295900    1.122700
  H     -2.220000    2.396600   -0.251500
  H     -0.661200    2.747600   -1.087700
  H      0.452000    0.924300    0.228800
  H     -1.070700    0.614600    1.099900
  H      0.409000    2.202900   -3.878900
  H      2.758700    2.844600   -4.248600
  H      4.579900    1.624000   -3.101300
  H      4.072100   -0.250600   -1.616400
  H      1.972900   -2.884600    0.099900
  H      3.355600   -2.299900   -0.858300
  H      0.930400   -1.074300    1.803200
  H      1.612600    0.242500    3.775900
  H      3.990300    0.869900    4.093400
  H      5.690000    0.170800    2.429800
  H      5.025300   -1.139100    0.448800
  H     -2.282600   -1.533000   -1.710000
  H     -3.317600    0.169800    0.651800
  H     -3.793900    0.326900   -1.074800
  H     -4.725100   -1.962000   -1.080500
  H     -5.433800   -1.019100    0.275500
  H     -4.784000   -3.342100    0.971100
  H     -3.902400   -2.078400    1.899100
  H     -2.839000   -3.677100   -0.525900
  H     -1.985400   -3.675600    2.321500
  H     -1.371300   -4.616800    1.065800
  H     -1.391500   -1.598100    1.239600
  H     -0.674600   -2.523000   -0.125500

 Total Charge           Charge          ....    0
 Multiplicity           Mult            ....    1
 Number of Electrons    NEL             ....  206
 Basis Dimension        Dim             ....  456

ORBITAL ENERGIES
----------------

  NO   OCC          E(Eh)            E(eV)
   0   2.0000     -19.170948      -521.6680
   1   2.0000     -19.098176      -519.6878
   2   2.0000     -14.326870      -389.8540
   3   2.0000     -14.301183      -389.1550
   4   2.0000     -10.272333      -279.5244
   5   2.0000     -10.255646      -279.0703
   6   2.0000     -10.249071      -278.8914
   7   2.0000     -10.205565      -277.7075
   8   2.0000     -10.203565      -277.6531
   9   2.0000     -10.200343      -277.5655
  10   2.0000     -10.198102      -277.5045
  11   2.0000     -10.192521      -277.3526
  12   2.0000     -10.192212      -277.3442
  13   2.0000     -10.190481      -277.2971
  14   2.0000     -10.190212      -277.2898
  15   2.0000     -10.189733      -277.2767
  16   2.0000     -10.189491      -277.2701
  17   2.0000     -10.188470      -277.2424
  18   2.0000     -10.187331      -277.2114
  19   2.0000     -10.185223      -277.1540
  20   2.0000     -10.178326      -276.9663
  21   2.0000     -10.171294      -276.7750
  22   2.0000     -10.168114      -276.6885
  23   2.0000     -10.166993      -276.6580
  24   2.0000     -10.166883      -276.6550
  25   2.0000     -10.166197      -276.6363
  26   2.0000     -10.164951      -276.6024
  27   2.0000     -10.164226      -276.5826
  28   2.0000      -1.049839       -28.5676
  29   2.0000      -0.995793       -27.0969
  30   2.0000      -0.900013       -24.4906
  31   2.0000      -0.875233       -23.8163
  32   2.0000      -0.861336       -23.4381
  33   2.0000      -0.851322       -23.1656
  34   2.0000      -0.801397       -21.8071
  35   2.0000      -0.783301       -21.3147
  36   2.0000      -0.780434       -21.2367
  37   2.0000      -0.757156       -20.6033
  38   2.0000      -0.751100       -20.4385
  39   2.0000      -0.741868       -20.1873
  40   2.0000      -0.730621       -19.8812
  41   2.0000      -0.708517       -19.2797
  42   2.0000      -0.699780       -19.0420
  43   2.0000      -0.687431       -18.7059
  44   2.0000      -0.637148       -17.3377
  45   2.0000      -0.624993       -17.0069
  46   2.0000      -0.613170       -16.6852
  47   2.0000      -0.609715       -16.5912
  48   2.0000      -0.596080       -16.2202
  49   2.0000      -0.588616       -16.0170
  50   2.0000      -0.582032       -15.8379
  51   2.0000      -0.570489       -15.5238
  52   2.0000      -0.552653       -15.0385
  53   2.0000      -0.541823       -14.7437
  54   2.0000      -0.524049       -14.2601
  55   2.0000      -0.515151       -14.0180
  56   2.0000      -0.494952       -13.4683
  57   2.0000      -0.484789       -13.1918
  58   2.0000      -0.477302       -12.9880
  59   2.0000      -0.473447       -12.8831
  60   2.0000      -0.471557       -12.8317
  61   2.0000      -0.465140       -12.6571
  62   2.0000      -0.458188       -12.4679
  63   2.0000      -0.453969       -12.3531
  64   2.0000      -0.444030       -12.0827
  65   2.0000      -0.439629       -11.9629
  66   2.0000      -0.435426       -11.8485
  67   2.0000      -0.430930       -11.7262
  68   2.0000      -0.426289       -11.5999
  69   2.0000      -0.425210       -11.5705
  70   2.0000      -0.419658       -11.4195
  71   2.0000      -0.414709       -11.2848
  72   2.0000      -0.410128       -11.1602
  73   2.0000      -0.395612       -10.7651
  74   2.0000      -0.393695       -10.7130
  75   2.0000      -0.390729       -10.6323
  76   2.0000      -0.384383       -10.4596
  77   2.0000      -0.376651       -10.2492
  78   2.0000      -0.374674       -10.1954
  79   2.0000      -0.369053       -10.0424
  80   2.0000      -0.365425        -9.9437
  81   2.0000      -0.358772        -9.7627
  82   2.0000      -0.353527        -9.6200
  83   2.0000      -0.351946        -9.5769
  84   2.0000      -0.350472        -9.5368
  85   2.0000      -0.340275        -9.2594
  86   2.0000      -0.338892        -9.2217
  87   2.0000      -0.334336        -9.0977
  88   2.0000      -0.330596        -8.9960
  89   2.0000      -0.324345        -8.8259
  90   2.0000      -0.323456        -8.8017
  91   2.0000      -0.316265        -8.6060
  92   2.0000      -0.315295        -8.5796
  93   2.0000      -0.312959        -8.5160
  94   2.0000      -0.305960        -8.3256
  95   2.0000      -0.298109        -8.1120
  96   2.0000      -0.258268        -7.0278
  97   2.0000      -0.255741        -6.9591
  98   2.0000      -0.251398        -6.8409
  99   2.0000      -0.231899        -6.3103
 100   2.0000      -0.227212        -6.1827
 101   2.0000      -0.221035        -6.0147
 102   2.0000      -0.198421        -5.3993
 103   0.0000      -0.028900        -0.7864
 104   0.0000      -0.014627        -0.3980
 105   0.0000      -0.008828        -0.2402
 106   0.0000       0.004899         0.1333
 107   0.0000       0.042911         1.1677

MULLIKEN ATOMIC CHARGES
-----------------------
   0 C :   -0.429841
   1 C :   -0.247581
   2 C :   -0.245501
   3 C :   -0.156653
   4 N :   -0.402563
   5 C :    0.436588
   6 O :   -0.469446
   7 C :    0.029052
   8 C :   -0.146259
   9 C :   -0.137941
  10 C :   -0.116567
  11 C :   -0.195183
  12 C :    0.339514
  13 O :   -0.514994
  14 C :   -0.115715
  15 C :    0.130770
  16 C :   -0.163637
  17 C :   -0.129762
  18 C :   -0.123325
  19 C :   -0.125668
  20 C :   -0.174464
  21 C :    0.031633
  22 C :   -0.260023
  23 C :   -0.268373
  24 C :   -0.242761
  25 C :    0.023394
  26 N :   -0.699522
  27 C :   -0.271545
  28 H :    0.136060
  29 H :    0.141079
  30 H :    0.139624
  31 H :    0.121893
  32 H :    0.133122
  33 H :    0.139592
  34 H :    0.136540
  35 H :    0.159199
  36 H :    0.135547
  37 H :    0.155251
  38 H :    0.129225
  39 H :    0.132990
  40 H :    0.130830
  41 H :    0.161353
  42 H :    0.142488
  43 H :    0.145619
  44 H :    0.131294
  45 H :    0.131996
  46 H :    0.131751
  47 H :    0.127976
  48 H :    0.155001
  49 H :    0.117570
  50 H :    0.150693
  51 H :    0.133513
  52 H :    0.129323
  53 H :    0.142667
  54 H :    0.112793
  55 H :    0.127275
  56 H :    0.281910
  57 H :    0.284567
  58 H :    0.109255
  59 H :    0.138377
Sum of atomic charges:   -0.0000000

LOEWDIN ATOMIC CHARGES
----------------------
   0 C :   -0.356111
   1 C :   -0.232903
   2 C :   -0.237271
   3 C :   -0.157795
   4 N :   -0.104945
   5 C :    0.145225
   6 O :   -0.275530
   7 C :   -0.068230
   8 C :   -0.095277
   9 C :   -0.147506
  10 C :   -0.114064
  11 C :   -0.170219
  12 C :    0.101162
  13 O :   -0.179301
  14 C :   -0.083180
  15 C :   -0.041627
  16 C :   -0.124728
  17 C :   -0.127149
  18 C :   -0.126102
  19 C :   -0.126961
  20 C :   -0.132570
  21 C :   -0.052318
  22 C :   -0.233979
  23 C :   -0.230734
  24 C :   -0.226812
  25 C :   -0.082064
  26 N :   -0.460486
  27 C :   -0.244894
  28 H :    0.120526
  29 H :    0.121589
  30 H :    0.120800
  31 H :    0.112251
  32 H :    0.117722
  33 H :    0.121534
  34 H :    0.121877
  35 H :    0.127862
  36 H :    0.119718
  37 H :    0.147725
  38 H :    0.132635
  39 H :    0.134060
  40 H :    0.134952
  41 H :    0.134973
  42 H :    0.117265
  43 H :    0.137039
  44 H :    0.132740
  45 H :    0.133199
  46 H :    0.133045
  47 H :    0.129175
  48 H :    0.137965
  49 H :    0.110827
  50 H :    0.129814
  51 H :    0.118425
  52 H :    0.120057
  53 H :    0.126976
  54 H :    0.110510
  55 H :    0.117290
  56 H :    0.216917
  57 H :    0.218549
  58 H :    0.105707
  59 H :    0.122646

  Mayer bond orders larger than 0.100000
B(  0-C ,  1-C ) :   1.0169 B(  0-C , 28-H ) :   0.9528 B(  0-C , 29-H ) :   0.9520
B(  0-C , 30-H ) :   0.9521 B(  1-C ,  2-C ) :   1.0019 B(  1-C , 31-H ) :   0.9430
B(  1-C , 32-H ) :   0.9410 B(  2-C ,  3-C ) :   0.9911 B(  2-C , 33-H ) :   0.9347
B(  2-C , 34-H ) :   0.9319 B(  3-C ,  4-N ) :   0.9374 B(  3-C , 35-H ) :   0.9126
B(  3-C , 36-H ) :   0.9300 B(  4-N ,  5-C ) :   1.0697 B(  4-N , 21-C ) :   0.9299
B(  5-C ,  6-O ) :   1.8162 B(  5-C ,  7-C ) :   0.9345 B(  7-C ,  8-C ) :   1.4195
B(  7-C , 12-C ) :   1.3560 B(  8-C ,  9-C ) :   1.4367 B(  8-C , 37-H ) :   0.9178
B(  9-C , 10-C ) :   1.4430 B(  9-C , 38-H ) :   0.9296 B( 10-C , 11-C ) :   1.4463
B( 10-C , 39-H ) :   0.9297 B( 11-C , 12-C ) :   1.3558 B( 11-C , 40-H ) :   0.9128
B( 12-C , 13-O ) :   0.9119 B( 13-O , 14-C ) :   0.9042 B( 14-C , 15-C ) :   0.9613
B( 14-C , 41-H ) :   0.9260 B( 14-C , 42-H ) :   0.9200 B( 15-C , 16-C ) :   1.4248
B( 15-C , 20-C ) :   1.4364 B( 16-C , 17-C ) :   1.4449 B( 16-C , 43-H ) :   0.9133
B( 17-C , 18-C ) :   1.4456 B( 17-C , 44-H ) :   0.9297 B( 18-C , 19-C ) :   1.4601
B( 18-C , 45-H ) :   0.9299 B( 19-C , 20-C ) :   1.4368 B( 19-C , 46-H ) :   0.9290
B( 20-C , 47-H ) :   0.9218 B( 21-C , 22-C ) :   0.9950 B( 21-C , 27-C ) :   0.9767
B( 21-C , 48-H ) :   0.9126 B( 22-C , 23-C ) :   0.9995 B( 22-C , 49-H ) :   0.9312
B( 22-C , 50-H ) :   0.9330 B( 23-C , 24-C ) :   1.0028 B( 23-C , 51-H ) :   0.9376
B( 23-C , 52-H ) :   0.9410 B( 24-C , 25-C ) :   1.0023 B( 24-C , 53-H ) :   0.9364
B( 24-C , 54-H ) :   0.9359 B( 25-C , 26-N ) :   0.9968 B( 25-C , 27-C ) :   0.9728
B( 25-C , 55-H ) :   0.9261 B( 26-N , 56-H ) :   0.8618 B( 26-N , 57-H ) :   0.8642
B( 27-C , 58-H ) :   0.9216 B( 27-C , 59-H ) :   0.9265

FINAL SINGLE POINT ENERGY     -1192.978245899152

DIPOLE MOMENT
-------------

Method             : SCF
Type of density    : Electron Density
Multiplicity       :   1
Irrep              :   0
Energy             : -1192.9782458991523981 Eh
Relativity type    :
Basis              : AO
                                X                 Y                 Z
Electronic contribution:     19.444726829      -6.084135317     -14.254136741
Nuclear contribution   :    -17.895435670       6.442729701      15.588641107
                        -----------------------------------------
Total Dipole Moment    :      1.549291160       0.358594384       1.334504366
                        -----------------------------------------
Magnitude (a.u.)       :      2.076004560
Magnitude (Debye)      :      5.276784238

Rotational constants in cm-1:             0.006301             0.004547             0.003864
Rotational constants in MHz :           188.897836           136.324921           115.841330

                             ****ORCA TERMINATED NORMALLY****
TOTAL RUN TIME: 0 days 0 hours 9 minutes 34 seconds 249 msec
