                         Program Version 6.0.0  -   RELEASE  -
|  1> ! B3LYP 6-31G* SP
|  2>
|  3> * xyz 0 1
|  4> O 0.8722 1.4653 1.5835
|  5> C 1.2907 0.5107 0.8723
|  6> N 0.3490 -0.3181 0.1692
|  7> C -1.0700 0.0386 0.0506
|  8> C -1.2370 1.1827 -0.9708
|  9> C -2.6609 1.6769 -1.0199
| 10> C -3.1220 2.5964 -0.0629
| 11> C -4.4541 3.0207 -0.0783
| 12> C -5.3356 2.5265 -1.0436
| 13> C -4.8865 1.6063 -1.9947
| 14> C -3.5550 1.1801 -1.9836
| 15> C -1.8751 -1.1840 -0.3670
| 16> N -1.6131 -1.7169 -1.5951
| 17> C -2.2743 -2.7948 -2.0847
| 18> C -3.2668 -3.4033 -1.3262
| 19> C -3.5645 -2.9013 -0.0615
| 20> C -2.8718 -1.7873 0.4526
| 21> C -3.2086 -1.2706 1.8386
| 22> F -4.1615 -2.0570 2.4638
| 23> F -3.7091 0.0154 1.7491
| 24> F -2.0732 -1.2734 2.6291
| 25> C 2.7480 0.2505 0.7916
| 26> C 3.3061 -0.4063 -0.3217
| 27> C 4.6824 -0.6421 -0.3938
| 28> C 5.5229 -0.2188 0.6432
| 29> C 6.9053 -0.4420 0.5975
| 30> C 7.7137 -0.0028 1.6482
| 31> C 7.1321 0.6560 2.7344
| 32> N 5.7890 0.8672 2.7666
| 33> C 4.9752 0.4510 1.7584
| 34> C 3.5976 0.6856 1.8256
| 35> H 0.6785 -1.2293 -0.2222
| 36> H -1.4096 0.4213 1.0317
| 37> H -0.5749 2.0308 -0.6908
| 38> H -0.9070 0.8495 -1.9794
| 39> H -2.4517 2.9770 0.6980
| 40> H -4.8043 3.7290 0.6614
| 41> H -6.3671 2.8541 -1.0526
| 42> H -5.5713 1.2204 -2.7387
| 43> H -3.2234 0.4599 -2.7211
| 44> H -2.0294 -3.1761 -3.0669
| 45> H -3.8009 -4.2613 -1.7138
| 46> H -4.3393 -3.3936 0.5113
| 47> H 2.6867 -0.7187 -1.1519
| 48> H 5.0890 -1.1480 -1.2614
| 49> H 7.3571 -0.9522 -0.2448
| 50> H 8.7825 -0.1712 1.6213
| 51> H 7.7497 1.0001 3.5531
| 52> H 3.1901 1.1970 2.6898
| 53> *
| 54>
| 55>                          ****END OF INPUT****

CARTESIAN COORDINATES (ANGSTROEM)
---------------------------------
  O      0.872200    1.465300    1.583500
  C      1.290700    0.510700    0.872300
  N      0.349000   -0.318100    0.169200
  C     -1.070000    0.038600    0.050600
  C     -1.237000    1.182700   -0.970800
  C     -2.660900    1.676900   -1.019900
  C     -3.122000    2.596400   -0.062900
  C     -4.454100    3.020700   -0.078300
  C     -5.335600    2.526500   -1.043600
  C     -4.886500    1.606300   -1.994700
  C     -3.555000    1.180100   -1.983600
  C     -1.875100   -1.184000   -0.367000
  N     -1.613100   -1.716900   -1.595100
  C     -2.274300   -2.794800   -2.084700
  C     -3.266800   -3.403300   -1.326200
  C     -3.564500   -2.901300   -0.061500
  C     -2.871800   -1.787300    0.452600
  C     -3.208600   -1.270600    1.838600
  F     -4.161500   -2.057000    2.463800
  F     -3.709100    0.015400    1.749100
  F     -2.073200   -1.273400    2.629100
  C      2.748000    0.250500    0.791600
  C      3.306100   -0.406300   -0.321700
  C      4.682400   -0.642100   -0.393800
  C      5.522900   -0.218800    0.643200
  C      6.905300   -0.442000    0.597500
  C      7.713700   -0.002800    1.648200
  C      7.132100    0.656000    2.734400
  N      5.789000    0.867200    2.766600
  C      4.975200    0.451000    1.758400
  C      3.597600    0.685600    1.825600
  H      0.678500   -1.229300   -0.222200
  H     -1.409600    0.421300    1.031700
  H     -0.574900    2.030800   -0.690800
  H     -0.907000    0.849500   -1.979400
  H     -2.451700    2.977000    0.698000
  H     -4.804300    3.729000    0.661400
  H     -6.367100    2.854100   -1.052600
  H     -5.571300    1.220400   -2.738700
  H     -3.223400    0.459900   -2.721100
  H     -2.029400   -3.176100   -3.066900
  H     -3.800900   -4.261300   -1.713800
  H     -4.339300   -3.393600    0.511300
  H      2.686700   -0.718700   -1.151900
  H      5.089000   -1.148000   -1.261400
  H      7.357100   -0.952200   -0.244800
  H      8.782500   -0.171200    1.621300
  H      7.749700    1.000100    3.553100
  H      3.190100    1.197000    2.689800

 Total Charge           Charge          ....    0
 Multiplicity           Mult            ....    1
 Number of Electrons    NEL             ....  218
 Basis Dimension        Dim             ....  470

ORBITAL ENERGIES
----------------

  NO   OCC          E(Eh)            E(eV)
   0   2.0000     -24.725791      -672.8230
   1   2.0000     -24.721231      -672.6989
   2   2.0000     -24.719955      -672.6642
   3   2.0000     -19.105472      -519.8863
   4   2.0000     -14.352983      -390.5645
   5   2.0000     -14.348117      -390.4321
   6   2.0000     -14.324633      -389.7931
   7   2.0000     -10.441600      -284.1304
   8   2.0000     -10.286757      -279.9169
   9   2.0000     -10.254936      -279.0510
  10   2.0000     -10.240889      -278.6687
  11   2.0000     -10.230238      -278.3789
  12   2.0000     -10.230081      -278.3747
  13   2.0000     -10.223691      -278.2008
  14   2.0000     -10.222855      -278.1780
  15   2.0000     -10.220097      -278.1030
  16   2.0000     -10.210384      -277.8387
  17   2.0000     -10.204627      -277.6820
  18   2.0000     -10.203885      -277.6618
  19   2.0000     -10.198601      -277.5180
  20   2.0000     -10.197046      -277.4757
  21   2.0000     -10.195350      -277.4296
  22   2.0000     -10.194520      -277.4070
  23   2.0000     -10.189990      -277.2837
  24   2.0000     -10.178727      -276.9772
  25   2.0000     -10.173337      -276.8306
  26   2.0000     -10.172102      -276.7970
  27   2.0000     -10.171275      -276.7745
  28   2.0000     -10.170577      -276.7555
  29   2.0000     -10.170117      -276.7429
  30   2.0000     -10.168893      -276.7096
  31   2.0000      -1.283724       -34.9319
  32   2.0000      -1.208768       -32.8922
  33   2.0000      -1.206752       -32.8374
  34   2.0000      -1.006253       -27.3815
  35   2.0000      -0.954416       -25.9710
  36   2.0000      -0.935020       -25.4432
  37   2.0000      -0.901010       -24.5177
  38   2.0000      -0.853601       -23.2277
  39   2.0000      -0.841474       -22.8977
  40   2.0000      -0.828808       -22.5530
  41   2.0000      -0.809581       -22.0298
  42   2.0000      -0.802779       -21.8447
  43   2.0000      -0.771849       -21.0031
  44   2.0000      -0.762480       -20.7481
  45   2.0000      -0.741357       -20.1733
  46   2.0000      -0.730963       -19.8905
  47   2.0000      -0.721277       -19.6269
  48   2.0000      -0.702906       -19.1270
  49   2.0000      -0.666055       -18.1243
  50   2.0000      -0.656971       -17.8771
  51   2.0000      -0.640808       -17.4373
  52   2.0000      -0.636475       -17.3194
  53   2.0000      -0.614871       -16.7315
  54   2.0000      -0.605229       -16.4691
  55   2.0000      -0.592827       -16.1317
  56   2.0000      -0.577087       -15.7033
  57   2.0000      -0.573277       -15.5997
  58   2.0000      -0.572993       -15.5919
  59   2.0000      -0.566804       -15.4235
  60   2.0000      -0.562755       -15.3133
  61   2.0000      -0.542290       -14.7565
  62   2.0000      -0.524446       -14.2709
  63   2.0000      -0.517978       -14.0949
  64   2.0000      -0.508449       -13.8356
  65   2.0000      -0.506668       -13.7871
  66   2.0000      -0.493969       -13.4416
  67   2.0000      -0.480737       -13.0815
  68   2.0000      -0.467458       -12.7202
  69   2.0000      -0.458837       -12.4856
  70   2.0000      -0.454824       -12.3764
  71   2.0000      -0.448083       -12.1930
  72   2.0000      -0.446876       -12.1601
  73   2.0000      -0.444258       -12.0889
  74   2.0000      -0.440837       -11.9958
  75   2.0000      -0.435234       -11.8433
  76   2.0000      -0.429702       -11.6928
  77   2.0000      -0.427110       -11.6223
  78   2.0000      -0.425427       -11.5765
  79   2.0000      -0.417099       -11.3499
  80   2.0000      -0.414192       -11.2707
  81   2.0000      -0.411098       -11.1866
  82   2.0000      -0.408762       -11.1230
  83   2.0000      -0.407574       -11.0906
  84   2.0000      -0.407174       -11.0798
  85   2.0000      -0.401126       -10.9152
  86   2.0000      -0.399079       -10.8595
  87   2.0000      -0.395352       -10.7581
  88   2.0000      -0.384946       -10.4749
  89   2.0000      -0.378685       -10.3045
  90   2.0000      -0.371764       -10.1162
  91   2.0000      -0.361540        -9.8380
  92   2.0000      -0.359504        -9.7826
  93   2.0000      -0.348912        -9.4944
  94   2.0000      -0.342652        -9.3240
  95   2.0000      -0.333656        -9.0792
  96   2.0000      -0.326775        -8.8920
  97   2.0000      -0.323767        -8.8101
  98   2.0000      -0.303808        -8.2670
  99   2.0000      -0.301651        -8.2083
 100   2.0000      -0.280307        -7.6275
 101   2.0000      -0.268465        -7.3053
 102   2.0000      -0.258619        -7.0374
 103   2.0000      -0.247361        -6.7310
 104   2.0000      -0.245187        -6.6719
 105   2.0000      -0.243663        -6.6304
 106   2.0000      -0.236800        -6.4437
 107   2.0000      -0.226722        -6.1694
 108   2.0000      -0.225732        -6.1425
 109   0.0000      -0.067221        -1.8292
 110   0.0000      -0.048542        -1.3209
 111   0.0000      -0.042954        -1.1688
 112   0.0000      -0.031388        -0.8541
 113   0.0000       0.008888         0.2419

MULLIKEN ATOMIC CHARGES
-----------------------
   0 O :   -0.486503
   1 C :    0.510031
   2 N :   -0.642550
   3 C :    0.043730
   4 C :   -0.355558
   5 C :    0.141702
   6 C :   -0.174221
   7 C :   -0.126372
   8 C :   -0.125988
   9 C :   -0.129046
  10 C :   -0.176471
  11 C :    0.196750
  12 N :   -0.417403
  13 C :    0.022274
  14 C :   -0.133543
  15 C :   -0.132183
  16 C :   -0.055792
  17 C :    0.918767
  18 F :   -0.305694
  19 F :   -0.289290
  20 F :   -0.296563
  21 C :    0.075754
  22 C :   -0.181618
  23 C :   -0.207570
  24 C :    0.172919
  25 C :   -0.153703
  26 C :   -0.145020
  27 C :    0.015593
  28 N :   -0.428300
  29 C :    0.210110
  30 C :   -0.172761
  31 H :    0.329022
  32 H :    0.184039
  33 H :    0.169451
  34 H :    0.155119
  35 H :    0.142440
  36 H :    0.127007
  37 H :    0.122261
  38 H :    0.120643
  39 H :    0.127150
  40 H :    0.158877
  41 H :    0.146829
  42 H :    0.168603
  43 H :    0.137251
  44 H :    0.134634
  45 H :    0.141994
  46 H :    0.135848
  47 H :    0.152477
  48 H :    0.174870
Sum of atomic charges:   -0.0000000

LOEWDIN ATOMIC CHARGES
----------------------
   0 O :   -0.290551
   1 C :    0.142928
   2 N :   -0.231955
   3 C :   -0.055393
   4 C :   -0.221127
   5 C :   -0.023790
   6 C :   -0.131267
   7 C :   -0.127075
   8 C :   -0.134837
   9 C :   -0.131969
  10 C :   -0.138676
  11 C :    0.052416
  12 N :   -0.137215
  13 C :   -0.058300
  14 C :   -0.141737
  15 C :   -0.087864
  16 C :   -0.073902
  17 C :    0.312396
  18 F :   -0.110427
  19 F :   -0.102274
  20 F :   -0.107284
  21 C :   -0.047488
  22 C :   -0.128106
  23 C :   -0.121400
  24 C :   -0.022961
  25 C :   -0.094076
  26 C :   -0.146122
  27 C :   -0.062059
  28 N :   -0.124587
  29 C :    0.012935
  30 C :   -0.075785
  31 H :    0.253018
  32 H :    0.148297
  33 H :    0.141840
  34 H :    0.133136
  35 H :    0.137121
  36 H :    0.130731
  37 H :    0.128573
  38 H :    0.127618
  39 H :    0.130622
  40 H :    0.139445
  41 H :    0.141995
  42 H :    0.150970
  43 H :    0.135547
  44 H :    0.134225
  45 H :    0.138031
  46 H :    0.136582
  47 H :    0.137011
  48 H :    0.162787

  Mayer bond orders larger than 0.100000
B(  0-O ,  1-C ) :   1.7797 B(  1-C ,  2-N ) :   1.0480 B(  1-C , 21-C ) :   0.9834
B(  2-N ,  3-C ) :   0.8787 B(  2-N , 31-H ) :   0.8143 B(  3-C ,  4-C ) :   0.9607
B(  3-C , 11-C ) :   0.9657 B(  3-C , 32-H ) :   0.8911 B(  4-C ,  5-C ) :   0.9828
B(  4-C , 33-H ) :   0.9164 B(  4-C , 34-H ) :   0.9226 B(  5-C ,  6-C ) :   1.4287
B(  5-C , 10-C ) :   1.4364 B(  6-C ,  7-C ) :   1.4405 B(  6-C , 35-H ) :   0.9217
B(  7-C ,  8-C ) :   1.4522 B(  7-C , 36-H ) :   0.9301 B(  8-C ,  9-C ) :   1.4556
B(  8-C , 37-H ) :   0.9314 B(  9-C , 10-C ) :   1.4349 B(  9-C , 38-H ) :   0.9309
B( 10-C , 39-H ) :   0.9212 B( 11-C , 12-N ) :   1.3566 B( 11-C , 16-C ) :   1.3620
B( 12-N , 13-C ) :   1.4196 B( 13-C , 14-C ) :   1.4239 B( 13-C , 40-H ) :   0.9271
B( 14-C , 15-C ) :   1.4326 B( 14-C , 41-H ) :   0.9235 B( 15-C , 16-C ) :   1.4107
B( 15-C , 42-H ) :   0.9158 B( 16-C , 17-C ) :   0.9669 B( 17-C , 18-F ) :   0.9401
B( 17-C , 19-F ) :   0.9530 B( 17-C , 20-F ) :   0.9432 B( 21-C , 22-C ) :   1.3014
B( 21-C , 30-C ) :   1.4503 B( 22-C , 23-C ) :   1.5011 B( 22-C , 43-H ) :   0.9192
B( 23-C , 24-C ) :   1.2862 B( 23-C , 30-C ) :   0.1021 B( 23-C , 44-H ) :   0.9238
B( 24-C , 25-C ) :   1.3030 B( 24-C , 29-C ) :   1.2502 B( 25-C , 26-C ) :   1.5140
B( 25-C , 45-H ) :   0.9243 B( 26-C , 27-C ) :   1.3209 B( 26-C , 46-H ) :   0.9248
B( 27-C , 28-N ) :   1.5173 B( 27-C , 47-H ) :   0.9297 B( 28-N , 29-C ) :   1.2430
B( 29-C , 30-C ) :   1.2687 B( 30-C , 48-H ) :   0.9043

FINAL SINGLE POINT ENERGY     -1463.571692265323

DIPOLE MOMENT
-------------

Method             : SCF
Type of density    : Electron Density
Multiplicity       :   1
Irrep              :   0
Energy             : -1463.5716922653225538 Eh
Relativity type    :
Basis              : AO
                                X                 Y                 Z
Electronic contribution:    -10.915694892      -8.034799805      16.633591349
Nuclear contribution   :     11.233950996       5.953670223     -18.251575015
                        -----------------------------------------
Total Dipole Moment    :      0.318256103      -2.081129581      -1.617983666
                        -----------------------------------------
Magnitude (a.u.)       :      2.655232273
Magnitude (Debye)      :      6.749064081

Rotational constants in cm-1:             0.009080             0.002217             0.002132
Rotational constants in MHz :           272.215699            66.459310            63.907232

                             ****ORCA TERMINATED NORMALLY****
TOTAL RUN TIME: 0 days 0 hours 8 minutes 38 seconds 368 msec
