                         Program Version 6.0.0  -   RELEASE  -
|  1> ! B3LYP 6-31G* SP
|  2>
|  3> * xyz 0 1
|  4> C -2.5055 2.3038 -1.4149
|  5> C -1.7351 1.5190 -0.3558
|  6> N -1.3917 0.1702 -0.8354
|  7> C -0.5371 0.0356 -1.9899
|  8> O -0.8731 -0.7459 -2.9213
|  9> C 0.7193 0.8084 -2.1164
| 10> C 1.0787 1.3328 -3.3695
| 11> C 2.2649 2.0519 -3.5225
| 12> C 3.1097 2.2462 -2.4305
| 13> C 2.7757 1.7163 -1.1828
| 14> C 1.5831 0.9842 -1.0130
| 15> O 1.2360 0.4084 0.2219
| 16> C 2.0636 0.3762 1.3849
| 17> C 3.2280 -0.5657 1.1860
| 18> C 2.9813 -1.8415 0.6466
| 19> C 4.0267 -2.7482 0.4587
| 20> C 5.3282 -2.3990 0.8194
| 21> C 5.5863 -1.1451 1.3764
| 22> C 4.5465 -0.2267 1.5704
| 23> Cl 4.9439 1.3238 2.3045
| 24> C -1.9995 -1.0471 -0.2523
| 25> C -3.4711 -1.2060 -0.6949
| 26> C -4.4761 -0.7356 0.3475
| 27> C -4.2667 -1.5095 1.6425
| 28> C -2.9033 -1.2035 2.2782
| 29> N -2.9796 0.0198 3.0835
| 30> C -1.7041 -1.1816 1.2781
| 31> H -3.4362 1.7667 -1.6918
| 32> H -1.8824 2.4503 -2.3220
| 33> H -2.7789 3.3014 -1.0114
| 34> H -2.3560 1.4662 0.5515
| 35> H -0.8148 2.0756 -0.0835
| 36> H 0.4325 1.1959 -4.2281
| 37> H 2.5292 2.4598 -4.4897
| 38> H 4.0288 2.8049 -2.5519
| 39> H 3.4560 1.8785 -0.3599
| 40> H 2.3725 1.4085 1.6445
| 41> H 1.4582 -0.0006 2.2352
| 42> H 1.9760 -2.1338 0.3677
| 43> H 3.8265 -3.7240 0.0353
| 44> H 6.1371 -3.1033 0.6740
| 45> H 6.5985 -0.8887 1.6628
| 46> H -1.4789 -1.9206 -0.7111
| 47> H -3.6720 -2.2798 -0.9104
| 48> H -3.6478 -0.6627 -1.6478
| 49> H -4.3923 0.3572 0.5156
| 50> H -5.5025 -0.9358 -0.0292
| 51> H -4.3419 -2.6007 1.4364
| 52> H -5.0806 -1.2575 2.3572
| 53> H -2.7119 -2.0331 2.9965
| 54> H -2.0675 0.1681 3.5737
| 55> H -3.1571 0.8473 2.4762
| 56> H -1.1453 -2.1337 1.4256
| 57> H -0.9786 -0.3995 1.5853
| 58> *
| 59>
| 60>                          ****END OF INPUT****

CARTESIAN COORDINATES (ANGSTROEM)
---------------------------------
  C     -2.505500    2.303800   -1.414900
  C     -1.735100    1.519000   -0.355800
  N     -1.391700    0.170200   -0.835400
  C     -0.537100    0.035600   -1.989900
  O     -0.873100   -0.745900   -2.921300
  C      0.719300    0.808400   -2.116400
  C      1.078700    1.332800   -3.369500
  C      2.264900    2.051900   -3.522500
  C      3.109700    2.246200   -2.430500
  C      2.775700    1.716300   -1.182800
  C      1.583100    0.984200   -1.013000
  O      1.236000    0.408400    0.221900
  C      2.063600    0.376200    1.384900
  C      3.228000   -0.565700    1.186000
  C      2.981300   -1.841500    0.646600
  C      4.026700   -2.748200    0.458700
  C      5.328200   -2.399000    0.819400
  C      5.586300   -1.145100    1.376400
  C      4.546500   -0.226700    1.570400
  Cl     4.943900    1.323800    2.304500
  C     -1.999500   -1.047100   -0.252300
  C     -3.471100   -1.206000   -0.694900
  C     -4.476100   -0.735600    0.347500
  C     -4.266700   -1.509500    1.642500
  C     -2.903300   -1.203500    2.278200
  N     -2.979600    0.019800    3.083500
  C     -1.704100   -1.181600    1.278100
  H     -3.436200    1.766700   -1.691800
  H     -1.882400    2.450300   -2.322000
  H     -2.778900    3.301400   -1.011400
  H     -2.356000    1.466200    0.551500
  H     -0.814800    2.075600   -0.083500
  H      0.432500    1.195900   -4.228100
  H      2.529200    2.459800   -4.489700
  H      4.028800    2.804900   -2.551900
  H      3.456000    1.878500   -0.359900
  H      2.372500    1.408500    1.644500
  H      1.458200   -0.000600    2.235200
  H      1.976000   -2.133800    0.367700
  H      3.826500   -3.724000    0.035300
  H      6.137100   -3.103300    0.674000
  H      6.598500   -0.888700    1.662800
  H     -1.478900   -1.920600   -0.711100
  H     -3.672000   -2.279800   -0.910400
  H     -3.647800   -0.662700   -1.647800
  H     -4.392300    0.357200    0.515600
  H     -5.502500   -0.935800   -0.029200
  H     -4.341900   -2.600700    1.436400
  H     -5.080600   -1.257500    2.357200
  H     -2.711900   -2.033100    2.996500
  H     -2.067500    0.168100    3.573700
  H     -3.157100    0.847300    2.476200
  H     -1.145300   -2.133700    1.425600
  H     -0.978600   -0.399500    1.585300

 Total Charge           Charge          ....    0
 Multiplicity           Mult            ....    1
 Number of Electrons    NEL             ....  206
 Basis Dimension        Dim             ....  436

ORBITAL ENERGIES
----------------

  NO   OCC          E(Eh)            E(eV)
   0   2.0000    -101.539364     -2763.0266
   1   2.0000     -19.175862      -521.8017
   2   2.0000     -19.102886      -519.8160
   3   2.0000     -14.325239      -389.8096
   4   2.0000     -14.301114      -389.1531
   5   2.0000     -10.275829      -279.6195
   6   2.0000     -10.258961      -279.1605
   7   2.0000     -10.256545      -279.0948
   8   2.0000     -10.254210      -279.0312
   9   2.0000     -10.214222      -277.9431
  10   2.0000     -10.209544      -277.8158
  11   2.0000     -10.208754      -277.7943
  12   2.0000     -10.202363      -277.6204
  13   2.0000     -10.201098      -277.5860
  14   2.0000     -10.198963      -277.5279
  15   2.0000     -10.198432      -277.5134
  16   2.0000     -10.195683      -277.4386
  17   2.0000     -10.195563      -277.4354
  18   2.0000     -10.190339      -277.2932
  19   2.0000     -10.189211      -277.2625
  20   2.0000     -10.186833      -277.1978
  21   2.0000     -10.179959      -277.0108
  22   2.0000     -10.171201      -276.7725
  23   2.0000     -10.167744      -276.6784
  24   2.0000     -10.166758      -276.6515
  25   2.0000     -10.165588      -276.6197
  26   2.0000     -10.161695      -276.5138
  27   2.0000      -9.470927      -257.7170
  28   2.0000      -7.233910      -196.8447
  29   2.0000      -7.224600      -196.5914
  30   2.0000      -7.224262      -196.5822
  31   2.0000      -1.055749       -28.7284
  32   2.0000      -0.999663       -27.2022
  33   2.0000      -0.900974       -24.5168
  34   2.0000      -0.897059       -24.4102
  35   2.0000      -0.873960       -23.7817
  36   2.0000      -0.855402       -23.2767
  37   2.0000      -0.841576       -22.9005
  38   2.0000      -0.795836       -21.6558
  39   2.0000      -0.787935       -21.4408
  40   2.0000      -0.759950       -20.6793
  41   2.0000      -0.749982       -20.4080
  42   2.0000      -0.747007       -20.3271
  43   2.0000      -0.740430       -20.1481
  44   2.0000      -0.717397       -19.5214
  45   2.0000      -0.705900       -19.2085
  46   2.0000      -0.692951       -18.8561
  47   2.0000      -0.639234       -17.3944
  48   2.0000      -0.623686       -16.9714
  49   2.0000      -0.622226       -16.9316
  50   2.0000      -0.607132       -16.5209
  51   2.0000      -0.599667       -16.3178
  52   2.0000      -0.593775       -16.1574
  53   2.0000      -0.587124       -15.9765
  54   2.0000      -0.551442       -15.0055
  55   2.0000      -0.534025       -14.5316
  56   2.0000      -0.521077       -14.1792
  57   2.0000      -0.511568       -13.9205
  58   2.0000      -0.499298       -13.5866
  59   2.0000      -0.489666       -13.3245
  60   2.0000      -0.489105       -13.3092
  61   2.0000      -0.480146       -13.0654
  62   2.0000      -0.468864       -12.7584
  63   2.0000      -0.464138       -12.6298
  64   2.0000      -0.458697       -12.4818
  65   2.0000      -0.452762       -12.3203
  66   2.0000      -0.447204       -12.1690
  67   2.0000      -0.444195       -12.0871
  68   2.0000      -0.440900       -11.9975
  69   2.0000      -0.436111       -11.8672
  70   2.0000      -0.428723       -11.6662
  71   2.0000      -0.427508       -11.6331
  72   2.0000      -0.422180       -11.4881
  73   2.0000      -0.404334       -11.0025
  74   2.0000      -0.397636       -10.8202
  75   2.0000      -0.395854       -10.7717
  76   2.0000      -0.391966       -10.6660
  77   2.0000      -0.381217       -10.3734
  78   2.0000      -0.379274       -10.3206
  79   2.0000      -0.376980       -10.2582
  80   2.0000      -0.371529       -10.1098
  81   2.0000      -0.368113       -10.0169
  82   2.0000      -0.364694        -9.9238
  83   2.0000      -0.359473        -9.7817
  84   2.0000      -0.355856        -9.6833
  85   2.0000      -0.353947        -9.6314
  86   2.0000      -0.346380        -9.4255
  87   2.0000      -0.340630        -9.2690
  88   2.0000      -0.339700        -9.2437
  89   2.0000      -0.334720        -9.1082
  90   2.0000      -0.328592        -8.9414
  91   2.0000      -0.320490        -8.7210
  92   2.0000      -0.313846        -8.5402
  93   2.0000      -0.311156        -8.4670
  94   2.0000      -0.299315        -8.1448
  95   2.0000      -0.294220        -8.0061
  96   2.0000      -0.261422        -7.1137
  97   2.0000      -0.256664        -6.9842
  98   2.0000      -0.251017        -6.8305
  99   2.0000      -0.235022        -6.3953
 100   2.0000      -0.226113        -6.1528
 101   2.0000      -0.220723        -6.0062
 102   2.0000      -0.202133        -5.5003
 103   0.0000      -0.035824        -0.9748
 104   0.0000      -0.022816        -0.6208
 105   0.0000      -0.017622        -0.4795
 106   0.0000       0.003107         0.0845
 107   0.0000       0.022558         0.6138

MULLIKEN ATOMIC CHARGES
-----------------------
   0 C :   -0.435112
   1 C :   -0.140196
   2 N :   -0.402003
   3 C :    0.435480
   4 O :   -0.464999
   5 C :    0.034392
   6 C :   -0.149449
   7 C :   -0.136876
   8 C :   -0.117387
   9 C :   -0.202253
  10 C :    0.333188
  11 O :   -0.518338
  12 C :   -0.111549
  13 C :    0.111184
  14 C :   -0.147844
  15 C :   -0.126653
  16 C :   -0.112935
  17 C :   -0.129396
  18 C :   -0.124592
  19 Cl:   -0.016045
  20 C :    0.041921
  21 C :   -0.261069
  22 C :   -0.267854
  23 C :   -0.254259
  24 C :    0.037256
  25 N :   -0.713499
  26 C :   -0.318068
  27 H :    0.155584
  28 H :    0.152903
  29 H :    0.133496
  30 H :    0.128374
  31 H :    0.146412
  32 H :    0.157083
  33 H :    0.130530
  34 H :    0.137050
  35 H :    0.150416
  36 H :    0.163879
  37 H :    0.169300
  38 H :    0.157400
  39 H :    0.141241
  40 H :    0.141594
  41 H :    0.152762
  42 H :    0.150662
  43 H :    0.125692
  44 H :    0.155978
  45 H :    0.120513
  46 H :    0.130164
  47 H :    0.124195
  48 H :    0.146357
  49 H :    0.124310
  50 H :    0.285989
  51 H :    0.293687
  52 H :    0.127461
  53 H :    0.153920
Sum of atomic charges:   -0.0000000

LOEWDIN ATOMIC CHARGES
----------------------
   0 C :   -0.367039
   1 C :   -0.159879
   2 N :   -0.112778
   3 C :    0.144434
   4 O :   -0.271128
   5 C :   -0.072739
   6 C :   -0.092229
   7 C :   -0.146528
   8 C :   -0.110256
   9 C :   -0.170282
  10 C :    0.099706
  11 O :   -0.178172
  12 C :   -0.088073
  13 C :   -0.047970
  14 C :   -0.112814
  15 C :   -0.122870
  16 C :   -0.121060
  17 C :   -0.131089
  18 C :   -0.091460
  19 Cl:    0.029981
  20 C :   -0.048483
  21 C :   -0.234093
  22 C :   -0.235718
  23 C :   -0.228977
  24 C :   -0.079966
  25 N :   -0.466339
  26 C :   -0.254036
  27 H :    0.127613
  28 H :    0.128287
  29 H :    0.121420
  30 H :    0.116388
  31 H :    0.120973
  32 H :    0.148984
  33 H :    0.133234
  34 H :    0.136057
  35 H :    0.142482
  36 H :    0.129289
  37 H :    0.139577
  38 H :    0.145994
  39 H :    0.137739
  40 H :    0.138813
  41 H :    0.144599
  42 H :    0.135256
  43 H :    0.118082
  44 H :    0.131660
  45 H :    0.108733
  46 H :    0.120668
  47 H :    0.117067
  48 H :    0.128719
  49 H :    0.116032
  50 H :    0.218552
  51 H :    0.213764
  52 H :    0.120587
  53 H :    0.129292

  Mayer bond orders larger than 0.100000
B(  0-C ,  1-C ) :   1.0063 B(  0-C , 27-H ) :   0.9447 B(  0-C , 28-H ) :   0.9453
B(  0-C , 29-H ) :   0.9439 B(  1-C ,  2-N ) :   0.9563 B(  1-C , 30-H ) :   0.9232
B(  1-C , 31-H ) :   0.9241 B(  2-N ,  3-C ) :   1.0600 B(  2-N , 20-C ) :   0.9519
B(  3-C ,  4-O ) :   1.8177 B(  3-C ,  5-C ) :   0.9479 B(  5-C ,  6-C ) :   1.4113
B(  5-C , 10-C ) :   1.3517 B(  6-C ,  7-C ) :   1.4381 B(  6-C , 32-H ) :   0.9167
B(  7-C ,  8-C ) :   1.4384 B(  7-C , 33-H ) :   0.9297 B(  8-C ,  9-C ) :   1.4504
B(  8-C , 34-H ) :   0.9290 B(  9-C , 10-C ) :   1.3586 B(  9-C , 35-H ) :   0.9103
B( 10-C , 11-O ) :   0.8982 B( 11-O , 12-C ) :   0.9059 B( 12-C , 13-C ) :   0.9688
B( 12-C , 36-H ) :   0.9117 B( 12-C , 37-H ) :   0.9198 B( 13-C , 14-C ) :   1.4206
B( 13-C , 18-C ) :   1.3847 B( 14-C , 15-C ) :   1.4473 B( 14-C , 38-H ) :   0.9168
B( 15-C , 16-C ) :   1.4429 B( 15-C , 39-H ) :   0.9277 B( 16-C , 17-C ) :   1.4610
B( 16-C , 40-H ) :   0.9276 B( 17-C , 18-C ) :   1.4043 B( 17-C , 41-H ) :   0.9227
B( 18-C , 19-Cl) :   1.0159 B( 20-C , 21-C ) :   0.9759 B( 20-C , 26-C ) :   0.9634
B( 20-C , 42-H ) :   0.9307 B( 21-C , 22-C ) :   1.0079 B( 21-C , 43-H ) :   0.9370
B( 21-C , 44-H ) :   0.9336 B( 22-C , 23-C ) :   1.0098 B( 22-C , 45-H ) :   0.9335
B( 22-C , 46-H ) :   0.9403 B( 23-C , 24-C ) :   0.9999 B( 23-C , 47-H ) :   0.9373
B( 23-C , 48-H ) :   0.9329 B( 24-C , 25-N ) :   1.0114 B( 24-C , 26-C ) :   0.9498
B( 24-C , 49-H ) :   0.9376 B( 25-N , 50-H ) :   0.8646 B( 25-N , 51-H ) :   0.8476
B( 26-C , 52-H ) :   0.9427 B( 26-C , 53-H ) :   0.9290

FINAL SINGLE POINT ENERGY     -1573.918351919121

DIPOLE MOMENT
-------------

Method             : SCF
Type of density    : Electron Density
Multiplicity       :   1
Irrep              :   0
Energy             : -1573.9183519191205960 Eh
Relativity type    :
Basis              : AO
                                X                 Y                 Z
Electronic contribution:     41.405319775       4.544056681       0.996031988
Nuclear contribution   :    -40.364141636      -4.366792344      -0.409417112
                        -----------------------------------------
Total Dipole Moment    :      1.041178138       0.177264337       0.586614876
                        -----------------------------------------
Magnitude (a.u.)       :      1.208135578
Magnitude (Debye)      :      3.070836595

Rotational constants in cm-1:             0.008142             0.003808             0.003153
Rotational constants in MHz :           244.079090           114.156424            94.515480

                             ****ORCA TERMINATED NORMALLY****
TOTAL RUN TIME: 0 days 0 hours 7 minutes 55 seconds 940 msec
