                         Program Version 6.0.0  -   RELEASE  -
|  1> ! B3LYP 6-31G* SP
|  2>
|  3> * xyz 0 1
|  4> N -0.8451 -0.0331 3.4206
|  5> C -0.8627 1.0733 2.5185
|  6> O -0.7160 2.2359 2.9828
|  7> C -1.1958 0.8590 1.0553
|  8> C -1.0104 2.0728 0.1511
|  9> C -1.9019 2.2607 -0.9228
| 10> C -1.7348 3.3275 -1.8103
| 11> C -0.6739 4.2185 -1.6424
| 12> C 0.2216 4.0446 -0.5862
| 13> C 0.0594 2.9795 0.3044
| 14> N -0.5519 -0.3678 0.5035
| 15> C -1.4089 -1.5021 0.2429
| 16> O -2.5113 -1.3154 -0.3421
| 17> C -1.0251 -2.8843 0.6366
| 18> C -1.6858 -3.9886 0.0646
| 19> C -1.3406 -5.2922 0.4340
| 20> C -0.3380 -5.5101 1.3808
| 21> C 0.3200 -4.4246 1.9618
| 22> C -0.0211 -3.1191 1.5963
| 23> C 0.8382 -0.4461 -0.0226
| 24> C 1.9365 0.0832 0.9342
| 25> C 2.8881 0.9518 0.0842
| 26> C 2.1767 1.0912 -1.2062
| 27> N 2.5767 1.8581 -2.2537
| 28> C 1.8408 1.8831 -3.4022
| 29> C 0.6771 1.1013 -3.5157
| 30> C 0.2748 0.3027 -2.4366
| 31> C 1.0356 0.3367 -1.2673
| 32> H -1.1747 -0.9753 3.1200
| 33> H -0.5887 0.1106 4.4225
| 34> H -2.2959 0.6938 1.0966
| 35> H -2.7204 1.5700 -1.0830
| 36> H -2.4240 3.4576 -2.6346
| 37> H -0.5420 5.0401 -2.3344
| 38> H 1.0503 4.7297 -0.4631
| 39> H 0.7842 2.8599 1.0958
| 40> H -2.4641 -3.8456 -0.6746
| 41> H -1.8513 -6.1343 -0.0149
| 42> H -0.0724 -6.5200 1.6657
| 43> H 1.0943 -4.5942 2.6989
| 44> H 0.4996 -2.2986 2.0698
| 45> H 1.0991 -1.4960 -0.2813
| 46> H 1.5281 0.6924 1.7584
| 47> H 2.4938 -0.7642 1.3896
| 48> H 3.0563 1.9462 0.5497
| 49> H 3.8574 0.4332 -0.0768
| 50> H 2.1604 2.5002 -4.2311
| 51> H 0.0991 1.1127 -4.4304
| 52> H -0.6114 -0.3144 -2.5063
| 53> *
| 54>
| 55>                          ****END OF INPUT****

CARTESIAN COORDINATES (ANGSTROEM)
---------------------------------
  N     -0.845100   -0.033100    3.420600
  C     -0.862700    1.073300    2.518500
  O     -0.716000    2.235900    2.982800
  C     -1.195800    0.859000    1.055300
  C     -1.010400    2.072800    0.151100
  C     -1.901900    2.260700   -0.922800
  C     -1.734800    3.327500   -1.810300
  C     -0.673900    4.218500   -1.642400
  C      0.221600    4.044600   -0.586200
  C      0.059400    2.979500    0.304400
  N     -0.551900   -0.367800    0.503500
  C     -1.408900   -1.502100    0.242900
  O     -2.511300   -1.315400   -0.342100
  C     -1.025100   -2.884300    0.636600
  C     -1.685800   -3.988600    0.064600
  C     -1.340600   -5.292200    0.434000
  C     -0.338000   -5.510100    1.380800
  C      0.320000   -4.424600    1.961800
  C     -0.021100   -3.119100    1.596300
  C      0.838200   -0.446100   -0.022600
  C      1.936500    0.083200    0.934200
  C      2.888100    0.951800    0.084200
  C      2.176700    1.091200   -1.206200
  N      2.576700    1.858100   -2.253700
  C      1.840800    1.883100   -3.402200
  C      0.677100    1.101300   -3.515700
  C      0.274800    0.302700   -2.436600
  C      1.035600    0.336700   -1.267300
  H     -1.174700   -0.975300    3.120000
  H     -0.588700    0.110600    4.422500
  H     -2.295900    0.693800    1.096600
  H     -2.720400    1.570000   -1.083000
  H     -2.424000    3.457600   -2.634600
  H     -0.542000    5.040100   -2.334400
  H      1.050300    4.729700   -0.463100
  H      0.784200    2.859900    1.095800
  H     -2.464100   -3.845600   -0.674600
  H     -1.851300   -6.134300   -0.014900
  H     -0.072400   -6.520000    1.665700
  H      1.094300   -4.594200    2.698900
  H      0.499600   -2.298600    2.069800
  H      1.099100   -1.496000   -0.281300
  H      1.528100    0.692400    1.758400
  H      2.493800   -0.764200    1.389600
  H      3.056300    1.946200    0.549700
  H      3.857400    0.433200   -0.076800
  H      2.160400    2.500200   -4.231100
  H      0.099100    1.112700   -4.430400
  H     -0.611400   -0.314400   -2.506300

 Total Charge           Charge          ....    0
 Multiplicity           Mult            ....    1
 Number of Electrons    NEL             ....  196
 Basis Dimension        Dim             ....  434

ORBITAL ENERGIES
----------------

  NO   OCC          E(Eh)            E(eV)
   0   2.0000     -19.126592      -520.4610
   1   2.0000     -19.111492      -520.0501
   2   2.0000     -14.355482      -390.6325
   3   2.0000     -14.354841      -390.6151
   4   2.0000     -14.310643      -389.4124
   5   2.0000     -10.298357      -280.2325
   6   2.0000     -10.293811      -280.1088
   7   2.0000     -10.239891      -278.6416
   8   2.0000     -10.231547      -278.4145
   9   2.0000     -10.212441      -277.8947
  10   2.0000     -10.207340      -277.7558
  11   2.0000     -10.205216      -277.6980
  12   2.0000     -10.203732      -277.6577
  13   2.0000     -10.203710      -277.6571
  14   2.0000     -10.201693      -277.6022
  15   2.0000     -10.201391      -277.5940
  16   2.0000     -10.199927      -277.5541
  17   2.0000     -10.187546      -277.2172
  18   2.0000     -10.185032      -277.1488
  19   2.0000     -10.184215      -277.1266
  20   2.0000     -10.180004      -277.0120
  21   2.0000     -10.179230      -276.9909
  22   2.0000     -10.175583      -276.8917
  23   2.0000     -10.170783      -276.7611
  24   2.0000     -10.170413      -276.7510
  25   2.0000     -10.170021      -276.7404
  26   2.0000     -10.169920      -276.7376
  27   2.0000     -10.168917      -276.7103
  28   2.0000      -1.024315       -27.8730
  29   2.0000      -1.011235       -27.5171
  30   2.0000      -0.930776       -25.3277
  31   2.0000      -0.913670       -24.8622
  32   2.0000      -0.878268       -23.8989
  33   2.0000      -0.869521       -23.6609
  34   2.0000      -0.840835       -22.8803
  35   2.0000      -0.829637       -22.5756
  36   2.0000      -0.784878       -21.3576
  37   2.0000      -0.779356       -21.2073
  38   2.0000      -0.761483       -20.7210
  39   2.0000      -0.759022       -20.6540
  40   2.0000      -0.730205       -19.8699
  41   2.0000      -0.723275       -19.6813
  42   2.0000      -0.711310       -19.3557
  43   2.0000      -0.690227       -18.7820
  44   2.0000      -0.642187       -17.4748
  45   2.0000      -0.625789       -17.0286
  46   2.0000      -0.620035       -16.8720
  47   2.0000      -0.600873       -16.3506
  48   2.0000      -0.592842       -16.1320
  49   2.0000      -0.587916       -15.9980
  50   2.0000      -0.582172       -15.8417
  51   2.0000      -0.574483       -15.6325
  52   2.0000      -0.553951       -15.0738
  53   2.0000      -0.536446       -14.5974
  54   2.0000      -0.523013       -14.2319
  55   2.0000      -0.506918       -13.7939
  56   2.0000      -0.502466       -13.6728
  57   2.0000      -0.494473       -13.4553
  58   2.0000      -0.480598       -13.0777
  59   2.0000      -0.477763       -13.0006
  60   2.0000      -0.467196       -12.7130
  61   2.0000      -0.465466       -12.6660
  62   2.0000      -0.452851       -12.3227
  63   2.0000      -0.452822       -12.3219
  64   2.0000      -0.451054       -12.2738
  65   2.0000      -0.436811       -11.8862
  66   2.0000      -0.433019       -11.7830
  67   2.0000      -0.423804       -11.5323
  68   2.0000      -0.417528       -11.3615
  69   2.0000      -0.417106       -11.3500
  70   2.0000      -0.411153       -11.1881
  71   2.0000      -0.405528       -11.0350
  72   2.0000      -0.399926       -10.8826
  73   2.0000      -0.395804       -10.7704
  74   2.0000      -0.383984       -10.4487
  75   2.0000      -0.381229       -10.3738
  76   2.0000      -0.372095       -10.1252
  77   2.0000      -0.368307       -10.0221
  78   2.0000      -0.362579        -9.8663
  79   2.0000      -0.360917        -9.8211
  80   2.0000      -0.356066        -9.6891
  81   2.0000      -0.352547        -9.5933
  82   2.0000      -0.351343        -9.5605
  83   2.0000      -0.346319        -9.4238
  84   2.0000      -0.333698        -9.0804
  85   2.0000      -0.331368        -9.0170
  86   2.0000      -0.326494        -8.8844
  87   2.0000      -0.277640        -7.5550
  88   2.0000      -0.268066        -7.2945
  89   2.0000      -0.267491        -7.2788
  90   2.0000      -0.263051        -7.1580
  91   2.0000      -0.261823        -7.1246
  92   2.0000      -0.257738        -7.0134
  93   2.0000      -0.250211        -6.8086
  94   2.0000      -0.233792        -6.3618
  95   2.0000      -0.230029        -6.2594
  96   2.0000      -0.223487        -6.0814
  97   2.0000      -0.214401        -5.8342
  98   0.0000      -0.062480        -1.7002
  99   0.0000      -0.024995        -0.6801
 100   0.0000      -0.019378        -0.5273
 101   0.0000      -0.006039        -0.1643
 102   0.0000       0.004562         0.1241

MULLIKEN ATOMIC CHARGES
-----------------------
   0 N :   -0.772894
   1 C :    0.568108
   2 O :   -0.469250
   3 C :   -0.170139
   4 C :    0.161930
   5 C :   -0.179556
   6 C :   -0.124121
   7 C :   -0.120493
   8 C :   -0.123305
   9 C :   -0.149441
  10 N :   -0.440782
  11 C :    0.435826
  12 O :   -0.460749
  13 C :    0.085683
  14 C :   -0.149851
  15 C :   -0.130439
  16 C :   -0.114307
  17 C :   -0.133564
  18 C :   -0.193307
  19 C :   -0.076311
  20 C :   -0.322490
  21 C :   -0.336521
  22 C :    0.229791
  23 N :   -0.420939
  24 C :    0.014249
  25 C :   -0.141937
  26 C :   -0.134738
  27 C :    0.142448
  28 H :    0.338335
  29 H :    0.349941
  30 H :    0.208158
  31 H :    0.144196
  32 H :    0.123634
  33 H :    0.123337
  34 H :    0.130458
  35 H :    0.136922
  36 H :    0.164175
  37 H :    0.142176
  38 H :    0.140471
  39 H :    0.138241
  40 H :    0.159692
  41 H :    0.171128
  42 H :    0.173351
  43 H :    0.139125
  44 H :    0.163729
  45 H :    0.159807
  46 H :    0.140775
  47 H :    0.127353
  48 H :    0.152096
Sum of atomic charges:   -0.0000000

LOEWDIN ATOMIC CHARGES
----------------------
   0 N :   -0.405836
   1 C :    0.131360
   2 O :   -0.279849
   3 C :   -0.065197
   4 C :   -0.020855
   5 C :   -0.125343
   6 C :   -0.131370
   7 C :   -0.125024
   8 C :   -0.124586
   9 C :   -0.113557
  10 N :   -0.115851
  11 C :    0.134425
  12 O :   -0.268589
  13 C :   -0.060769
  14 C :   -0.091787
  15 C :   -0.125893
  16 C :   -0.110322
  17 C :   -0.130831
  18 C :   -0.127929
  19 C :   -0.049231
  20 C :   -0.236530
  21 C :   -0.226190
  22 C :    0.017789
  23 N :   -0.142978
  24 C :   -0.066726
  25 C :   -0.144826
  26 C :   -0.095245
  27 C :   -0.044882
  28 H :    0.251153
  29 H :    0.264818
  30 H :    0.173820
  31 H :    0.137771
  32 H :    0.129306
  33 H :    0.129139
  34 H :    0.132970
  35 H :    0.135821
  36 H :    0.151492
  37 H :    0.138023
  38 H :    0.136914
  39 H :    0.135846
  40 H :    0.141854
  41 H :    0.144724
  42 H :    0.138151
  43 H :    0.123726
  44 H :    0.137898
  45 H :    0.137746
  46 H :    0.131061
  47 H :    0.132455
  48 H :    0.141935

  Mayer bond orders larger than 0.100000
B(  0-N ,  1-C ) :   1.0662 B(  0-N , 28-H ) :   0.8130 B(  0-N , 29-H ) :   0.8247
B(  1-C ,  2-O ) :   1.8350 B(  1-C ,  3-C ) :   0.9062 B(  3-C ,  4-C ) :   0.9576
B(  3-C , 10-N ) :   0.9203 B(  3-C , 30-H ) :   0.8904 B(  4-C ,  5-C ) :   1.4269
B(  4-C ,  9-C ) :   1.4299 B(  5-C ,  6-C ) :   1.4357 B(  5-C , 31-H ) :   0.9152
B(  6-C ,  7-C ) :   1.4537 B(  6-C , 32-H ) :   0.9308 B(  7-C ,  8-C ) :   1.4500
B(  7-C , 33-H ) :   0.9309 B(  8-C ,  9-C ) :   1.4353 B(  8-C , 34-H ) :   0.9290
B(  9-C , 35-H ) :   0.9116 B( 10-N , 11-C ) :   1.0146 B( 10-N , 19-C ) :   0.9336
B( 11-C , 12-O ) :   1.8016 B( 11-C , 13-C ) :   0.9928 B( 13-C , 14-C ) :   1.3938
B( 13-C , 18-C ) :   1.3755 B( 14-C , 15-C ) :   1.4366 B( 14-C , 36-H ) :   0.9132
B( 15-C , 16-C ) :   1.4373 B( 15-C , 37-H ) :   0.9287 B( 16-C , 17-C ) :   1.4504
B( 16-C , 38-H ) :   0.9287 B( 17-C , 18-C ) :   1.4354 B( 17-C , 39-H ) :   0.9289
B( 18-C , 40-H ) :   0.9055 B( 19-C , 20-C ) :   0.9696 B( 19-C , 27-C ) :   0.9571
B( 19-C , 41-H ) :   0.9123 B( 20-C , 21-C ) :   0.9771 B( 20-C , 42-H ) :   0.9264
B( 20-C , 43-H ) :   0.9449 B( 21-C , 22-C ) :   0.9977 B( 21-C , 44-H ) :   0.9295
B( 21-C , 45-H ) :   0.9292 B( 22-C , 23-N ) :   1.3581 B( 22-C , 27-C ) :   1.4349
B( 23-N , 24-C ) :   1.4436 B( 24-C , 25-C ) :   1.4055 B( 24-C , 46-H ) :   0.9324
B( 25-C , 26-C ) :   1.4431 B( 25-C , 47-H ) :   0.9266 B( 26-C , 27-C ) :   1.4174
B( 26-C , 48-H ) :   0.9155

FINAL SINGLE POINT ENERGY     -1203.022682279709

DIPOLE MOMENT
-------------

Method             : SCF
Type of density    : Electron Density
Multiplicity       :   1
Irrep              :   0
Energy             : -1203.0226822797087607 Eh
Relativity type    :
Basis              : AO
                                X                 Y                 Z
Electronic contribution:     -4.744074392       0.958833363      -0.728914816
Nuclear contribution   :      5.053411865      -3.064251731       1.042167754
                        -----------------------------------------
Total Dipole Moment    :      0.309337474      -2.105418368       0.313252938
                        -----------------------------------------
Magnitude (a.u.)       :      2.150954109
Magnitude (Debye)      :      5.467290853

Rotational constants in cm-1:             0.010134             0.004753             0.004296
Rotational constants in MHz :           303.806907           142.483299           128.787300

                             ****ORCA TERMINATED NORMALLY****
TOTAL RUN TIME: 0 days 0 hours 5 minutes 29 seconds 839 msec
