                         Program Version 6.0.0  -   RELEASE  -
|  1> ! B3LYP 6-31G* SP
|  2>
|  3> * xyz 0 1
|  4> C 4.7989 1.5150 -0.3818
|  5> C 4.1069 0.6543 -1.4324
|  6> O 2.7783 0.3333 -1.0248
|  7> C 2.4817 -0.6260 -0.0505
|  8> O 3.4002 -1.3018 0.4887
|  9> C 1.0835 -0.8448 0.3350
| 10> O 0.0639 -0.1969 -0.1689
| 11> C -1.0206 -0.6625 0.4187
| 12> C -2.3832 -0.1790 0.1175
| 13> C -3.4993 -0.7190 0.7810
| 14> C -4.7862 -0.2556 0.4900
| 15> C -4.9713 0.7493 -0.4643
| 16> Cl -6.5865 1.3289 -0.8276
| 17> C -3.8669 1.2916 -1.1287
| 18> C -2.5786 0.8308 -0.8404
| 19> N -0.7502 -1.6299 1.3265
| 20> C 0.5895 -1.7332 1.2608
| 21> O 1.3401 -2.6173 2.0283
| 22> H 4.2075 2.4368 -0.1979
| 23> H 5.8098 1.8014 -0.7408
| 24> H 4.9048 0.9543 0.5703
| 25> H 4.6907 -0.2736 -1.6176
| 26> H 4.0564 1.2249 -2.3835
| 27> H -3.3783 -1.4978 1.5235
| 28> H -5.6382 -0.6785 1.0070
| 29> H -4.0053 2.0699 -1.8684
| 30> H -1.7363 1.2637 -1.3658
| 31> H 0.8886 -3.2382 2.6887
| 32> *
| 33>
| 34>                          ****END OF INPUT****

CARTESIAN COORDINATES (ANGSTROEM)
---------------------------------
  C      4.798900    1.515000   -0.381800
  C      4.106900    0.654300   -1.432400
  O      2.778300    0.333300   -1.024800
  C      2.481700   -0.626000   -0.050500
  O      3.400200   -1.301800    0.488700
  C      1.083500   -0.844800    0.335000
  O      0.063900   -0.196900   -0.168900
  C     -1.020600   -0.662500    0.418700
  C     -2.383200   -0.179000    0.117500
  C     -3.499300   -0.719000    0.781000
  C     -4.786200   -0.255600    0.490000
  C     -4.971300    0.749300   -0.464300
  Cl    -6.586500    1.328900   -0.827600
  C     -3.866900    1.291600   -1.128700
  C     -2.578600    0.830800   -0.840400
  N     -0.750200   -1.629900    1.326500
  C      0.589500   -1.733200    1.260800
  O      1.340100   -2.617300    2.028300
  H      4.207500    2.436800   -0.197900
  H      5.809800    1.801400   -0.740800
  H      4.904800    0.954300    0.570300
  H      4.690700   -0.273600   -1.617600
  H      4.056400    1.224900   -2.383500
  H     -3.378300   -1.497800    1.523500
  H     -5.638200   -0.678500    1.007000
  H     -4.005300    2.069900   -1.868400
  H     -1.736300    1.263700   -1.365800
  H      0.888600   -3.238200    2.688700

 Total Charge           Charge          ....    0
 Multiplicity           Mult            ....    1
 Number of Electrons    NEL             ....  138
 Basis Dimension        Dim             ....  276

ORBITAL ENERGIES
----------------

  NO   OCC          E(Eh)            E(eV)
   0   2.0000    -101.538064     -2762.9912
   1   2.0000     -19.253198      -523.9061
   2   2.0000     -19.182408      -521.9799
   3   2.0000     -19.173239      -521.7304
   4   2.0000     -19.118642      -520.2447
   5   2.0000     -14.345978      -390.3739
   6   2.0000     -10.319708      -280.8135
   7   2.0000     -10.303060      -280.3605
   8   2.0000     -10.291409      -280.0435
   9   2.0000     -10.261194      -279.2213
  10   2.0000     -10.256739      -279.1000
  11   2.0000     -10.235837      -278.5313
  12   2.0000     -10.226554      -278.2787
  13   2.0000     -10.212164      -277.8871
  14   2.0000     -10.210839      -277.8511
  15   2.0000     -10.210332      -277.8372
  16   2.0000     -10.209964      -277.8273
  17   2.0000     -10.169589      -276.7286
  18   2.0000      -9.469943      -257.6902
  19   2.0000      -7.232985      -196.8195
  20   2.0000      -7.223586      -196.5638
  21   2.0000      -7.223171      -196.5525
  22   2.0000      -1.190235       -32.3879
  23   2.0000      -1.068773       -29.0828
  24   2.0000      -1.048551       -28.5325
  25   2.0000      -0.982859       -26.7449
  26   2.0000      -0.937906       -25.5217
  27   2.0000      -0.901538       -24.5321
  28   2.0000      -0.857256       -23.3271
  29   2.0000      -0.808391       -21.9974
  30   2.0000      -0.770536       -20.9673
  31   2.0000      -0.762647       -20.7527
  32   2.0000      -0.743215       -20.2239
  33   2.0000      -0.670404       -18.2426
  34   2.0000      -0.662820       -18.0362
  35   2.0000      -0.639285       -17.3958
  36   2.0000      -0.623387       -16.9632
  37   2.0000      -0.601158       -16.3583
  38   2.0000      -0.583761       -15.8849
  39   2.0000      -0.558698       -15.2029
  40   2.0000      -0.528159       -14.3719
  41   2.0000      -0.521023       -14.1778
  42   2.0000      -0.517801       -14.0901
  43   2.0000      -0.486379       -13.2351
  44   2.0000      -0.477358       -12.9896
  45   2.0000      -0.466874       -12.7043
  46   2.0000      -0.454562       -12.3693
  47   2.0000      -0.444048       -12.0832
  48   2.0000      -0.443433       -12.0664
  49   2.0000      -0.431023       -11.7287
  50   2.0000      -0.422664       -11.5013
  51   2.0000      -0.407665       -11.0931
  52   2.0000      -0.396023       -10.7763
  53   2.0000      -0.390214       -10.6183
  54   2.0000      -0.388336       -10.5672
  55   2.0000      -0.376810       -10.2535
  56   2.0000      -0.372174       -10.1274
  57   2.0000      -0.362087        -9.8529
  58   2.0000      -0.360710        -9.8154
  59   2.0000      -0.351191        -9.5564
  60   2.0000      -0.325436        -8.8556
  61   2.0000      -0.321539        -8.7495
  62   2.0000      -0.315024        -8.5722
  63   2.0000      -0.313339        -8.5264
  64   2.0000      -0.280981        -7.6459
  65   2.0000      -0.274415        -7.4672
  66   2.0000      -0.270058        -7.3487
  67   2.0000      -0.257419        -7.0047
  68   2.0000      -0.223724        -6.0878
  69   0.0000      -0.070100        -1.9075
  70   0.0000      -0.025185        -0.6853
  71   0.0000      -0.011905        -0.3240
  72   0.0000       0.022167         0.6032
  73   0.0000       0.041866         1.1392

MULLIKEN ATOMIC CHARGES
-----------------------
   0 C :   -0.459862
   1 C :   -0.015611
   2 O :   -0.487677
   3 C :    0.542344
   4 O :   -0.462246
   5 C :    0.215963
   6 O :   -0.385307
   7 C :    0.391030
   8 C :    0.083577
   9 C :   -0.148561
  10 C :   -0.135748
  11 C :   -0.058228
  12 Cl:   -0.004693
  13 C :   -0.138203
  14 C :   -0.156787
  15 N :   -0.435233
  16 C :    0.422077
  17 O :   -0.627239
  18 H :    0.149289
  19 H :    0.141465
  20 H :    0.180107
  21 H :    0.156598
  22 H :    0.149089
  23 H :    0.171853
  24 H :    0.160858
  25 H :    0.160468
  26 H :    0.164320
  27 H :    0.426357
Sum of atomic charges:   -0.0000000

LOEWDIN ATOMIC CHARGES
----------------------
   0 C :   -0.374991
   1 C :   -0.090191
   2 O :   -0.181165
   3 C :    0.169325
   4 O :   -0.262818
   5 C :   -0.050333
   6 O :    0.017762
   7 C :    0.100859
   8 C :   -0.039125
   9 C :   -0.097329
  10 C :   -0.129312
  11 C :   -0.078826
  12 Cl:    0.046598
  13 C :   -0.129491
  14 C :   -0.107814
  15 N :   -0.174753
  16 C :    0.099029
  17 O :   -0.314109
  18 H :    0.126694
  19 H :    0.128571
  20 H :    0.140982
  21 H :    0.125368
  22 H :    0.126252
  23 H :    0.155256
  24 H :    0.149111
  25 H :    0.148686
  26 H :    0.149535
  27 H :    0.346231

  Mayer bond orders larger than 0.100000
B(  0-C ,  1-C ) :   1.0119 B(  0-C , 18-H ) :   0.9486 B(  0-C , 19-H ) :   0.9426
B(  0-C , 20-H ) :   0.9396 B(  1-C ,  2-O ) :   0.8687 B(  1-C , 21-H ) :   0.9254
B(  1-C , 22-H ) :   0.9405 B(  2-O ,  3-C ) :   0.9874 B(  3-C ,  4-O ) :   1.7947
B(  3-C ,  5-C ) :   1.0306 B(  5-C ,  6-O ) :   0.9706 B(  5-C ,  7-C ) :   0.1066
B(  5-C , 16-C ) :   1.4100 B(  6-O ,  7-C ) :   1.1210 B(  7-C ,  8-C ) :   1.0699
B(  7-C , 15-N ) :   1.4604 B(  8-C ,  9-C ) :   1.3952 B(  8-C , 14-C ) :   1.3749
B(  9-C , 10-C ) :   1.4370 B(  9-C , 23-H ) :   0.9100 B( 10-C , 11-C ) :   1.4012
B( 10-C , 24-H ) :   0.9222 B( 11-C , 12-Cl) :   1.0253 B( 11-C , 13-C ) :   1.4072
B( 13-C , 14-C ) :   1.4376 B( 13-C , 25-H ) :   0.9223 B( 14-C , 26-H ) :   0.9175
B( 15-N , 16-C ) :   1.2990 B( 16-C , 17-O ) :   1.0128 B( 17-O , 27-H ) :   0.7559

FINAL SINGLE POINT ENERGY     -1278.585985506404

DIPOLE MOMENT
-------------

Method             : SCF
Type of density    : Electron Density
Multiplicity       :   1
Irrep              :   0
Energy             : -1278.5859855064038584 Eh
Relativity type    :
Basis              : AO
                                X                 Y                 Z
Electronic contribution:    -25.738370229      -2.667097650       0.918919779
Nuclear contribution   :     25.211605810       2.928661511      -1.016322250
                        -----------------------------------------
Total Dipole Moment    :     -0.526764420       0.261563862      -0.097402471
                        -----------------------------------------
Magnitude (a.u.)       :      0.596140629
Magnitude (Debye)      :      1.515269057

Rotational constants in cm-1:             0.028969             0.004715             0.004106
Rotational constants in MHz :           868.461186           141.360700           123.091020

                             ****ORCA TERMINATED NORMALLY****
TOTAL RUN TIME: 0 days 0 hours 2 minutes 36 seconds 939 msec
