                         Program Version 6.0.0  -   RELEASE  -
|  1> ! B3LYP 6-31G* SP
|  2>
|  3> * xyz 0 1
|  4> C -7.1207 -0.9253 -1.9927
|  5> N -6.1269 -0.4841 -0.9996
|  6> C -4.8430 -0.1912 -1.4004
|  7> O -4.4948 -0.3085 -2.6071
|  8> C -3.9347 0.2506 -0.4454
|  9> C -2.6040 0.6289 -0.4970
| 10> C -1.7132 0.7280 -1.7050
| 11> C -0.2840 0.4433 -1.3512
| 12> O 0.5396 1.3960 -1.2913
| 13> N 0.1242 -0.9014 -1.0554
| 14> C 1.4551 -1.2644 -0.6673
| 15> N 2.4726 -0.3874 -0.5332
| 16> C 3.6301 -0.9971 -0.1514
| 17> C 4.8824 -0.2215 0.0481
| 18> C 4.9707 1.0963 -0.4356
| 19> C 6.1325 1.8469 -0.2454
| 20> F 6.1984 3.1195 -0.7091
| 21> C 7.2243 1.2936 0.4250
| 22> C 7.1709 -0.0269 0.8999
| 23> C 8.3279 -0.6093 1.6732
| 24> F 9.5229 -0.0284 1.2846
| 25> F 8.4202 -1.9730 1.4548
| 26> F 8.1344 -0.3810 3.0227
| 27> C 5.9878 -0.7688 0.7301
| 28> C 3.5234 -2.3829 0.0129
| 29> S 1.9382 -2.8339 -0.3259
| 30> C -2.3001 1.0343 0.8023
| 31> O -3.3532 0.8843 1.5829
| 32> C -4.3318 0.4165 0.8445
| 33> N -5.5975 0.1400 1.2568
| 34> C -5.9968 0.3740 2.6500
| 35> C -6.5075 -0.2907 0.3174
| 36> O -7.7043 -0.5030 0.6633
| 37> H -7.8684 -1.6082 -1.5360
| 38> H -6.6423 -1.4937 -2.8186
| 39> H -7.6433 -0.0410 -2.4142
| 40> H -2.0269 -0.0033 -2.4770
| 41> H -1.8055 1.7468 -2.1383
| 42> H -0.5901 -1.6614 -1.1171
| 43> H 4.1400 1.5488 -0.9627
| 44> H 8.1091 1.8992 0.5758
| 45> H 5.9314 -1.7636 1.1493
| 46> H 4.3122 -3.0690 0.2863
| 47> H -1.3486 1.4232 1.1402
| 48> H -6.5351 1.3423 2.7251
| 49> H -5.1154 0.3988 3.3260
| 50> H -6.6604 -0.4432 3.0058
| 51> *
| 52>
| 53>                          ****END OF INPUT****

CARTESIAN COORDINATES (ANGSTROEM)
---------------------------------
  C     -7.120700   -0.925300   -1.992700
  N     -6.126900   -0.484100   -0.999600
  C     -4.843000   -0.191200   -1.400400
  O     -4.494800   -0.308500   -2.607100
  C     -3.934700    0.250600   -0.445400
  C     -2.604000    0.628900   -0.497000
  C     -1.713200    0.728000   -1.705000
  C     -0.284000    0.443300   -1.351200
  O      0.539600    1.396000   -1.291300
  N      0.124200   -0.901400   -1.055400
  C      1.455100   -1.264400   -0.667300
  N      2.472600   -0.387400   -0.533200
  C      3.630100   -0.997100   -0.151400
  C      4.882400   -0.221500    0.048100
  C      4.970700    1.096300   -0.435600
  C      6.132500    1.846900   -0.245400
  F      6.198400    3.119500   -0.709100
  C      7.224300    1.293600    0.425000
  C      7.170900   -0.026900    0.899900
  C      8.327900   -0.609300    1.673200
  F      9.522900   -0.028400    1.284600
  F      8.420200   -1.973000    1.454800
  F      8.134400   -0.381000    3.022700
  C      5.987800   -0.768800    0.730100
  C      3.523400   -2.382900    0.012900
  S      1.938200   -2.833900   -0.325900
  C     -2.300100    1.034300    0.802300
  O     -3.353200    0.884300    1.582900
  C     -4.331800    0.416500    0.844500
  N     -5.597500    0.140000    1.256800
  C     -5.996800    0.374000    2.650000
  C     -6.507500   -0.290700    0.317400
  O     -7.704300   -0.503000    0.663300
  H     -7.868400   -1.608200   -1.536000
  H     -6.642300   -1.493700   -2.818600
  H     -7.643300   -0.041000   -2.414200
  H     -2.026900   -0.003300   -2.477000
  H     -1.805500    1.746800   -2.138300
  H     -0.590100   -1.661400   -1.117100
  H      4.140000    1.548800   -0.962700
  H      8.109100    1.899200    0.575800
  H      5.931400   -1.763600    1.149300
  H      4.312200   -3.069000    0.286300
  H     -1.348600    1.423200    1.140200
  H     -6.535100    1.342300    2.725100
  H     -5.115400    0.398800    3.326000
  H     -6.660400   -0.443200    3.005800

 Total Charge           Charge          ....    0
 Multiplicity           Mult            ....    1
 Number of Electrons    NEL             ....  246
 Basis Dimension        Dim             ....  494

ORBITAL ENERGIES
----------------

  NO   OCC          E(Eh)            E(eV)
   0   2.0000     -88.913985     -2419.4725
   1   2.0000     -24.720188      -672.6705
   2   2.0000     -24.719589      -672.6542
   3   2.0000     -24.715612      -672.5460
   4   2.0000     -24.701886      -672.1725
   5   2.0000     -19.259494      -524.0775
   6   2.0000     -19.122362      -520.3459
   7   2.0000     -19.122200      -520.3415
   8   2.0000     -19.115667      -520.1637
   9   2.0000     -14.421920      -392.4404
  10   2.0000     -14.404999      -391.9799
  11   2.0000     -14.401953      -391.8971
  12   2.0000     -14.333408      -390.0319
  13   2.0000     -10.436037      -283.9790
  14   2.0000     -10.339457      -281.3509
  15   2.0000     -10.308556      -280.5101
  16   2.0000     -10.308236      -280.5014
  17   2.0000     -10.298762      -280.2436
  18   2.0000     -10.297847      -280.2187
  19   2.0000     -10.276084      -279.6265
  20   2.0000     -10.250257      -278.9237
  21   2.0000     -10.246157      -278.8121
  22   2.0000     -10.236060      -278.5374
  23   2.0000     -10.225443      -278.2485
  24   2.0000     -10.218309      -278.0543
  25   2.0000     -10.217752      -278.0392
  26   2.0000     -10.217406      -278.0297
  27   2.0000     -10.214742      -277.9573
  28   2.0000     -10.209242      -277.8076
  29   2.0000     -10.204053      -277.6664
  30   2.0000     -10.201684      -277.6019
  31   2.0000     -10.197390      -277.4851
  32   2.0000     -10.195233      -277.4264
  33   2.0000      -7.991866      -217.4697
  34   2.0000      -5.954942      -162.0422
  35   2.0000      -5.950805      -161.9296
  36   2.0000      -5.948661      -161.8713
  37   2.0000      -1.279541       -34.8181
  38   2.0000      -1.214864       -33.0581
  39   2.0000      -1.205210       -32.7954
  40   2.0000      -1.203500       -32.7489
  41   2.0000      -1.188372       -32.3372
  42   2.0000      -1.076521       -29.2936
  43   2.0000      -1.027701       -27.9652
  44   2.0000      -1.026887       -27.9430
  45   2.0000      -0.984232       -26.7823
  46   2.0000      -0.982284       -26.7293
  47   2.0000      -0.946877       -25.7658
  48   2.0000      -0.923081       -25.1183
  49   2.0000      -0.875200       -23.8154
  50   2.0000      -0.861314       -23.4376
  51   2.0000      -0.821282       -22.3482
  52   2.0000      -0.802759       -21.8442
  53   2.0000      -0.794037       -21.6068
  54   2.0000      -0.773743       -21.0546
  55   2.0000      -0.764120       -20.7928
  56   2.0000      -0.752105       -20.4658
  57   2.0000      -0.729439       -19.8491
  58   2.0000      -0.722825       -19.6691
  59   2.0000      -0.698409       -19.0047
  60   2.0000      -0.673735       -18.3333
  61   2.0000      -0.651548       -17.7295
  62   2.0000      -0.646652       -17.5963
  63   2.0000      -0.631759       -17.1910
  64   2.0000      -0.623412       -16.9639
  65   2.0000      -0.618129       -16.8201
  66   2.0000      -0.602686       -16.3999
  67   2.0000      -0.587989       -16.0000
  68   2.0000      -0.573602       -15.6085
  69   2.0000      -0.569998       -15.5104
  70   2.0000      -0.568259       -15.4631
  71   2.0000      -0.553820       -15.0702
  72   2.0000      -0.541019       -14.7219
  73   2.0000      -0.535112       -14.5611
  74   2.0000      -0.526343       -14.3225
  75   2.0000      -0.516861       -14.0645
  76   2.0000      -0.506352       -13.7785
  77   2.0000      -0.502447       -13.6723
  78   2.0000      -0.494754       -13.4629
  79   2.0000      -0.489516       -13.3204
  80   2.0000      -0.484743       -13.1905
  81   2.0000      -0.481460       -13.1012
  82   2.0000      -0.469393       -12.7728
  83   2.0000      -0.466357       -12.6902
  84   2.0000      -0.459376       -12.5003
  85   2.0000      -0.458455       -12.4752
  86   2.0000      -0.456136       -12.4121
  87   2.0000      -0.448999       -12.2179
  88   2.0000      -0.446916       -12.1612
  89   2.0000      -0.440831       -11.9956
  90   2.0000      -0.438093       -11.9211
  91   2.0000      -0.433341       -11.7918
  92   2.0000      -0.432706       -11.7745
  93   2.0000      -0.420151       -11.4329
  94   2.0000      -0.416849       -11.3430
  95   2.0000      -0.414943       -11.2912
  96   2.0000      -0.411758       -11.2045
  97   2.0000      -0.408211       -11.1080
  98   2.0000      -0.407388       -11.0856
  99   2.0000      -0.401976       -10.9383
 100   2.0000      -0.399519       -10.8715
 101   2.0000      -0.397740       -10.8230
 102   2.0000      -0.394483       -10.7344
 103   2.0000      -0.389831       -10.6078
 104   2.0000      -0.389062       -10.5869
 105   2.0000      -0.382233       -10.4011
 106   2.0000      -0.376630       -10.2486
 107   2.0000      -0.370342       -10.0775
 108   2.0000      -0.363171        -9.8824
 109   2.0000      -0.350074        -9.5260
 110   2.0000      -0.335842        -9.1387
 111   2.0000      -0.315626        -8.5886
 112   2.0000      -0.301284        -8.1984
 113   2.0000      -0.294244        -8.0068
 114   2.0000      -0.287737        -7.8297
 115   2.0000      -0.284236        -7.7345
 116   2.0000      -0.273356        -7.4384
 117   2.0000      -0.264274        -7.1913
 118   2.0000      -0.256217        -6.9720
 119   2.0000      -0.255427        -6.9505
 120   2.0000      -0.240093        -6.5333
 121   2.0000      -0.223460        -6.0807
 122   2.0000      -0.217930        -5.9302
 123   0.0000      -0.046137        -1.2554
 124   0.0000      -0.033802        -0.9198
 125   0.0000      -0.027478        -0.7477
 126   0.0000      -0.018378        -0.5001
 127   0.0000      -0.014386        -0.3915

MULLIKEN ATOMIC CHARGES
-----------------------
   0 C :   -0.315630
   1 N :   -0.482959
   2 C :    0.504970
   3 O :   -0.503490
   4 C :    0.012967
   5 C :    0.025758
   6 C :   -0.404561
   7 C :    0.546576
   8 O :   -0.431139
   9 N :   -0.656591
  10 C :    0.256009
  11 N :   -0.376791
  12 C :    0.220834
  13 C :    0.129259
  14 C :   -0.253931
  15 C :    0.424212
  16 F :   -0.313295
  17 C :   -0.243855
  18 C :   -0.008810
  19 C :    0.900660
  20 F :   -0.304162
  21 F :   -0.306029
  22 F :   -0.295316
  23 C :   -0.221136
  24 C :   -0.394661
  25 S :    0.256731
  26 C :   -0.006618
  27 O :   -0.380727
  28 C :    0.492263
  29 N :   -0.497669
  30 C :   -0.330102
  31 C :    0.677703
  32 O :   -0.501575
  33 H :    0.194302
  34 H :    0.196322
  35 H :    0.180428
  36 H :    0.192355
  37 H :    0.208156
  38 H :    0.348228
  39 H :    0.193919
  40 H :    0.162835
  41 H :    0.144852
  42 H :    0.188527
  43 H :    0.192428
  44 H :    0.189248
  45 H :    0.184824
  46 H :    0.204678
Sum of atomic charges:   -0.0000000

LOEWDIN ATOMIC CHARGES
----------------------
   0 C :   -0.259979
   1 N :   -0.028896
   2 C :    0.110999
   3 O :   -0.303928
   4 C :   -0.117489
   5 C :   -0.040469
   6 C :   -0.237598
   7 C :    0.149872
   8 O :   -0.246038
   9 N :   -0.208537
  10 C :   -0.080241
  11 N :   -0.153193
  12 C :   -0.002870
  13 C :   -0.007593
  14 C :   -0.128995
  15 C :    0.120265
  16 F :   -0.098079
  17 C :   -0.144581
  18 C :   -0.063308
  19 C :    0.312345
  20 F :   -0.111755
  21 F :   -0.113706
  22 F :   -0.112629
  23 C :   -0.121030
  24 C :   -0.343644
  25 S :    0.393164
  26 C :   -0.086960
  27 O :    0.000115
  28 C :    0.096412
  29 N :   -0.023304
  30 C :   -0.260258
  31 C :    0.144103
  32 O :   -0.310380
  33 H :    0.152067
  34 H :    0.153484
  35 H :    0.141713
  36 H :    0.160870
  37 H :    0.169869
  38 H :    0.269054
  39 H :    0.168009
  40 H :    0.152815
  41 H :    0.140013
  42 H :    0.163227
  43 H :    0.159118
  44 H :    0.144409
  45 H :    0.146226
  46 H :    0.157311

  Mayer bond orders larger than 0.100000
B(  0-C ,  1-N ) :   0.9168 B(  0-C , 33-H ) :   0.9267 B(  0-C , 34-H ) :   0.9236
B(  0-C , 35-H ) :   0.9401 B(  1-N ,  2-C ) :   0.9707 B(  1-N , 31-C ) :   1.0424
B(  2-C ,  3-O ) :   1.7782 B(  2-C ,  4-C ) :   1.0825 B(  4-C ,  5-C ) :   1.3111
B(  4-C , 28-C ) :   1.3628 B(  5-C ,  6-C ) :   0.9869 B(  5-C , 26-C ) :   1.5744
B(  6-C ,  7-C ) :   0.9570 B(  6-C , 36-H ) :   0.8923 B(  6-C , 37-H ) :   0.9101
B(  7-C ,  8-O ) :   1.8809 B(  7-C ,  9-N ) :   0.9802 B(  9-N , 10-C ) :   0.9536
B(  9-N , 38-H ) :   0.8187 B( 10-C , 11-N ) :   1.5106 B( 10-C , 24-C ) :   0.1070
B( 10-C , 25-S ) :   1.1406 B( 11-N , 12-C ) :   1.2652 B( 12-C , 13-C ) :   1.0506
B( 12-C , 24-C ) :   1.5144 B( 13-C , 14-C ) :   1.3719 B( 13-C , 23-C ) :   1.3839
B( 14-C , 15-C ) :   1.3616 B( 14-C , 39-H ) :   0.8979 B( 15-C , 16-F ) :   0.9104
B( 15-C , 17-C ) :   1.3747 B( 17-C , 18-C ) :   1.3801 B( 17-C , 40-H ) :   0.9114
B( 18-C , 19-C ) :   0.9787 B( 18-C , 23-C ) :   1.4015 B( 19-C , 20-F ) :   0.9472
B( 19-C , 21-F ) :   0.9463 B( 19-C , 22-F ) :   0.9888 B( 23-C , 41-H ) :   0.9102
B( 24-C , 25-S ) :   1.1177 B( 24-C , 42-H ) :   0.9003 B( 26-C , 27-O ) :   0.9985
B( 26-C , 43-H ) :   0.9168 B( 27-O , 28-C ) :   1.0788 B( 28-C , 29-N ) :   0.9892
B( 29-N , 30-C ) :   0.9236 B( 29-N , 31-C ) :   1.0422 B( 30-C , 44-H ) :   0.9342
B( 30-C , 45-H ) :   0.9300 B( 30-C , 46-H ) :   0.9264 B( 31-C , 32-O ) :   1.7964

FINAL SINGLE POINT ENERGY     -2087.050670208891

DIPOLE MOMENT
-------------

Method             : SCF
Type of density    : Electron Density
Multiplicity       :   1
Irrep              :   0
Energy             : -2087.0506702088910060 Eh
Relativity type    :
Basis              : AO
                                X                 Y                 Z
Electronic contribution:     59.782822658      -0.305120787       7.439204342
Nuclear contribution   :    -61.303571716      -0.776231360      -6.537096735
                        -----------------------------------------
Total Dipole Moment    :     -1.520749058      -1.081352147       0.902107607
                        -----------------------------------------
Magnitude (a.u.)       :      2.072630767
Magnitude (Debye)      :      5.268208739

Rotational constants in cm-1:             0.010570             0.001137             0.001128
Rotational constants in MHz :           316.884107            34.071584            33.824639

                             ****ORCA TERMINATED NORMALLY****
TOTAL RUN TIME: 0 days 0 hours 5 minutes 42 seconds 207 msec
