                         Program Version 6.0.0  -   RELEASE  -
|  1> ! B3LYP 6-31G* SP
|  2>
|  3> * xyz 0 1
|  4> O -1.3917 7.7945 -1.5782
|  5> C -2.2153 6.8692 -1.3442
|  6> O -3.5322 7.0037 -1.7764
|  7> C -1.7890 5.6519 -0.6196
|  8> C -0.4628 5.5096 -0.1723
|  9> C -0.0645 4.3548 0.5073
| 10> C -0.9835 3.3265 0.7505
| 11> S -0.4764 1.8544 1.5733
| 12> O -1.6060 1.3534 2.4301
| 13> O 0.7013 2.1356 2.4639
| 14> N -0.0406 0.6482 0.4000
| 15> C 1.0828 0.9229 -0.5019
| 16> C 2.2621 0.0652 -0.1577
| 17> C 2.7301 -0.9093 -1.0489
| 18> C 3.8285 -1.6942 -0.6926
| 19> C 4.4591 -1.5002 0.5501
| 20> O 5.5638 -2.2561 0.9734
| 21> C 6.1882 -3.2930 0.2198
| 22> F 5.2841 -4.3091 -0.0323
| 23> F 6.6754 -2.7884 -0.9725
| 24> F 7.2426 -3.8057 0.9508
| 25> C 3.9633 -0.5089 1.4029
| 26> N 2.8913 0.2422 1.0360
| 27> C -1.0470 -0.2882 -0.0111
| 28> N -2.1382 0.1890 -0.6651
| 29> C -3.1131 -0.6179 -1.1463
| 30> C -2.9992 -2.0036 -1.0231
| 31> C -3.9799 -2.8451 -1.5709
| 32> C -3.8453 -4.2305 -1.4810
| 33> C -2.7299 -4.7850 -0.8543
| 34> C -1.7492 -3.9586 -0.2993
| 35> C -1.8764 -2.5525 -0.3545
| 36> C -0.9139 -1.6796 0.2219
| 37> C 0.2577 -2.2226 1.0193
| 38> C -0.1340 -2.9999 2.2743
| 39> C 0.4777 -1.6245 2.4063
| 40> C -2.3048 3.4621 0.3072
| 41> C -2.7062 4.6160 -0.3716
| 42> H -3.8336 7.8314 -2.2760
| 43> H 0.2679 6.2886 -0.3503
| 44> H 0.9625 4.2615 0.8367
| 45> H 1.3974 1.9844 -0.4153
| 46> H 0.7690 0.7745 -1.5593
| 47> H 2.2447 -1.0676 -2.0044
| 48> H 4.1749 -2.4454 -1.3885
| 49> H 4.4301 -0.3373 2.3642
| 50> H -3.9607 -0.1742 -1.6538
| 51> H -4.8447 -2.4310 -2.0758
| 52> H -4.6016 -4.8760 -1.9089
| 53> H -2.6220 -5.8608 -0.8015
| 54> H -0.8905 -4.4326 0.1546
| 55> H 1.1463 -2.6305 0.4952
| 56> H 0.5578 -3.8272 2.5397
| 57> H -1.2184 -3.0299 2.5175
| 58> H -0.2562 -0.8752 2.7636
| 59> H 1.5269 -1.6465 2.7678
| 60> H -3.0249 2.6733 0.4833
| 61> H -3.7334 4.6943 -0.7047
| 62> *
| 63>
| 64>                          ****END OF INPUT****

CARTESIAN COORDINATES (ANGSTROEM)
---------------------------------
  O     -1.391700    7.794500   -1.578200
  C     -2.215300    6.869200   -1.344200
  O     -3.532200    7.003700   -1.776400
  C     -1.789000    5.651900   -0.619600
  C     -0.462800    5.509600   -0.172300
  C     -0.064500    4.354800    0.507300
  C     -0.983500    3.326500    0.750500
  S     -0.476400    1.854400    1.573300
  O     -1.606000    1.353400    2.430100
  O      0.701300    2.135600    2.463900
  N     -0.040600    0.648200    0.400000
  C      1.082800    0.922900   -0.501900
  C      2.262100    0.065200   -0.157700
  C      2.730100   -0.909300   -1.048900
  C      3.828500   -1.694200   -0.692600
  C      4.459100   -1.500200    0.550100
  O      5.563800   -2.256100    0.973400
  C      6.188200   -3.293000    0.219800
  F      5.284100   -4.309100   -0.032300
  F      6.675400   -2.788400   -0.972500
  F      7.242600   -3.805700    0.950800
  C      3.963300   -0.508900    1.402900
  N      2.891300    0.242200    1.036000
  C     -1.047000   -0.288200   -0.011100
  N     -2.138200    0.189000   -0.665100
  C     -3.113100   -0.617900   -1.146300
  C     -2.999200   -2.003600   -1.023100
  C     -3.979900   -2.845100   -1.570900
  C     -3.845300   -4.230500   -1.481000
  C     -2.729900   -4.785000   -0.854300
  C     -1.749200   -3.958600   -0.299300
  C     -1.876400   -2.552500   -0.354500
  C     -0.913900   -1.679600    0.221900
  C      0.257700   -2.222600    1.019300
  C     -0.134000   -2.999900    2.274300
  C      0.477700   -1.624500    2.406300
  C     -2.304800    3.462100    0.307200
  C     -2.706200    4.616000   -0.371600
  H     -3.833600    7.831400   -2.276000
  H      0.267900    6.288600   -0.350300
  H      0.962500    4.261500    0.836700
  H      1.397400    1.984400   -0.415300
  H      0.769000    0.774500   -1.559300
  H      2.244700   -1.067600   -2.004400
  H      4.174900   -2.445400   -1.388500
  H      4.430100   -0.337300    2.364200
  H     -3.960700   -0.174200   -1.653800
  H     -4.844700   -2.431000   -2.075800
  H     -4.601600   -4.876000   -1.908900
  H     -2.622000   -5.860800   -0.801500
  H     -0.890500   -4.432600    0.154600
  H      1.146300   -2.630500    0.495200
  H      0.557800   -3.827200    2.539700
  H     -1.218400   -3.029900    2.517500
  H     -0.256200   -0.875200    2.763600
  H      1.526900   -1.646500    2.767800
  H     -3.024900    2.673300    0.483300
  H     -3.733400    4.694300   -0.704700

 Total Charge           Charge          ....    0
 Multiplicity           Mult            ....    1
 Number of Electrons    NEL             ....  280
 Basis Dimension        Dim             ....  576

ORBITAL ENERGIES
----------------

  NO   OCC          E(Eh)            E(eV)
   0   2.0000     -89.089727     -2424.2547
   1   2.0000     -24.748312      -673.4358
   2   2.0000     -24.748108      -673.4303
   3   2.0000     -24.747519      -673.4142
   4   2.0000     -19.223571      -523.1000
   5   2.0000     -19.192465      -522.2535
   6   2.0000     -19.133468      -520.6481
   7   2.0000     -19.120281      -520.2893
   8   2.0000     -19.117671      -520.2183
   9   2.0000     -14.370481      -391.0407
  10   2.0000     -14.339162      -390.1884
  11   2.0000     -14.335253      -390.0821
  12   2.0000     -10.512568      -286.0615
  13   2.0000     -10.330838      -281.1164
  14   2.0000     -10.280137      -279.7368
  15   2.0000     -10.261416      -279.2273
  16   2.0000     -10.240255      -278.6515
  17   2.0000     -10.235124      -278.5119
  18   2.0000     -10.234399      -278.4921
  19   2.0000     -10.233756      -278.4747
  20   2.0000     -10.229014      -278.3456
  21   2.0000     -10.225421      -278.2479
  22   2.0000     -10.217136      -278.0224
  23   2.0000     -10.213575      -277.9255
  24   2.0000     -10.210786      -277.8496
  25   2.0000     -10.210387      -277.8387
  26   2.0000     -10.210255      -277.8352
  27   2.0000     -10.209614      -277.8177
  28   2.0000     -10.208844      -277.7968
  29   2.0000     -10.207959      -277.7727
  30   2.0000     -10.202153      -277.6147
  31   2.0000     -10.199237      -277.5354
  32   2.0000     -10.198476      -277.5147
  33   2.0000     -10.197207      -277.4801
  34   2.0000     -10.194955      -277.4188
  35   2.0000     -10.191219      -277.3172
  36   2.0000     -10.173657      -276.8393
  37   2.0000     -10.168786      -276.7067
  38   2.0000      -8.125691      -221.1113
  39   2.0000      -6.090673      -165.7356
  40   2.0000      -6.088755      -165.6834
  41   2.0000      -6.088290      -165.6708
  42   2.0000      -1.312386       -35.7118
  43   2.0000      -1.233636       -33.5689
  44   2.0000      -1.231921       -33.5223
  45   2.0000      -1.093628       -29.7591
  46   2.0000      -1.076985       -29.3063
  47   2.0000      -1.076793       -29.3010
  48   2.0000      -0.990976       -26.9658
  49   2.0000      -0.966060       -26.2878
  50   2.0000      -0.955056       -25.9884
  51   2.0000      -0.942930       -25.6584
  52   2.0000      -0.912935       -24.8422
  53   2.0000      -0.882819       -24.0227
  54   2.0000      -0.867203       -23.5978
  55   2.0000      -0.849456       -23.1149
  56   2.0000      -0.815773       -22.1983
  57   2.0000      -0.802042       -21.8247
  58   2.0000      -0.797874       -21.7112
  59   2.0000      -0.786311       -21.3966
  60   2.0000      -0.776791       -21.1375
  61   2.0000      -0.768985       -20.9251
  62   2.0000      -0.745496       -20.2860
  63   2.0000      -0.732707       -19.9380
  64   2.0000      -0.705618       -19.2008
  65   2.0000      -0.689753       -18.7691
  66   2.0000      -0.661582       -18.0026
  67   2.0000      -0.653950       -17.7949
  68   2.0000      -0.651383       -17.7250
  69   2.0000      -0.641301       -17.4507
  70   2.0000      -0.630927       -17.1684
  71   2.0000      -0.624959       -17.0060
  72   2.0000      -0.614203       -16.7133
  73   2.0000      -0.604821       -16.4580
  74   2.0000      -0.603078       -16.4106
  75   2.0000      -0.592262       -16.1163
  76   2.0000      -0.583262       -15.8714
  77   2.0000      -0.575378       -15.6568
  78   2.0000      -0.568465       -15.4687
  79   2.0000      -0.556753       -15.1500
  80   2.0000      -0.538333       -14.6488
  81   2.0000      -0.530988       -14.4489
  82   2.0000      -0.526281       -14.3208
  83   2.0000      -0.516628       -14.0582
  84   2.0000      -0.508950       -13.8492
  85   2.0000      -0.501470       -13.6457
  86   2.0000      -0.486757       -13.2453
  87   2.0000      -0.484279       -13.1779
  88   2.0000      -0.482625       -13.1329
  89   2.0000      -0.478519       -13.0212
  90   2.0000      -0.475123       -12.9288
  91   2.0000      -0.472752       -12.8642
  92   2.0000      -0.471078       -12.8187
  93   2.0000      -0.465329       -12.6623
  94   2.0000      -0.456253       -12.4153
  95   2.0000      -0.455099       -12.3839
  96   2.0000      -0.454389       -12.3646
  97   2.0000      -0.452473       -12.3124
  98   2.0000      -0.445749       -12.1294
  99   2.0000      -0.441855       -12.0235
 100   2.0000      -0.440733       -11.9930
 101   2.0000      -0.437747       -11.9117
 102   2.0000      -0.432755       -11.7759
 103   2.0000      -0.429823       -11.6961
 104   2.0000      -0.426508       -11.6059
 105   2.0000      -0.424594       -11.5538
 106   2.0000      -0.422468       -11.4959
 107   2.0000      -0.417800       -11.3689
 108   2.0000      -0.413960       -11.2644
 109   2.0000      -0.409987       -11.1563
 110   2.0000      -0.406956       -11.0738
 111   2.0000      -0.401573       -10.9274
 112   2.0000      -0.385868       -10.5000
 113   2.0000      -0.384749       -10.4695
 114   2.0000      -0.379689       -10.3319
 115   2.0000      -0.378822       -10.3083
 116   2.0000      -0.371953       -10.1213
 117   2.0000      -0.368793       -10.0354
 118   2.0000      -0.362136        -9.8542
 119   2.0000      -0.357986        -9.7413
 120   2.0000      -0.351634        -9.5684
 121   2.0000      -0.351132        -9.5548
 122   2.0000      -0.320988        -8.7345
 123   2.0000      -0.316441        -8.6108
 124   2.0000      -0.309101        -8.4111
 125   2.0000      -0.301359        -8.2004
 126   2.0000      -0.293898        -7.9974
 127   2.0000      -0.288502        -7.8505
 128   2.0000      -0.286221        -7.7885
 129   2.0000      -0.280021        -7.6198
 130   2.0000      -0.273973        -7.4552
 131   2.0000      -0.272952        -7.4274
 132   2.0000      -0.270193        -7.3523
 133   2.0000      -0.267407        -7.2765
 134   2.0000      -0.264794        -7.2054
 135   2.0000      -0.261260        -7.1092
 136   2.0000      -0.254839        -6.9345
 137   2.0000      -0.252155        -6.8615
 138   2.0000      -0.244577        -6.6553
 139   2.0000      -0.224488        -6.1086
 140   0.0000      -0.076398        -2.0789
 141   0.0000      -0.064238        -1.7480
 142   0.0000      -0.041941        -1.1413
 143   0.0000      -0.033100        -0.9007
 144   0.0000      -0.024660        -0.6710

MULLIKEN ATOMIC CHARGES
-----------------------
   0 O :   -0.446419
   1 C :    0.526387
   2 O :   -0.624037
   3 C :    0.083190
   4 C :   -0.142248
   5 C :   -0.157105
   6 C :   -0.131062
   7 S :    1.241380
   8 O :   -0.562278
   9 O :   -0.530425
  10 N :   -0.576776
  11 C :   -0.238923
  12 C :    0.305449
  13 C :   -0.175243
  14 C :   -0.159847
  15 C :    0.334667
  16 O :   -0.542723
  17 C :    1.087256
  18 F :   -0.291750
  19 F :   -0.290472
  20 F :   -0.276258
  21 C :   -0.025950
  22 N :   -0.360944
  23 C :    0.316227
  24 N :   -0.397655
  25 C :   -0.047706
  26 C :    0.136481
  27 C :   -0.204851
  28 C :   -0.125320
  29 C :   -0.123286
  30 C :   -0.186190
  31 C :    0.114683
  32 C :    0.054167
  33 C :   -0.195747
  34 C :   -0.316085
  35 C :   -0.299888
  36 C :   -0.120824
  37 C :   -0.152105
  38 H :    0.432534
  39 H :    0.177514
  40 H :    0.184827
  41 H :    0.182993
  42 H :    0.170068
  43 H :    0.144183
  44 H :    0.162692
  45 H :    0.173498
  46 H :    0.150585
  47 H :    0.137729
  48 H :    0.135938
  49 H :    0.138299
  50 H :    0.151657
  51 H :    0.156561
  52 H :    0.139046
  53 H :    0.158364
  54 H :    0.200122
  55 H :    0.149404
  56 H :    0.187299
  57 H :    0.168916
Sum of atomic charges:   -0.0000000

LOEWDIN ATOMIC CHARGES
----------------------
   0 O :   -0.262702
   1 C :    0.179596
   2 O :   -0.335377
   3 C :   -0.041068
   4 C :   -0.089699
   5 C :   -0.112214
   6 C :   -0.173231
   7 S :    1.266755
   8 O :   -0.574681
   9 O :   -0.557051
  10 N :   -0.265696
  11 C :   -0.147158
  12 C :    0.015780
  13 C :   -0.139117
  14 C :   -0.140070
  15 C :    0.068023
  16 O :   -0.158353
  17 C :    0.359797
  18 F :   -0.104989
  19 F :   -0.103933
  20 F :   -0.085156
  21 C :   -0.075400
  22 N :   -0.093689
  23 C :    0.033995
  24 N :   -0.138997
  25 C :   -0.058117
  26 C :   -0.030336
  27 C :   -0.114100
  28 C :   -0.125890
  29 C :   -0.118293
  30 C :   -0.116287
  31 C :   -0.003025
  32 C :   -0.004855
  33 C :   -0.150096
  34 C :   -0.259596
  35 C :   -0.237830
  36 C :   -0.091068
  37 C :   -0.101508
  38 H :    0.348626
  39 H :    0.158818
  40 H :    0.158836
  41 H :    0.150806
  42 H :    0.136959
  43 H :    0.139548
  44 H :    0.146671
  45 H :    0.149370
  46 H :    0.136097
  47 H :    0.136421
  48 H :    0.135389
  49 H :    0.136793
  50 H :    0.146000
  51 H :    0.137516
  52 H :    0.126587
  53 H :    0.135826
  54 H :    0.155517
  55 H :    0.134391
  56 H :    0.162469
  57 H :    0.152993

  Mayer bond orders larger than 0.100000
B(  0-O ,  1-C ) :   1.8624 B(  1-C ,  2-O ) :   1.0234 B(  1-C ,  3-C ) :   1.0091
B(  2-O , 38-H ) :   0.7428 B(  3-C ,  4-C ) :   1.4049 B(  3-C , 37-C ) :   1.3792
B(  4-C ,  5-C ) :   1.4153 B(  4-C , 39-H ) :   0.9104 B(  5-C ,  6-C ) :   1.3833
B(  5-C , 40-H ) :   0.9088 B(  6-C ,  7-S ) :   0.8101 B(  6-C , 36-C ) :   1.3993
B(  7-S ,  8-O ) :   1.5877 B(  7-S ,  9-O ) :   1.6547 B(  7-S , 10-N ) :   0.7867
B( 10-N , 11-C ) :   0.9478 B( 10-N , 23-C ) :   0.9074 B( 11-C , 12-C ) :   0.9499
B( 11-C , 41-H ) :   0.9082 B( 11-C , 42-H ) :   0.9268 B( 12-C , 13-C ) :   1.4060
B( 12-C , 22-N ) :   1.3842 B( 13-C , 14-C ) :   1.4318 B( 13-C , 43-H ) :   0.9176
B( 14-C , 15-C ) :   1.3901 B( 14-C , 44-H ) :   0.9084 B( 15-C , 16-O ) :   0.8295
B( 15-C , 21-C ) :   1.3467 B( 16-O , 17-C ) :   0.9857 B( 17-C , 18-F ) :   0.9676
B( 17-C , 19-F ) :   0.9690 B( 17-C , 20-F ) :   1.0113 B( 21-C , 22-N ) :   1.4410
B( 21-C , 45-H ) :   0.9184 B( 23-C , 24-N ) :   1.2693 B( 23-C , 32-C ) :   1.4305
B( 24-N , 25-C ) :   1.4889 B( 25-C , 26-C ) :   1.2444 B( 25-C , 32-C ) :   0.1001
B( 25-C , 46-H ) :   0.9260 B( 26-C , 27-C ) :   1.2806 B( 26-C , 31-C ) :   1.2852
B( 27-C , 28-C ) :   1.5156 B( 27-C , 30-C ) :   0.1058 B( 27-C , 47-H ) :   0.9236
B( 28-C , 29-C ) :   1.3500 B( 28-C , 48-H ) :   0.9293 B( 29-C , 30-C ) :   1.5043
B( 29-C , 49-H ) :   0.9291 B( 30-C , 31-C ) :   1.3019 B( 30-C , 50-H ) :   0.9099
B( 31-C , 32-C ) :   1.2511 B( 32-C , 33-C ) :   1.0280 B( 33-C , 34-C ) :   0.9226
B( 33-C , 35-C ) :   0.9354 B( 33-C , 51-H ) :   0.9106 B( 34-C , 35-C ) :   0.9493
B( 34-C , 52-H ) :   0.9435 B( 34-C , 53-H ) :   0.9421 B( 35-C , 54-H ) :   0.9184
B( 35-C , 55-H ) :   0.9414 B( 36-C , 37-C ) :   1.4187 B( 36-C , 56-H ) :   0.9040
B( 37-C , 57-H ) :   0.9161

FINAL SINGLE POINT ENERGY     -2239.667633367745

DIPOLE MOMENT
-------------

Method             : SCF
Type of density    : Electron Density
Multiplicity       :   1
Irrep              :   0
Energy             : -2239.6676333677451112 Eh
Relativity type    :
Basis              : AO
                                X                 Y                 Z
Electronic contribution:     35.092444338      -4.398687200      -0.087874737
Nuclear contribution   :    -36.002599688       3.017511439      -2.409108298
                        -----------------------------------------
Total Dipole Moment    :     -0.910155351      -1.381175761      -2.496983034
                        -----------------------------------------
Magnitude (a.u.)       :      2.995155008
Magnitude (Debye)      :      7.613079008

Rotational constants in cm-1:             0.003893             0.001790             0.001375
Rotational constants in MHz :           116.703943            53.649555            41.217720

                             ****ORCA TERMINATED NORMALLY****
TOTAL RUN TIME: 0 days 0 hours 8 minutes 0 seconds 401 msec
