                         Program Version 6.0.0  -   RELEASE  -
|  1> ! B3LYP 6-31G* SP
|  2>
|  3> * xyz 0 1
|  4> O -1.1610 5.5160 0.3247
|  5> C -0.7295 4.9014 -0.6887
|  6> O 0.0409 5.5866 -1.6246
|  7> C -1.0368 3.4677 -0.8831
|  8> C -1.7485 2.7470 0.0929
|  9> C -2.0220 1.3882 -0.0892
| 10> C -1.5892 0.7298 -1.2471
| 11> S -1.8923 -0.9945 -1.4497
| 12> O -1.9384 -1.3286 -2.9145
| 13> O -3.2396 -1.2996 -0.8543
| 14> N -0.6753 -1.9801 -0.6733
| 15> C 0.7334 -1.7798 -1.0490
| 16> C 1.2670 -0.4280 -0.6324
| 17> C 0.9180 0.1545 0.5983
| 18> C 1.4428 1.3940 0.9717
| 19> C 2.3418 2.0699 0.1265
| 20> O 2.8980 3.3181 0.4527
| 21> C 2.6633 4.0289 1.6663
| 22> F 3.3938 5.2024 1.6487
| 23> F 3.0685 3.2678 2.7483
| 24> F 1.3216 4.3408 1.7857
| 25> C 2.7042 1.4803 -1.0887
| 26> C 2.1828 0.2385 -1.4615
| 27> C -1.0882 -3.2824 -0.2091
| 28> N -2.0298 -3.9762 -0.9187
| 29> C -2.4774 -5.2114 -0.5498
| 30> C -1.9782 -5.8278 0.6024
| 31> Cl -2.5485 -7.4170 1.0867
| 32> C -1.0196 -5.1346 1.3373
| 33> S -0.2500 -5.6101 2.7532
| 34> C 0.6762 -4.2096 2.9079
| 35> C 0.3868 -3.3546 1.8472
| 36> C -0.5655 -3.8781 0.9580
| 37> C -0.8948 1.4465 -2.2303
| 38> C -0.6147 2.8035 -2.0476
| 39> H 0.2590 6.5680 -1.5005
| 40> H -2.0828 3.2291 1.0033
| 41> H -2.5537 0.8457 0.6826
| 42> H 1.3820 -2.5576 -0.5943
| 43> H 0.8208 -1.9055 -2.1503
| 44> H 0.2018 -0.3217 1.2525
| 45> H 1.1325 1.8191 1.9152
| 46> H 3.3984 1.9867 -1.7468
| 47> H 2.4866 -0.1979 -2.4048
| 48> H -3.2266 -5.7093 -1.1519
| 49> H 1.3801 -4.0055 3.7033
| 50> H 0.8717 -2.4004 1.7383
| 51> H -0.5477 0.9504 -3.1272
| 52> H -0.0620 3.3292 -2.8157
| 53> *
| 54>
| 55>                          ****END OF INPUT****

CARTESIAN COORDINATES (ANGSTROEM)
---------------------------------
  O     -1.161000    5.516000    0.324700
  C     -0.729500    4.901400   -0.688700
  O      0.040900    5.586600   -1.624600
  C     -1.036800    3.467700   -0.883100
  C     -1.748500    2.747000    0.092900
  C     -2.022000    1.388200   -0.089200
  C     -1.589200    0.729800   -1.247100
  S     -1.892300   -0.994500   -1.449700
  O     -1.938400   -1.328600   -2.914500
  O     -3.239600   -1.299600   -0.854300
  N     -0.675300   -1.980100   -0.673300
  C      0.733400   -1.779800   -1.049000
  C      1.267000   -0.428000   -0.632400
  C      0.918000    0.154500    0.598300
  C      1.442800    1.394000    0.971700
  C      2.341800    2.069900    0.126500
  O      2.898000    3.318100    0.452700
  C      2.663300    4.028900    1.666300
  F      3.393800    5.202400    1.648700
  F      3.068500    3.267800    2.748300
  F      1.321600    4.340800    1.785700
  C      2.704200    1.480300   -1.088700
  C      2.182800    0.238500   -1.461500
  C     -1.088200   -3.282400   -0.209100
  N     -2.029800   -3.976200   -0.918700
  C     -2.477400   -5.211400   -0.549800
  C     -1.978200   -5.827800    0.602400
  Cl    -2.548500   -7.417000    1.086700
  C     -1.019600   -5.134600    1.337300
  S     -0.250000   -5.610100    2.753200
  C      0.676200   -4.209600    2.907900
  C      0.386800   -3.354600    1.847200
  C     -0.565500   -3.878100    0.958000
  C     -0.894800    1.446500   -2.230300
  C     -0.614700    2.803500   -2.047600
  H      0.259000    6.568000   -1.500500
  H     -2.082800    3.229100    1.003300
  H     -2.553700    0.845700    0.682600
  H      1.382000   -2.557600   -0.594300
  H      0.820800   -1.905500   -2.150300
  H      0.201800   -0.321700    1.252500
  H      1.132500    1.819100    1.915200
  H      3.398400    1.986700   -1.746800
  H      2.486600   -0.197900   -2.404800
  H     -3.226600   -5.709300   -1.151900
  H      1.380100   -4.005500    3.703300
  H      0.871700   -2.400400    1.738300
  H     -0.547700    0.950400   -3.127200
  H     -0.062000    3.329200   -2.815700

 Total Charge           Charge          ....    0
 Multiplicity           Mult            ....    1
 Number of Electrons    NEL             ....  276
 Basis Dimension        Dim             ....  530

ORBITAL ENERGIES
----------------

  NO   OCC          E(Eh)            E(eV)
   0   2.0000    -101.542730     -2763.1182
   1   2.0000     -89.099855     -2424.5303
   2   2.0000     -88.908832     -2419.3323
   3   2.0000     -24.749111      -673.4576
   4   2.0000     -24.747436      -673.4120
   5   2.0000     -24.747337      -673.4093
   6   2.0000     -19.223867      -523.1080
   7   2.0000     -19.197770      -522.3979
   8   2.0000     -19.139388      -520.8092
   9   2.0000     -19.123371      -520.3734
  10   2.0000     -19.122155      -520.3403
  11   2.0000     -14.388680      -391.5359
  12   2.0000     -14.338700      -390.1759
  13   2.0000     -10.512543      -286.0608
  14   2.0000     -10.336861      -281.2803
  15   2.0000     -10.282257      -279.7944
  16   2.0000     -10.281739      -279.7803
  17   2.0000     -10.262339      -279.2524
  18   2.0000     -10.249651      -278.9072
  19   2.0000     -10.246492      -278.8212
  20   2.0000     -10.239741      -278.6375
  21   2.0000     -10.234471      -278.4941
  22   2.0000     -10.234414      -278.4926
  23   2.0000     -10.232729      -278.4467
  24   2.0000     -10.223216      -278.1878
  25   2.0000     -10.222634      -278.1720
  26   2.0000     -10.219568      -278.0886
  27   2.0000     -10.219017      -278.0736
  28   2.0000     -10.217032      -278.0196
  29   2.0000     -10.215472      -277.9771
  30   2.0000     -10.211069      -277.8573
  31   2.0000     -10.210637      -277.8456
  32   2.0000     -10.210498      -277.8418
  33   2.0000     -10.209871      -277.8247
  34   2.0000     -10.206686      -277.7380
  35   2.0000      -9.474183      -257.8056
  36   2.0000      -8.136056      -221.3933
  37   2.0000      -7.986177      -217.3149
  38   2.0000      -7.237390      -196.9394
  39   2.0000      -7.227730      -196.6765
  40   2.0000      -7.227425      -196.6682
  41   2.0000      -6.101402      -166.0276
  42   2.0000      -6.098900      -165.9595
  43   2.0000      -6.098415      -165.9463
  44   2.0000      -5.949438      -161.8924
  45   2.0000      -5.945209      -161.7774
  46   2.0000      -5.942729      -161.7099
  47   2.0000      -1.312229       -35.7076
  48   2.0000      -1.232986       -33.5512
  49   2.0000      -1.232170       -33.5290
  50   2.0000      -1.093620       -29.7589
  51   2.0000      -1.083427       -29.4815
  52   2.0000      -1.082232       -29.4490
  53   2.0000      -0.996289       -27.1104
  54   2.0000      -0.974250       -26.5107
  55   2.0000      -0.959638       -26.1131
  56   2.0000      -0.935330       -25.4516
  57   2.0000      -0.906868       -24.6771
  58   2.0000      -0.892968       -24.2989
  59   2.0000      -0.880773       -23.9670
  60   2.0000      -0.874374       -23.7929
  61   2.0000      -0.809972       -22.0404
  62   2.0000      -0.800874       -21.7929
  63   2.0000      -0.781792       -21.2737
  64   2.0000      -0.779533       -21.2122
  65   2.0000      -0.776094       -21.1186
  66   2.0000      -0.773144       -21.0383
  67   2.0000      -0.743812       -20.2402
  68   2.0000      -0.731392       -19.9022
  69   2.0000      -0.712212       -19.3803
  70   2.0000      -0.688714       -18.7409
  71   2.0000      -0.662038       -18.0150
  72   2.0000      -0.646927       -17.6038
  73   2.0000      -0.642550       -17.4847
  74   2.0000      -0.638363       -17.3707
  75   2.0000      -0.627946       -17.0873
  76   2.0000      -0.622140       -16.9293
  77   2.0000      -0.604228       -16.4419
  78   2.0000      -0.603871       -16.4322
  79   2.0000      -0.599989       -16.3265
  80   2.0000      -0.587339       -15.9823
  81   2.0000      -0.583122       -15.8676
  82   2.0000      -0.555855       -15.1256
  83   2.0000      -0.546395       -14.8682
  84   2.0000      -0.535338       -14.5673
  85   2.0000      -0.518362       -14.1053
  86   2.0000      -0.516250       -14.0479
  87   2.0000      -0.495436       -13.4815
  88   2.0000      -0.489869       -13.3300
  89   2.0000      -0.485173       -13.2022
  90   2.0000      -0.482165       -13.1204
  91   2.0000      -0.478677       -13.0255
  92   2.0000      -0.478074       -13.0091
  93   2.0000      -0.475596       -12.9416
  94   2.0000      -0.471012       -12.8169
  95   2.0000      -0.469701       -12.7812
  96   2.0000      -0.462491       -12.5850
  97   2.0000      -0.458257       -12.4698
  98   2.0000      -0.457076       -12.4377
  99   2.0000      -0.452297       -12.3076
 100   2.0000      -0.449477       -12.2309
 101   2.0000      -0.447074       -12.1655
 102   2.0000      -0.443276       -12.0622
 103   2.0000      -0.442096       -12.0300
 104   2.0000      -0.440469       -11.9858
 105   2.0000      -0.434787       -11.8312
 106   2.0000      -0.425990       -11.5918
 107   2.0000      -0.424248       -11.5444
 108   2.0000      -0.421076       -11.4581
 109   2.0000      -0.418792       -11.3959
 110   2.0000      -0.415442       -11.3047
 111   2.0000      -0.409232       -11.1358
 112   2.0000      -0.398054       -10.8316
 113   2.0000      -0.394869       -10.7449
 114   2.0000      -0.391439       -10.6516
 115   2.0000      -0.386758       -10.5242
 116   2.0000      -0.376475       -10.2444
 117   2.0000      -0.370490       -10.0815
 118   2.0000      -0.363584        -9.8936
 119   2.0000      -0.361676        -9.8417
 120   2.0000      -0.359745        -9.7892
 121   2.0000      -0.353775        -9.6267
 122   2.0000      -0.329449        -8.9648
 123   2.0000      -0.326645        -8.8885
 124   2.0000      -0.321614        -8.7516
 125   2.0000      -0.311468        -8.4755
 126   2.0000      -0.306293        -8.3347
 127   2.0000      -0.292665        -7.9638
 128   2.0000      -0.288227        -7.8430
 129   2.0000      -0.286321        -7.7912
 130   2.0000      -0.276944        -7.5360
 131   2.0000      -0.274128        -7.4594
 132   2.0000      -0.271771        -7.3953
 133   2.0000      -0.267073        -7.2674
 134   2.0000      -0.261776        -7.1233
 135   2.0000      -0.253809        -6.9065
 136   2.0000      -0.248439        -6.7604
 137   2.0000      -0.225965        -6.1488
 138   0.0000      -0.089807        -2.4438
 139   0.0000      -0.054312        -1.4779
 140   0.0000      -0.044350        -1.2068
 141   0.0000      -0.032176        -0.8756
 142   0.0000      -0.024757        -0.6737

MULLIKEN ATOMIC CHARGES
-----------------------
   0 O :   -0.444743
   1 C :    0.528855
   2 O :   -0.624057
   3 C :    0.086237
   4 C :   -0.140484
   5 C :   -0.140240
   6 C :   -0.130642
   7 S :    1.212384
   8 O :   -0.533776
   9 O :   -0.537044
  10 N :   -0.619255
  11 C :   -0.235066
  12 C :    0.117673
  13 C :   -0.166051
  14 C :   -0.185764
  15 C :    0.356139
  16 O :   -0.546323
  17 C :    1.087607
  18 F :   -0.278559
  19 F :   -0.291278
  20 F :   -0.282932
  21 C :   -0.168441
  22 C :   -0.174780
  23 C :    0.354176
  24 N :   -0.373272
  25 C :    0.026879
  26 C :   -0.117835
  27 Cl:    0.012061
  28 C :   -0.131428
  29 S :    0.292660
  30 C :   -0.343319
  31 C :   -0.162962
  32 C :    0.162797
  33 C :   -0.126745
  34 C :   -0.143172
  35 H :    0.435076
  36 H :    0.180149
  37 H :    0.183931
  38 H :    0.193532
  39 H :    0.184739
  40 H :    0.153030
  41 H :    0.158883
  42 H :    0.153426
  43 H :    0.143565
  44 H :    0.176823
  45 H :    0.191678
  46 H :    0.152229
  47 H :    0.180964
  48 H :    0.172676
Sum of atomic charges:    0.0000000

LOEWDIN ATOMIC CHARGES
----------------------
   0 O :   -0.259056
   1 C :    0.178411
   2 O :   -0.334097
   3 C :   -0.035199
   4 C :   -0.087957
   5 C :   -0.097723
   6 C :   -0.168421
   7 S :    1.264094
   8 O :   -0.568272
   9 O :   -0.562105
  10 N :   -0.283824
  11 C :   -0.152293
  12 C :   -0.047918
  13 C :   -0.124704
  14 C :   -0.152690
  15 C :    0.088238
  16 O :   -0.159285
  17 C :    0.359722
  18 F :   -0.087183
  19 F :   -0.104517
  20 F :   -0.098098
  21 C :   -0.138093
  22 C :   -0.124000
  23 C :    0.074414
  24 N :   -0.112995
  25 C :   -0.070152
  26 C :   -0.112936
  27 Cl:    0.059413
  28 C :   -0.168175
  29 S :    0.417767
  30 C :   -0.287907
  31 C :   -0.170367
  32 C :   -0.054377
  33 C :   -0.092801
  34 C :   -0.097105
  35 H :    0.350423
  36 H :    0.160075
  37 H :    0.159665
  38 H :    0.154485
  39 H :    0.139034
  40 H :    0.141140
  41 H :    0.144734
  42 H :    0.147332
  43 H :    0.139792
  44 H :    0.151776
  45 H :    0.164936
  46 H :    0.143654
  47 H :    0.158283
  48 H :    0.154862

  Mayer bond orders larger than 0.100000
B(  0-O ,  1-C ) :   1.8575 B(  1-C ,  2-O ) :   1.0252 B(  1-C ,  3-C ) :   1.0070
B(  2-O , 35-H ) :   0.7413 B(  3-C ,  4-C ) :   1.3984 B(  3-C , 34-C ) :   1.3846
B(  4-C ,  5-C ) :   1.4231 B(  4-C , 36-H ) :   0.9094 B(  5-C ,  6-C ) :   1.3808
B(  5-C , 37-H ) :   0.9104 B(  6-C ,  7-S ) :   0.8116 B(  6-C , 33-C ) :   1.3927
B(  7-S ,  8-O ) :   1.6598 B(  7-S ,  9-O ) :   1.6314 B(  7-S , 10-N ) :   0.7714
B( 10-N , 11-C ) :   0.9049 B( 10-N , 23-C ) :   0.9253 B( 11-C , 12-C ) :   0.9627
B( 11-C , 38-H ) :   0.9069 B( 11-C , 39-H ) :   0.9133 B( 12-C , 13-C ) :   1.4170
B( 12-C , 22-C ) :   1.4253 B( 13-C , 14-C ) :   1.4311 B( 13-C , 40-H ) :   0.9091
B( 14-C , 15-C ) :   1.3877 B( 14-C , 41-H ) :   0.9077 B( 15-C , 16-O ) :   0.8280
B( 15-C , 21-C ) :   1.4181 B( 16-O , 17-C ) :   0.9846 B( 17-C , 18-F ) :   1.0082
B( 17-C , 19-F ) :   0.9680 B( 17-C , 20-F ) :   0.9691 B( 21-C , 22-C ) :   1.4362
B( 21-C , 42-H ) :   0.9173 B( 22-C , 43-H ) :   0.9209 B( 23-C , 24-N ) :   1.4057
B( 23-C , 32-C ) :   1.2675 B( 24-N , 25-C ) :   1.3747 B( 25-C , 26-C ) :   1.4069
B( 25-C , 44-H ) :   0.9221 B( 26-C , 27-Cl) :   1.0358 B( 26-C , 28-C ) :   1.2892
B( 28-C , 29-S ) :   1.0895 B( 28-C , 32-C ) :   1.3265 B( 29-S , 30-C ) :   1.1212
B( 30-C , 31-C ) :   1.6079 B( 30-C , 45-H ) :   0.9135 B( 31-C , 32-C ) :   1.2515
B( 31-C , 46-H ) :   0.9056 B( 33-C , 34-C ) :   1.4131 B( 33-C , 47-H ) :   0.9094
B( 34-C , 48-H ) :   0.9145

FINAL SINGLE POINT ENERGY     -2887.287654493350

DIPOLE MOMENT
-------------

Method             : SCF
Type of density    : Electron Density
Multiplicity       :   1
Irrep              :   0
Energy             : -2887.2876544933501464 Eh
Relativity type    :
Basis              : AO
                                X                 Y                 Z
Electronic contribution:      1.242198632      -2.635424353      14.121951785
Nuclear contribution   :      1.205463792       3.270546137     -13.568133344
                        -----------------------------------------
Total Dipole Moment    :      2.447662423       0.635121784       0.553818442
                        -----------------------------------------
Magnitude (a.u.)       :      2.588657159
Magnitude (Debye)      :      6.579843589

Rotational constants in cm-1:             0.006520             0.001763             0.001535
Rotational constants in MHz :           195.474860            52.849915            46.029725

                             ****ORCA TERMINATED NORMALLY****
TOTAL RUN TIME: 0 days 0 hours 7 minutes 13 seconds 382 msec
