                         Program Version 6.0.0  -   RELEASE  -
|  1> ! B3LYP 6-31G* SP
|  2>
|  3> * xyz 0 1
|  4> O 6.3359 1.6174 -2.5048
|  5> C 5.9403 1.3959 -1.3284
|  6> O 6.6953 1.8650 -0.2566
|  7> C 4.6865 0.6488 -1.0869
|  8> C 4.2533 0.3943 0.2262
|  9> C 3.0637 -0.3020 0.4568
| 10> C 2.2885 -0.7521 -0.6185
| 11> S 0.7518 -1.5593 -0.3064
| 12> O 0.1803 -2.1024 -1.5863
| 13> O 1.0026 -2.7021 0.6377
| 14> N -0.3780 -0.4378 0.4034
| 15> C -1.3671 -0.9278 1.3712
| 16> C -2.3602 -1.9162 0.7267
| 17> C -3.1659 -1.2398 -0.4030
| 18> C -4.1853 -2.2097 -1.0136
| 19> C -5.1253 -2.7693 0.0599
| 20> C -4.3322 -3.4475 1.1824
| 21> C -3.3153 -2.4787 1.7990
| 22> C -0.0590 0.9615 0.3835
| 23> N 0.2565 1.5879 1.5498
| 24> C 0.6205 2.8959 1.5946
| 25> C 0.7026 3.6483 0.4134
| 26> C 1.0659 5.1107 0.4520
| 27> F 1.7200 5.4791 -0.7109
| 28> F -0.0866 5.8633 0.5784
| 29> F 1.9007 5.3801 1.5225
| 30> C 0.3410 3.0341 -0.7947
| 31> C -0.0361 1.6890 -0.8195
| 32> Cl -0.5192 0.9706 -2.3492
| 33> C 2.7168 -0.5069 -1.9296
| 34> C 3.9072 0.1878 -2.1631
| 35> H 7.5545 2.3788 -0.4111
| 36> H 4.8292 0.7379 1.0762
| 37> H 2.7374 -0.4765 1.4744
| 38> H -0.8326 -1.4204 2.2122
| 39> H -1.9401 -0.0746 1.7998
| 40> H -1.7895 -2.7693 0.2979
| 41> H -2.4783 -0.9049 -1.2075
| 42> H -3.6969 -0.3443 -0.0102
| 43> H -3.6507 -3.0465 -1.5151
| 44> H -4.7836 -1.6764 -1.7831
| 45> H -5.8120 -3.5101 -0.4035
| 46> H -5.7429 -1.9463 0.4826
| 47> H -5.0351 -3.7922 1.9708
| 48> H -3.8032 -4.3398 0.7806
| 49> H -2.7303 -3.0212 2.5735
| 50> H -3.8590 -1.6469 2.3004
| 51> H 0.8494 3.3438 2.5525
| 52> H 0.3458 3.6006 -1.7176
| 53> H 2.1260 -0.8396 -2.7731
| 54> H 4.2130 0.3700 -3.1858
| 55> *
| 56>
| 57>                          ****END OF INPUT****

CARTESIAN COORDINATES (ANGSTROEM)
---------------------------------
  O      6.335900    1.617400   -2.504800
  C      5.940300    1.395900   -1.328400
  O      6.695300    1.865000   -0.256600
  C      4.686500    0.648800   -1.086900
  C      4.253300    0.394300    0.226200
  C      3.063700   -0.302000    0.456800
  C      2.288500   -0.752100   -0.618500
  S      0.751800   -1.559300   -0.306400
  O      0.180300   -2.102400   -1.586300
  O      1.002600   -2.702100    0.637700
  N     -0.378000   -0.437800    0.403400
  C     -1.367100   -0.927800    1.371200
  C     -2.360200   -1.916200    0.726700
  C     -3.165900   -1.239800   -0.403000
  C     -4.185300   -2.209700   -1.013600
  C     -5.125300   -2.769300    0.059900
  C     -4.332200   -3.447500    1.182400
  C     -3.315300   -2.478700    1.799000
  C     -0.059000    0.961500    0.383500
  N      0.256500    1.587900    1.549800
  C      0.620500    2.895900    1.594600
  C      0.702600    3.648300    0.413400
  C      1.065900    5.110700    0.452000
  F      1.720000    5.479100   -0.710900
  F     -0.086600    5.863300    0.578400
  F      1.900700    5.380100    1.522500
  C      0.341000    3.034100   -0.794700
  C     -0.036100    1.689000   -0.819500
  Cl    -0.519200    0.970600   -2.349200
  C      2.716800   -0.506900   -1.929600
  C      3.907200    0.187800   -2.163100
  H      7.554500    2.378800   -0.411100
  H      4.829200    0.737900    1.076200
  H      2.737400   -0.476500    1.474400
  H     -0.832600   -1.420400    2.212200
  H     -1.940100   -0.074600    1.799800
  H     -1.789500   -2.769300    0.297900
  H     -2.478300   -0.904900   -1.207500
  H     -3.696900   -0.344300   -0.010200
  H     -3.650700   -3.046500   -1.515100
  H     -4.783600   -1.676400   -1.783100
  H     -5.812000   -3.510100   -0.403500
  H     -5.742900   -1.946300    0.482600
  H     -5.035100   -3.792200    1.970800
  H     -3.803200   -4.339800    0.780600
  H     -2.730300   -3.021200    2.573500
  H     -3.859000   -1.646900    2.300400
  H      0.849400    3.343800    2.552500
  H      0.345800    3.600600   -1.717600
  H      2.126000   -0.839600   -2.773100
  H      4.213000    0.370000   -3.185800

 Total Charge           Charge          ....    0
 Multiplicity           Mult            ....    1
 Number of Electrons    NEL             ....  246
 Basis Dimension        Dim             ....  482

ORBITAL ENERGIES
----------------

  NO   OCC          E(Eh)            E(eV)
   0   2.0000    -101.550936     -2763.3414
   1   2.0000     -89.106836     -2424.7203
   2   2.0000     -24.740115      -673.2128
   3   2.0000     -24.738581      -673.1710
   4   2.0000     -24.735123      -673.0769
   5   2.0000     -19.201652      -522.5035
   6   2.0000     -19.143823      -520.9299
   7   2.0000     -19.132955      -520.6342
   8   2.0000     -19.129595      -520.5428
   9   2.0000     -14.384699      -391.4275
  10   2.0000     -14.368515      -390.9872
  11   2.0000     -10.457367      -284.5594
  12   2.0000     -10.341295      -281.4009
  13   2.0000     -10.302590      -280.3477
  14   2.0000     -10.283408      -279.8258
  15   2.0000     -10.261989      -279.2429
  16   2.0000     -10.251394      -278.9546
  17   2.0000     -10.245127      -278.7841
  18   2.0000     -10.244460      -278.7659
  19   2.0000     -10.239663      -278.6354
  20   2.0000     -10.228680      -278.3365
  21   2.0000     -10.227004      -278.2909
  22   2.0000     -10.224308      -278.2176
  23   2.0000     -10.224302      -278.2174
  24   2.0000     -10.223701      -278.2010
  25   2.0000     -10.177086      -276.9326
  26   2.0000     -10.170241      -276.7463
  27   2.0000     -10.166562      -276.6462
  28   2.0000     -10.163847      -276.5723
  29   2.0000     -10.162519      -276.5362
  30   2.0000     -10.162076      -276.5241
  31   2.0000      -9.481876      -258.0150
  32   2.0000      -8.142994      -221.5821
  33   2.0000      -7.245325      -197.1553
  34   2.0000      -7.235527      -196.8887
  35   2.0000      -7.234818      -196.8694
  36   2.0000      -6.108264      -166.2143
  37   2.0000      -6.105879      -166.1494
  38   2.0000      -6.105398      -166.1363
  39   2.0000      -1.298978       -35.3470
  40   2.0000      -1.224603       -33.3231
  41   2.0000      -1.222641       -33.2698
  42   2.0000      -1.091256       -29.6946
  43   2.0000      -1.086452       -29.5639
  44   2.0000      -1.000705       -27.2306
  45   2.0000      -0.992260       -27.0008
  46   2.0000      -0.968651       -26.3583
  47   2.0000      -0.931955       -25.3598
  48   2.0000      -0.898046       -24.4371
  49   2.0000      -0.894575       -24.3426
  50   2.0000      -0.842742       -22.9322
  51   2.0000      -0.825041       -22.4505
  52   2.0000      -0.813783       -22.1442
  53   2.0000      -0.784671       -21.3520
  54   2.0000      -0.783582       -21.3223
  55   2.0000      -0.757935       -20.6245
  56   2.0000      -0.730105       -19.8672
  57   2.0000      -0.728255       -19.8168
  58   2.0000      -0.714298       -19.4370
  59   2.0000      -0.683566       -18.6008
  60   2.0000      -0.670090       -18.2341
  61   2.0000      -0.655920       -17.8485
  62   2.0000      -0.645489       -17.5647
  63   2.0000      -0.629964       -17.1422
  64   2.0000      -0.609537       -16.5863
  65   2.0000      -0.595214       -16.1966
  66   2.0000      -0.591150       -16.0860
  67   2.0000      -0.589548       -16.0424
  68   2.0000      -0.580346       -15.7920
  69   2.0000      -0.577810       -15.7230
  70   2.0000      -0.572458       -15.5774
  71   2.0000      -0.551253       -15.0004
  72   2.0000      -0.538335       -14.6488
  73   2.0000      -0.533592       -14.5198
  74   2.0000      -0.505265       -13.7490
  75   2.0000      -0.501134       -13.6366
  76   2.0000      -0.487057       -13.2535
  77   2.0000      -0.481441       -13.1007
  78   2.0000      -0.476486       -12.9658
  79   2.0000      -0.468752       -12.7554
  80   2.0000      -0.467415       -12.7190
  81   2.0000      -0.466121       -12.6838
  82   2.0000      -0.465179       -12.6582
  83   2.0000      -0.460352       -12.5268
  84   2.0000      -0.455234       -12.3875
  85   2.0000      -0.452268       -12.3068
  86   2.0000      -0.448408       -12.2018
  87   2.0000      -0.444805       -12.1038
  88   2.0000      -0.438552       -11.9336
  89   2.0000      -0.435086       -11.8393
  90   2.0000      -0.432895       -11.7797
  91   2.0000      -0.431563       -11.7434
  92   2.0000      -0.426430       -11.6037
  93   2.0000      -0.422906       -11.5079
  94   2.0000      -0.419860       -11.4250
  95   2.0000      -0.416440       -11.3319
  96   2.0000      -0.403048       -10.9675
  97   2.0000      -0.400810       -10.9066
  98   2.0000      -0.393768       -10.7150
  99   2.0000      -0.390748       -10.6328
 100   2.0000      -0.375444       -10.2163
 101   2.0000      -0.373077       -10.1519
 102   2.0000      -0.369176       -10.0458
 103   2.0000      -0.364212        -9.9107
 104   2.0000      -0.353165        -9.6101
 105   2.0000      -0.343485        -9.3467
 106   2.0000      -0.336177        -9.1478
 107   2.0000      -0.334084        -9.0909
 108   2.0000      -0.328696        -8.9443
 109   2.0000      -0.327087        -8.9005
 110   2.0000      -0.318702        -8.6723
 111   2.0000      -0.315362        -8.5814
 112   2.0000      -0.307423        -8.3654
 113   2.0000      -0.304208        -8.2779
 114   2.0000      -0.294956        -8.0262
 115   2.0000      -0.291845        -7.9415
 116   2.0000      -0.288348        -7.8463
 117   2.0000      -0.287075        -7.8117
 118   2.0000      -0.284551        -7.7430
 119   2.0000      -0.282706        -7.6928
 120   2.0000      -0.280332        -7.6282
 121   2.0000      -0.272153        -7.4057
 122   2.0000      -0.249642        -6.7931
 123   0.0000      -0.092498        -2.5170
 124   0.0000      -0.072366        -1.9692
 125   0.0000      -0.058468        -1.5910
 126   0.0000      -0.036279        -0.9872
 127   0.0000      -0.003032        -0.0825

MULLIKEN ATOMIC CHARGES
-----------------------
   0 O :   -0.440774
   1 C :    0.529952
   2 O :   -0.622975
   3 C :    0.084639
   4 C :   -0.149695
   5 C :   -0.136439
   6 C :   -0.155794
   7 S :    1.239669
   8 O :   -0.543456
   9 O :   -0.539639
  10 N :   -0.604962
  11 C :   -0.133595
  12 C :   -0.101868
  13 C :   -0.264040
  14 C :   -0.254995
  15 C :   -0.247585
  16 C :   -0.253006
  17 C :   -0.261749
  18 C :    0.374527
  19 N :   -0.379979
  20 C :   -0.009467
  21 C :   -0.028811
  22 C :    0.904018
  23 F :   -0.300410
  24 F :   -0.290453
  25 F :   -0.301383
  26 C :   -0.128626
  27 C :   -0.106875
  28 Cl:    0.049051
  29 C :   -0.134278
  30 C :   -0.141142
  31 H :    0.436164
  32 H :    0.175986
  33 H :    0.187042
  34 H :    0.169281
  35 H :    0.164297
  36 H :    0.170447
  37 H :    0.167218
  38 H :    0.107950
  39 H :    0.137001
  40 H :    0.124050
  41 H :    0.125537
  42 H :    0.119953
  43 H :    0.125784
  44 H :    0.132905
  45 H :    0.132450
  46 H :    0.117648
  47 H :    0.182389
  48 H :    0.190643
  49 H :    0.198799
  50 H :    0.184595
Sum of atomic charges:    0.0000000

LOEWDIN ATOMIC CHARGES
----------------------
   0 O :   -0.256839
   1 C :    0.180069
   2 O :   -0.333542
   3 C :   -0.034819
   4 C :   -0.100019
   5 C :   -0.098069
   6 C :   -0.177203
   7 S :    1.266461
   8 O :   -0.568160
   9 O :   -0.568629
  10 N :   -0.272664
  11 C :   -0.143711
  12 C :   -0.135730
  13 C :   -0.231599
  14 C :   -0.228372
  15 C :   -0.230391
  16 C :   -0.227803
  17 C :   -0.224489
  18 C :    0.051180
  19 N :   -0.123766
  20 C :   -0.050090
  21 C :   -0.081787
  22 C :    0.312269
  23 F :   -0.109454
  24 F :   -0.108282
  25 F :   -0.108668
  26 C :   -0.087800
  27 C :   -0.103880
  28 Cl:    0.077924
  29 C :   -0.095078
  30 C :   -0.086122
  31 H :    0.351191
  32 H :    0.156254
  33 H :    0.159816
  34 H :    0.133020
  35 H :    0.141120
  36 H :    0.137459
  37 H :    0.133601
  38 H :    0.107215
  39 H :    0.120681
  40 H :    0.116951
  41 H :    0.117083
  42 H :    0.111896
  43 H :    0.117605
  44 H :    0.118601
  45 H :    0.120165
  46 H :    0.111161
  47 H :    0.151703
  48 H :    0.163688
  49 H :    0.167388
  50 H :    0.162464

  Mayer bond orders larger than 0.100000
B(  0-O ,  1-C ) :   1.8650 B(  1-C ,  2-O ) :   1.0273 B(  1-C ,  3-C ) :   1.0058
B(  2-O , 31-H ) :   0.7405 B(  3-C ,  4-C ) :   1.3819 B(  3-C , 30-C ) :   1.4038
B(  4-C ,  5-C ) :   1.4258 B(  4-C , 32-H ) :   0.9140 B(  5-C ,  6-C ) :   1.3830
B(  5-C , 33-H ) :   0.9093 B(  6-C ,  7-S ) :   0.8123 B(  6-C , 29-C ) :   1.3932
B(  7-S ,  8-O ) :   1.6167 B(  7-S ,  9-O ) :   1.6303 B(  7-S , 10-N ) :   0.7766
B( 10-N , 11-C ) :   0.8842 B( 10-N , 18-C ) :   0.9895 B( 11-C , 12-C ) :   0.9774
B( 11-C , 34-H ) :   0.9213 B( 11-C , 35-H ) :   0.9194 B( 12-C , 13-C ) :   0.9951
B( 12-C , 17-C ) :   0.9933 B( 12-C , 36-H ) :   0.9049 B( 13-C , 14-C ) :   1.0126
B( 13-C , 37-H ) :   0.9218 B( 13-C , 38-H ) :   0.9360 B( 14-C , 15-C ) :   1.0131
B( 14-C , 39-H ) :   0.9373 B( 14-C , 40-H ) :   0.9421 B( 15-C , 16-C ) :   1.0139
B( 15-C , 41-H ) :   0.9423 B( 15-C , 42-H ) :   0.9396 B( 16-C , 17-C ) :   1.0097
B( 16-C , 43-H ) :   0.9415 B( 16-C , 44-H ) :   0.9376 B( 17-C , 45-H ) :   0.9364
B( 17-C , 46-H ) :   0.9345 B( 18-C , 19-N ) :   1.3741 B( 18-C , 27-C ) :   1.3240
B( 19-N , 20-C ) :   1.4115 B( 20-C , 21-C ) :   1.3614 B( 20-C , 47-H ) :   0.9178
B( 21-C , 22-C ) :   0.9736 B( 21-C , 26-C ) :   1.4048 B( 22-C , 23-F ) :   0.9523
B( 22-C , 24-F ) :   0.9912 B( 22-C , 25-F ) :   0.9489 B( 26-C , 27-C ) :   1.3927
B( 26-C , 48-H ) :   0.9080 B( 27-C , 28-Cl) :   1.0717 B( 29-C , 30-C ) :   1.4146
B( 29-C , 49-H ) :   0.9039 B( 30-C , 50-H ) :   0.9086

FINAL SINGLE POINT ENERGY     -2341.440995283817

DIPOLE MOMENT
-------------

Method             : SCF
Type of density    : Electron Density
Multiplicity       :   1
Irrep              :   0
Energy             : -2341.4409952838173012 Eh
Relativity type    :
Basis              : AO
                                X                 Y                 Z
Electronic contribution:     35.426786576      46.250644421      -8.711664285
Nuclear contribution   :    -34.984052186     -44.752997362       9.515153743
                        -----------------------------------------
Total Dipole Moment    :      0.442734390       1.497647060       0.803489458
                        -----------------------------------------
Magnitude (a.u.)       :      1.756290342
Magnitude (Debye)      :      4.464135278

Rotational constants in cm-1:             0.005762             0.002869             0.002241
Rotational constants in MHz :           172.730094            86.024968            67.186780

                             ****ORCA TERMINATED NORMALLY****
TOTAL RUN TIME: 0 days 0 hours 10 minutes 47 seconds 551 msec
