                         Program Version 6.0.0  -   RELEASE  -
|  1> ! B3LYP 6-31G* SP
|  2>
|  3> * xyz 0 1
|  4> N 1.2202 -2.7810 0.4111
|  5> C 0.4096 -1.9247 -0.4003
|  6> O 0.7828 -1.6566 -1.5738
|  7> C -0.8596 -1.2944 0.1331
|  8> C -1.5975 -2.2176 1.0941
|  9> C -1.8465 -1.8800 2.4421
| 10> C -2.5332 -2.7655 3.2790
| 11> C -2.9767 -3.9947 2.7894
| 12> C -2.7414 -4.3404 1.4578
| 13> C -2.0629 -3.4576 0.6137
| 14> N -0.6004 0.0471 0.6997
| 15> C 0.5359 0.3288 1.5929
| 16> C 1.5294 1.2219 0.8982
| 17> C 1.3327 2.6113 0.8799
| 18> C 2.2155 3.4383 0.1834
| 19> C 3.2962 2.8860 -0.5057
| 20> C 3.5092 1.5027 -0.5031
| 21> O 4.6110 1.0014 -1.2158
| 22> C 4.9710 -0.3751 -1.3181
| 23> F 3.9509 -1.0914 -1.9190
| 24> F 6.1074 -0.4842 -2.0957
| 25> F 5.2378 -0.8931 -0.0637
| 26> C 2.6191 0.6715 0.2058
| 27> C -1.5890 1.0752 0.5180
| 28> O -2.2527 1.4702 1.5146
| 29> C -1.8126 1.6943 -0.8097
| 30> C -0.8842 1.5148 -1.8526
| 31> C -1.0907 2.1178 -3.0964
| 32> C -2.2210 2.9090 -3.3123
| 33> C -3.1455 3.1011 -2.2833
| 34> C -2.9442 2.4997 -1.0377
| 35> H 2.1093 -3.1761 0.0292
| 36> H 0.9480 -3.0101 1.3915
| 37> H -1.5363 -1.1720 -0.7438
| 38> H -1.5278 -0.9368 2.8566
| 39> H -2.7243 -2.4963 4.3098
| 40> H -3.5066 -4.6783 3.4406
| 41> H -3.0928 -5.2893 1.0764
| 42> H -1.8949 -3.7414 -0.4179
| 43> H 1.0279 -0.6098 1.9221
| 44> H 0.1749 0.8212 2.5223
| 45> H 0.4910 3.0530 1.3972
| 46> H 2.0581 4.5088 0.1727
| 47> H 3.9733 3.5358 -1.0451
| 48> H 2.7647 -0.3984 0.2217
| 49> H 0.0096 0.9248 -1.7048
| 50> H -0.3706 1.9756 -3.8919
| 51> H -2.3789 3.3768 -4.2756
| 52> H -4.0193 3.7167 -2.4512
| 53> H -3.6758 2.6614 -0.2560
| 54> *
| 55>
| 56>                          ****END OF INPUT****

CARTESIAN COORDINATES (ANGSTROEM)
---------------------------------
  N      1.220200   -2.781000    0.411100
  C      0.409600   -1.924700   -0.400300
  O      0.782800   -1.656600   -1.573800
  C     -0.859600   -1.294400    0.133100
  C     -1.597500   -2.217600    1.094100
  C     -1.846500   -1.880000    2.442100
  C     -2.533200   -2.765500    3.279000
  C     -2.976700   -3.994700    2.789400
  C     -2.741400   -4.340400    1.457800
  C     -2.062900   -3.457600    0.613700
  N     -0.600400    0.047100    0.699700
  C      0.535900    0.328800    1.592900
  C      1.529400    1.221900    0.898200
  C      1.332700    2.611300    0.879900
  C      2.215500    3.438300    0.183400
  C      3.296200    2.886000   -0.505700
  C      3.509200    1.502700   -0.503100
  O      4.611000    1.001400   -1.215800
  C      4.971000   -0.375100   -1.318100
  F      3.950900   -1.091400   -1.919000
  F      6.107400   -0.484200   -2.095700
  F      5.237800   -0.893100   -0.063700
  C      2.619100    0.671500    0.205800
  C     -1.589000    1.075200    0.518000
  O     -2.252700    1.470200    1.514600
  C     -1.812600    1.694300   -0.809700
  C     -0.884200    1.514800   -1.852600
  C     -1.090700    2.117800   -3.096400
  C     -2.221000    2.909000   -3.312300
  C     -3.145500    3.101100   -2.283300
  C     -2.944200    2.499700   -1.037700
  H      2.109300   -3.176100    0.029200
  H      0.948000   -3.010100    1.391500
  H     -1.536300   -1.172000   -0.743800
  H     -1.527800   -0.936800    2.856600
  H     -2.724300   -2.496300    4.309800
  H     -3.506600   -4.678300    3.440600
  H     -3.092800   -5.289300    1.076400
  H     -1.894900   -3.741400   -0.417900
  H      1.027900   -0.609800    1.922100
  H      0.174900    0.821200    2.522300
  H      0.491000    3.053000    1.397200
  H      2.058100    4.508800    0.172700
  H      3.973300    3.535800   -1.045100
  H      2.764700   -0.398400    0.221700
  H      0.009600    0.924800   -1.704800
  H     -0.370600    1.975600   -3.891900
  H     -2.378900    3.376800   -4.275600
  H     -4.019300    3.716700   -2.451200
  H     -3.675800    2.661400   -0.256000

 Total Charge           Charge          ....    0
 Multiplicity           Mult            ....    1
 Number of Electrons    NEL             ....  222
 Basis Dimension        Dim             ....  472

ORBITAL ENERGIES
----------------

  NO   OCC          E(Eh)            E(eV)
   0   2.0000     -24.736923      -673.1259
   1   2.0000     -24.736444      -673.1129
   2   2.0000     -24.731670      -672.9829
   3   2.0000     -19.207097      -522.6517
   4   2.0000     -19.126353      -520.4545
   5   2.0000     -19.117785      -520.2214
   6   2.0000     -14.364091      -390.8668
   7   2.0000     -14.342260      -390.2727
   8   2.0000     -10.498706      -285.6843
   9   2.0000     -10.299819      -280.2723
  10   2.0000     -10.293372      -280.0969
  11   2.0000     -10.262567      -279.2586
  12   2.0000     -10.243704      -278.7453
  13   2.0000     -10.224302      -278.2174
  14   2.0000     -10.196349      -277.4568
  15   2.0000     -10.195642      -277.4375
  16   2.0000     -10.194779      -277.4141
  17   2.0000     -10.190068      -277.2859
  18   2.0000     -10.189566      -277.2722
  19   2.0000     -10.189444      -277.2689
  20   2.0000     -10.188202      -277.2351
  21   2.0000     -10.187731      -277.2223
  22   2.0000     -10.187096      -277.2050
  23   2.0000     -10.185987      -277.1748
  24   2.0000     -10.185055      -277.1494
  25   2.0000     -10.184882      -277.1447
  26   2.0000     -10.184453      -277.1331
  27   2.0000     -10.183941      -277.1191
  28   2.0000     -10.183756      -277.1141
  29   2.0000     -10.183020      -277.0941
  30   2.0000     -10.181686      -277.0577
  31   2.0000      -1.299421       -35.3590
  32   2.0000      -1.221459       -33.2376
  33   2.0000      -1.218106       -33.1464
  34   2.0000      -1.076702       -29.2985
  35   2.0000      -1.022066       -27.8118
  36   2.0000      -1.015700       -27.6386
  37   2.0000      -0.923644       -25.1336
  38   2.0000      -0.886215       -24.1151
  39   2.0000      -0.859800       -23.3964
  40   2.0000      -0.854062       -23.2402
  41   2.0000      -0.850848       -23.1528
  42   2.0000      -0.789375       -21.4800
  43   2.0000      -0.768833       -20.9210
  44   2.0000      -0.759387       -20.6640
  45   2.0000      -0.752752       -20.4834
  46   2.0000      -0.744807       -20.2672
  47   2.0000      -0.743785       -20.2394
  48   2.0000      -0.713299       -19.4098
  49   2.0000      -0.698432       -19.0053
  50   2.0000      -0.685313       -18.6483
  51   2.0000      -0.633870       -17.2485
  52   2.0000      -0.628918       -17.1137
  53   2.0000      -0.608079       -16.5467
  54   2.0000      -0.606893       -16.5144
  55   2.0000      -0.601332       -16.3631
  56   2.0000      -0.600410       -16.3380
  57   2.0000      -0.590940       -16.0803
  58   2.0000      -0.582906       -15.8617
  59   2.0000      -0.579268       -15.7627
  60   2.0000      -0.565555       -15.3895
  61   2.0000      -0.548396       -14.9226
  62   2.0000      -0.532936       -14.5019
  63   2.0000      -0.526927       -14.3384
  64   2.0000      -0.516292       -14.0490
  65   2.0000      -0.504842       -13.7375
  66   2.0000      -0.495396       -13.4804
  67   2.0000      -0.482718       -13.1354
  68   2.0000      -0.475361       -12.9352
  69   2.0000      -0.469487       -12.7754
  70   2.0000      -0.465192       -12.6585
  71   2.0000      -0.464079       -12.6282
  72   2.0000      -0.455684       -12.3998
  73   2.0000      -0.450935       -12.2706
  74   2.0000      -0.447660       -12.1815
  75   2.0000      -0.444956       -12.1079
  76   2.0000      -0.441732       -12.0201
  77   2.0000      -0.439834       -11.9685
  78   2.0000      -0.433166       -11.7871
  79   2.0000      -0.430180       -11.7058
  80   2.0000      -0.424070       -11.5395
  81   2.0000      -0.420062       -11.4305
  82   2.0000      -0.419918       -11.4265
  83   2.0000      -0.414594       -11.2817
  84   2.0000      -0.411404       -11.1949
  85   2.0000      -0.410474       -11.1696
  86   2.0000      -0.400069       -10.8864
  87   2.0000      -0.399739       -10.8774
  88   2.0000      -0.397482       -10.8160
  89   2.0000      -0.385279       -10.4840
  90   2.0000      -0.381548       -10.3825
  91   2.0000      -0.375700       -10.2233
  92   2.0000      -0.361226        -9.8295
  93   2.0000      -0.358198        -9.7471
  94   2.0000      -0.355415        -9.6713
  95   2.0000      -0.350465        -9.5366
  96   2.0000      -0.347353        -9.4520
  97   2.0000      -0.346032        -9.4160
  98   2.0000      -0.341465        -9.2917
  99   2.0000      -0.339531        -9.2391
 100   2.0000      -0.337546        -9.1851
 101   2.0000      -0.269958        -7.3459
 102   2.0000      -0.264417        -7.1952
 103   2.0000      -0.262077        -7.1315
 104   2.0000      -0.253864        -6.9080
 105   2.0000      -0.252877        -6.8811
 106   2.0000      -0.250795        -6.8245
 107   2.0000      -0.248638        -6.7658
 108   2.0000      -0.240658        -6.5486
 109   2.0000      -0.236341        -6.4312
 110   2.0000      -0.217729        -5.9247
 111   0.0000      -0.057608        -1.5676
 112   0.0000      -0.013305        -0.3621
 113   0.0000      -0.009267        -0.2522
 114   0.0000      -0.006884        -0.1873
 115   0.0000      -0.003244        -0.0883

MULLIKEN ATOMIC CHARGES
-----------------------
   0 N :   -0.765875
   1 C :    0.571889
   2 O :   -0.476211
   3 C :   -0.116145
   4 C :    0.101552
   5 C :   -0.175974
   6 C :   -0.129376
   7 C :   -0.123242
   8 C :   -0.132110
   9 C :   -0.166368
  10 N :   -0.439499
  11 C :   -0.262606
  12 C :    0.169901
  13 C :   -0.180130
  14 C :   -0.121369
  15 C :   -0.169455
  16 C :    0.350812
  17 O :   -0.548030
  18 C :    1.084810
  19 F :   -0.283314
  20 F :   -0.280742
  21 F :   -0.295803
  22 C :   -0.228573
  23 C :    0.440957
  24 O :   -0.443988
  25 C :    0.089220
  26 C :   -0.166669
  27 C :   -0.136298
  28 C :   -0.113817
  29 C :   -0.133855
  30 C :   -0.151799
  31 H :    0.354641
  32 H :    0.343671
  33 H :    0.191392
  34 H :    0.159518
  35 H :    0.133318
  36 H :    0.129225
  37 H :    0.131863
  38 H :    0.136386
  39 H :    0.152629
  40 H :    0.171299
  41 H :    0.145463
  42 H :    0.140161
  43 H :    0.144345
  44 H :    0.149591
  45 H :    0.182076
  46 H :    0.140586
  47 H :    0.134641
  48 H :    0.134428
  49 H :    0.156874
Sum of atomic charges:   -0.0000000

LOEWDIN ATOMIC CHARGES
----------------------
   0 N :   -0.399750
   1 C :    0.137102
   2 O :   -0.281692
   3 C :   -0.062593
   4 C :   -0.043339
   5 C :   -0.134123
   6 C :   -0.127078
   7 C :   -0.129974
   8 C :   -0.127684
   9 C :   -0.133094
  10 N :   -0.127776
  11 C :   -0.149282
  12 C :   -0.023512
  13 C :   -0.141553
  14 C :   -0.116552
  15 C :   -0.144949
  16 C :    0.087940
  17 O :   -0.160768
  18 C :    0.358103
  19 F :   -0.099079
  20 F :   -0.088945
  21 F :   -0.108457
  22 C :   -0.159794
  23 C :    0.153037
  24 O :   -0.245022
  25 C :   -0.065746
  26 C :   -0.102398
  27 C :   -0.129556
  28 C :   -0.109280
  29 C :   -0.133107
  30 C :   -0.093715
  31 H :    0.266669
  32 H :    0.256823
  33 H :    0.163216
  34 H :    0.145608
  35 H :    0.133658
  36 H :    0.131851
  37 H :    0.133087
  38 H :    0.134464
  39 H :    0.130448
  40 H :    0.135304
  41 H :    0.139124
  42 H :    0.138560
  43 H :    0.143314
  44 H :    0.141331
  45 H :    0.155822
  46 H :    0.137327
  47 H :    0.134067
  48 H :    0.134294
  49 H :    0.147670

  Mayer bond orders larger than 0.100000
B(  0-N ,  1-C ) :   1.0748 B(  0-N , 31-H ) :   0.8198 B(  0-N , 32-H ) :   0.8137
B(  1-C ,  2-O ) :   1.8120 B(  1-C ,  3-C ) :   0.9277 B(  3-C ,  4-C ) :   0.9196
B(  3-C , 10-N ) :   0.9780 B(  3-C , 33-H ) :   0.8999 B(  4-C ,  5-C ) :   1.4391
B(  4-C ,  9-C ) :   1.4007 B(  5-C ,  6-C ) :   1.4276 B(  5-C , 34-H ) :   0.9058
B(  6-C ,  7-C ) :   1.4593 B(  6-C , 35-H ) :   0.9294 B(  7-C ,  8-C ) :   1.4473
B(  7-C , 36-H ) :   0.9300 B(  8-C ,  9-C ) :   1.4498 B(  8-C , 37-H ) :   0.9292
B(  9-C , 38-H ) :   0.9237 B( 10-N , 11-C ) :   0.9444 B( 10-N , 23-C ) :   0.9587
B( 11-C , 12-C ) :   0.9494 B( 11-C , 39-H ) :   0.9221 B( 11-C , 40-H ) :   0.9158
B( 12-C , 13-C ) :   1.4313 B( 12-C , 22-C ) :   1.4224 B( 13-C , 14-C ) :   1.4389
B( 13-C , 41-H ) :   0.9188 B( 14-C , 15-C ) :   1.4472 B( 14-C , 42-H ) :   0.9275
B( 15-C , 16-C ) :   1.4198 B( 15-C , 43-H ) :   0.9193 B( 16-C , 17-O ) :   0.8175
B( 16-C , 22-C ) :   1.3826 B( 17-O , 18-C ) :   0.9916 B( 18-C , 19-F ) :   0.9763
B( 18-C , 20-F ) :   1.0061 B( 18-C , 21-F ) :   0.9612 B( 22-C , 44-H ) :   0.8947
B( 23-C , 24-O ) :   1.8463 B( 23-C , 25-C ) :   1.0111 B( 25-C , 26-C ) :   1.3790
B( 25-C , 30-C ) :   1.3781 B( 26-C , 27-C ) :   1.4372 B( 26-C , 45-H ) :   0.8926
B( 27-C , 28-C ) :   1.4483 B( 27-C , 46-H ) :   0.9289 B( 28-C , 29-C ) :   1.4319
B( 28-C , 47-H ) :   0.9298 B( 29-C , 30-C ) :   1.4439 B( 29-C , 48-H ) :   0.9302
B( 30-C , 49-H ) :   0.9155

FINAL SINGLE POINT ENERGY     -1521.714072705689

DIPOLE MOMENT
-------------

Method             : SCF
Type of density    : Electron Density
Multiplicity       :   1
Irrep              :   0
Energy             : -1521.7140727056885225 Eh
Relativity type    :
Basis              : AO
                                X                 Y                 Z
Electronic contribution:     33.037703383      -2.197853740      -9.905551235
Nuclear contribution   :    -33.187266113       1.730916557      10.368346471
                        -----------------------------------------
Total Dipole Moment    :     -0.149562730      -0.466937183       0.462795236
                        -----------------------------------------
Magnitude (a.u.)       :      0.674224572
Magnitude (Debye)      :      1.713742670

Rotational constants in cm-1:             0.005811             0.003777             0.002805
Rotational constants in MHz :           174.213628           113.217160            84.098790

                             ****ORCA TERMINATED NORMALLY****
TOTAL RUN TIME: 0 days 0 hours 9 minutes 23 seconds 906 msec
