                         Program Version 6.0.0  -   RELEASE  -
|  1> ! B3LYP 6-31G* SP
|  2>
|  3> * xyz 0 1
|  4> O -3.5461 -5.7225 -0.4522
|  5> C -4.0336 -4.5669 -0.3223
|  6> O -5.2995 -4.4207 0.2393
|  7> C -3.2704 -3.3779 -0.7611
|  8> C -3.8132 -2.0901 -0.6096
|  9> C -3.0931 -0.9649 -1.0214
| 10> C -1.8239 -1.1098 -1.5938
| 11> S -0.9045 0.3120 -2.0711
| 12> O -1.8442 1.3714 -2.5769
| 13> O 0.0561 -0.0335 -3.1747
| 14> N -0.0244 0.9047 -0.6993
| 15> C 1.1059 0.1406 -0.1691
| 16> C 2.4243 0.8616 -0.4781
| 17> N 3.6257 0.1115 -0.0551
| 18> C 3.9664 -1.0775 -0.8652
| 19> C 3.5881 -2.3966 -0.1743
| 20> O 4.0725 -2.4309 1.1499
| 21> C 3.4229 -1.4320 1.9039
| 22> C 3.8145 -0.0361 1.4028
| 23> C -0.4310 2.1297 -0.0811
| 24> N -0.0921 3.3119 -0.6609
| 25> C -0.4516 4.5077 -0.1250
| 26> C -1.2128 4.5555 1.0536
| 27> C -1.5722 5.8752 1.6875
| 28> F -0.5785 6.2380 2.5773
| 29> F -1.6986 6.8626 0.7256
| 30> F -2.7736 5.7771 2.3678
| 31> C -1.5565 3.3455 1.6760
| 32> C -1.1783 2.1266 1.1073
| 33> Cl -1.6712 0.6256 1.8796
| 34> C -1.2743 -2.3891 -1.7428
| 35> C -1.9922 -3.5161 -1.3326
| 36> H -5.8300 -5.2282 0.5434
| 37> H -4.7925 -1.9501 -0.1697
| 38> H -3.5229 0.0195 -0.8862
| 39> H 1.1156 -0.8646 -0.6316
| 40> H 0.9835 0.0185 0.9256
| 41> H 2.4816 1.0650 -1.5699
| 42> H 2.4232 1.8551 0.0214
| 43> H 5.0643 -1.0750 -1.0358
| 44> H 3.4846 -1.0373 -1.8668
| 45> H 2.4925 -2.5807 -0.2063
| 46> H 4.0573 -3.2308 -0.7377
| 47> H 3.7462 -1.5279 2.9620
| 48> H 2.3201 -1.5752 1.8986
| 49> H 3.2405 0.7331 1.9654
| 50> H 4.8889 0.1308 1.6323
| 51> H -0.1400 5.4187 -0.6189
| 52> H -2.1202 3.3468 2.6007
| 53> H -0.2880 -2.5158 -2.1712
| 54> H -1.5452 -4.4943 -1.4597
| 55> *
| 56>
| 57>                          ****END OF INPUT****

CARTESIAN COORDINATES (ANGSTROEM)
---------------------------------
  O     -3.546100   -5.722500   -0.452200
  C     -4.033600   -4.566900   -0.322300
  O     -5.299500   -4.420700    0.239300
  C     -3.270400   -3.377900   -0.761100
  C     -3.813200   -2.090100   -0.609600
  C     -3.093100   -0.964900   -1.021400
  C     -1.823900   -1.109800   -1.593800
  S     -0.904500    0.312000   -2.071100
  O     -1.844200    1.371400   -2.576900
  O      0.056100   -0.033500   -3.174700
  N     -0.024400    0.904700   -0.699300
  C      1.105900    0.140600   -0.169100
  C      2.424300    0.861600   -0.478100
  N      3.625700    0.111500   -0.055100
  C      3.966400   -1.077500   -0.865200
  C      3.588100   -2.396600   -0.174300
  O      4.072500   -2.430900    1.149900
  C      3.422900   -1.432000    1.903900
  C      3.814500   -0.036100    1.402800
  C     -0.431000    2.129700   -0.081100
  N     -0.092100    3.311900   -0.660900
  C     -0.451600    4.507700   -0.125000
  C     -1.212800    4.555500    1.053600
  C     -1.572200    5.875200    1.687500
  F     -0.578500    6.238000    2.577300
  F     -1.698600    6.862600    0.725600
  F     -2.773600    5.777100    2.367800
  C     -1.556500    3.345500    1.676000
  C     -1.178300    2.126600    1.107300
  Cl    -1.671200    0.625600    1.879600
  C     -1.274300   -2.389100   -1.742800
  C     -1.992200   -3.516100   -1.332600
  H     -5.830000   -5.228200    0.543400
  H     -4.792500   -1.950100   -0.169700
  H     -3.522900    0.019500   -0.886200
  H      1.115600   -0.864600   -0.631600
  H      0.983500    0.018500    0.925600
  H      2.481600    1.065000   -1.569900
  H      2.423200    1.855100    0.021400
  H      5.064300   -1.075000   -1.035800
  H      3.484600   -1.037300   -1.866800
  H      2.492500   -2.580700   -0.206300
  H      4.057300   -3.230800   -0.737700
  H      3.746200   -1.527900    2.962000
  H      2.320100   -1.575200    1.898600
  H      3.240500    0.733100    1.965400
  H      4.888900    0.130800    1.632300
  H     -0.140000    5.418700   -0.618900
  H     -2.120200    3.346800    2.600700
  H     -0.288000   -2.515800   -2.171200
  H     -1.545200   -4.494300   -1.459700

 Total Charge           Charge          ....    0
 Multiplicity           Mult            ....    1
 Number of Electrons    NEL             ....  254
 Basis Dimension        Dim             ....  494

ORBITAL ENERGIES
----------------

  NO   OCC          E(Eh)            E(eV)
   0   2.0000    -101.562581     -2763.6583
   1   2.0000     -89.107023     -2424.7254
   2   2.0000     -24.738902      -673.1797
   3   2.0000     -24.738694      -673.1741
   4   2.0000     -24.735624      -673.0905
   5   2.0000     -19.200815      -522.4807
   6   2.0000     -19.148399      -521.0544
   7   2.0000     -19.142675      -520.8987
   8   2.0000     -19.134351      -520.6722
   9   2.0000     -19.133988      -520.6623
  10   2.0000     -14.384607      -391.4251
  11   2.0000     -14.367505      -390.9597
  12   2.0000     -14.322753      -389.7419
  13   2.0000     -10.457651      -284.5672
  14   2.0000     -10.340255      -281.3726
  15   2.0000     -10.302510      -280.3456
  16   2.0000     -10.287924      -279.9486
  17   2.0000     -10.260215      -279.1946
  18   2.0000     -10.249037      -278.8905
  19   2.0000     -10.247567      -278.8505
  20   2.0000     -10.247138      -278.8388
  21   2.0000     -10.237929      -278.5882
  22   2.0000     -10.235989      -278.5354
  23   2.0000     -10.227962      -278.3170
  24   2.0000     -10.227883      -278.3148
  25   2.0000     -10.227279      -278.2984
  26   2.0000     -10.226274      -278.2711
  27   2.0000     -10.223391      -278.1926
  28   2.0000     -10.223068      -278.1838
  29   2.0000     -10.211342      -277.8647
  30   2.0000     -10.210708      -277.8475
  31   2.0000     -10.208360      -277.7836
  32   2.0000      -9.493798      -258.3394
  33   2.0000      -8.142639      -221.5725
  34   2.0000      -7.257042      -197.4741
  35   2.0000      -7.247441      -197.2129
  36   2.0000      -7.246950      -197.1995
  37   2.0000      -6.107824      -166.2023
  38   2.0000      -6.105614      -166.1422
  39   2.0000      -6.105218      -166.1314
  40   2.0000      -1.298699       -35.3394
  41   2.0000      -1.223869       -33.3032
  42   2.0000      -1.222811       -33.2744
  43   2.0000      -1.092162       -29.7192
  44   2.0000      -1.085447       -29.5365
  45   2.0000      -1.045216       -28.4418
  46   2.0000      -0.999671       -27.2024
  47   2.0000      -0.992089       -26.9961
  48   2.0000      -0.970120       -26.3983
  49   2.0000      -0.936987       -25.4967
  50   2.0000      -0.909914       -24.7600
  51   2.0000      -0.901496       -24.5309
  52   2.0000      -0.896590       -24.3975
  53   2.0000      -0.844286       -22.9742
  54   2.0000      -0.813958       -22.1489
  55   2.0000      -0.789604       -21.4862
  56   2.0000      -0.782802       -21.3011
  57   2.0000      -0.771507       -20.9938
  58   2.0000      -0.760771       -20.7016
  59   2.0000      -0.733765       -19.9667
  60   2.0000      -0.710872       -19.3438
  61   2.0000      -0.689262       -18.7558
  62   2.0000      -0.675379       -18.3780
  63   2.0000      -0.658866       -17.9287
  64   2.0000      -0.652973       -17.7683
  65   2.0000      -0.646896       -17.6029
  66   2.0000      -0.636075       -17.3085
  67   2.0000      -0.621793       -16.9199
  68   2.0000      -0.606360       -16.4999
  69   2.0000      -0.590548       -16.0696
  70   2.0000      -0.589528       -16.0419
  71   2.0000      -0.578628       -15.7453
  72   2.0000      -0.571083       -15.5400
  73   2.0000      -0.565191       -15.3796
  74   2.0000      -0.549256       -14.9460
  75   2.0000      -0.535128       -14.5616
  76   2.0000      -0.521347       -14.1866
  77   2.0000      -0.500042       -13.6068
  78   2.0000      -0.496701       -13.5159
  79   2.0000      -0.492844       -13.4110
  80   2.0000      -0.484346       -13.1797
  81   2.0000      -0.483128       -13.1466
  82   2.0000      -0.479440       -13.0462
  83   2.0000      -0.477515       -12.9938
  84   2.0000      -0.471252       -12.8234
  85   2.0000      -0.466582       -12.6964
  86   2.0000      -0.465556       -12.6684
  87   2.0000      -0.465310       -12.6617
  88   2.0000      -0.463507       -12.6127
  89   2.0000      -0.454749       -12.3744
  90   2.0000      -0.447276       -12.1710
  91   2.0000      -0.445768       -12.1300
  92   2.0000      -0.442631       -12.0446
  93   2.0000      -0.441334       -12.0093
  94   2.0000      -0.434862       -11.8332
  95   2.0000      -0.431960       -11.7542
  96   2.0000      -0.428543       -11.6613
  97   2.0000      -0.426806       -11.6140
  98   2.0000      -0.420264       -11.4360
  99   2.0000      -0.416346       -11.3293
 100   2.0000      -0.415889       -11.3169
 101   2.0000      -0.401778       -10.9329
 102   2.0000      -0.399156       -10.8616
 103   2.0000      -0.393800       -10.7158
 104   2.0000      -0.390890       -10.6367
 105   2.0000      -0.377679       -10.2772
 106   2.0000      -0.374225       -10.1832
 107   2.0000      -0.373893       -10.1741
 108   2.0000      -0.372902       -10.1472
 109   2.0000      -0.367235        -9.9930
 110   2.0000      -0.348196        -9.4749
 111   2.0000      -0.340121        -9.2552
 112   2.0000      -0.336079        -9.1452
 113   2.0000      -0.326587        -8.8869
 114   2.0000      -0.320566        -8.7231
 115   2.0000      -0.313929        -8.5424
 116   2.0000      -0.310337        -8.4447
 117   2.0000      -0.302811        -8.2399
 118   2.0000      -0.295704        -8.0465
 119   2.0000      -0.288857        -7.8602
 120   2.0000      -0.285704        -7.7744
 121   2.0000      -0.284050        -7.7294
 122   2.0000      -0.279471        -7.6048
 123   2.0000      -0.277717        -7.5571
 124   2.0000      -0.274824        -7.4783
 125   2.0000      -0.260593        -7.0911
 126   2.0000      -0.197041        -5.3618
 127   0.0000      -0.091765        -2.4971
 128   0.0000      -0.072089        -1.9616
 129   0.0000      -0.058802        -1.6001
 130   0.0000      -0.037194        -1.0121
 131   0.0000      -0.003806        -0.1036

MULLIKEN ATOMIC CHARGES
-----------------------
   0 O :   -0.442409
   1 C :    0.529302
   2 O :   -0.623324
   3 C :    0.083086
   4 C :   -0.148093
   5 C :   -0.135491
   6 C :   -0.115633
   7 S :    1.199312
   8 O :   -0.535191
   9 O :   -0.535739
  10 N :   -0.606009
  11 C :   -0.159177
  12 C :   -0.140852
  13 N :   -0.368030
  14 C :   -0.152469
  15 C :   -0.037232
  16 O :   -0.447679
  17 C :   -0.035060
  18 C :   -0.146669
  19 C :    0.390925
  20 N :   -0.341446
  21 C :   -0.003511
  22 C :   -0.023474
  23 C :    0.905760
  24 F :   -0.290788
  25 F :   -0.298108
  26 F :   -0.300228
  27 C :   -0.132308
  28 C :   -0.093846
  29 Cl:    0.020385
  30 C :   -0.151476
  31 C :   -0.138649
  32 H :    0.435566
  33 H :    0.175185
  34 H :    0.182802
  35 H :    0.163743
  36 H :    0.161032
  37 H :    0.178885
  38 H :    0.145638
  39 H :    0.149452
  40 H :    0.151978
  41 H :    0.110980
  42 H :    0.141732
  43 H :    0.138884
  44 H :    0.114504
  45 H :    0.132625
  46 H :    0.149242
  47 H :    0.188418
  48 H :    0.188806
  49 H :    0.182023
  50 H :    0.182625
Sum of atomic charges:   -0.0000000

LOEWDIN ATOMIC CHARGES
----------------------
   0 O :   -0.258622
   1 C :    0.180070
   2 O :   -0.334031
   3 C :   -0.037307
   4 C :   -0.098183
   5 C :   -0.097275
   6 C :   -0.174835
   7 S :    1.266893
   8 O :   -0.564495
   9 O :   -0.566456
  10 N :   -0.284712
  11 C :   -0.174483
  12 C :   -0.164317
  13 N :   -0.177532
  14 C :   -0.172650
  15 C :   -0.113058
  16 O :   -0.228430
  17 C :   -0.113778
  18 C :   -0.171421
  19 C :    0.058351
  20 N :   -0.089879
  21 C :   -0.043630
  22 C :   -0.072395
  23 C :    0.313264
  24 F :   -0.108286
  25 F :   -0.106066
  26 F :   -0.109107
  27 C :   -0.091647
  28 C :   -0.097941
  29 Cl:    0.058892
  30 C :   -0.108930
  31 C :   -0.085371
  32 H :    0.350765
  33 H :    0.155993
  34 H :    0.158884
  35 H :    0.135431
  36 H :    0.126154
  37 H :    0.139480
  38 H :    0.122707
  39 H :    0.123581
  40 H :    0.132749
  41 H :    0.094887
  42 H :    0.123662
  43 H :    0.122255
  44 H :    0.097904
  45 H :    0.123108
  46 H :    0.123264
  47 H :    0.155115
  48 H :    0.162571
  49 H :    0.157466
  50 H :    0.161393

  Mayer bond orders larger than 0.100000
B(  0-O ,  1-C ) :   1.8639 B(  1-C ,  2-O ) :   1.0265 B(  1-C ,  3-C ) :   1.0071
B(  2-O , 32-H ) :   0.7409 B(  3-C ,  4-C ) :   1.3821 B(  3-C , 31-C ) :   1.4052
B(  4-C ,  5-C ) :   1.4208 B(  4-C , 33-H ) :   0.9142 B(  5-C ,  6-C ) :   1.3912
B(  5-C , 34-H ) :   0.9100 B(  6-C ,  7-S ) :   0.8147 B(  6-C , 30-C ) :   1.3801
B(  7-S ,  8-O ) :   1.6420 B(  7-S ,  9-O ) :   1.6467 B(  7-S , 10-N ) :   0.8022
B( 10-N , 11-C ) :   0.8874 B( 10-N , 19-C ) :   0.9498 B( 11-C , 12-C ) :   0.9514
B( 11-C , 35-H ) :   0.9155 B( 11-C , 36-H ) :   0.9196 B( 12-C , 13-N ) :   1.0005
B( 12-C , 37-H ) :   0.9268 B( 12-C , 38-H ) :   0.9325 B( 13-N , 14-C ) :   0.9780
B( 13-N , 18-C ) :   0.9803 B( 14-C , 15-C ) :   0.9683 B( 14-C , 39-H ) :   0.9300
B( 14-C , 40-H ) :   0.9268 B( 15-C , 16-O ) :   0.9518 B( 15-C , 41-H ) :   0.9139
B( 15-C , 42-H ) :   0.9361 B( 16-O , 17-C ) :   0.9525 B( 17-C , 18-C ) :   0.9687
B( 17-C , 43-H ) :   0.9359 B( 17-C , 44-H ) :   0.9139 B( 18-C , 45-H ) :   0.9303
B( 18-C , 46-H ) :   0.9292 B( 19-C , 20-N ) :   1.3911 B( 19-C , 28-C ) :   1.3391
B( 20-N , 21-C ) :   1.4114 B( 21-C , 22-C ) :   1.3564 B( 21-C , 47-H ) :   0.9163
B( 22-C , 23-C ) :   0.9714 B( 22-C , 27-C ) :   1.4137 B( 23-C , 24-F ) :   0.9898
B( 23-C , 25-F ) :   0.9529 B( 23-C , 26-F ) :   0.9520 B( 27-C , 28-C ) :   1.3909
B( 27-C , 48-H ) :   0.9077 B( 28-C , 29-Cl) :   1.0427 B( 30-C , 31-C ) :   1.4187
B( 30-C , 49-H ) :   0.9094 B( 31-C , 50-H ) :   0.9088

FINAL SINGLE POINT ENERGY     -2432.623980185736

DIPOLE MOMENT
-------------

Method             : SCF
Type of density    : Electron Density
Multiplicity       :   1
Irrep              :   0
Energy             : -2432.6239801857359453 Eh
Relativity type    :
Basis              : AO
                                X                 Y                 Z
Electronic contribution:    -33.295493764      38.170259768       8.765097045
Nuclear contribution   :     32.467305231     -38.528953277      -6.868630761
                        -----------------------------------------
Total Dipole Moment    :     -0.828188533      -0.358693509       1.896466284
                        -----------------------------------------
Magnitude (a.u.)       :      2.100271803
Magnitude (Debye)      :      5.338466669

Rotational constants in cm-1:             0.004263             0.002591             0.001949
Rotational constants in MHz :           127.791945            77.683016            58.434287

                             ****ORCA TERMINATED NORMALLY****
TOTAL RUN TIME: 0 days 0 hours 9 minutes 56 seconds 208 msec
