                         Program Version 6.0.0  -   RELEASE  -
|  1> ! B3LYP 6-31G* SP
|  2>
|  3> * xyz 0 1
|  4> O 7.4309 2.0603 1.3991
|  5> C 6.8086 0.9624 1.3803
|  6> O 7.5259 -0.2294 1.4317
|  7> C 5.3324 0.9382 1.2871
|  8> C 4.6392 -0.2802 1.2353
|  9> C 3.2473 -0.2957 1.1280
| 10> C 2.5440 0.9188 1.0640
| 11> C 1.0712 0.9634 0.9414
| 12> O 0.4687 2.0306 1.2390
| 13> N 0.3221 -0.1690 0.4666
| 14> C -1.1452 -0.1663 0.4236
| 15> C -1.6515 0.6417 -0.7561
| 16> C -2.8352 1.3875 -0.6307
| 17> C -3.3397 2.1073 -1.7164
| 18> C -2.6684 2.1010 -2.9505
| 19> C -3.2472 2.8402 -4.1315
| 20> F -3.8656 4.0085 -3.7158
| 21> F -4.1803 2.0354 -4.7606
| 22> F -2.2561 3.1739 -5.0384
| 23> C -1.5072 1.3204 -3.0905
| 24> C -1.0018 0.6011 -2.0041
| 25> C -1.6667 -1.5919 0.3411
| 26> N -1.3987 -2.2931 -0.7987
| 27> C -1.8078 -3.5721 -0.9886
| 28> C -2.5373 -4.2214 0.0001
| 29> C -2.8284 -3.5511 1.1865
| 30> C -2.3913 -2.2263 1.3907
| 31> C -2.7156 -1.5252 2.6978
| 32> F -1.5474 -1.1001 3.3058
| 33> F -3.3733 -2.3626 3.5832
| 34> F -3.5345 -0.4379 2.4536
| 35> N 3.2349 2.0900 1.1394
| 36> C 4.5900 2.1294 1.2451
| 37> H 8.5379 -0.2238 1.4910
| 38> H 5.1705 -1.2223 1.2749
| 39> H 2.7367 -1.2488 1.1208
| 40> H 0.8327 -0.9539 0.0015
| 41> H -1.5032 0.3286 1.3468
| 42> H -3.3728 1.4079 0.3092
| 43> H -4.2582 2.6659 -1.5924
| 44> H -0.9921 1.2609 -4.0420
| 45> H -0.1080 0.0044 -2.1419
| 46> H -1.5689 -4.0819 -1.9119
| 47> H -2.8730 -5.2394 -0.1497
| 48> H -3.4007 -4.0768 1.9392
| 49> H 5.0830 3.0913 1.2936
| 50> *
| 51>
| 52>                          ****END OF INPUT****

CARTESIAN COORDINATES (ANGSTROEM)
---------------------------------
  O      7.430900    2.060300    1.399100
  C      6.808600    0.962400    1.380300
  O      7.525900   -0.229400    1.431700
  C      5.332400    0.938200    1.287100
  C      4.639200   -0.280200    1.235300
  C      3.247300   -0.295700    1.128000
  C      2.544000    0.918800    1.064000
  C      1.071200    0.963400    0.941400
  O      0.468700    2.030600    1.239000
  N      0.322100   -0.169000    0.466600
  C     -1.145200   -0.166300    0.423600
  C     -1.651500    0.641700   -0.756100
  C     -2.835200    1.387500   -0.630700
  C     -3.339700    2.107300   -1.716400
  C     -2.668400    2.101000   -2.950500
  C     -3.247200    2.840200   -4.131500
  F     -3.865600    4.008500   -3.715800
  F     -4.180300    2.035400   -4.760600
  F     -2.256100    3.173900   -5.038400
  C     -1.507200    1.320400   -3.090500
  C     -1.001800    0.601100   -2.004100
  C     -1.666700   -1.591900    0.341100
  N     -1.398700   -2.293100   -0.798700
  C     -1.807800   -3.572100   -0.988600
  C     -2.537300   -4.221400    0.000100
  C     -2.828400   -3.551100    1.186500
  C     -2.391300   -2.226300    1.390700
  C     -2.715600   -1.525200    2.697800
  F     -1.547400   -1.100100    3.305800
  F     -3.373300   -2.362600    3.583200
  F     -3.534500   -0.437900    2.453600
  N      3.234900    2.090000    1.139400
  C      4.590000    2.129400    1.245100
  H      8.537900   -0.223800    1.491000
  H      5.170500   -1.222300    1.274900
  H      2.736700   -1.248800    1.120800
  H      0.832700   -0.953900    0.001500
  H     -1.503200    0.328600    1.346800
  H     -3.372800    1.407900    0.309200
  H     -4.258200    2.665900   -1.592400
  H     -0.992100    1.260900   -4.042000
  H     -0.108000    0.004400   -2.141900
  H     -1.568900   -4.081900   -1.911900
  H     -2.873000   -5.239400   -0.149700
  H     -3.400700   -4.076800    1.939200
  H      5.083000    3.091300    1.293600

 Total Charge           Charge          ....    0
 Multiplicity           Mult            ....    1
 Number of Electrons    NEL             ....  238
 Basis Dimension        Dim             ....  488

ORBITAL ENERGIES
----------------

  NO   OCC          E(Eh)            E(eV)
   0   2.0000     -24.738349      -673.1647
   1   2.0000     -24.737421      -673.1395
   2   2.0000     -24.734935      -673.0718
   3   2.0000     -24.710809      -672.4153
   4   2.0000     -24.709230      -672.3723
   5   2.0000     -24.706924      -672.3096
   6   2.0000     -19.198184      -522.4091
   7   2.0000     -19.139571      -520.8142
   8   2.0000     -19.118362      -520.2371
   9   2.0000     -14.369944      -391.0260
  10   2.0000     -14.358568      -390.7165
  11   2.0000     -14.347142      -390.4056
  12   2.0000     -10.455641      -284.5125
  13   2.0000     -10.425063      -283.6804
  14   2.0000     -10.337000      -281.2841
  15   2.0000     -10.299537      -280.2646
  16   2.0000     -10.268243      -279.4131
  17   2.0000     -10.254425      -279.0371
  18   2.0000     -10.250496      -278.9302
  19   2.0000     -10.248244      -278.8689
  20   2.0000     -10.244057      -278.7550
  21   2.0000     -10.242296      -278.7071
  22   2.0000     -10.234387      -278.4918
  23   2.0000     -10.230673      -278.3908
  24   2.0000     -10.225676      -278.2548
  25   2.0000     -10.219898      -278.0976
  26   2.0000     -10.218552      -278.0609
  27   2.0000     -10.203443      -277.6498
  28   2.0000     -10.201017      -277.5838
  29   2.0000     -10.193302      -277.3739
  30   2.0000     -10.193077      -277.3677
  31   2.0000     -10.189093      -277.2593
  32   2.0000     -10.188653      -277.2473
  33   2.0000      -1.297946       -35.3189
  34   2.0000      -1.269507       -34.5450
  35   2.0000      -1.223016       -33.2800
  36   2.0000      -1.221387       -33.2356
  37   2.0000      -1.195388       -32.5282
  38   2.0000      -1.194029       -32.4912
  39   2.0000      -1.082492       -29.4561
  40   2.0000      -1.019586       -27.7443
  41   2.0000      -0.996306       -27.1109
  42   2.0000      -0.965607       -26.2755
  43   2.0000      -0.948492       -25.8098
  44   2.0000      -0.918023       -24.9807
  45   2.0000      -0.861599       -23.4453
  46   2.0000      -0.839880       -22.8543
  47   2.0000      -0.828086       -22.5334
  48   2.0000      -0.817845       -22.2547
  49   2.0000      -0.798319       -21.7234
  50   2.0000      -0.782291       -21.2872
  51   2.0000      -0.750583       -20.4244
  52   2.0000      -0.736567       -20.0430
  53   2.0000      -0.715738       -19.4762
  54   2.0000      -0.697774       -18.9874
  55   2.0000      -0.677520       -18.4362
  56   2.0000      -0.660960       -17.9856
  57   2.0000      -0.653301       -17.7772
  58   2.0000      -0.635842       -17.3021
  59   2.0000      -0.625298       -17.0152
  60   2.0000      -0.617147       -16.7934
  61   2.0000      -0.602498       -16.3948
  62   2.0000      -0.589012       -16.0278
  63   2.0000      -0.587454       -15.9854
  64   2.0000      -0.582446       -15.8492
  65   2.0000      -0.578752       -15.7486
  66   2.0000      -0.560713       -15.2578
  67   2.0000      -0.557809       -15.1788
  68   2.0000      -0.556572       -15.1451
  69   2.0000      -0.551086       -14.9958
  70   2.0000      -0.540680       -14.7126
  71   2.0000      -0.521664       -14.1952
  72   2.0000      -0.516379       -14.0514
  73   2.0000      -0.505057       -13.7433
  74   2.0000      -0.495182       -13.4746
  75   2.0000      -0.481002       -13.0887
  76   2.0000      -0.473022       -12.8716
  77   2.0000      -0.467891       -12.7320
  78   2.0000      -0.465739       -12.6734
  79   2.0000      -0.464970       -12.6525
  80   2.0000      -0.460381       -12.5276
  81   2.0000      -0.454772       -12.3750
  82   2.0000      -0.446508       -12.1501
  83   2.0000      -0.440313       -11.9815
  84   2.0000      -0.439304       -11.9541
  85   2.0000      -0.438599       -11.9349
  86   2.0000      -0.437565       -11.9067
  87   2.0000      -0.436352       -11.8737
  88   2.0000      -0.433024       -11.7832
  89   2.0000      -0.428008       -11.6467
  90   2.0000      -0.424601       -11.5540
  91   2.0000      -0.421858       -11.4794
  92   2.0000      -0.418739       -11.3945
  93   2.0000      -0.416641       -11.3374
  94   2.0000      -0.414875       -11.2893
  95   2.0000      -0.413538       -11.2530
  96   2.0000      -0.411143       -11.1878
  97   2.0000      -0.400792       -10.9061
  98   2.0000      -0.397625       -10.8199
  99   2.0000      -0.395124       -10.7519
 100   2.0000      -0.388813       -10.5801
 101   2.0000      -0.385216       -10.4823
 102   2.0000      -0.377541       -10.2734
 103   2.0000      -0.370571       -10.0838
 104   2.0000      -0.358657        -9.7596
 105   2.0000      -0.349505        -9.5105
 106   2.0000      -0.348005        -9.4697
 107   2.0000      -0.319388        -8.6910
 108   2.0000      -0.312975        -8.5165
 109   2.0000      -0.301549        -8.2056
 110   2.0000      -0.292970        -7.9721
 111   2.0000      -0.281708        -7.6657
 112   2.0000      -0.279668        -7.6101
 113   2.0000      -0.277284        -7.5453
 114   2.0000      -0.264303        -7.1920
 115   2.0000      -0.260714        -7.0944
 116   2.0000      -0.255088        -6.9413
 117   2.0000      -0.249181        -6.7806
 118   2.0000      -0.245730        -6.6867
 119   0.0000      -0.088100        -2.3973
 120   0.0000      -0.059168        -1.6100
 121   0.0000      -0.056457        -1.5363
 122   0.0000      -0.042358        -1.1526
 123   0.0000      -0.016989        -0.4623

MULLIKEN ATOMIC CHARGES
-----------------------
   0 O :   -0.443253
   1 C :    0.525269
   2 O :   -0.624688
   3 C :    0.067335
   4 C :   -0.128093
   5 C :   -0.168076
   6 C :    0.197510
   7 C :    0.549197
   8 O :   -0.447899
   9 N :   -0.641488
  10 C :   -0.087539
  11 C :    0.190345
  12 C :   -0.169844
  13 C :   -0.160564
  14 C :   -0.012029
  15 C :    0.892703
  16 F :   -0.306179
  17 F :   -0.299583
  18 F :   -0.306475
  19 C :   -0.165120
  20 C :   -0.140200
  21 C :    0.215937
  22 N :   -0.412595
  23 C :    0.029044
  24 C :   -0.134581
  25 C :   -0.130753
  26 C :   -0.064125
  27 C :    0.919816
  28 F :   -0.295042
  29 F :   -0.302495
  30 F :   -0.295163
  31 N :   -0.371984
  32 C :    0.001149
  33 H :    0.433818
  34 H :    0.172334
  35 H :    0.142614
  36 H :    0.330966
  37 H :    0.189763
  38 H :    0.140809
  39 H :    0.150416
  40 H :    0.148219
  41 H :    0.126790
  42 H :    0.164689
  43 H :    0.151648
  44 H :    0.171934
  45 H :    0.195464
Sum of atomic charges:    0.0000000

LOEWDIN ATOMIC CHARGES
----------------------
   0 O :   -0.259418
   1 C :    0.178732
   2 O :   -0.336078
   3 C :   -0.062910
   4 C :   -0.080450
   5 C :   -0.137730
   6 C :    0.016565
   7 C :    0.136907
   8 O :   -0.248134
   9 N :   -0.230408
  10 C :   -0.054651
  11 C :    0.000591
  12 C :   -0.123643
  13 C :   -0.110817
  14 C :   -0.070280
  15 C :    0.310752
  16 F :   -0.115373
  17 F :   -0.117096
  18 F :   -0.114170
  19 C :   -0.113881
  20 C :   -0.114127
  21 C :    0.051334
  22 N :   -0.130620
  23 C :   -0.052436
  24 C :   -0.139414
  25 C :   -0.087279
  26 C :   -0.079198
  27 C :    0.313245
  28 F :   -0.106681
  29 F :   -0.107547
  30 F :   -0.108767
  31 N :   -0.089474
  32 C :   -0.022937
  33 H :    0.349612
  34 H :    0.153520
  35 H :    0.138021
  36 H :    0.251780
  37 H :    0.156091
  38 H :    0.137892
  39 H :    0.142833
  40 H :    0.141718
  41 H :    0.134326
  42 H :    0.142524
  43 H :    0.144357
  44 H :    0.152543
  45 H :    0.160178

  Mayer bond orders larger than 0.100000
B(  0-O ,  1-C ) :   1.8609 B(  1-C ,  2-O ) :   1.0248 B(  1-C ,  3-C ) :   1.0037
B(  2-O , 33-H ) :   0.7415 B(  3-C ,  4-C ) :   1.3921 B(  3-C , 32-C ) :   1.3330
B(  4-C ,  5-C ) :   1.4206 B(  4-C , 34-H ) :   0.9152 B(  5-C ,  6-C ) :   1.3676
B(  5-C , 35-H ) :   0.9149 B(  6-C ,  7-C ) :   0.9679 B(  6-C , 31-N ) :   1.3669
B(  7-C ,  8-O ) :   1.8226 B(  7-C ,  9-N ) :   1.0388 B(  9-N , 10-C ) :   0.9162
B(  9-N , 36-H ) :   0.8087 B( 10-C , 11-C ) :   0.9359 B( 10-C , 21-C ) :   0.9456
B( 10-C , 37-H ) :   0.8917 B( 11-C , 12-C ) :   1.4271 B( 11-C , 20-C ) :   1.4164
B( 12-C , 13-C ) :   1.4250 B( 12-C , 38-H ) :   0.9185 B( 13-C , 14-C ) :   1.4136
B( 13-C , 39-H ) :   0.9202 B( 14-C , 15-C ) :   0.9806 B( 14-C , 19-C ) :   1.4059
B( 15-C , 16-F ) :   0.9487 B( 15-C , 17-F ) :   0.9828 B( 15-C , 18-F ) :   0.9467
B( 19-C , 20-C ) :   1.4296 B( 19-C , 40-H ) :   0.9209 B( 20-C , 41-H ) :   0.9193
B( 21-C , 22-N ) :   1.3783 B( 21-C , 26-C ) :   1.3622 B( 22-N , 23-C ) :   1.4209
B( 23-C , 24-C ) :   1.4197 B( 23-C , 42-H ) :   0.9260 B( 24-C , 25-C ) :   1.4348
B( 24-C , 43-H ) :   0.9226 B( 25-C , 26-C ) :   1.4065 B( 25-C , 44-H ) :   0.9153
B( 26-C , 27-C ) :   0.9691 B( 27-C , 28-F ) :   0.9429 B( 27-C , 29-F ) :   0.9448
B( 27-C , 30-F ) :   0.9423 B( 31-N , 32-C ) :   1.4291 B( 32-C , 45-H ) :   0.9106

FINAL SINGLE POINT ENERGY     -1796.111532434714

DIPOLE MOMENT
-------------

Method             : SCF
Type of density    : Electron Density
Multiplicity       :   1
Irrep              :   0
Energy             : -1796.1115324347144906 Eh
Relativity type    :
Basis              : AO
                                X                 Y                 Z
Electronic contribution:    -22.688356126      10.810521003      -3.111598392
Nuclear contribution   :     23.241866786     -14.687757617       3.324642373
                        -----------------------------------------
Total Dipole Moment    :      0.553510661      -3.877236614       0.213043981
                        -----------------------------------------
Magnitude (a.u.)       :      3.922336746
Magnitude (Debye)      :      9.969787696

Rotational constants in cm-1:             0.004125             0.002330             0.001707
Rotational constants in MHz :           123.662931            69.842869            51.182259

                             ****ORCA TERMINATED NORMALLY****
TOTAL RUN TIME: 0 days 0 hours 8 minutes 39 seconds 890 msec
