                         Program Version 6.0.0  -   RELEASE  -
|  1> ! B3LYP 6-31G* SP
|  2>
|  3> * xyz 0 1
|  4> C 2.4609 -1.8911 -1.0565
|  5> C 1.6063 -1.8263 0.2216
|  6> C 1.2902 -3.2312 0.6993
|  7> C 0.2811 -3.9988 0.0876
|  8> C 0.0152 -5.2985 0.5290
|  9> C 0.7575 -5.8492 1.5765
| 10> F 0.4982 -7.1101 2.0020
| 11> C 1.7704 -5.1017 2.1821
| 12> C 2.0399 -3.8015 1.7445
| 13> N 0.3689 -1.0132 0.0928
| 14> C -0.2396 -0.7269 -1.2231
| 15> C 0.3348 0.5055 -1.8926
| 16> C 0.0094 0.7481 -3.2355
| 17> C 0.4893 1.8848 -3.8875
| 18> C 1.2936 2.7992 -3.2057
| 19> C 1.6266 2.5855 -1.8573
| 20> C 2.4723 3.5561 -1.1273
| 21> O 2.9097 4.5860 -1.7085
| 22> O 2.7933 3.3412 0.2106
| 23> C 1.1419 1.4370 -1.2069
| 24> C -0.2936 -0.5950 1.3169
| 25> O -0.0247 -1.1892 2.3970
| 26> C -1.2712 0.5170 1.3732
| 27> C -2.0818 0.8109 2.4701
| 28> C -2.7679 1.9359 2.0728
| 29> C -3.7221 2.6814 2.7615
| 30> C -4.2616 3.8026 2.1095
| 31> C -3.8371 4.1421 0.8095
| 32> C -2.8706 3.3509 0.1698
| 33> N -2.3787 2.2760 0.8357
| 34> N -1.4663 1.4306 0.3930
| 35> H 2.7073 -0.8720 -1.4162
| 36> H 3.4205 -2.4053 -0.8341
| 37> H 1.9554 -2.4613 -1.8631
| 38> H 2.2513 -1.3221 0.9769
| 39> H -0.3023 -3.5973 -0.7283
| 40> H -0.7661 -5.8792 0.0557
| 41> H 2.3498 -5.5298 2.9901
| 42> H 2.8330 -3.2401 2.2225
| 43> H -1.3402 -0.6182 -1.1253
| 44> H -0.1108 -1.5955 -1.8993
| 45> H -0.6201 0.0542 -3.7792
| 46> H 0.2338 2.0596 -4.9247
| 47> H 1.6516 3.6744 -3.7332
| 48> H 3.3717 3.9992 0.7194
| 49> H 1.3932 1.2728 -0.1679
| 50> H -2.1525 0.2850 3.4134
| 51> H -4.0367 2.4095 3.7611
| 52> H -5.0059 4.4091 2.6087
| 53> H -4.2519 5.0070 0.3087
| 54> H -2.5257 3.5921 -0.8278
| 55> *
| 56>
| 57>                          ****END OF INPUT****

CARTESIAN COORDINATES (ANGSTROEM)
---------------------------------
  C      2.460900   -1.891100   -1.056500
  C      1.606300   -1.826300    0.221600
  C      1.290200   -3.231200    0.699300
  C      0.281100   -3.998800    0.087600
  C      0.015200   -5.298500    0.529000
  C      0.757500   -5.849200    1.576500
  F      0.498200   -7.110100    2.002000
  C      1.770400   -5.101700    2.182100
  C      2.039900   -3.801500    1.744500
  N      0.368900   -1.013200    0.092800
  C     -0.239600   -0.726900   -1.223100
  C      0.334800    0.505500   -1.892600
  C      0.009400    0.748100   -3.235500
  C      0.489300    1.884800   -3.887500
  C      1.293600    2.799200   -3.205700
  C      1.626600    2.585500   -1.857300
  C      2.472300    3.556100   -1.127300
  O      2.909700    4.586000   -1.708500
  O      2.793300    3.341200    0.210600
  C      1.141900    1.437000   -1.206900
  C     -0.293600   -0.595000    1.316900
  O     -0.024700   -1.189200    2.397000
  C     -1.271200    0.517000    1.373200
  C     -2.081800    0.810900    2.470100
  C     -2.767900    1.935900    2.072800
  C     -3.722100    2.681400    2.761500
  C     -4.261600    3.802600    2.109500
  C     -3.837100    4.142100    0.809500
  C     -2.870600    3.350900    0.169800
  N     -2.378700    2.276000    0.835700
  N     -1.466300    1.430600    0.393000
  H      2.707300   -0.872000   -1.416200
  H      3.420500   -2.405300   -0.834100
  H      1.955400   -2.461300   -1.863100
  H      2.251300   -1.322100    0.976900
  H     -0.302300   -3.597300   -0.728300
  H     -0.766100   -5.879200    0.055700
  H      2.349800   -5.529800    2.990100
  H      2.833000   -3.240100    2.222500
  H     -1.340200   -0.618200   -1.125300
  H     -0.110800   -1.595500   -1.899300
  H     -0.620100    0.054200   -3.779200
  H      0.233800    2.059600   -4.924700
  H      1.651600    3.674400   -3.733200
  H      3.371700    3.999200    0.719400
  H      1.393200    1.272800   -0.167900
  H     -2.152500    0.285000    3.413400
  H     -4.036700    2.409500    3.761100
  H     -5.005900    4.409100    2.608700
  H     -4.251900    5.007000    0.308700
  H     -2.525700    3.592100   -0.827800

 Total Charge           Charge          ....    0
 Multiplicity           Mult            ....    1
 Number of Electrons    NEL             ....  218
 Basis Dimension        Dim             ....  474

ORBITAL ENERGIES
----------------

  NO   OCC          E(Eh)            E(eV)
   0   2.0000     -24.686523      -671.7544
   1   2.0000     -19.178904      -521.8845
   2   2.0000     -19.117943      -520.2257
   3   2.0000     -19.109687      -520.0010
   4   2.0000     -14.444266      -393.0484
   5   2.0000     -14.355325      -390.6282
   6   2.0000     -14.347006      -390.4019
   7   2.0000     -10.315502      -280.6991
   8   2.0000     -10.289585      -279.9939
   9   2.0000     -10.256155      -279.0842
  10   2.0000     -10.245584      -278.7965
  11   2.0000     -10.226750      -278.2840
  12   2.0000     -10.225896      -278.2608
  13   2.0000     -10.225025      -278.2371
  14   2.0000     -10.219219      -278.0791
  15   2.0000     -10.209320      -277.8097
  16   2.0000     -10.206785      -277.7407
  17   2.0000     -10.205409      -277.7033
  18   2.0000     -10.202241      -277.6171
  19   2.0000     -10.195448      -277.4323
  20   2.0000     -10.190207      -277.2896
  21   2.0000     -10.188644      -277.2471
  22   2.0000     -10.187907      -277.2270
  23   2.0000     -10.187602      -277.2188
  24   2.0000     -10.182927      -277.0915
  25   2.0000     -10.181711      -277.0584
  26   2.0000     -10.179863      -277.0081
  27   2.0000     -10.179551      -276.9997
  28   2.0000     -10.178375      -276.9677
  29   2.0000     -10.178308      -276.9658
  30   2.0000     -10.174752      -276.8691
  31   2.0000      -1.200207       -32.6593
  32   2.0000      -1.092059       -29.7164
  33   2.0000      -1.062974       -28.9250
  34   2.0000      -1.009339       -27.4655
  35   2.0000      -0.976429       -26.5700
  36   2.0000      -0.918370       -24.9901
  37   2.0000      -0.895333       -24.3633
  38   2.0000      -0.858561       -23.3626
  39   2.0000      -0.846884       -23.0449
  40   2.0000      -0.833375       -22.6773
  41   2.0000      -0.792131       -21.5550
  42   2.0000      -0.783471       -21.3193
  43   2.0000      -0.767089       -20.8735
  44   2.0000      -0.754143       -20.5213
  45   2.0000      -0.742842       -20.2138
  46   2.0000      -0.738861       -20.1054
  47   2.0000      -0.716732       -19.5033
  48   2.0000      -0.689505       -18.7624
  49   2.0000      -0.677514       -18.4361
  50   2.0000      -0.655499       -17.8370
  51   2.0000      -0.648856       -17.6563
  52   2.0000      -0.621501       -16.9119
  53   2.0000      -0.621103       -16.9011
  54   2.0000      -0.611219       -16.6321
  55   2.0000      -0.603654       -16.4263
  56   2.0000      -0.581915       -15.8347
  57   2.0000      -0.576485       -15.6870
  58   2.0000      -0.544577       -14.8187
  59   2.0000      -0.531321       -14.4580
  60   2.0000      -0.529571       -14.4104
  61   2.0000      -0.524485       -14.2720
  62   2.0000      -0.517591       -14.0844
  63   2.0000      -0.495530       -13.4841
  64   2.0000      -0.492152       -13.3921
  65   2.0000      -0.489335       -13.3155
  66   2.0000      -0.485880       -13.2215
  67   2.0000      -0.479845       -13.0573
  68   2.0000      -0.478955       -13.0330
  69   2.0000      -0.459789       -12.5115
  70   2.0000      -0.448835       -12.2134
  71   2.0000      -0.445146       -12.1130
  72   2.0000      -0.443005       -12.0548
  73   2.0000      -0.442609       -12.0440
  74   2.0000      -0.438969       -11.9450
  75   2.0000      -0.434133       -11.8134
  76   2.0000      -0.433075       -11.7846
  77   2.0000      -0.423764       -11.5312
  78   2.0000      -0.421840       -11.4789
  79   2.0000      -0.417249       -11.3539
  80   2.0000      -0.412755       -11.2316
  81   2.0000      -0.405303       -11.0288
  82   2.0000      -0.397438       -10.8148
  83   2.0000      -0.391355       -10.6493
  84   2.0000      -0.388775       -10.5791
  85   2.0000      -0.385491       -10.4898
  86   2.0000      -0.382096       -10.3974
  87   2.0000      -0.376106       -10.2344
  88   2.0000      -0.372513       -10.1366
  89   2.0000      -0.359051        -9.7703
  90   2.0000      -0.353961        -9.6318
  91   2.0000      -0.351589        -9.5672
  92   2.0000      -0.350366        -9.5340
  93   2.0000      -0.343118        -9.3367
  94   2.0000      -0.336478        -9.1560
  95   2.0000      -0.334826        -9.1111
  96   2.0000      -0.329900        -8.9770
  97   2.0000      -0.314055        -8.5459
  98   2.0000      -0.299273        -8.1436
  99   2.0000      -0.293976        -7.9995
 100   2.0000      -0.262130        -7.1329
 101   2.0000      -0.256280        -6.9737
 102   2.0000      -0.254405        -6.9227
 103   2.0000      -0.253424        -6.8960
 104   2.0000      -0.246288        -6.7018
 105   2.0000      -0.240282        -6.5384
 106   2.0000      -0.231645        -6.3034
 107   2.0000      -0.219359        -5.9691
 108   2.0000      -0.211155        -5.7458
 109   0.0000      -0.053004        -1.4423
 110   0.0000      -0.046761        -1.2724
 111   0.0000      -0.023728        -0.6457
 112   0.0000      -0.002615        -0.0712
 113   0.0000       0.002214         0.0603

MULLIKEN ATOMIC CHARGES
-----------------------
   0 C :   -0.467170
   1 C :   -0.046190
   2 C :    0.197282
   3 C :   -0.164406
   4 C :   -0.207992
   5 C :    0.406878
   6 F :   -0.322523
   7 C :   -0.208296
   8 C :   -0.154861
   9 N :   -0.452348
  10 C :   -0.222002
  11 C :    0.165710
  12 C :   -0.164222
  13 C :   -0.133794
  14 C :   -0.157904
  15 C :    0.072767
  16 C :    0.518860
  17 O :   -0.458643
  18 O :   -0.625035
  19 C :   -0.174712
  20 C :    0.514506
  21 O :   -0.475234
  22 C :    0.203263
  23 C :   -0.294784
  24 C :    0.401580
  25 C :   -0.196115
  26 C :   -0.122248
  27 C :   -0.174234
  28 C :    0.046838
  29 N :   -0.259361
  30 N :   -0.355233
  31 H :    0.164202
  32 H :    0.160682
  33 H :    0.148110
  34 H :    0.154945
  35 H :    0.126019
  36 H :    0.137030
  37 H :    0.139306
  38 H :    0.132397
  39 H :    0.182357
  40 H :    0.156840
  41 H :    0.124044
  42 H :    0.134167
  43 H :    0.159479
  44 H :    0.426899
  45 H :    0.157779
  46 H :    0.162399
  47 H :    0.156584
  48 H :    0.142183
  49 H :    0.153104
  50 H :    0.191100
Sum of atomic charges:   -0.0000000

LOEWDIN ATOMIC CHARGES
----------------------
   0 C :   -0.358355
   1 C :   -0.042954
   2 C :   -0.014471
   3 C :   -0.126810
   4 C :   -0.158128
   5 C :    0.110948
   6 F :   -0.108459
   7 C :   -0.156357
   8 C :   -0.116168
   9 N :   -0.099948
  10 C :   -0.152745
  11 C :   -0.020125
  12 C :   -0.119058
  13 C :   -0.131887
  14 C :   -0.099641
  15 C :   -0.061039
  16 C :    0.178418
  17 O :   -0.275320
  18 O :   -0.338154
  19 C :   -0.096192
  20 C :    0.143972
  21 O :   -0.271549
  22 C :   -0.034205
  23 C :   -0.178089
  24 C :    0.003371
  25 C :   -0.119980
  26 C :   -0.132028
  27 C :   -0.149103
  28 C :   -0.069525
  29 N :    0.135006
  30 N :   -0.154207
  31 H :    0.134638
  32 H :    0.138000
  33 H :    0.125010
  34 H :    0.134262
  35 H :    0.130257
  36 H :    0.139586
  37 H :    0.140927
  38 H :    0.134801
  39 H :    0.147491
  40 H :    0.129488
  41 H :    0.130056
  42 H :    0.134599
  43 H :    0.149547
  44 H :    0.344780
  45 H :    0.148658
  46 H :    0.156301
  47 H :    0.149014
  48 H :    0.138487
  49 H :    0.146685
  50 H :    0.160197

  Mayer bond orders larger than 0.100000
B(  0-C ,  1-C ) :   1.0013 B(  0-C , 31-H ) :   0.9270 B(  0-C , 32-H ) :   0.9416
B(  0-C , 33-H ) :   0.9395 B(  1-C ,  2-C ) :   0.9450 B(  1-C ,  9-N ) :   0.9306
B(  1-C , 34-H ) :   0.9189 B(  2-C ,  3-C ) :   1.4223 B(  2-C ,  8-C ) :   1.4262
B(  3-C ,  4-C ) :   1.4228 B(  3-C , 35-H ) :   0.9214 B(  4-C ,  5-C ) :   1.3945
B(  4-C , 36-H ) :   0.9221 B(  5-C ,  6-F ) :   0.9129 B(  5-C ,  7-C ) :   1.3956
B(  7-C ,  8-C ) :   1.4200 B(  7-C , 37-H ) :   0.9215 B(  8-C , 38-H ) :   0.9237
B(  9-N , 10-C ) :   0.9534 B(  9-N , 20-C ) :   1.0259 B( 10-C , 11-C ) :   0.9458
B( 10-C , 39-H ) :   0.9094 B( 10-C , 40-H ) :   0.9186 B( 11-C , 12-C ) :   1.4219
B( 11-C , 19-C ) :   1.4032 B( 12-C , 13-C ) :   1.4221 B( 12-C , 41-H ) :   0.9271
B( 13-C , 14-C ) :   1.4392 B( 13-C , 42-H ) :   0.9294 B( 14-C , 15-C ) :   1.3988
B( 14-C , 43-H ) :   0.9137 B( 15-C , 16-C ) :   1.0122 B( 15-C , 19-C ) :   1.3657
B( 16-C , 17-O ) :   1.8551 B( 16-C , 18-O ) :   1.0156 B( 18-O , 44-H ) :   0.7461
B( 19-C , 45-H ) :   0.9015 B( 20-C , 21-O ) :   1.8006 B( 20-C , 22-C ) :   0.9808
B( 22-C , 23-C ) :   1.3798 B( 22-C , 30-N ) :   1.3018 B( 23-C , 24-C ) :   1.3364
B( 23-C , 46-H ) :   0.9285 B( 24-C , 25-C ) :   1.2790 B( 24-C , 29-N ) :   1.0252
B( 25-C , 26-C ) :   1.5357 B( 25-C , 28-C ) :   0.1087 B( 25-C , 47-H ) :   0.9248
B( 26-C , 27-C ) :   1.3101 B( 26-C , 48-H ) :   0.9289 B( 27-C , 28-C ) :   1.5604
B( 27-C , 49-H ) :   0.9293 B( 28-C , 29-N ) :   1.1363 B( 28-C , 50-H ) :   0.9165
B( 29-N , 30-N ) :   1.1912

FINAL SINGLE POINT ENERGY     -1415.491795330479

DIPOLE MOMENT
-------------

Method             : SCF
Type of density    : Electron Density
Multiplicity       :   1
Irrep              :   0
Energy             : -1415.4917953304791354 Eh
Relativity type    :
Basis              : AO
                                X                 Y                 Z
Electronic contribution:     -1.556166312      -5.398350217       8.999652510
Nuclear contribution   :      0.268757207       6.380902189      -9.409586203
                        -----------------------------------------
Total Dipole Moment    :     -1.287409105       0.982551972      -0.409933693
                        -----------------------------------------
Magnitude (a.u.)       :      1.670591576
Magnitude (Debye)      :      4.246306328

Rotational constants in cm-1:             0.006172             0.003116             0.002400
Rotational constants in MHz :           185.033977            93.429422            71.943411

                             ****ORCA TERMINATED NORMALLY****
TOTAL RUN TIME: 0 days 0 hours 9 minutes 0 seconds 371 msec
