                         Program Version 6.0.0  -   RELEASE  -
|  1> ! B3LYP 6-31G* SP
|  2>
|  3> * xyz 0 1
|  4> C -0.9714 -1.3037 -2.0011
|  5> C -0.5606 -1.8139 -0.6092
|  6> C -1.1439 -3.1707 -0.2397
|  7> C -2.3991 -3.6046 -0.7177
|  8> C -2.9214 -4.8396 -0.3232
|  9> C -2.2103 -5.6524 0.5609
| 10> F -2.7212 -6.8486 0.9431
| 11> C -0.9764 -5.2291 1.0574
| 12> C -0.4463 -3.9948 0.6683
| 13> F 0.7477 -3.6030 1.1817
| 14> N -0.8688 -0.8223 0.4391
| 15> C -2.2509 -0.4112 0.7228
| 16> C -2.4017 1.0616 0.4800
| 17> C -2.3804 1.9729 1.5447
| 18> C -2.4631 3.3396 1.2761
| 19> C -2.5541 3.7865 -0.0432
| 20> C -2.5592 2.8507 -1.0889
| 21> C -2.6369 3.2811 -2.4948
| 22> O -2.6365 2.4213 -3.4165
| 23> O -2.7076 4.6335 -2.8166
| 24> N -2.4799 1.5228 -0.7982
| 25> C 0.1733 -0.3773 1.3273
| 26> O 0.0121 -0.4875 2.5733
| 27> C 1.4047 0.2448 0.7972
| 28> C 2.5095 0.4890 1.6292
| 29> C 3.6536 1.0988 1.0978
| 30> C 4.7739 1.3550 1.9041
| 31> C 5.9058 1.9671 1.3571
| 32> C 5.9291 2.3241 0.0054
| 33> C 4.8192 2.0746 -0.8072
| 34> C 3.6781 1.4626 -0.2672
| 35> C 2.5529 1.2044 -1.0585
| 36> N 1.4585 0.6131 -0.5123
| 37> H -0.7566 -2.0783 -2.7676
| 38> H -0.3879 -0.3945 -2.2556
| 39> H -2.0457 -1.0367 -2.0511
| 40> H 0.5427 -1.9477 -0.6757
| 41> H -2.9848 -2.9971 -1.3925
| 42> H -3.8826 -5.1638 -0.7013
| 43> H -0.4303 -5.8565 1.7503
| 44> H -2.5141 -0.6702 1.7715
| 45> H -2.9721 -0.9529 0.0774
| 46> H -2.2944 1.6301 2.5683
| 47> H -2.4503 4.0530 2.0902
| 48> H -2.6133 4.8492 -0.2420
| 49> H -2.7622 4.9360 -3.7820
| 50> H 2.4812 0.2062 2.6753
| 51> H 4.7729 1.0854 2.9537
| 52> H 6.7676 2.1645 1.9818
| 53> H 6.8088 2.7963 -0.4125
| 54> H 4.8520 2.3590 -1.8519
| 55> H 2.5402 1.4730 -2.1075
| 56> *
| 57>
| 58>                          ****END OF INPUT****

CARTESIAN COORDINATES (ANGSTROEM)
---------------------------------
  C     -0.971400   -1.303700   -2.001100
  C     -0.560600   -1.813900   -0.609200
  C     -1.143900   -3.170700   -0.239700
  C     -2.399100   -3.604600   -0.717700
  C     -2.921400   -4.839600   -0.323200
  C     -2.210300   -5.652400    0.560900
  F     -2.721200   -6.848600    0.943100
  C     -0.976400   -5.229100    1.057400
  C     -0.446300   -3.994800    0.668300
  F      0.747700   -3.603000    1.181700
  N     -0.868800   -0.822300    0.439100
  C     -2.250900   -0.411200    0.722800
  C     -2.401700    1.061600    0.480000
  C     -2.380400    1.972900    1.544700
  C     -2.463100    3.339600    1.276100
  C     -2.554100    3.786500   -0.043200
  C     -2.559200    2.850700   -1.088900
  C     -2.636900    3.281100   -2.494800
  O     -2.636500    2.421300   -3.416500
  O     -2.707600    4.633500   -2.816600
  N     -2.479900    1.522800   -0.798200
  C      0.173300   -0.377300    1.327300
  O      0.012100   -0.487500    2.573300
  C      1.404700    0.244800    0.797200
  C      2.509500    0.489000    1.629200
  C      3.653600    1.098800    1.097800
  C      4.773900    1.355000    1.904100
  C      5.905800    1.967100    1.357100
  C      5.929100    2.324100    0.005400
  C      4.819200    2.074600   -0.807200
  C      3.678100    1.462600   -0.267200
  C      2.552900    1.204400   -1.058500
  N      1.458500    0.613100   -0.512300
  H     -0.756600   -2.078300   -2.767600
  H     -0.387900   -0.394500   -2.255600
  H     -2.045700   -1.036700   -2.051100
  H      0.542700   -1.947700   -0.675700
  H     -2.984800   -2.997100   -1.392500
  H     -3.882600   -5.163800   -0.701300
  H     -0.430300   -5.856500    1.750300
  H     -2.514100   -0.670200    1.771500
  H     -2.972100   -0.952900    0.077400
  H     -2.294400    1.630100    2.568300
  H     -2.450300    4.053000    2.090200
  H     -2.613300    4.849200   -0.242000
  H     -2.762200    4.936000   -3.782000
  H      2.481200    0.206200    2.675300
  H      4.772900    1.085400    2.953700
  H      6.767600    2.164500    1.981800
  H      6.808800    2.796300   -0.412500
  H      4.852000    2.359000   -1.851900
  H      2.540200    1.473000   -2.107500

 Total Charge           Charge          ....    0
 Multiplicity           Mult            ....    1
 Number of Electrons    NEL             ....  232
 Basis Dimension        Dim             ....  500

ORBITAL ENERGIES
----------------

  NO   OCC          E(Eh)            E(eV)
   0   2.0000     -24.702759      -672.1962
   1   2.0000     -24.698457      -672.0792
   2   2.0000     -19.183533      -522.0105
   3   2.0000     -19.121258      -520.3159
   4   2.0000     -19.117215      -520.2059
   5   2.0000     -14.333606      -390.0372
   6   2.0000     -14.332259      -390.0006
   7   2.0000     -14.331541      -389.9810
   8   2.0000     -10.318046      -280.7683
   9   2.0000     -10.285584      -279.8850
  10   2.0000     -10.272395      -279.5261
  11   2.0000     -10.271376      -279.4984
  12   2.0000     -10.239145      -278.6213
  13   2.0000     -10.229372      -278.3554
  14   2.0000     -10.227596      -278.3070
  15   2.0000     -10.227086      -278.2932
  16   2.0000     -10.218213      -278.0517
  17   2.0000     -10.215124      -277.9677
  18   2.0000     -10.206758      -277.7400
  19   2.0000     -10.203780      -277.6590
  20   2.0000     -10.203059      -277.6393
  21   2.0000     -10.200643      -277.5736
  22   2.0000     -10.200306      -277.5644
  23   2.0000     -10.199953      -277.5548
  24   2.0000     -10.199188      -277.5340
  25   2.0000     -10.199114      -277.5320
  26   2.0000     -10.198568      -277.5172
  27   2.0000     -10.196910      -277.4720
  28   2.0000     -10.193772      -277.3866
  29   2.0000     -10.193379      -277.3760
  30   2.0000     -10.190601      -277.3004
  31   2.0000     -10.186298      -277.1833
  32   2.0000     -10.149037      -276.1693
  33   2.0000      -1.214350       -33.0442
  34   2.0000      -1.211495       -32.9664
  35   2.0000      -1.067319       -29.0432
  36   2.0000      -1.013241       -27.5717
  37   2.0000      -0.979755       -26.6605
  38   2.0000      -0.938359       -25.5340
  39   2.0000      -0.936823       -25.4923
  40   2.0000      -0.908042       -24.7091
  41   2.0000      -0.868359       -23.6293
  42   2.0000      -0.858421       -23.3588
  43   2.0000      -0.801262       -21.8034
  44   2.0000      -0.797657       -21.7053
  45   2.0000      -0.795388       -21.6436
  46   2.0000      -0.780907       -21.2496
  47   2.0000      -0.769233       -20.9319
  48   2.0000      -0.751595       -20.4519
  49   2.0000      -0.743362       -20.2279
  50   2.0000      -0.719206       -19.5706
  51   2.0000      -0.701018       -19.0757
  52   2.0000      -0.673087       -18.3156
  53   2.0000      -0.658133       -17.9087
  54   2.0000      -0.645537       -17.5659
  55   2.0000      -0.634927       -17.2773
  56   2.0000      -0.618289       -16.8245
  57   2.0000      -0.616945       -16.7879
  58   2.0000      -0.612037       -16.6544
  59   2.0000      -0.603270       -16.4158
  60   2.0000      -0.588591       -16.0164
  61   2.0000      -0.561805       -15.2875
  62   2.0000      -0.550277       -14.9738
  63   2.0000      -0.534757       -14.5515
  64   2.0000      -0.526102       -14.3160
  65   2.0000      -0.518611       -14.1121
  66   2.0000      -0.507105       -13.7990
  67   2.0000      -0.501205       -13.6385
  68   2.0000      -0.492381       -13.3984
  69   2.0000      -0.488440       -13.2911
  70   2.0000      -0.486965       -13.2510
  71   2.0000      -0.484389       -13.1809
  72   2.0000      -0.474104       -12.9010
  73   2.0000      -0.467467       -12.7204
  74   2.0000      -0.465496       -12.6668
  75   2.0000      -0.456019       -12.4089
  76   2.0000      -0.447216       -12.1694
  77   2.0000      -0.446397       -12.1471
  78   2.0000      -0.441034       -12.0011
  79   2.0000      -0.439656       -11.9636
  80   2.0000      -0.435062       -11.8386
  81   2.0000      -0.432534       -11.7698
  82   2.0000      -0.430642       -11.7184
  83   2.0000      -0.426484       -11.6052
  84   2.0000      -0.421528       -11.4704
  85   2.0000      -0.417025       -11.3478
  86   2.0000      -0.412566       -11.2265
  87   2.0000      -0.400614       -10.9013
  88   2.0000      -0.392336       -10.6760
  89   2.0000      -0.385211       -10.4821
  90   2.0000      -0.381814       -10.3897
  91   2.0000      -0.379924       -10.3383
  92   2.0000      -0.376223       -10.2375
  93   2.0000      -0.372059       -10.1242
  94   2.0000      -0.368524       -10.0281
  95   2.0000      -0.367514       -10.0006
  96   2.0000      -0.361206        -9.8289
  97   2.0000      -0.359368        -9.7789
  98   2.0000      -0.356478        -9.7003
  99   2.0000      -0.346644        -9.4326
 100   2.0000      -0.338730        -9.2173
 101   2.0000      -0.335213        -9.1216
 102   2.0000      -0.326495        -8.8844
 103   2.0000      -0.303976        -8.2716
 104   2.0000      -0.300332        -8.1724
 105   2.0000      -0.281850        -7.6695
 106   2.0000      -0.270310        -7.3555
 107   2.0000      -0.264873        -7.2076
 108   2.0000      -0.260396        -7.0857
 109   2.0000      -0.255782        -6.9602
 110   2.0000      -0.251999        -6.8572
 111   2.0000      -0.248961        -6.7746
 112   2.0000      -0.246075        -6.6960
 113   2.0000      -0.236370        -6.4320
 114   2.0000      -0.227374        -6.1872
 115   2.0000      -0.208272        -5.6674
 116   0.0000      -0.069940        -1.9032
 117   0.0000      -0.060553        -1.6477
 118   0.0000      -0.048748        -1.3265
 119   0.0000      -0.024957        -0.6791
 120   0.0000      -0.006470        -0.1761

MULLIKEN ATOMIC CHARGES
-----------------------
   0 C :   -0.448583
   1 C :   -0.067552
   2 C :    0.065972
   3 C :   -0.156141
   4 C :   -0.220026
   5 C :    0.430738
   6 F :   -0.317620
   7 C :   -0.294851
   8 C :    0.395763
   9 F :   -0.312762
  10 N :   -0.398010
  11 C :   -0.213161
  12 C :    0.262103
  13 C :   -0.157041
  14 C :   -0.100198
  15 C :   -0.154568
  16 C :    0.203521
  17 C :    0.537986
  18 O :   -0.429444
  19 O :   -0.629899
  20 N :   -0.408486
  21 C :    0.482061
  22 O :   -0.463179
  23 C :    0.199753
  24 C :   -0.226861
  25 C :    0.174869
  26 C :   -0.187385
  27 C :   -0.129511
  28 C :   -0.124349
  29 C :   -0.202408
  30 C :    0.138493
  31 C :   -0.049693
  32 N :   -0.405834
  33 H :    0.127911
  34 H :    0.186178
  35 H :    0.160008
  36 H :    0.159311
  37 H :    0.151648
  38 H :    0.144753
  39 H :    0.157566
  40 H :    0.168649
  41 H :    0.170316
  42 H :    0.160932
  43 H :    0.146454
  44 H :    0.158559
  45 H :    0.429412
  46 H :    0.165757
  47 H :    0.143754
  48 H :    0.139714
  49 H :    0.138543
  50 H :    0.140483
  51 H :    0.156358
Sum of atomic charges:    0.0000000

LOEWDIN ATOMIC CHARGES
----------------------
   0 C :   -0.364132
   1 C :   -0.048120
   2 C :   -0.057265
   3 C :   -0.119375
   4 C :   -0.167678
   5 C :    0.120951
   6 F :   -0.101732
   7 C :   -0.184983
   8 C :    0.128264
   9 F :   -0.096921
  10 N :   -0.099669
  11 C :   -0.146430
  12 C :    0.026227
  13 C :   -0.125459
  14 C :   -0.103744
  15 C :   -0.120268
  16 C :   -0.007614
  17 C :    0.170916
  18 O :   -0.243826
  19 O :   -0.339786
  20 N :   -0.090705
  21 C :    0.142747
  22 O :   -0.262483
  23 C :   -0.023239
  24 C :   -0.088958
  25 C :   -0.007821
  26 C :   -0.112512
  27 C :   -0.119839
  28 C :   -0.121513
  29 C :   -0.114200
  30 C :   -0.027163
  31 C :   -0.056639
  32 N :   -0.120803
  33 H :    0.118487
  34 H :    0.147233
  35 H :    0.129524
  36 H :    0.140639
  37 H :    0.144076
  38 H :    0.143312
  39 H :    0.153355
  40 H :    0.136651
  41 H :    0.144907
  42 H :    0.147214
  43 H :    0.140027
  44 H :    0.147523
  45 H :    0.346776
  46 H :    0.153750
  47 H :    0.139636
  48 H :    0.137345
  49 H :    0.136688
  50 H :    0.137734
  51 H :    0.138893

  Mayer bond orders larger than 0.100000
B(  0-C ,  1-C ) :   1.0007 B(  0-C , 33-H ) :   0.9403 B(  0-C , 34-H ) :   0.9273
B(  0-C , 35-H ) :   0.9280 B(  1-C ,  2-C ) :   0.9417 B(  1-C , 10-N ) :   0.9491
B(  1-C , 36-H ) :   0.9159 B(  2-C ,  3-C ) :   1.4196 B(  2-C ,  8-C ) :   1.3498
B(  3-C ,  4-C ) :   1.4186 B(  3-C , 37-H ) :   0.9173 B(  4-C ,  5-C ) :   1.3960
B(  4-C , 38-H ) :   0.9205 B(  5-C ,  6-F ) :   0.9119 B(  5-C ,  7-C ) :   1.3711
B(  7-C ,  8-C ) :   1.3682 B(  7-C , 39-H ) :   0.9113 B(  8-C ,  9-F ) :   0.9097
B( 10-N , 11-C ) :   0.9556 B( 10-N , 21-C ) :   1.0198 B( 11-C , 12-C ) :   0.9597
B( 11-C , 40-H ) :   0.9173 B( 11-C , 41-H ) :   0.9164 B( 12-C , 13-C ) :   1.3912
B( 12-C , 20-N ) :   1.4043 B( 13-C , 14-C ) :   1.4433 B( 13-C , 42-H ) :   0.9152
B( 14-C , 15-C ) :   1.4298 B( 14-C , 43-H ) :   0.9284 B( 15-C , 16-C ) :   1.3682
B( 15-C , 44-H ) :   0.9155 B( 16-C , 17-C ) :   0.9922 B( 16-C , 20-N ) :   1.3780
B( 17-C , 18-O ) :   1.8833 B( 17-C , 19-O ) :   1.0197 B( 19-O , 45-H ) :   0.7446
B( 21-C , 22-O ) :   1.8308 B( 21-C , 23-C ) :   0.9780 B( 23-C , 24-C ) :   1.4164
B( 23-C , 32-N ) :   1.2596 B( 24-C , 25-C ) :   1.2578 B( 24-C , 46-H ) :   0.9080
B( 25-C , 26-C ) :   1.2886 B( 25-C , 30-C ) :   1.2957 B( 26-C , 27-C ) :   1.5111
B( 26-C , 29-C ) :   0.1054 B( 26-C , 47-H ) :   0.9233 B( 27-C , 28-C ) :   1.3473
B( 27-C , 48-H ) :   0.9287 B( 28-C , 29-C ) :   1.5106 B( 28-C , 49-H ) :   0.9293
B( 29-C , 30-C ) :   1.2911 B( 29-C , 50-H ) :   0.9230 B( 30-C , 31-C ) :   1.2283
B( 31-C , 32-N ) :   1.5067 B( 31-C , 51-H ) :   0.9261

FINAL SINGLE POINT ENERGY     -1552.791056509089

DIPOLE MOMENT
-------------

Method             : SCF
Type of density    : Electron Density
Multiplicity       :   1
Irrep              :   0
Energy             : -1552.7910565090887758 Eh
Relativity type    :
Basis              : AO
                                X                 Y                 Z
Electronic contribution:     -5.557595656     -15.581582111       5.160644405
Nuclear contribution   :      6.689678403      17.308544854      -5.133780811
                        -----------------------------------------
Total Dipole Moment    :      1.132082747       1.726962743       0.026863594
                        -----------------------------------------
Magnitude (a.u.)       :      2.065123075
Magnitude (Debye)      :      5.249125701

Rotational constants in cm-1:             0.004386             0.003175             0.002153
Rotational constants in MHz :           131.479910            95.195590            64.533841

                             ****ORCA TERMINATED NORMALLY****
TOTAL RUN TIME: 0 days 0 hours 9 minutes 10 seconds 42 msec
