                         Program Version 6.0.0  -   RELEASE  -
|  1> ! B3LYP 6-31G* SP
|  2>
|  3> * xyz -1 1
|  4> C -3.3058 -0.6744 -0.4468
|  5> C -2.3978 -1.4444 0.4869
|  6> C -1.1909 -0.8719 0.9524
|  7> N -0.7680 0.4262 0.5202
|  8> C -0.0982 0.5865 -0.7703
|  9> C 1.3316 0.1613 -0.6617
| 10> N 2.2980 1.0811 -0.3973
| 11> C 3.5964 0.7105 -0.2526
| 12> C 3.9556 -0.6391 -0.3568
| 13> C 5.3903 -1.0700 -0.2355
| 14> C 6.0331 -1.1377 -1.6261
| 15> C 6.7126 0.1383 -2.1021
| 16> C 7.5512 -1.0430 -1.6355
| 17> C 2.9452 -1.5688 -0.6331
| 18> N 1.6596 -1.1540 -0.7719
| 19> S -0.8534 1.7602 1.6260
| 20> O -1.4626 1.3132 2.9262
| 21> O 0.5309 2.2766 1.9031
| 22> C -1.8566 3.0258 0.9281
| 23> C -3.2510 2.9060 0.9585
| 24> C -4.0558 3.8924 0.3814
| 25> C -3.4746 5.0143 -0.2369
| 26> C -4.3210 6.0602 -0.8520
| 27> O -5.5757 5.9555 -0.8433
| 28> O -3.7419 7.1730 -1.4518
| 29> C -2.0735 5.1260 -0.2676
| 30> C -1.2711 4.1367 0.3086
| 31> N -0.4022 -1.5539 1.8239
| 32> C -0.7123 -2.7962 2.2666
| 33> C -1.8761 -3.4290 1.8234
| 34> C -2.1907 -4.7230 2.2671
| 35> C -3.3516 -5.3545 1.8206
| 36> C -4.2059 -4.7015 0.9317
| 37> C -3.9055 -3.4129 0.4818
| 38> C -2.7360 -2.7530 0.9209
| 39> H -4.3261 -0.6121 -0.0138
| 40> H -3.3498 -1.1872 -1.4302
| 41> H -2.9675 0.3665 -0.6193
| 42> H -0.6124 -0.0218 -1.5460
| 43> H -0.1491 1.6475 -1.0977
| 44> H 4.3457 1.4664 -0.0532
| 45> H 5.4397 -2.0797 0.2272
| 46> H 5.9376 -0.3771 0.4433
| 47> H 5.5960 -1.7841 -2.4183
| 48> H 6.7017 0.2789 -3.2040
| 49> H 6.7006 0.9942 -1.3928
| 50> H 8.0420 -0.8858 -0.6501
| 51> H 8.0423 -1.5982 -2.4622
| 52> H 3.1786 -2.6209 -0.7365
| 53> H -3.7152 2.0450 1.4230
| 54> H -5.1318 3.7751 0.4172
| 55> H -1.5959 5.9751 -0.7402
| 56> H -0.1943 4.2363 0.2647
| 57> H -0.0421 -3.2909 2.9591
| 58> H -1.5377 -5.2459 2.9561
| 59> H -3.5898 -6.3531 2.1637
| 60> H -5.1048 -5.1966 0.5873
| 61> H -4.5933 -2.9484 -0.2122
| 62> *
| 63>
| 64>                          ****END OF INPUT****

CARTESIAN COORDINATES (ANGSTROEM)
---------------------------------
  C     -3.305800   -0.674400   -0.446800
  C     -2.397800   -1.444400    0.486900
  C     -1.190900   -0.871900    0.952400
  N     -0.768000    0.426200    0.520200
  C     -0.098200    0.586500   -0.770300
  C      1.331600    0.161300   -0.661700
  N      2.298000    1.081100   -0.397300
  C      3.596400    0.710500   -0.252600
  C      3.955600   -0.639100   -0.356800
  C      5.390300   -1.070000   -0.235500
  C      6.033100   -1.137700   -1.626100
  C      6.712600    0.138300   -2.102100
  C      7.551200   -1.043000   -1.635500
  C      2.945200   -1.568800   -0.633100
  N      1.659600   -1.154000   -0.771900
  S     -0.853400    1.760200    1.626000
  O     -1.462600    1.313200    2.926200
  O      0.530900    2.276600    1.903100
  C     -1.856600    3.025800    0.928100
  C     -3.251000    2.906000    0.958500
  C     -4.055800    3.892400    0.381400
  C     -3.474600    5.014300   -0.236900
  C     -4.321000    6.060200   -0.852000
  O     -5.575700    5.955500   -0.843300
  O     -3.741900    7.173000   -1.451800
  C     -2.073500    5.126000   -0.267600
  C     -1.271100    4.136700    0.308600
  N     -0.402200   -1.553900    1.823900
  C     -0.712300   -2.796200    2.266600
  C     -1.876100   -3.429000    1.823400
  C     -2.190700   -4.723000    2.267100
  C     -3.351600   -5.354500    1.820600
  C     -4.205900   -4.701500    0.931700
  C     -3.905500   -3.412900    0.481800
  C     -2.736000   -2.753000    0.920900
  H     -4.326100   -0.612100   -0.013800
  H     -3.349800   -1.187200   -1.430200
  H     -2.967500    0.366500   -0.619300
  H     -0.612400   -0.021800   -1.546000
  H     -0.149100    1.647500   -1.097700
  H      4.345700    1.466400   -0.053200
  H      5.439700   -2.079700    0.227200
  H      5.937600   -0.377100    0.443300
  H      5.596000   -1.784100   -2.418300
  H      6.701700    0.278900   -3.204000
  H      6.700600    0.994200   -1.392800
  H      8.042000   -0.885800   -0.650100
  H      8.042300   -1.598200   -2.462200
  H      3.178600   -2.620900   -0.736500
  H     -3.715200    2.045000    1.423000
  H     -5.131800    3.775100    0.417200
  H     -1.595900    5.975100   -0.740200
  H     -0.194300    4.236300    0.264700
  H     -0.042100   -3.290900    2.959100
  H     -1.537700   -5.245900    2.956100
  H     -3.589800   -6.353100    2.163700
  H     -5.104800   -5.196600    0.587300
  H     -4.593300   -2.948400   -0.212200

 Total Charge           Charge          ....   -1
 Multiplicity           Mult            ....    1
 Number of Electrons    NEL             ....  256
 Basis Dimension        Dim             ....  540

ORBITAL ENERGIES
----------------

  NO   OCC          E(Eh)            E(eV)
   0   2.0000     -88.993334     -2421.6317
   1   2.0000     -19.023171      -517.6468
   2   2.0000     -19.018523      -517.5203
   3   2.0000     -18.904133      -514.4076
   4   2.0000     -18.882876      -513.8292
   5   2.0000     -14.280838      -388.6014
   6   2.0000     -14.262011      -388.0891
   7   2.0000     -14.258171      -387.9846
   8   2.0000     -14.254583      -387.8869
   9   2.0000     -10.183359      -277.1033
  10   2.0000     -10.183124      -277.0969
  11   2.0000     -10.163618      -276.5661
  12   2.0000     -10.161285      -276.5026
  13   2.0000     -10.157121      -276.3893
  14   2.0000     -10.151632      -276.2399
  15   2.0000     -10.146382      -276.0971
  16   2.0000     -10.140651      -275.9411
  17   2.0000     -10.137676      -275.8602
  18   2.0000     -10.136704      -275.8338
  19   2.0000     -10.136489      -275.8279
  20   2.0000     -10.136164      -275.8190
  21   2.0000     -10.136000      -275.8146
  22   2.0000     -10.134443      -275.7722
  23   2.0000     -10.133901      -275.7575
  24   2.0000     -10.132891      -275.7300
  25   2.0000     -10.131692      -275.6974
  26   2.0000     -10.131349      -275.6880
  27   2.0000     -10.112450      -275.1738
  28   2.0000     -10.112199      -275.1669
  29   2.0000     -10.091335      -274.5992
  30   2.0000     -10.089271      -274.5430
  31   2.0000     -10.088343      -274.5178
  32   2.0000     -10.072596      -274.0893
  33   2.0000     -10.070923      -274.0437
  34   2.0000     -10.069009      -273.9917
  35   2.0000      -8.029006      -218.4804
  36   2.0000      -5.994504      -163.1188
  37   2.0000      -5.992081      -163.0528
  38   2.0000      -5.991098      -163.0261
  39   2.0000      -0.980073       -26.6691
  40   2.0000      -0.899753       -24.4835
  41   2.0000      -0.879014       -23.9192
  42   2.0000      -0.857951       -23.3460
  43   2.0000      -0.833253       -22.6740
  44   2.0000      -0.813782       -22.1441
  45   2.0000      -0.810116       -22.0444
  46   2.0000      -0.796322       -21.6690
  47   2.0000      -0.795051       -21.6344
  48   2.0000      -0.753273       -20.4976
  49   2.0000      -0.746992       -20.3267
  50   2.0000      -0.736389       -20.0382
  51   2.0000      -0.708751       -19.2861
  52   2.0000      -0.694170       -18.8893
  53   2.0000      -0.681135       -18.5346
  54   2.0000      -0.672174       -18.2908
  55   2.0000      -0.657807       -17.8998
  56   2.0000      -0.640116       -17.4184
  57   2.0000      -0.631092       -17.1729
  58   2.0000      -0.615663       -16.7531
  59   2.0000      -0.589314       -16.0360
  60   2.0000      -0.581801       -15.8316
  61   2.0000      -0.576678       -15.6922
  62   2.0000      -0.550669       -14.9845
  63   2.0000      -0.540550       -14.7091
  64   2.0000      -0.535017       -14.5586
  65   2.0000      -0.527428       -14.3520
  66   2.0000      -0.517396       -14.0791
  67   2.0000      -0.498157       -13.5555
  68   2.0000      -0.496549       -13.5118
  69   2.0000      -0.465433       -12.6651
  70   2.0000      -0.460738       -12.5373
  71   2.0000      -0.452726       -12.3193
  72   2.0000      -0.448112       -12.1937
  73   2.0000      -0.439660       -11.9638
  74   2.0000      -0.431589       -11.7441
  75   2.0000      -0.427100       -11.6220
  76   2.0000      -0.412931       -11.2364
  77   2.0000      -0.408228       -11.1084
  78   2.0000      -0.402505       -10.9527
  79   2.0000      -0.383854       -10.4452
  80   2.0000      -0.382564       -10.4101
  81   2.0000      -0.375289       -10.2121
  82   2.0000      -0.371028       -10.0962
  83   2.0000      -0.362789        -9.8720
  84   2.0000      -0.361195        -9.8286
  85   2.0000      -0.357138        -9.7182
  86   2.0000      -0.352309        -9.5868
  87   2.0000      -0.350356        -9.5337
  88   2.0000      -0.338372        -9.2076
  89   2.0000      -0.336112        -9.1461
  90   2.0000      -0.333535        -9.0759
  91   2.0000      -0.332616        -9.0509
  92   2.0000      -0.327408        -8.9092
  93   2.0000      -0.323195        -8.7946
  94   2.0000      -0.322502        -8.7757
  95   2.0000      -0.318949        -8.6790
  96   2.0000      -0.314869        -8.5680
  97   2.0000      -0.313693        -8.5360
  98   2.0000      -0.311577        -8.4784
  99   2.0000      -0.301521        -8.2048
 100   2.0000      -0.288372        -7.8470
 101   2.0000      -0.284743        -7.7483
 102   2.0000      -0.282022        -7.6742
 103   2.0000      -0.269697        -7.3388
 104   2.0000      -0.243817        -6.6346
 105   2.0000      -0.241260        -6.5650
 106   2.0000      -0.235606        -6.4112
 107   2.0000      -0.231414        -6.2971
 108   2.0000      -0.229588        -6.2474
 109   2.0000      -0.226036        -6.1507
 110   2.0000      -0.221868        -6.0373
 111   2.0000      -0.217167        -5.9094
 112   2.0000      -0.208116        -5.6631
 113   2.0000      -0.205601        -5.5947
 114   2.0000      -0.198988        -5.4147
 115   2.0000      -0.189666        -5.1611
 116   2.0000      -0.188185        -5.1208
 117   2.0000      -0.183267        -4.9870
 118   2.0000      -0.175655        -4.7798
 119   2.0000      -0.172683        -4.6989
 120   2.0000      -0.163290        -4.4434
 121   2.0000      -0.154752        -4.2110
 122   2.0000      -0.152373        -4.1463
 123   2.0000      -0.146654        -3.9907
 124   2.0000      -0.126602        -3.4450
 125   2.0000      -0.058259        -1.5853
 126   2.0000      -0.036433        -0.9914
 127   2.0000      -0.019730        -0.5369
 128   0.0000       0.007158         0.1948
 129   0.0000       0.031072         0.8455
 130   0.0000       0.038641         1.0515
 131   0.0000       0.043715         1.1895
 132   0.0000       0.070284         1.9125

MULLIKEN ATOMIC CHARGES
-----------------------
   0 C :   -0.548920
   1 C :    0.100526
   2 C :    0.343704
   3 N :   -0.617596
   4 C :   -0.207692
   5 C :    0.391107
   6 N :   -0.353144
   7 C :   -0.000629
   8 C :    0.149548
   9 C :   -0.375141
  10 C :   -0.070237
  11 C :   -0.301455
  12 C :   -0.314710
  13 C :   -0.006782
  14 N :   -0.383215
  15 S :    1.186995
  16 O :   -0.556804
  17 O :   -0.544369
  18 C :   -0.150165
  19 C :   -0.152859
  20 C :   -0.160035
  21 C :    0.104984
  22 C :    0.410307
  23 O :   -0.552415
  24 O :   -0.658694
  25 C :   -0.151246
  26 C :   -0.161032
  27 N :   -0.360252
  28 C :   -0.050792
  29 C :    0.138926
  30 C :   -0.203822
  31 C :   -0.129558
  32 C :   -0.124083
  33 C :   -0.198618
  34 C :    0.123626
  35 H :    0.164641
  36 H :    0.151376
  37 H :    0.194874
  38 H :    0.165898
  39 H :    0.194382
  40 H :    0.143169
  41 H :    0.141853
  42 H :    0.141332
  43 H :    0.141673
  44 H :    0.145342
  45 H :    0.149333
  46 H :    0.143971
  47 H :    0.139148
  48 H :    0.135423
  49 H :    0.139837
  50 H :    0.144353
  51 H :    0.152301
  52 H :    0.156114
  53 H :    0.138070
  54 H :    0.125818
  55 H :    0.118062
  56 H :    0.122543
  57 H :    0.135028
Sum of atomic charges:   -1.0000000

LOEWDIN ATOMIC CHARGES
----------------------
   0 C :   -0.362592
   1 C :   -0.012485
   2 C :    0.048112
   3 N :   -0.285386
   4 C :   -0.149367
   5 C :    0.053484
   6 N :   -0.117279
   7 C :   -0.049701
   8 C :   -0.048680
   9 C :   -0.213387
  10 C :   -0.131598
  11 C :   -0.255693
  12 C :   -0.262502
  13 C :   -0.058994
  14 N :   -0.141408
  15 S :    1.261867
  16 O :   -0.585391
  17 O :   -0.580109
  18 C :   -0.216242
  19 C :   -0.126316
  20 C :   -0.115048
  21 C :   -0.003814
  22 C :    0.070924
  23 O :   -0.377904
  24 O :   -0.507008
  25 C :   -0.108862
  26 C :   -0.128634
  27 N :   -0.104154
  28 C :   -0.063230
  29 C :   -0.028736
  30 C :   -0.116054
  31 C :   -0.137390
  32 C :   -0.127730
  33 C :   -0.124044
  34 C :   -0.006586
  35 H :    0.138480
  36 H :    0.131775
  37 H :    0.150291
  38 H :    0.139012
  39 H :    0.156008
  40 H :    0.132935
  41 H :    0.125680
  42 H :    0.128197
  43 H :    0.130366
  44 H :    0.131068
  45 H :    0.130799
  46 H :    0.128968
  47 H :    0.127502
  48 H :    0.128861
  49 H :    0.136422
  50 H :    0.145354
  51 H :    0.150292
  52 H :    0.144631
  53 H :    0.130696
  54 H :    0.131046
  55 H :    0.127044
  56 H :    0.129439
  57 H :    0.137072

  Mayer bond orders larger than 0.100000
B(  0-C ,  1-C ) :   0.9952 B(  0-C , 35-H ) :   0.9287 B(  0-C , 36-H ) :   0.9287
B(  0-C , 37-H ) :   0.9213 B(  1-C ,  2-C ) :   1.4402 B(  1-C , 28-C ) :   0.1043
B(  1-C , 34-C ) :   1.2636 B(  2-C ,  3-N ) :   0.9064 B(  2-C , 27-N ) :   1.2783
B(  3-N ,  4-C ) :   0.9613 B(  3-N , 15-S ) :   0.7649 B(  4-C ,  5-C ) :   0.9465
B(  4-C , 38-H ) :   0.9210 B(  4-C , 39-H ) :   0.9113 B(  5-C ,  6-N ) :   1.4111
B(  5-C , 14-N ) :   1.3837 B(  6-N ,  7-C ) :   1.4391 B(  7-C ,  8-C ) :   1.3736
B(  7-C , 40-H ) :   0.9282 B(  8-C ,  9-C ) :   0.9677 B(  8-C , 13-C ) :   1.3826
B(  9-C , 10-C ) :   1.0038 B(  9-C , 41-H ) :   0.9303 B(  9-C , 42-H ) :   0.9308
B( 10-C , 11-C ) :   0.9577 B( 10-C , 12-C ) :   0.9472 B( 10-C , 43-H ) :   0.9335
B( 11-C , 12-C ) :   0.9620 B( 11-C , 44-H ) :   0.9469 B( 11-C , 45-H ) :   0.9443
B( 12-C , 46-H ) :   0.9451 B( 12-C , 47-H ) :   0.9474 B( 13-C , 14-N ) :   1.4383
B( 13-C , 48-H ) :   0.9302 B( 15-S , 16-O ) :   1.6314 B( 15-S , 17-O ) :   1.6509
B( 15-S , 18-C ) :   0.8404 B( 18-C , 19-C ) :   1.3607 B( 18-C , 26-C ) :   1.3672
B( 19-C , 20-C ) :   1.4178 B( 19-C , 49-H ) :   0.9208 B( 20-C , 21-C ) :   1.3834
B( 20-C , 50-H ) :   0.9078 B( 21-C , 22-C ) :   0.9273 B( 21-C , 25-C ) :   1.4062
B( 22-C , 23-O ) :   1.7075 B( 22-C , 24-O ) :   1.5505 B( 23-O , 24-O ) :   0.1480
B( 25-C , 26-C ) :   1.3957 B( 25-C , 51-H ) :   0.9018 B( 26-C , 52-H ) :   0.9173
B( 27-N , 28-C ) :   1.5022 B( 28-C , 29-C ) :   1.2324 B( 28-C , 53-H ) :   0.9295
B( 29-C , 30-C ) :   1.2850 B( 29-C , 34-C ) :   1.2909 B( 30-C , 31-C ) :   1.5131
B( 30-C , 33-C ) :   0.1064 B( 30-C , 54-H ) :   0.9248 B( 31-C , 32-C ) :   1.3524
B( 31-C , 55-H ) :   0.9320 B( 32-C , 33-C ) :   1.5107 B( 32-C , 56-H ) :   0.9315
B( 33-C , 34-C ) :   1.2929 B( 33-C , 57-H ) :   0.9165

FINAL SINGLE POINT ENERGY     -1921.628118067189

DIPOLE MOMENT
-------------

Method             : SCF
Type of density    : Electron Density
Multiplicity       :   1
Irrep              :   0
Energy             : -1921.6281180671892344 Eh
Relativity type    :
Basis              : AO
                                X                 Y                 Z
Electronic contribution:    -20.764021676      13.085759811      11.932776004
Nuclear contribution   :     26.567346493     -23.364110656     -11.804313765
                        -----------------------------------------
Total Dipole Moment    :      5.803324817     -10.278350844       0.128462239
                        -----------------------------------------
Magnitude (a.u.)       :     11.804218634
Magnitude (Debye)      :     30.003939316

Rotational constants in cm-1:             0.003581             0.002407             0.001575
Rotational constants in MHz :           107.342707            72.173123            47.211710

                             ****ORCA TERMINATED NORMALLY****
TOTAL RUN TIME: 0 days 0 hours 11 minutes 49 seconds 284 msec
