                         Program Version 6.0.0  -   RELEASE  -
|  1> ! B3LYP 6-31G* SP
|  2>
|  3> * xyz -1 1
|  4> C -0.8532 0.5787 1.9081
|  5> C -1.7784 -0.0801 0.9232
|  6> C -2.8935 -0.7860 1.3969
|  7> C -3.7679 -1.4103 0.5000
|  8> C -4.8793 -2.1319 0.9579
|  9> C -5.7338 -2.7524 0.0447
| 10> C -5.4873 -2.6584 -1.3275
| 11> C -4.3800 -1.9369 -1.8055
| 12> C -4.1217 -1.8441 -3.2845
| 13> C -3.5164 -1.3097 -0.8856
| 14> N -2.4396 -0.6019 -1.3212
| 15> C -1.5808 0.0206 -0.4702
| 16> N -0.4676 0.7405 -1.0139
| 17> C 0.5934 0.0081 -1.7074
| 18> C 1.4549 -0.7151 -0.7091
| 19> C 1.0883 -1.9904 -0.2535
| 20> C 1.8485 -2.6374 0.7249
| 21> C 2.9866 -2.0110 1.2696
| 22> O 3.7863 -2.6124 2.2549
| 23> C 3.5678 -3.9062 2.8154
| 24> F 4.5556 -4.1629 3.7460
| 25> F 2.3373 -3.9513 3.4474
| 26> F 3.6262 -4.8711 1.8250
| 27> C 3.3432 -0.7350 0.8180
| 28> C 2.5839 -0.0886 -0.1606
| 29> S -0.5502 2.4716 -1.1373
| 30> O -1.6356 3.0009 -0.2416
| 31> O -0.8742 2.8563 -2.5540
| 32> C 0.9893 3.1790 -0.6558
| 33> C 1.2502 3.4487 0.6931
| 34> C 2.4892 3.9647 1.0824
| 35> C 3.4878 4.2182 0.1261
| 36> C 4.8030 4.7517 0.5430
| 37> O 5.7042 4.9728 -0.3095
| 38> O 5.0644 5.0138 1.8832
| 39> C 3.2179 3.9520 -1.2283
| 40> C 1.9772 3.4373 -1.6149
| 41> H -1.2348 1.5913 2.1517
| 42> H -0.7948 -0.0157 2.8445
| 43> H 0.1760 0.6616 1.5042
| 44> H -3.0733 -0.8553 2.4640
| 45> H -5.0850 -2.2175 2.0182
| 46> H -6.5899 -3.3110 0.4014
| 47> H -6.1631 -3.1492 -2.0166
| 48> H -4.1105 -0.7784 -3.5968
| 49> H -4.9041 -2.3714 -3.8713
| 50> H -3.1387 -2.3032 -3.5212
| 51> H 1.2174 0.7025 -2.3090
| 52> H 0.1459 -0.7137 -2.4250
| 53> H 0.2070 -2.4802 -0.6496
| 54> H 1.5375 -3.6193 1.0516
| 55> H 4.2128 -0.2395 1.2313
| 56> H 2.8762 0.9006 -0.4861
| 57> H 0.4981 3.2558 1.4464
| 58> H 2.6658 4.1602 2.1326
| 59> H 3.9674 4.1342 -1.9887
| 60> H 1.7947 3.2263 -2.6609
| 61> *
| 62>
| 63>                          ****END OF INPUT****

CARTESIAN COORDINATES (ANGSTROEM)
---------------------------------
  C     -0.853200    0.578700    1.908100
  C     -1.778400   -0.080100    0.923200
  C     -2.893500   -0.786000    1.396900
  C     -3.767900   -1.410300    0.500000
  C     -4.879300   -2.131900    0.957900
  C     -5.733800   -2.752400    0.044700
  C     -5.487300   -2.658400   -1.327500
  C     -4.380000   -1.936900   -1.805500
  C     -4.121700   -1.844100   -3.284500
  C     -3.516400   -1.309700   -0.885600
  N     -2.439600   -0.601900   -1.321200
  C     -1.580800    0.020600   -0.470200
  N     -0.467600    0.740500   -1.013900
  C      0.593400    0.008100   -1.707400
  C      1.454900   -0.715100   -0.709100
  C      1.088300   -1.990400   -0.253500
  C      1.848500   -2.637400    0.724900
  C      2.986600   -2.011000    1.269600
  O      3.786300   -2.612400    2.254900
  C      3.567800   -3.906200    2.815400
  F      4.555600   -4.162900    3.746000
  F      2.337300   -3.951300    3.447400
  F      3.626200   -4.871100    1.825000
  C      3.343200   -0.735000    0.818000
  C      2.583900   -0.088600   -0.160600
  S     -0.550200    2.471600   -1.137300
  O     -1.635600    3.000900   -0.241600
  O     -0.874200    2.856300   -2.554000
  C      0.989300    3.179000   -0.655800
  C      1.250200    3.448700    0.693100
  C      2.489200    3.964700    1.082400
  C      3.487800    4.218200    0.126100
  C      4.803000    4.751700    0.543000
  O      5.704200    4.972800   -0.309500
  O      5.064400    5.013800    1.883200
  C      3.217900    3.952000   -1.228300
  C      1.977200    3.437300   -1.614900
  H     -1.234800    1.591300    2.151700
  H     -0.794800   -0.015700    2.844500
  H      0.176000    0.661600    1.504200
  H     -3.073300   -0.855300    2.464000
  H     -5.085000   -2.217500    2.018200
  H     -6.589900   -3.311000    0.401400
  H     -6.163100   -3.149200   -2.016600
  H     -4.110500   -0.778400   -3.596800
  H     -4.904100   -2.371400   -3.871300
  H     -3.138700   -2.303200   -3.521200
  H      1.217400    0.702500   -2.309000
  H      0.145900   -0.713700   -2.425000
  H      0.207000   -2.480200   -0.649600
  H      1.537500   -3.619300    1.051600
  H      4.212800   -0.239500    1.231300
  H      2.876200    0.900600   -0.486100
  H      0.498100    3.255800    1.446400
  H      2.665800    4.160200    2.132600
  H      3.967400    4.134200   -1.988700
  H      1.794700    3.226300   -2.660900

 Total Charge           Charge          ....   -1
 Multiplicity           Mult            ....    1
 Number of Electrons    NEL             ....  274
 Basis Dimension        Dim             ....  562

ORBITAL ENERGIES
----------------

  NO   OCC          E(Eh)            E(eV)
   0   2.0000     -89.005515     -2421.9632
   1   2.0000     -24.685432      -671.7248
   2   2.0000     -24.682606      -671.6479
   3   2.0000     -24.682283      -671.6391
   4   2.0000     -19.149527      -521.0851
   5   2.0000     -19.036404      -518.0069
   6   2.0000     -19.031471      -517.8726
   7   2.0000     -18.913215      -514.6547
   8   2.0000     -18.892701      -514.0965
   9   2.0000     -14.287344      -388.7784
  10   2.0000     -14.260478      -388.0473
  11   2.0000     -10.446044      -284.2513
  12   2.0000     -10.200108      -277.5591
  13   2.0000     -10.194201      -277.3983
  14   2.0000     -10.156826      -276.3813
  15   2.0000     -10.153864      -276.3007
  16   2.0000     -10.136232      -275.8209
  17   2.0000     -10.134821      -275.7825
  18   2.0000     -10.132187      -275.7108
  19   2.0000     -10.131019      -275.6790
  20   2.0000     -10.129672      -275.6424
  21   2.0000     -10.129462      -275.6367
  22   2.0000     -10.127305      -275.5780
  23   2.0000     -10.127080      -275.5718
  24   2.0000     -10.126628      -275.5596
  25   2.0000     -10.125660      -275.5332
  26   2.0000     -10.125206      -275.5209
  27   2.0000     -10.124687      -275.5067
  28   2.0000     -10.121646      -275.4240
  29   2.0000     -10.114159      -275.2202
  30   2.0000     -10.104726      -274.9636
  31   2.0000     -10.103161      -274.9210
  32   2.0000     -10.100671      -274.8532
  33   2.0000     -10.098689      -274.7993
  34   2.0000     -10.083842      -274.3953
  35   2.0000     -10.082896      -274.3695
  36   2.0000     -10.081180      -274.3229
  37   2.0000      -8.041314      -218.8153
  38   2.0000      -6.006706      -163.4508
  39   2.0000      -6.004341      -163.3864
  40   2.0000      -6.003518      -163.3640
  41   2.0000      -1.247570       -33.9481
  42   2.0000      -1.168619       -31.7998
  43   2.0000      -1.168322       -31.7916
  44   2.0000      -1.019383       -27.7388
  45   2.0000      -0.992520       -27.0078
  46   2.0000      -0.889877       -24.2148
  47   2.0000      -0.871232       -23.7074
  48   2.0000      -0.844067       -22.9682
  49   2.0000      -0.822592       -22.3839
  50   2.0000      -0.795473       -21.6459
  51   2.0000      -0.782977       -21.3059
  52   2.0000      -0.765005       -20.8168
  53   2.0000      -0.753104       -20.4930
  54   2.0000      -0.717543       -19.5253
  55   2.0000      -0.706963       -19.2374
  56   2.0000      -0.703737       -19.1497
  57   2.0000      -0.693700       -18.8765
  58   2.0000      -0.688129       -18.7249
  59   2.0000      -0.673873       -18.3370
  60   2.0000      -0.656978       -17.8773
  61   2.0000      -0.652093       -17.7443
  62   2.0000      -0.628542       -17.1035
  63   2.0000      -0.619067       -16.8457
  64   2.0000      -0.614412       -16.7190
  65   2.0000      -0.597084       -16.2475
  66   2.0000      -0.570157       -15.5148
  67   2.0000      -0.558408       -15.1951
  68   2.0000      -0.548093       -14.9144
  69   2.0000      -0.543285       -14.7835
  70   2.0000      -0.539682       -14.6855
  71   2.0000      -0.531866       -14.4728
  72   2.0000      -0.520234       -14.1563
  73   2.0000      -0.510025       -13.8785
  74   2.0000      -0.505186       -13.7468
  75   2.0000      -0.503360       -13.6971
  76   2.0000      -0.465813       -12.6754
  77   2.0000      -0.456949       -12.4342
  78   2.0000      -0.444973       -12.1083
  79   2.0000      -0.430960       -11.7270
  80   2.0000      -0.426432       -11.6038
  81   2.0000      -0.425133       -11.5685
  82   2.0000      -0.418896       -11.3987
  83   2.0000      -0.413525       -11.2526
  84   2.0000      -0.412230       -11.2173
  85   2.0000      -0.403321       -10.9749
  86   2.0000      -0.397803       -10.8248
  87   2.0000      -0.387901       -10.5553
  88   2.0000      -0.387243       -10.5374
  89   2.0000      -0.381460       -10.3801
  90   2.0000      -0.380940       -10.3659
  91   2.0000      -0.374411       -10.1883
  92   2.0000      -0.365825        -9.9546
  93   2.0000      -0.364808        -9.9269
  94   2.0000      -0.362401        -9.8614
  95   2.0000      -0.360661        -9.8141
  96   2.0000      -0.358870        -9.7654
  97   2.0000      -0.357583        -9.7303
  98   2.0000      -0.348511        -9.4835
  99   2.0000      -0.344095        -9.3633
 100   2.0000      -0.343352        -9.3431
 101   2.0000      -0.336981        -9.1697
 102   2.0000      -0.334504        -9.1023
 103   2.0000      -0.332325        -9.0430
 104   2.0000      -0.326061        -8.8726
 105   2.0000      -0.320454        -8.7200
 106   2.0000      -0.320367        -8.7176
 107   2.0000      -0.313989        -8.5441
 108   2.0000      -0.308369        -8.3912
 109   2.0000      -0.303911        -8.2698
 110   2.0000      -0.299185        -8.1412
 111   2.0000      -0.291590        -7.9346
 112   2.0000      -0.285907        -7.7799
 113   2.0000      -0.282507        -7.6874
 114   2.0000      -0.278872        -7.5885
 115   2.0000      -0.276945        -7.5361
 116   2.0000      -0.269498        -7.3334
 117   2.0000      -0.252445        -6.8694
 118   2.0000      -0.237439        -6.4611
 119   2.0000      -0.235883        -6.4187
 120   2.0000      -0.228654        -6.2220
 121   2.0000      -0.219784        -5.9806
 122   2.0000      -0.210140        -5.7182
 123   2.0000      -0.202703        -5.5158
 124   2.0000      -0.196701        -5.3525
 125   2.0000      -0.192433        -5.2364
 126   2.0000      -0.191678        -5.2158
 127   2.0000      -0.185549        -5.0490
 128   2.0000      -0.182681        -4.9710
 129   2.0000      -0.173372        -4.7177
 130   2.0000      -0.162137        -4.4120
 131   2.0000      -0.158828        -4.3219
 132   2.0000      -0.154085        -4.1929
 133   2.0000      -0.138249        -3.7619
 134   2.0000      -0.067374        -1.8333
 135   2.0000      -0.045541        -1.2392
 136   2.0000      -0.028996        -0.7890
 137   0.0000       0.001817         0.0494
 138   0.0000       0.044890         1.2215
 139   0.0000       0.055069         1.4985
 140   0.0000       0.056077         1.5259
 141   0.0000       0.061864         1.6834

MULLIKEN ATOMIC CHARGES
-----------------------
   0 C :   -0.547283
   1 C :    0.180866
   2 C :   -0.218991
   3 C :    0.186390
   4 C :   -0.211733
   5 C :   -0.124990
   6 C :   -0.193473
   7 C :    0.152379
   8 C :   -0.505148
   9 C :    0.142164
  10 N :   -0.451979
  11 C :    0.348453
  12 N :   -0.611616
  13 C :   -0.244804
  14 C :    0.161675
  15 C :   -0.174519
  16 C :   -0.192526
  17 C :    0.346277
  18 O :   -0.543689
  19 C :    1.082923
  20 F :   -0.283136
  21 F :   -0.294602
  22 F :   -0.295191
  23 C :   -0.177859
  24 C :   -0.174963
  25 S :    1.196728
  26 O :   -0.571417
  27 O :   -0.546518
  28 C :   -0.156185
  29 C :   -0.148389
  30 C :   -0.153387
  31 C :    0.103671
  32 C :    0.411380
  33 O :   -0.549174
  34 O :   -0.653512
  35 C :   -0.161553
  36 C :   -0.163172
  37 H :    0.192667
  38 H :    0.140115
  39 H :    0.182774
  40 H :    0.129037
  41 H :    0.118733
  42 H :    0.115277
  43 H :    0.114672
  44 H :    0.180765
  45 H :    0.129867
  46 H :    0.159801
  47 H :    0.176923
  48 H :    0.169452
  49 H :    0.138604
  50 H :    0.138817
  51 H :    0.168435
  52 H :    0.178411
  53 H :    0.147441
  54 H :    0.156200
  55 H :    0.150587
  56 H :    0.148327
Sum of atomic charges:   -1.0000000

LOEWDIN ATOMIC CHARGES
----------------------
   0 C :   -0.362354
   1 C :   -0.013267
   2 C :   -0.101172
   3 C :   -0.023728
   4 C :   -0.134451
   5 C :   -0.133870
   6 C :   -0.142507
   7 C :   -0.007578
   8 C :   -0.346556
   9 C :    0.008026
  10 N :   -0.126353
  11 C :    0.063196
  12 N :   -0.287003
  13 C :   -0.145265
  14 C :   -0.038915
  15 C :   -0.128264
  16 C :   -0.166372
  17 C :    0.080429
  18 O :   -0.159815
  19 C :    0.358264
  20 F :   -0.090984
  21 F :   -0.108140
  22 F :   -0.108682
  23 C :   -0.135835
  24 C :   -0.115090
  25 S :    1.262062
  26 O :   -0.590369
  27 O :   -0.584299
  28 C :   -0.217709
  29 C :   -0.123354
  30 C :   -0.107333
  31 C :   -0.003276
  32 C :    0.070527
  33 O :   -0.375095
  34 O :   -0.501967
  35 C :   -0.118102
  36 C :   -0.131547
  37 H :    0.151120
  38 H :    0.125646
  39 H :    0.146377
  40 H :    0.133886
  41 H :    0.127257
  42 H :    0.126031
  43 H :    0.126963
  44 H :    0.148177
  45 H :    0.118688
  46 H :    0.138016
  47 H :    0.145385
  48 H :    0.135065
  49 H :    0.136532
  50 H :    0.135523
  51 H :    0.154046
  52 H :    0.156687
  53 H :    0.140735
  54 H :    0.152189
  55 H :    0.148236
  56 H :    0.140189

  Mayer bond orders larger than 0.100000
B(  0-C ,  1-C ) :   0.9946 B(  0-C , 37-H ) :   0.9146 B(  0-C , 38-H ) :   0.9416
B(  0-C , 39-H ) :   0.9211 B(  1-C ,  2-C ) :   1.4691 B(  1-C , 11-C ) :   1.2979
B(  2-C ,  3-C ) :   1.2862 B(  2-C , 40-H ) :   0.9204 B(  3-C ,  4-C ) :   1.2810
B(  3-C ,  9-C ) :   1.2303 B(  4-C ,  5-C ) :   1.5123 B(  4-C ,  7-C ) :   0.1016
B(  4-C , 41-H ) :   0.9267 B(  5-C ,  6-C ) :   1.3339 B(  5-C , 42-H ) :   0.9314
B(  6-C ,  7-C ) :   1.5243 B(  6-C , 43-H ) :   0.9250 B(  7-C ,  8-C ) :   1.0027
B(  7-C ,  9-C ) :   1.2686 B(  8-C , 44-H ) :   0.9281 B(  8-C , 45-H ) :   0.9454
B(  8-C , 46-H ) :   0.9325 B(  9-C , 10-N ) :   1.3029 B( 10-N , 11-C ) :   1.4242
B( 11-C , 12-N ) :   0.9153 B( 12-N , 13-C ) :   0.9260 B( 12-N , 25-S ) :   0.7810
B( 13-C , 14-C ) :   0.9461 B( 13-C , 47-H ) :   0.9184 B( 13-C , 48-H ) :   0.9195
B( 14-C , 15-C ) :   1.4347 B( 14-C , 24-C ) :   1.4210 B( 15-C , 16-C ) :   1.4276
B( 15-C , 49-H ) :   0.9207 B( 16-C , 17-C ) :   1.3957 B( 16-C , 50-H ) :   0.9126
B( 17-C , 18-O ) :   0.8132 B( 17-C , 23-C ) :   1.4112 B( 18-O , 19-C ) :   1.0039
B( 19-C , 20-F ) :   1.0038 B( 19-C , 21-F ) :   0.9648 B( 19-C , 22-F ) :   0.9647
B( 23-C , 24-C ) :   1.4429 B( 23-C , 51-H ) :   0.9147 B( 24-C , 52-H ) :   0.9033
B( 25-S , 26-O ) :   1.5962 B( 25-S , 27-O ) :   1.6617 B( 25-S , 28-C ) :   0.8412
B( 28-C , 29-C ) :   1.3625 B( 28-C , 36-C ) :   1.3623 B( 29-C , 30-C ) :   1.4074
B( 29-C , 53-H ) :   0.9172 B( 30-C , 31-C ) :   1.3971 B( 30-C , 54-H ) :   0.9006
B( 31-C , 32-C ) :   0.9269 B( 31-C , 35-C ) :   1.3851 B( 32-C , 33-O ) :   1.7075
B( 32-C , 34-O ) :   1.5492 B( 33-O , 34-O ) :   0.1500 B( 35-C , 36-C ) :   1.4020
B( 35-C , 55-H ) :   0.9066 B( 36-C , 56-H ) :   0.9184

FINAL SINGLE POINT ENERGY     -2185.057644853626

DIPOLE MOMENT
-------------

Method             : SCF
Type of density    : Electron Density
Multiplicity       :   1
Irrep              :   0
Energy             : -2185.0576448536262433 Eh
Relativity type    :
Basis              : AO
                                X                 Y                 Z
Electronic contribution:     27.115351247     -15.749665333      17.467572466
Nuclear contribution   :    -32.823448398       7.445856910     -17.506196772
                        -----------------------------------------
Total Dipole Moment    :     -5.708097151      -8.303808423      -0.038624306
                        -----------------------------------------
Magnitude (a.u.)       :     10.076561876
Magnitude (Debye)      :     25.612584824

Rotational constants in cm-1:             0.003221             0.002442             0.001560
Rotational constants in MHz :            96.552073            73.210537            46.758419

                             ****ORCA TERMINATED NORMALLY****
TOTAL RUN TIME: 0 days 0 hours 7 minutes 51 seconds 991 msec
