                         Program Version 6.0.0  -   RELEASE  -
|  1> ! B3LYP 6-31G* SP
|  2>
|  3> * xyz 0 1
|  4> C -2.9517 1.5787 -0.0398
|  5> C -1.4539 1.6735 0.2870
|  6> C -0.6518 2.4524 -0.7401
|  7> C 0.3519 3.3351 -0.2980
|  8> C 1.1676 4.0011 -1.2158
|  9> C 0.9994 3.7889 -2.5852
| 10> F 1.7956 4.4316 -3.4743
| 11> C 0.0118 2.9131 -3.0388
| 12> C -0.8033 2.2398 -2.1249
| 13> N -0.8428 0.3512 0.5232
| 14> C -1.0129 -0.7853 -0.3980
| 15> C -1.8263 -1.8738 0.2527
| 16> C -1.2210 -2.7642 1.1487
| 17> C -1.9750 -3.7571 1.7728
| 18> C -3.3429 -3.8868 1.5044
| 19> Cl -4.2247 -5.1305 2.3861
| 20> C -3.9700 -3.0031 0.5936
| 21> C -5.4081 -3.1099 0.2473
| 22> O -6.0331 -2.0970 -0.1700
| 23> O -6.0785 -4.3257 0.3402
| 24> C -3.1990 -1.9936 -0.0131
| 25> C 0.0641 0.2151 1.6317
| 26> O -0.3985 0.2473 2.8034
| 27> C 1.5251 0.0539 1.4176
| 28> C 2.3573 -0.3548 2.4746
| 29> N 3.6980 -0.4804 2.2888
| 30> C 4.2841 -0.2159 1.0916
| 31> C 5.6691 -0.3465 0.9421
| 32> C 6.2690 -0.0643 -0.2892
| 33> C 5.4881 0.3469 -1.3747
| 34> C 4.1031 0.4791 -1.2352
| 35> C 3.4951 0.2015 -0.0014
| 36> C 2.1136 0.3348 0.1721
| 37> H -3.1495 1.0531 -0.9933
| 38> H -3.3842 2.5987 -0.1123
| 39> H -3.4771 1.0358 0.7740
| 40> H -1.4236 2.2483 1.2415
| 41> H 0.5147 3.4969 0.7604
| 42> H 1.9357 4.6774 -0.8635
| 43> H -0.1160 2.7456 -4.1001
| 44> H -1.5452 1.5562 -2.5090
| 45> H -0.0230 -1.1943 -0.6926
| 46> H -1.4939 -0.4660 -1.3436
| 47> H -0.1640 -2.6866 1.3689
| 48> H -1.4928 -4.4272 2.4732
| 49> H -7.0550 -4.4052 0.0795
| 50> H -3.6633 -1.3122 -0.7149
| 51> H 1.9417 -0.5786 3.4487
| 52> H 6.2810 -0.6632 1.7769
| 53> H 7.3408 -0.1614 -0.4016
| 54> H 5.9574 0.5630 -2.3259
| 55> H 3.5106 0.8007 -2.0846
| 56> H 1.5063 0.6640 -0.6610
| 57> *
| 58>
| 59>                          ****END OF INPUT****

CARTESIAN COORDINATES (ANGSTROEM)
---------------------------------
  C     -2.951700    1.578700   -0.039800
  C     -1.453900    1.673500    0.287000
  C     -0.651800    2.452400   -0.740100
  C      0.351900    3.335100   -0.298000
  C      1.167600    4.001100   -1.215800
  C      0.999400    3.788900   -2.585200
  F      1.795600    4.431600   -3.474300
  C      0.011800    2.913100   -3.038800
  C     -0.803300    2.239800   -2.124900
  N     -0.842800    0.351200    0.523200
  C     -1.012900   -0.785300   -0.398000
  C     -1.826300   -1.873800    0.252700
  C     -1.221000   -2.764200    1.148700
  C     -1.975000   -3.757100    1.772800
  C     -3.342900   -3.886800    1.504400
  Cl    -4.224700   -5.130500    2.386100
  C     -3.970000   -3.003100    0.593600
  C     -5.408100   -3.109900    0.247300
  O     -6.033100   -2.097000   -0.170000
  O     -6.078500   -4.325700    0.340200
  C     -3.199000   -1.993600   -0.013100
  C      0.064100    0.215100    1.631700
  O     -0.398500    0.247300    2.803400
  C      1.525100    0.053900    1.417600
  C      2.357300   -0.354800    2.474600
  N      3.698000   -0.480400    2.288800
  C      4.284100   -0.215900    1.091600
  C      5.669100   -0.346500    0.942100
  C      6.269000   -0.064300   -0.289200
  C      5.488100    0.346900   -1.374700
  C      4.103100    0.479100   -1.235200
  C      3.495100    0.201500   -0.001400
  C      2.113600    0.334800    0.172100
  H     -3.149500    1.053100   -0.993300
  H     -3.384200    2.598700   -0.112300
  H     -3.477100    1.035800    0.774000
  H     -1.423600    2.248300    1.241500
  H      0.514700    3.496900    0.760400
  H      1.935700    4.677400   -0.863500
  H     -0.116000    2.745600   -4.100100
  H     -1.545200    1.556200   -2.509000
  H     -0.023000   -1.194300   -0.692600
  H     -1.493900   -0.466000   -1.343600
  H     -0.164000   -2.686600    1.368900
  H     -1.492800   -4.427200    2.473200
  H     -7.055000   -4.405200    0.079500
  H     -3.663300   -1.312200   -0.714900
  H      1.941700   -0.578600    3.448700
  H      6.281000   -0.663200    1.776900
  H      7.340800   -0.161400   -0.401600
  H      5.957400    0.563000   -2.325900
  H      3.510600    0.800700   -2.084600
  H      1.506300    0.664000   -0.661000

 Total Charge           Charge          ....    0
 Multiplicity           Mult            ....    1
 Number of Electrons    NEL             ....  240
 Basis Dimension        Dim             ....  506

ORBITAL ENERGIES
----------------

  NO   OCC          E(Eh)            E(eV)
   0   2.0000    -101.527962     -2762.7163
   1   2.0000     -24.705402      -672.2682
   2   2.0000     -19.182666      -521.9869
   3   2.0000     -19.133243      -520.6420
   4   2.0000     -19.127391      -520.4828
   5   2.0000     -14.340794      -390.2328
   6   2.0000     -14.330520      -389.9533
   7   2.0000     -10.326371      -280.9949
   8   2.0000     -10.299881      -280.2740
   9   2.0000     -10.277289      -279.6592
  10   2.0000     -10.260602      -279.2052
  11   2.0000     -10.234356      -278.4910
  12   2.0000     -10.234208      -278.4870
  13   2.0000     -10.228880      -278.3420
  14   2.0000     -10.227295      -278.2988
  15   2.0000     -10.224525      -278.2235
  16   2.0000     -10.214707      -277.9563
  17   2.0000     -10.209827      -277.8235
  18   2.0000     -10.207062      -277.7483
  19   2.0000     -10.206372      -277.7295
  20   2.0000     -10.204776      -277.6861
  21   2.0000     -10.204134      -277.6686
  22   2.0000     -10.203888      -277.6619
  23   2.0000     -10.202254      -277.6175
  24   2.0000     -10.201164      -277.5878
  25   2.0000     -10.200894      -277.5804
  26   2.0000     -10.200526      -277.5704
  27   2.0000     -10.200176      -277.5609
  28   2.0000     -10.200166      -277.5606
  29   2.0000     -10.198783      -277.5230
  30   2.0000     -10.198672      -277.5200
  31   2.0000     -10.192772      -277.3594
  32   2.0000     -10.179329      -276.9936
  33   2.0000      -9.459631      -257.4096
  34   2.0000      -7.222962      -196.5468
  35   2.0000      -7.213315      -196.2843
  36   2.0000      -7.212548      -196.2634
  37   2.0000      -1.219075       -33.1727
  38   2.0000      -1.069766       -29.1098
  39   2.0000      -1.026486       -27.9321
  40   2.0000      -0.984043       -26.7772
  41   2.0000      -0.942295       -25.6411
  42   2.0000      -0.927780       -25.2462
  43   2.0000      -0.895021       -24.3548
  44   2.0000      -0.868266       -23.6267
  45   2.0000      -0.856500       -23.3065
  46   2.0000      -0.843811       -22.9613
  47   2.0000      -0.821003       -22.3406
  48   2.0000      -0.793664       -21.5967
  49   2.0000      -0.778314       -21.1790
  50   2.0000      -0.769881       -20.9495
  51   2.0000      -0.764201       -20.7950
  52   2.0000      -0.759202       -20.6589
  53   2.0000      -0.747498       -20.3404
  54   2.0000      -0.729594       -19.8533
  55   2.0000      -0.692661       -18.8483
  56   2.0000      -0.668548       -18.1921
  57   2.0000      -0.664644       -18.0859
  58   2.0000      -0.651604       -17.7310
  59   2.0000      -0.636612       -17.3231
  60   2.0000      -0.628421       -17.1002
  61   2.0000      -0.614427       -16.7194
  62   2.0000      -0.612135       -16.6570
  63   2.0000      -0.598066       -16.2742
  64   2.0000      -0.595986       -16.2176
  65   2.0000      -0.565085       -15.3767
  66   2.0000      -0.547532       -14.8991
  67   2.0000      -0.538912       -14.6645
  68   2.0000      -0.531788       -14.4707
  69   2.0000      -0.520984       -14.1767
  70   2.0000      -0.512863       -13.9557
  71   2.0000      -0.502837       -13.6829
  72   2.0000      -0.498156       -13.5555
  73   2.0000      -0.493152       -13.4193
  74   2.0000      -0.484410       -13.1815
  75   2.0000      -0.476426       -12.9642
  76   2.0000      -0.468191       -12.7401
  77   2.0000      -0.462292       -12.5796
  78   2.0000      -0.460954       -12.5432
  79   2.0000      -0.458495       -12.4763
  80   2.0000      -0.453904       -12.3514
  81   2.0000      -0.449118       -12.2211
  82   2.0000      -0.445992       -12.1361
  83   2.0000      -0.440453       -11.9853
  84   2.0000      -0.437889       -11.9156
  85   2.0000      -0.432228       -11.7615
  86   2.0000      -0.428848       -11.6696
  87   2.0000      -0.423313       -11.5189
  88   2.0000      -0.419739       -11.4217
  89   2.0000      -0.415868       -11.3163
  90   2.0000      -0.414040       -11.2666
  91   2.0000      -0.404194       -10.9987
  92   2.0000      -0.400045       -10.8858
  93   2.0000      -0.395299       -10.7566
  94   2.0000      -0.391324       -10.6485
  95   2.0000      -0.385250       -10.4832
  96   2.0000      -0.377272       -10.2661
  97   2.0000      -0.371462       -10.1080
  98   2.0000      -0.370535       -10.0828
  99   2.0000      -0.365320        -9.9409
 100   2.0000      -0.363195        -9.8831
 101   2.0000      -0.362137        -9.8543
 102   2.0000      -0.359720        -9.7885
 103   2.0000      -0.352263        -9.5856
 104   2.0000      -0.345132        -9.3915
 105   2.0000      -0.338617        -9.2142
 106   2.0000      -0.331430        -9.0187
 107   2.0000      -0.311630        -8.4799
 108   2.0000      -0.310478        -8.4485
 109   2.0000      -0.296752        -8.0750
 110   2.0000      -0.274574        -7.4715
 111   2.0000      -0.271152        -7.3784
 112   2.0000      -0.267937        -7.2909
 113   2.0000      -0.262366        -7.1393
 114   2.0000      -0.258385        -7.0310
 115   2.0000      -0.254055        -6.9132
 116   2.0000      -0.250762        -6.8236
 117   2.0000      -0.246438        -6.7059
 118   2.0000      -0.235339        -6.4039
 119   2.0000      -0.218316        -5.9407
 120   0.0000      -0.079973        -2.1762
 121   0.0000      -0.057933        -1.5764
 122   0.0000      -0.049957        -1.3594
 123   0.0000      -0.022972        -0.6251
 124   0.0000      -0.020201        -0.5497

MULLIKEN ATOMIC CHARGES
-----------------------
   0 C :   -0.457415
   1 C :   -0.073952
   2 C :    0.171236
   3 C :   -0.177170
   4 C :   -0.205514
   5 C :    0.406762
   6 F :   -0.317620
   7 C :   -0.211835
   8 C :   -0.172508
   9 N :   -0.409610
  10 C :   -0.270144
  11 C :    0.189347
  12 C :   -0.138740
  13 C :   -0.135313
  14 C :   -0.107078
  15 Cl:    0.021297
  16 C :    0.095064
  17 C :    0.503904
  18 O :   -0.451495
  19 O :   -0.606063
  20 C :   -0.190960
  21 C :    0.435993
  22 O :   -0.428571
  23 C :    0.051043
  24 C :   -0.015981
  25 N :   -0.430156
  26 C :    0.216242
  27 C :   -0.143350
  28 C :   -0.127004
  29 C :   -0.131338
  30 C :   -0.200059
  31 C :    0.159616
  32 C :   -0.202060
  33 H :    0.140242
  34 H :    0.156009
  35 H :    0.178665
  36 H :    0.165223
  37 H :    0.147148
  38 H :    0.150094
  39 H :    0.147038
  40 H :    0.136580
  41 H :    0.153271
  42 H :    0.157219
  43 H :    0.146797
  44 H :    0.161762
  45 H :    0.428601
  46 H :    0.163268
  47 H :    0.179707
  48 H :    0.148814
  49 H :    0.141349
  50 H :    0.138494
  51 H :    0.142038
  52 H :    0.171113
Sum of atomic charges:   -0.0000000

LOEWDIN ATOMIC CHARGES
----------------------
   0 C :   -0.358801
   1 C :   -0.047632
   2 C :   -0.035176
   3 C :   -0.125181
   4 C :   -0.154888
   5 C :    0.111941
   6 F :   -0.104145
   7 C :   -0.157584
   8 C :   -0.131183
   9 N :   -0.134095
  10 C :   -0.148307
  11 C :   -0.025853
  12 C :   -0.104398
  13 C :   -0.126482
  14 C :   -0.065353
  15 Cl:    0.054191
  16 C :   -0.058875
  17 C :    0.181391
  18 O :   -0.269388
  19 O :   -0.322507
  20 C :   -0.090290
  21 C :    0.144434
  22 O :   -0.231305
  23 C :   -0.088155
  24 C :   -0.040637
  25 N :   -0.127229
  26 C :    0.021226
  27 C :   -0.114861
  28 C :   -0.114045
  29 C :   -0.126915
  30 C :   -0.113904
  31 C :   -0.033334
  32 C :   -0.072658
  33 H :    0.117673
  34 H :    0.134263
  35 H :    0.143048
  36 H :    0.141579
  37 H :    0.139914
  38 H :    0.145791
  39 H :    0.143990
  40 H :    0.134060
  41 H :    0.126408
  42 H :    0.132299
  43 H :    0.141687
  44 H :    0.149491
  45 H :    0.345638
  46 H :    0.151537
  47 H :    0.151957
  48 H :    0.146637
  49 H :    0.138375
  50 H :    0.136605
  51 H :    0.137418
  52 H :    0.151627

  Mayer bond orders larger than 0.100000
B(  0-C ,  1-C ) :   1.0015 B(  0-C , 33-H ) :   0.9348 B(  0-C , 34-H ) :   0.9418
B(  0-C , 35-H ) :   0.9362 B(  1-C ,  2-C ) :   0.9378 B(  1-C ,  9-N ) :   0.9574
B(  1-C , 36-H ) :   0.9167 B(  2-C ,  3-C ) :   1.4156 B(  2-C ,  8-C ) :   1.4102
B(  3-C ,  4-C ) :   1.4203 B(  3-C , 37-H ) :   0.9215 B(  4-C ,  5-C ) :   1.3933
B(  4-C , 38-H ) :   0.9195 B(  5-C ,  6-F ) :   0.9179 B(  5-C ,  7-C ) :   1.3921
B(  7-C ,  8-C ) :   1.4224 B(  7-C , 39-H ) :   0.9204 B(  8-C , 40-H ) :   0.9198
B(  9-N , 10-C ) :   0.9592 B(  9-N , 21-C ) :   0.9844 B( 10-C , 11-C ) :   0.9365
B( 10-C , 41-H ) :   0.9186 B( 10-C , 42-H ) :   0.9241 B( 11-C , 12-C ) :   1.4092
B( 11-C , 20-C ) :   1.4168 B( 12-C , 13-C ) :   1.4449 B( 12-C , 43-H ) :   0.9175
B( 13-C , 14-C ) :   1.3981 B( 13-C , 44-H ) :   0.9207 B( 14-C , 15-Cl) :   1.0588
B( 14-C , 16-C ) :   1.3388 B( 16-C , 17-C ) :   0.9877 B( 16-C , 20-C ) :   1.3913
B( 17-C , 18-O ) :   1.8516 B( 17-C , 19-O ) :   1.0284 B( 19-O , 45-H ) :   0.7441
B( 20-C , 46-H ) :   0.9025 B( 21-C , 22-O ) :   1.8633 B( 21-C , 23-C ) :   0.9850
B( 23-C , 24-C ) :   1.2517 B( 23-C , 32-C ) :   1.4153 B( 24-C , 25-N ) :   1.5064
B( 24-C , 47-H ) :   0.9155 B( 25-N , 26-C ) :   1.2439 B( 26-C , 27-C ) :   1.3147
B( 26-C , 31-C ) :   1.2476 B( 27-C , 28-C ) :   1.5086 B( 27-C , 30-C ) :   0.1059
B( 27-C , 48-H ) :   0.9165 B( 28-C , 29-C ) :   1.3481 B( 28-C , 49-H ) :   0.9287
B( 29-C , 30-C ) :   1.5131 B( 29-C , 50-H ) :   0.9291 B( 30-C , 31-C ) :   1.2781
B( 30-C , 51-H ) :   0.9220 B( 31-C , 32-C ) :   1.2826 B( 32-C , 52-H ) :   0.8993

FINAL SINGLE POINT ENERGY     -1897.072119589380

DIPOLE MOMENT
-------------

Method             : SCF
Type of density    : Electron Density
Multiplicity       :   1
Irrep              :   0
Energy             : -1897.0721195893800086 Eh
Relativity type    :
Basis              : AO
                                X                 Y                 Z
Electronic contribution:    -10.299779498     -14.135811017       6.615612040
Nuclear contribution   :     11.173551981      14.154222294      -8.177836840
                        -----------------------------------------
Total Dipole Moment    :      0.873772483       0.018411278      -1.562224800
                        -----------------------------------------
Magnitude (a.u.)       :      1.790073644
Magnitude (Debye)      :      4.550005609

Rotational constants in cm-1:             0.005957             0.002252             0.001801
Rotational constants in MHz :           178.587058            67.511383            53.994506

                             ****ORCA TERMINATED NORMALLY****
TOTAL RUN TIME: 0 days 0 hours 10 minutes 12 seconds 933 msec
