                         Program Version 6.0.0  -   RELEASE  -
|  1> ! B3LYP 6-31G* SP
|  2>
|  3> * xyz 0 1
|  4> C 1.2419 1.1422 -1.8948
|  5> C 0.5073 1.6649 -0.6796
|  6> C -0.3107 0.8078 0.0946
|  7> N -0.4777 -0.5727 -0.2488
|  8> C 0.1522 -1.6066 0.5719
|  9> C 1.6294 -1.6032 0.3435
| 10> C 2.5382 -0.7537 0.9749
| 11> C 3.8288 -0.8747 0.4514
| 12> C 4.9544 -0.1549 0.8608
| 13> C 6.1803 -0.3886 0.2136
| 14> F 7.2853 0.2979 0.5953
| 15> C 6.2668 -1.3297 -0.8318
| 16> C 5.1286 -2.0434 -1.2388
| 17> F 5.2007 -2.9440 -2.2500
| 18> C 3.9254 -1.7977 -0.5804
| 19> S 2.4170 -2.4763 -0.8730
| 20> S -1.6491 -1.0147 -1.4497
| 21> O -1.0497 -2.0356 -2.3764
| 22> O -2.0399 0.1907 -2.2587
| 23> C -3.0754 -1.6615 -0.6486
| 24> C -3.8919 -0.8101 0.1041
| 25> C -5.0159 -1.3137 0.7651
| 26> C -5.3368 -2.6810 0.6840
| 27> C -6.5248 -3.2206 1.3814
| 28> O -7.2670 -2.4604 2.0605
| 29> O -6.8351 -4.5754 1.2937
| 30> C -4.5088 -3.5316 -0.0694
| 31> C -3.3847 -3.0252 -0.7285
| 32> N -0.9383 1.2803 1.2031
| 33> C -0.8257 2.5672 1.6103
| 34> C -0.0361 3.4654 0.8884
| 35> C 0.0862 4.7980 1.3113
| 36> C 0.8812 5.6916 0.5932
| 37> C 1.5583 5.2639 -0.5487
| 38> C 1.4451 3.9400 -0.9816
| 39> C 0.6448 3.0174 -0.2716
| 40> H 2.3364 1.2583 -1.7473
| 41> H 0.9251 1.7077 -2.7960
| 42> H 1.0488 0.0698 -2.0919
| 43> H -0.2527 -2.6084 0.3140
| 44> H -0.0672 -1.4231 1.6458
| 45> H 2.2672 -0.0588 1.7600
| 46> H 4.8866 0.5721 1.6606
| 47> H 7.2145 -1.5008 -1.3258
| 48> H -3.6559 0.2438 0.1821
| 49> H -5.6308 -0.6334 1.3407
| 50> H -7.6465 -4.9552 1.7665
| 51> H -4.7262 -4.5896 -0.1476
| 52> H -2.7563 -3.6995 -1.2959
| 53> H -1.3527 2.8854 2.5013
| 54> H -0.4313 5.1470 2.1972
| 55> H 0.9737 6.7183 0.9232
| 56> H 2.1746 5.9611 -1.1017
| 57> H 1.9884 3.6533 -1.8715
| 58> *
| 59>
| 60>                          ****END OF INPUT****

CARTESIAN COORDINATES (ANGSTROEM)
---------------------------------
  C      1.241900    1.142200   -1.894800
  C      0.507300    1.664900   -0.679600
  C     -0.310700    0.807800    0.094600
  N     -0.477700   -0.572700   -0.248800
  C      0.152200   -1.606600    0.571900
  C      1.629400   -1.603200    0.343500
  C      2.538200   -0.753700    0.974900
  C      3.828800   -0.874700    0.451400
  C      4.954400   -0.154900    0.860800
  C      6.180300   -0.388600    0.213600
  F      7.285300    0.297900    0.595300
  C      6.266800   -1.329700   -0.831800
  C      5.128600   -2.043400   -1.238800
  F      5.200700   -2.944000   -2.250000
  C      3.925400   -1.797700   -0.580400
  S      2.417000   -2.476300   -0.873000
  S     -1.649100   -1.014700   -1.449700
  O     -1.049700   -2.035600   -2.376400
  O     -2.039900    0.190700   -2.258700
  C     -3.075400   -1.661500   -0.648600
  C     -3.891900   -0.810100    0.104100
  C     -5.015900   -1.313700    0.765100
  C     -5.336800   -2.681000    0.684000
  C     -6.524800   -3.220600    1.381400
  O     -7.267000   -2.460400    2.060500
  O     -6.835100   -4.575400    1.293700
  C     -4.508800   -3.531600   -0.069400
  C     -3.384700   -3.025200   -0.728500
  N     -0.938300    1.280300    1.203100
  C     -0.825700    2.567200    1.610300
  C     -0.036100    3.465400    0.888400
  C      0.086200    4.798000    1.311300
  C      0.881200    5.691600    0.593200
  C      1.558300    5.263900   -0.548700
  C      1.445100    3.940000   -0.981600
  C      0.644800    3.017400   -0.271600
  H      2.336400    1.258300   -1.747300
  H      0.925100    1.707700   -2.796000
  H      1.048800    0.069800   -2.091900
  H     -0.252700   -2.608400    0.314000
  H     -0.067200   -1.423100    1.645800
  H      2.267200   -0.058800    1.760000
  H      4.886600    0.572100    1.660600
  H      7.214500   -1.500800   -1.325800
  H     -3.655900    0.243800    0.182100
  H     -5.630800   -0.633400    1.340700
  H     -7.646500   -4.955200    1.766500
  H     -4.726200   -4.589600   -0.147600
  H     -2.756300   -3.699500   -1.295900
  H     -1.352700    2.885400    2.501300
  H     -0.431300    5.147000    2.197200
  H      0.973700    6.718300    0.923200
  H      2.174600    5.961100   -1.101700
  H      1.988400    3.653300   -1.871500

 Total Charge           Charge          ....    0
 Multiplicity           Mult            ....    1
 Number of Electrons    NEL             ....  270
 Basis Dimension        Dim             ....  548

ORBITAL ENERGIES
----------------

  NO   OCC          E(Eh)            E(eV)
   0   2.0000     -89.099778     -2424.5282
   1   2.0000     -88.892666     -2418.8924
   2   2.0000     -24.714485      -672.5153
   3   2.0000     -24.703829      -672.2254
   4   2.0000     -19.195930      -522.3478
   5   2.0000     -19.137688      -520.7630
   6   2.0000     -19.129979      -520.5532
   7   2.0000     -19.129107      -520.5295
   8   2.0000     -14.375629      -391.1807
   9   2.0000     -14.336817      -390.1246
  10   2.0000     -10.335058      -281.2312
  11   2.0000     -10.288793      -279.9723
  12   2.0000     -10.279356      -279.7155
  13   2.0000     -10.260725      -279.2085
  14   2.0000     -10.249271      -278.8969
  15   2.0000     -10.241321      -278.6805
  16   2.0000     -10.231273      -278.4071
  17   2.0000     -10.228736      -278.3381
  18   2.0000     -10.224954      -278.2351
  19   2.0000     -10.219214      -278.0789
  20   2.0000     -10.218654      -278.0637
  21   2.0000     -10.217849      -278.0418
  22   2.0000     -10.216590      -278.0075
  23   2.0000     -10.216257      -277.9985
  24   2.0000     -10.212404      -277.8936
  25   2.0000     -10.208556      -277.7889
  26   2.0000     -10.203829      -277.6603
  27   2.0000     -10.203331      -277.6468
  28   2.0000     -10.200669      -277.5743
  29   2.0000     -10.200539      -277.5708
  30   2.0000     -10.200284      -277.5638
  31   2.0000     -10.199094      -277.5315
  32   2.0000     -10.198256      -277.5086
  33   2.0000     -10.193453      -277.3780
  34   2.0000     -10.192412      -277.3496
  35   2.0000     -10.174678      -276.8671
  36   2.0000      -8.135614      -221.3813
  37   2.0000      -7.969625      -216.8645
  38   2.0000      -6.100663      -166.0075
  39   2.0000      -6.098664      -165.9531
  40   2.0000      -6.098190      -165.9402
  41   2.0000      -5.932984      -161.4447
  42   2.0000      -5.928798      -161.3308
  43   2.0000      -5.926036      -161.2556
  44   2.0000      -1.226209       -33.3668
  45   2.0000      -1.216803       -33.1109
  46   2.0000      -1.086893       -29.5759
  47   2.0000      -1.080529       -29.4027
  48   2.0000      -0.994731       -27.0680
  49   2.0000      -0.968619       -26.3575
  50   2.0000      -0.965256       -26.2660
  51   2.0000      -0.924601       -25.1597
  52   2.0000      -0.913098       -24.8466
  53   2.0000      -0.889503       -24.2046
  54   2.0000      -0.867497       -23.6058
  55   2.0000      -0.845447       -23.0058
  56   2.0000      -0.810811       -22.0633
  57   2.0000      -0.805638       -21.9225
  58   2.0000      -0.783525       -21.3208
  59   2.0000      -0.780904       -21.2495
  60   2.0000      -0.775345       -21.0982
  61   2.0000      -0.767802       -20.8930
  62   2.0000      -0.744161       -20.2496
  63   2.0000      -0.722504       -19.6603
  64   2.0000      -0.715731       -19.4760
  65   2.0000      -0.705982       -19.2107
  66   2.0000      -0.689316       -18.7572
  67   2.0000      -0.654973       -17.8227
  68   2.0000      -0.646771       -17.5995
  69   2.0000      -0.638425       -17.3724
  70   2.0000      -0.631104       -17.1732
  71   2.0000      -0.617166       -16.7939
  72   2.0000      -0.608481       -16.5576
  73   2.0000      -0.597600       -16.2615
  74   2.0000      -0.596395       -16.2287
  75   2.0000      -0.576793       -15.6953
  76   2.0000      -0.562654       -15.3106
  77   2.0000      -0.546690       -14.8762
  78   2.0000      -0.541669       -14.7396
  79   2.0000      -0.536811       -14.6074
  80   2.0000      -0.525984       -14.3128
  81   2.0000      -0.516735       -14.0611
  82   2.0000      -0.505100       -13.7445
  83   2.0000      -0.501913       -13.6577
  84   2.0000      -0.495457       -13.4821
  85   2.0000      -0.487692       -13.2708
  86   2.0000      -0.483132       -13.1467
  87   2.0000      -0.480085       -13.0638
  88   2.0000      -0.473093       -12.8735
  89   2.0000      -0.471066       -12.8184
  90   2.0000      -0.462380       -12.5820
  91   2.0000      -0.459517       -12.5041
  92   2.0000      -0.455589       -12.3972
  93   2.0000      -0.454975       -12.3805
  94   2.0000      -0.451028       -12.2731
  95   2.0000      -0.447133       -12.1671
  96   2.0000      -0.442161       -12.0318
  97   2.0000      -0.439524       -11.9601
  98   2.0000      -0.433182       -11.7875
  99   2.0000      -0.430278       -11.7085
 100   2.0000      -0.427973       -11.6457
 101   2.0000      -0.423840       -11.5333
 102   2.0000      -0.416718       -11.3395
 103   2.0000      -0.411041       -11.1850
 104   2.0000      -0.404040       -10.9945
 105   2.0000      -0.402685       -10.9576
 106   2.0000      -0.395637       -10.7658
 107   2.0000      -0.391434       -10.6515
 108   2.0000      -0.388863       -10.5815
 109   2.0000      -0.385028       -10.4771
 110   2.0000      -0.379786       -10.3345
 111   2.0000      -0.378189       -10.2911
 112   2.0000      -0.368933       -10.0392
 113   2.0000      -0.367618       -10.0034
 114   2.0000      -0.365276        -9.9397
 115   2.0000      -0.357463        -9.7271
 116   2.0000      -0.353189        -9.6108
 117   2.0000      -0.342440        -9.3183
 118   2.0000      -0.331942        -9.0326
 119   2.0000      -0.322167        -8.7666
 120   2.0000      -0.320804        -8.7295
 121   2.0000      -0.308765        -8.4019
 122   2.0000      -0.303057        -8.2466
 123   2.0000      -0.291740        -7.9387
 124   2.0000      -0.287593        -7.8258
 125   2.0000      -0.284202        -7.7335
 126   2.0000      -0.279599        -7.6083
 127   2.0000      -0.278559        -7.5800
 128   2.0000      -0.274143        -7.4598
 129   2.0000      -0.269568        -7.3353
 130   2.0000      -0.260846        -7.0980
 131   2.0000      -0.257512        -7.0073
 132   2.0000      -0.240028        -6.5315
 133   2.0000      -0.227031        -6.1778
 134   2.0000      -0.215963        -5.8766
 135   0.0000      -0.082962        -2.2575
 136   0.0000      -0.063869        -1.7380
 137   0.0000      -0.040928        -1.1137
 138   0.0000      -0.035955        -0.9784
 139   0.0000      -0.029405        -0.8002

MULLIKEN ATOMIC CHARGES
-----------------------
   0 C :   -0.549570
   1 C :    0.135335
   2 C :    0.302388
   3 N :   -0.606475
   4 C :   -0.213938
   5 C :   -0.112007
   6 C :   -0.172303
   7 C :    0.198009
   8 C :   -0.276803
   9 C :    0.416728
  10 F :   -0.317288
  11 C :   -0.290990
  12 C :    0.404814
  13 F :   -0.303779
  14 C :   -0.244700
  15 S :    0.272849
  16 S :    1.220375
  17 O :   -0.549466
  18 O :   -0.543460
  19 C :   -0.126777
  20 C :   -0.135163
  21 C :   -0.141885
  22 C :    0.082685
  23 C :    0.528324
  24 O :   -0.444446
  25 O :   -0.623824
  26 C :   -0.146058
  27 C :   -0.153745
  28 N :   -0.403393
  29 C :   -0.060616
  30 C :    0.139232
  31 C :   -0.204176
  32 C :   -0.125191
  33 C :   -0.120532
  34 C :   -0.193990
  35 C :    0.115108
  36 H :    0.158977
  37 H :    0.173889
  38 H :    0.207966
  39 H :    0.179699
  40 H :    0.190642
  41 H :    0.149530
  42 H :    0.144822
  43 H :    0.161188
  44 H :    0.188492
  45 H :    0.180693
  46 H :    0.434104
  47 H :    0.172868
  48 H :    0.185987
  49 H :    0.151718
  50 H :    0.139190
  51 H :    0.137970
  52 H :    0.140645
  53 H :    0.146352
Sum of atomic charges:    0.0000000

LOEWDIN ATOMIC CHARGES
----------------------
   0 C :   -0.361763
   1 C :    0.010789
   2 C :    0.020513
   3 N :   -0.280408
   4 C :   -0.146885
   5 C :   -0.181597
   6 C :   -0.164253
   7 C :   -0.030939
   8 C :   -0.167389
   9 C :    0.118908
  10 F :   -0.101480
  11 C :   -0.192628
  12 C :    0.123175
  13 F :   -0.090653
  14 C :   -0.208297
  15 S :    0.407734
  16 S :    1.263436
  17 O :   -0.573591
  18 O :   -0.565660
  19 C :   -0.176511
  20 C :   -0.095985
  21 C :   -0.085316
  22 C :   -0.039217
  23 C :    0.180004
  24 O :   -0.260681
  25 O :   -0.334813
  26 C :   -0.099960
  27 C :   -0.108978
  28 N :   -0.141504
  29 C :   -0.065479
  30 C :   -0.027581
  31 C :   -0.113231
  32 C :   -0.123463
  33 C :   -0.116249
  34 C :   -0.117551
  35 C :   -0.006960
  36 H :    0.136044
  37 H :    0.145030
  38 H :    0.154211
  39 H :    0.149408
  40 H :    0.147387
  41 H :    0.143462
  42 H :    0.145418
  43 H :    0.155859
  44 H :    0.161792
  45 H :    0.160583
  46 H :    0.349768
  47 H :    0.154746
  48 H :    0.160297
  49 H :    0.136492
  50 H :    0.137085
  51 H :    0.136377
  52 H :    0.137948
  53 H :    0.142554

  Mayer bond orders larger than 0.100000
B(  0-C ,  1-C ) :   1.0084 B(  0-C , 36-H ) :   0.9237 B(  0-C , 37-H ) :   0.9223
B(  0-C , 38-H ) :   0.9127 B(  1-C ,  2-C ) :   1.4327 B(  1-C , 35-C ) :   1.2617
B(  2-C ,  3-N ) :   0.8873 B(  2-C , 28-N ) :   1.2787 B(  3-N ,  4-C ) :   0.9279
B(  3-N , 16-S ) :   0.8013 B(  4-C ,  5-C ) :   0.9760 B(  4-C , 39-H ) :   0.9161
B(  4-C , 40-H ) :   0.9156 B(  5-C ,  6-C ) :   1.5641 B(  5-C , 15-S ) :   1.1165
B(  6-C ,  7-C ) :   1.2513 B(  6-C , 41-H ) :   0.9200 B(  7-C ,  8-C ) :   1.2961
B(  7-C , 14-C ) :   1.3158 B(  8-C ,  9-C ) :   1.4194 B(  8-C , 42-H ) :   0.9189
B(  9-C , 10-F ) :   0.9004 B(  9-C , 11-C ) :   1.3143 B( 11-C , 12-C ) :   1.4115
B( 11-C , 43-H ) :   0.9115 B( 12-C , 13-F ) :   0.9315 B( 12-C , 14-C ) :   1.2522
B( 14-C , 15-S ) :   1.0447 B( 16-S , 17-O ) :   1.6178 B( 16-S , 18-O ) :   1.6463
B( 16-S , 19-C ) :   0.8123 B( 19-C , 20-C ) :   1.3780 B( 19-C , 27-C ) :   1.4002
B( 20-C , 21-C ) :   1.4320 B( 20-C , 44-H ) :   0.9053 B( 21-C , 22-C ) :   1.3961
B( 21-C , 45-H ) :   0.9098 B( 22-C , 23-C ) :   1.0082 B( 22-C , 26-C ) :   1.3887
B( 23-C , 24-O ) :   1.8628 B( 23-C , 25-O ) :   1.0248 B( 25-O , 46-H ) :   0.7418
B( 26-C , 27-C ) :   1.4092 B( 26-C , 47-H ) :   0.9148 B( 27-C , 48-H ) :   0.9087
B( 28-N , 29-C ) :   1.4917 B( 29-C , 30-C ) :   1.2424 B( 29-C , 49-H ) :   0.9263
B( 30-C , 31-C ) :   1.2834 B( 30-C , 35-C ) :   1.2909 B( 31-C , 32-C ) :   1.5124
B( 31-C , 34-C ) :   0.1060 B( 31-C , 50-H ) :   0.9233 B( 32-C , 33-C ) :   1.3526
B( 32-C , 51-H ) :   0.9290 B( 33-C , 34-C ) :   1.5072 B( 33-C , 52-H ) :   0.9286
B( 34-C , 35-C ) :   1.2968 B( 34-C , 53-H ) :   0.9147

FINAL SINGLE POINT ENERGY     -2406.920935783614

DIPOLE MOMENT
-------------

Method             : SCF
Type of density    : Electron Density
Multiplicity       :   1
Irrep              :   0
Energy             : -2406.9209357836143681 Eh
Relativity type    :
Basis              : AO
                                X                 Y                 Z
Electronic contribution:     16.151204462     -16.411138514      -4.199310257
Nuclear contribution   :    -16.139929255      16.906759363       5.750701137
                        -----------------------------------------
Total Dipole Moment    :      0.011275207       0.495620849       1.551390879
                        -----------------------------------------
Magnitude (a.u.)       :      1.628674558
Magnitude (Debye)      :      4.139761735

Rotational constants in cm-1:             0.004556             0.001937             0.001518
Rotational constants in MHz :           136.599256            58.077185            45.522504

                             ****ORCA TERMINATED NORMALLY****
TOTAL RUN TIME: 0 days 0 hours 8 minutes 1 seconds 20 msec
