                         Program Version 6.0.0  -   RELEASE  -
|  1> ! B3LYP 6-31G* SP
|  2>
|  3> * xyz 0 1
|  4> C 6.2043 -0.5983 0.4968
|  5> C 4.8356 -0.7100 -0.1063
|  6> C 4.6603 -0.5792 -1.4920
|  7> C 3.3802 -0.6462 -2.0502
|  8> C 2.2559 -0.8195 -1.2277
|  9> C 0.9061 -0.8924 -1.8242
| 10> O 0.7571 -1.5396 -2.8973
| 11> N -0.2356 -0.2343 -1.2209
| 12> C -1.5395 -0.9493 -1.2854
| 13> C -2.5120 -0.2809 -2.2682
| 14> C -2.0976 -1.2378 0.1010
| 15> C -1.3418 -2.0453 0.9706
| 16> C -1.7999 -2.3305 2.2592
| 17> C -3.0267 -1.8273 2.6935
| 18> C -3.8039 -1.0459 1.8352
| 19> Cl -5.3438 -0.4105 2.3841
| 20> C -3.3493 -0.7578 0.5434
| 21> C -0.0726 1.1771 -0.7610
| 22> C -0.2601 2.1959 -1.8758
| 23> N -0.2182 1.8361 -3.2591
| 24> O -0.3508 3.4181 -1.5782
| 25> C -0.8862 1.4987 0.4917
| 26> C -2.1316 2.1631 0.4360
| 27> C -2.8477 2.4329 1.6062
| 28> C -2.3386 2.0434 2.8455
| 29> C -1.1064 1.3933 2.9189
| 30> C -0.3820 1.1285 1.7535
| 31> C 2.4336 -0.9519 0.1572
| 32> C 3.7128 -0.8852 0.7160
| 33> H 6.2730 -1.2018 1.4270
| 34> H 6.9760 -0.9697 -0.2107
| 35> H 6.4156 0.4643 0.7381
| 36> H 5.5141 -0.4256 -2.1404
| 37> H 3.2652 -0.5443 -3.1224
| 38> H -1.3758 -1.9625 -1.7181
| 39> H -2.0683 -0.2644 -3.2846
| 40> H -2.7508 0.7555 -1.9694
| 41> H -3.4545 -0.8655 -2.3317
| 42> H -0.3942 -2.4563 0.6479
| 43> H -1.2026 -2.9438 2.9213
| 44> H -3.3739 -2.0480 3.6947
| 45> H -3.9695 -0.1416 -0.0920
| 46> H 0.9859 1.3268 -0.4603
| 47> H -0.3575 2.5701 -3.9885
| 48> H -0.0053 0.8699 -3.5809
| 49> H -2.5573 2.4784 -0.5055
| 50> H -3.8033 2.9378 1.5504
| 51> H -2.8988 2.2460 3.7490
| 52> H -0.7099 1.0951 3.8808
| 53> H 0.5763 0.6389 1.8405
| 54> H 1.5863 -1.1259 0.8032
| 55> H 3.8279 -0.9782 1.7889
| 56> *
| 57>
| 58>                          ****END OF INPUT****

CARTESIAN COORDINATES (ANGSTROEM)
---------------------------------
  C      6.204300   -0.598300    0.496800
  C      4.835600   -0.710000   -0.106300
  C      4.660300   -0.579200   -1.492000
  C      3.380200   -0.646200   -2.050200
  C      2.255900   -0.819500   -1.227700
  C      0.906100   -0.892400   -1.824200
  O      0.757100   -1.539600   -2.897300
  N     -0.235600   -0.234300   -1.220900
  C     -1.539500   -0.949300   -1.285400
  C     -2.512000   -0.280900   -2.268200
  C     -2.097600   -1.237800    0.101000
  C     -1.341800   -2.045300    0.970600
  C     -1.799900   -2.330500    2.259200
  C     -3.026700   -1.827300    2.693500
  C     -3.803900   -1.045900    1.835200
  Cl    -5.343800   -0.410500    2.384100
  C     -3.349300   -0.757800    0.543400
  C     -0.072600    1.177100   -0.761000
  C     -0.260100    2.195900   -1.875800
  N     -0.218200    1.836100   -3.259100
  O     -0.350800    3.418100   -1.578200
  C     -0.886200    1.498700    0.491700
  C     -2.131600    2.163100    0.436000
  C     -2.847700    2.432900    1.606200
  C     -2.338600    2.043400    2.845500
  C     -1.106400    1.393300    2.918900
  C     -0.382000    1.128500    1.753500
  C      2.433600   -0.951900    0.157200
  C      3.712800   -0.885200    0.716000
  H      6.273000   -1.201800    1.427000
  H      6.976000   -0.969700   -0.210700
  H      6.415600    0.464300    0.738100
  H      5.514100   -0.425600   -2.140400
  H      3.265200   -0.544300   -3.122400
  H     -1.375800   -1.962500   -1.718100
  H     -2.068300   -0.264400   -3.284600
  H     -2.750800    0.755500   -1.969400
  H     -3.454500   -0.865500   -2.331700
  H     -0.394200   -2.456300    0.647900
  H     -1.202600   -2.943800    2.921300
  H     -3.373900   -2.048000    3.694700
  H     -3.969500   -0.141600   -0.092000
  H      0.985900    1.326800   -0.460300
  H     -0.357500    2.570100   -3.988500
  H     -0.005300    0.869900   -3.580900
  H     -2.557300    2.478400   -0.505500
  H     -3.803300    2.937800    1.550400
  H     -2.898800    2.246000    3.749000
  H     -0.709900    1.095100    3.880800
  H      0.576300    0.638900    1.840500
  H      1.586300   -1.125900    0.803200
  H      3.827900   -0.978200    1.788900

 Total Charge           Charge          ....    0
 Multiplicity           Mult            ....    1
 Number of Electrons    NEL             ....  214
 Basis Dimension        Dim             ....  456

ORBITAL ENERGIES
----------------

  NO   OCC          E(Eh)            E(eV)
   0   2.0000    -101.524054     -2762.6100
   1   2.0000     -19.125352      -520.4273
   2   2.0000     -19.105967      -519.8998
   3   2.0000     -14.358788      -390.7225
   4   2.0000     -14.349857      -390.4795
   5   2.0000     -10.296359      -280.1782
   6   2.0000     -10.290502      -280.0188
   7   2.0000     -10.244668      -278.7716
   8   2.0000     -10.241416      -278.6831
   9   2.0000     -10.231765      -278.4205
  10   2.0000     -10.206473      -277.7322
  11   2.0000     -10.204030      -277.6658
  12   2.0000     -10.199469      -277.5416
  13   2.0000     -10.199046      -277.5302
  14   2.0000     -10.197703      -277.4936
  15   2.0000     -10.194484      -277.4060
  16   2.0000     -10.193447      -277.3778
  17   2.0000     -10.192468      -277.3511
  18   2.0000     -10.191057      -277.3127
  19   2.0000     -10.190235      -277.2904
  20   2.0000     -10.189654      -277.2746
  21   2.0000     -10.187748      -277.2227
  22   2.0000     -10.185436      -277.1598
  23   2.0000     -10.181231      -277.0454
  24   2.0000     -10.178768      -276.9784
  25   2.0000     -10.177702      -276.9494
  26   2.0000     -10.176861      -276.9265
  27   2.0000     -10.175671      -276.8941
  28   2.0000     -10.174159      -276.8529
  29   2.0000      -9.455877      -257.3075
  30   2.0000      -7.218841      -196.4346
  31   2.0000      -7.209505      -196.1806
  32   2.0000      -7.209255      -196.1738
  33   2.0000      -1.023568       -27.8527
  34   2.0000      -1.006743       -27.3949
  35   2.0000      -0.925639       -25.1879
  36   2.0000      -0.883076       -24.0297
  37   2.0000      -0.871416       -23.7124
  38   2.0000      -0.868095       -23.6221
  39   2.0000      -0.846687       -23.0395
  40   2.0000      -0.833264       -22.6743
  41   2.0000      -0.794024       -21.6065
  42   2.0000      -0.785125       -21.3643
  43   2.0000      -0.762156       -20.7393
  44   2.0000      -0.756249       -20.5786
  45   2.0000      -0.739116       -20.1124
  46   2.0000      -0.733309       -19.9544
  47   2.0000      -0.724936       -19.7265
  48   2.0000      -0.706082       -19.2135
  49   2.0000      -0.695973       -18.9384
  50   2.0000      -0.645803       -17.5732
  51   2.0000      -0.619897       -16.8683
  52   2.0000      -0.615365       -16.7449
  53   2.0000      -0.605656       -16.4807
  54   2.0000      -0.599369       -16.3097
  55   2.0000      -0.595975       -16.2173
  56   2.0000      -0.580587       -15.7986
  57   2.0000      -0.570282       -15.5182
  58   2.0000      -0.554050       -15.0765
  59   2.0000      -0.534342       -14.5402
  60   2.0000      -0.518127       -14.0989
  61   2.0000      -0.515275       -14.0213
  62   2.0000      -0.507922       -13.8213
  63   2.0000      -0.483559       -13.1583
  64   2.0000      -0.478953       -13.0330
  65   2.0000      -0.473128       -12.8745
  66   2.0000      -0.469005       -12.7623
  67   2.0000      -0.458474       -12.4757
  68   2.0000      -0.456289       -12.4163
  69   2.0000      -0.452238       -12.3060
  70   2.0000      -0.446714       -12.1557
  71   2.0000      -0.434849       -11.8328
  72   2.0000      -0.433205       -11.7881
  73   2.0000      -0.430999       -11.7281
  74   2.0000      -0.426227       -11.5982
  75   2.0000      -0.421410       -11.4671
  76   2.0000      -0.419906       -11.4262
  77   2.0000      -0.417537       -11.3617
  78   2.0000      -0.413152       -11.2424
  79   2.0000      -0.405299       -11.0287
  80   2.0000      -0.396700       -10.7948
  81   2.0000      -0.392830       -10.6894
  82   2.0000      -0.389920       -10.6103
  83   2.0000      -0.382803       -10.4166
  84   2.0000      -0.376003       -10.2315
  85   2.0000      -0.369393       -10.0517
  86   2.0000      -0.361436        -9.8352
  87   2.0000      -0.358903        -9.7663
  88   2.0000      -0.355312        -9.6685
  89   2.0000      -0.352884        -9.6025
  90   2.0000      -0.348646        -9.4871
  91   2.0000      -0.345202        -9.3934
  92   2.0000      -0.340631        -9.2690
  93   2.0000      -0.339245        -9.2313
  94   2.0000      -0.332086        -9.0365
  95   2.0000      -0.321863        -8.7583
  96   2.0000      -0.307348        -8.3634
  97   2.0000      -0.273573        -7.4443
  98   2.0000      -0.265324        -7.2198
  99   2.0000      -0.261684        -7.1208
 100   2.0000      -0.259231        -7.0540
 101   2.0000      -0.255808        -6.9609
 102   2.0000      -0.249530        -6.7901
 103   2.0000      -0.243064        -6.6141
 104   2.0000      -0.233766        -6.3611
 105   2.0000      -0.228217        -6.2101
 106   2.0000      -0.221766        -6.0346
 107   0.0000      -0.049702        -1.3525
 108   0.0000      -0.018834        -0.5125
 109   0.0000      -0.016183        -0.4404
 110   0.0000      -0.013274        -0.3612
 111   0.0000       0.003170         0.0863

MULLIKEN ATOMIC CHARGES
-----------------------
   0 C :   -0.525199
   1 C :    0.177120
   2 C :   -0.173195
   3 C :   -0.145202
   4 C :    0.082201
   5 C :    0.424506
   6 O :   -0.473065
   7 N :   -0.432445
   8 C :   -0.053873
   9 C :   -0.462923
  10 C :    0.166557
  11 C :   -0.173479
  12 C :   -0.120384
  13 C :   -0.129371
  14 C :   -0.057999
  15 Cl:   -0.028809
  16 C :   -0.164612
  17 C :   -0.163992
  18 C :    0.565808
  19 N :   -0.781827
  20 O :   -0.476768
  21 C :    0.164943
  22 C :   -0.153913
  23 C :   -0.131083
  24 C :   -0.117418
  25 C :   -0.120394
  26 C :   -0.166270
  27 C :   -0.167642
  28 C :   -0.175801
  29 H :    0.158179
  30 H :    0.159295
  31 H :    0.172421
  32 H :    0.133498
  33 H :    0.151470
  34 H :    0.184200
  35 H :    0.158755
  36 H :    0.152896
  37 H :    0.148584
  38 H :    0.132662
  39 H :    0.133369
  40 H :    0.144474
  41 H :    0.147610
  42 H :    0.202475
  43 H :    0.348293
  44 H :    0.355565
  45 H :    0.141766
  46 H :    0.133544
  47 H :    0.130048
  48 H :    0.124914
  49 H :    0.120418
  50 H :    0.149905
  51 H :    0.130189
Sum of atomic charges:    0.0000000

LOEWDIN ATOMIC CHARGES
----------------------
   0 C :   -0.352535
   1 C :   -0.004536
   2 C :   -0.132001
   3 C :   -0.094331
   4 C :   -0.060209
   5 C :    0.136833
   6 O :   -0.277727
   7 N :   -0.114486
   8 C :   -0.047408
   9 C :   -0.365776
  10 C :   -0.013508
  11 C :   -0.132575
  12 C :   -0.125201
  13 C :   -0.135757
  14 C :   -0.082459
  15 Cl:    0.030173
  16 C :   -0.128732
  17 C :   -0.069184
  18 C :    0.132086
  19 N :   -0.399584
  20 O :   -0.289426
  21 C :   -0.014705
  22 C :   -0.116896
  23 C :   -0.126775
  24 C :   -0.121756
  25 C :   -0.126454
  26 C :   -0.123196
  27 C :   -0.121510
  28 C :   -0.135502
  29 H :    0.134247
  30 H :    0.134858
  31 H :    0.143099
  32 H :    0.135202
  33 H :    0.144983
  34 H :    0.155019
  35 H :    0.134235
  36 H :    0.126351
  37 H :    0.129164
  38 H :    0.131556
  39 H :    0.134666
  40 H :    0.141059
  41 H :    0.144255
  42 H :    0.169546
  43 H :    0.263849
  44 H :    0.257613
  45 H :    0.136078
  46 H :    0.134187
  47 H :    0.132613
  48 H :    0.130306
  49 H :    0.128180
  50 H :    0.138612
  51 H :    0.133456

  Mayer bond orders larger than 0.100000
B(  0-C ,  1-C ) :   0.9913 B(  0-C , 29-H ) :   0.9445 B(  0-C , 30-H ) :   0.9441
B(  0-C , 31-H ) :   0.9308 B(  1-C ,  2-C ) :   1.4245 B(  1-C , 28-C ) :   1.4331
B(  2-C ,  3-C ) :   1.4297 B(  2-C , 32-H ) :   0.9251 B(  3-C ,  4-C ) :   1.3980
B(  3-C , 33-H ) :   0.9189 B(  4-C ,  5-C ) :   0.9763 B(  4-C , 27-C ) :   1.3922
B(  5-C ,  6-O ) :   1.7659 B(  5-C ,  7-N ) :   1.0417 B(  7-N ,  8-C ) :   0.9216
B(  7-N , 17-C ) :   0.9206 B(  8-C ,  9-C ) :   1.0031 B(  8-C , 10-C ) :   0.9604
B(  8-C , 34-H ) :   0.9098 B(  9-C , 35-H ) :   0.9369 B(  9-C , 36-H ) :   0.9310
B(  9-C , 37-H ) :   0.9369 B( 10-C , 11-C ) :   1.4067 B( 10-C , 16-C ) :   1.4314
B( 11-C , 12-C ) :   1.4420 B( 11-C , 38-H ) :   0.9192 B( 12-C , 13-C ) :   1.4442
B( 12-C , 39-H ) :   0.9286 B( 13-C , 14-C ) :   1.4254 B( 13-C , 40-H ) :   0.9248
B( 14-C , 15-Cl) :   1.0056 B( 14-C , 16-C ) :   1.3928 B( 16-C , 41-H ) :   0.9114
B( 17-C , 18-C ) :   0.9022 B( 17-C , 21-C ) :   0.9546 B( 17-C , 42-H ) :   0.8897
B( 18-C , 19-N ) :   1.0860 B( 18-C , 20-O ) :   1.8210 B( 19-N , 43-H ) :   0.8260
B( 19-N , 44-H ) :   0.7925 B( 21-C , 22-C ) :   1.4310 B( 21-C , 26-C ) :   1.4193
B( 22-C , 23-C ) :   1.4346 B( 22-C , 45-H ) :   0.9111 B( 23-C , 24-C ) :   1.4492
B( 23-C , 46-H ) :   0.9285 B( 24-C , 25-C ) :   1.4533 B( 24-C , 47-H ) :   0.9294
B( 25-C , 26-C ) :   1.4410 B( 25-C , 48-H ) :   0.9300 B( 26-C , 49-H ) :   0.9175
B( 27-C , 28-C ) :   1.4229 B( 27-C , 50-H ) :   0.9065 B( 28-C , 51-H ) :   0.9254

FINAL SINGLE POINT ENERGY     -1647.725831235578

DIPOLE MOMENT
-------------

Method             : SCF
Type of density    : Electron Density
Multiplicity       :   1
Irrep              :   0
Energy             : -1647.7258312355779708 Eh
Relativity type    :
Basis              : AO
                                X                 Y                 Z
Electronic contribution:    -21.838892606      -0.355199246       5.629478297
Nuclear contribution   :     23.042311677      -0.275585921      -5.279769578
                        -----------------------------------------
Total Dipole Moment    :      1.203419071      -0.630785167       0.349708719
                        -----------------------------------------
Magnitude (a.u.)       :      1.402998067
Magnitude (Debye)      :      3.566137680

Rotational constants in cm-1:             0.008630             0.003564             0.003318
Rotational constants in MHz :           258.717765           106.834836            99.485283

                             ****ORCA TERMINATED NORMALLY****
TOTAL RUN TIME: 0 days 0 hours 5 minutes 59 seconds 308 msec
