                         Program Version 6.0.0  -   RELEASE  -
|  1> ! B3LYP 6-31G* SP
|  2>
|  3> * xyz 0 1
|  4> C 1.9074 1.2005 -1.6237
|  5> C 1.8502 0.4874 -0.2613
|  6> C 2.9196 -0.5819 -0.1130
|  7> C 3.2247 -1.4844 -1.1527
|  8> C 4.1960 -2.4724 -0.9716
|  9> C 4.8716 -2.5792 0.2455
| 10> C 4.5751 -1.6974 1.2878
| 11> Cl 5.4116 -1.8414 2.8219
| 12> C 3.6025 -0.7072 1.1120
| 13> N 0.5017 -0.0460 0.0457
| 14> C -0.0980 0.3418 1.3001
| 15> O 0.3352 -0.1659 2.3710
| 16> C -1.1751 1.3593 1.3638
| 17> C -1.3608 2.2869 0.3225
| 18> C -2.3915 3.2296 0.3873
| 19> C -3.2477 3.2574 1.4904
| 20> C -3.0724 2.3440 2.5321
| 21> C -2.0373 1.4051 2.4757
| 22> C -0.1717 -1.0407 -0.8261
| 23> C -0.3052 -2.4117 -0.1801
| 24> N 0.5578 -2.8472 0.8708
| 25> O -1.1401 -3.2320 -0.6510
| 26> C -1.5116 -0.5064 -1.3128
| 27> C -1.5852 0.1942 -2.5315
| 28> C -2.7948 0.7476 -2.9612
| 29> C -3.9455 0.6106 -2.1802
| 30> C -3.8863 -0.0745 -0.9650
| 31> C -2.6790 -0.6294 -0.5309
| 32> H 1.6002 0.5457 -2.4614
| 33> H 2.9454 1.5470 -1.8201
| 34> H 1.2529 2.0948 -1.6222
| 35> H 2.0872 1.2924 0.4738
| 36> H 2.7242 -1.4296 -2.1081
| 37> H 4.4250 -3.1592 -1.7768
| 38> H 5.6237 -3.3483 0.3777
| 39> H 3.3738 -0.0412 1.9348
| 40> H -0.7216 2.2778 -0.5454
| 41> H -2.5266 3.9393 -0.4199
| 42> H -4.0468 3.9868 1.5369
| 43> H -3.7375 2.3657 3.3869
| 44> H -1.9207 0.7071 3.2941
| 45> H 0.4514 -1.2266 -1.7219
| 46> H 1.3108 -2.2431 1.2583
| 47> H 0.4553 -3.8109 1.2610
| 48> H -0.7049 0.3190 -3.1504
| 49> H -2.8393 1.2884 -3.8973
| 50> H -4.8807 1.0458 -2.5104
| 51> H -4.7733 -0.1649 -0.3510
| 52> H -2.6495 -1.1326 0.4262
| 53> *
| 54>
| 55>                          ****END OF INPUT****

CARTESIAN COORDINATES (ANGSTROEM)
---------------------------------
  C      1.907400    1.200500   -1.623700
  C      1.850200    0.487400   -0.261300
  C      2.919600   -0.581900   -0.113000
  C      3.224700   -1.484400   -1.152700
  C      4.196000   -2.472400   -0.971600
  C      4.871600   -2.579200    0.245500
  C      4.575100   -1.697400    1.287800
  Cl     5.411600   -1.841400    2.821900
  C      3.602500   -0.707200    1.112000
  N      0.501700   -0.046000    0.045700
  C     -0.098000    0.341800    1.300100
  O      0.335200   -0.165900    2.371000
  C     -1.175100    1.359300    1.363800
  C     -1.360800    2.286900    0.322500
  C     -2.391500    3.229600    0.387300
  C     -3.247700    3.257400    1.490400
  C     -3.072400    2.344000    2.532100
  C     -2.037300    1.405100    2.475700
  C     -0.171700   -1.040700   -0.826100
  C     -0.305200   -2.411700   -0.180100
  N      0.557800   -2.847200    0.870800
  O     -1.140100   -3.232000   -0.651000
  C     -1.511600   -0.506400   -1.312800
  C     -1.585200    0.194200   -2.531500
  C     -2.794800    0.747600   -2.961200
  C     -3.945500    0.610600   -2.180200
  C     -3.886300   -0.074500   -0.965000
  C     -2.679000   -0.629400   -0.530900
  H      1.600200    0.545700   -2.461400
  H      2.945400    1.547000   -1.820100
  H      1.252900    2.094800   -1.622200
  H      2.087200    1.292400    0.473800
  H      2.724200   -1.429600   -2.108100
  H      4.425000   -3.159200   -1.776800
  H      5.623700   -3.348300    0.377700
  H      3.373800   -0.041200    1.934800
  H     -0.721600    2.277800   -0.545400
  H     -2.526600    3.939300   -0.419900
  H     -4.046800    3.986800    1.536900
  H     -3.737500    2.365700    3.386900
  H     -1.920700    0.707100    3.294100
  H      0.451400   -1.226600   -1.721900
  H      1.310800   -2.243100    1.258300
  H      0.455300   -3.810900    1.261000
  H     -0.704900    0.319000   -3.150400
  H     -2.839300    1.288400   -3.897300
  H     -4.880700    1.045800   -2.510400
  H     -4.773300   -0.164900   -0.351000
  H     -2.649500   -1.132600    0.426200

 Total Charge           Charge          ....    0
 Multiplicity           Mult            ....    1
 Number of Electrons    NEL             ....  206
 Basis Dimension        Dim             ....  438

ORBITAL ENERGIES
----------------

  NO   OCC          E(Eh)            E(eV)
   0   2.0000    -101.529043     -2762.7457
   1   2.0000     -19.136946      -520.7428
   2   2.0000     -19.095318      -519.6100
   3   2.0000     -14.338404      -390.1678
   4   2.0000     -14.335368      -390.0852
   5   2.0000     -10.301219      -280.3104
   6   2.0000     -10.279302      -279.7140
   7   2.0000     -10.250244      -278.9233
   8   2.0000     -10.241365      -278.6817
   9   2.0000     -10.240708      -278.6638
  10   2.0000     -10.205875      -277.7160
  11   2.0000     -10.201246      -277.5900
  12   2.0000     -10.198850      -277.5248
  13   2.0000     -10.198410      -277.5129
  14   2.0000     -10.198340      -277.5109
  15   2.0000     -10.195502      -277.4337
  16   2.0000     -10.195209      -277.4257
  17   2.0000     -10.194406      -277.4039
  18   2.0000     -10.193327      -277.3745
  19   2.0000     -10.191717      -277.3307
  20   2.0000     -10.190925      -277.3092
  21   2.0000     -10.190700      -277.3031
  22   2.0000     -10.188464      -277.2422
  23   2.0000     -10.181395      -277.0498
  24   2.0000     -10.179552      -276.9997
  25   2.0000     -10.177819      -276.9525
  26   2.0000     -10.177281      -276.9379
  27   2.0000     -10.176625      -276.9201
  28   2.0000      -9.460957      -257.4457
  29   2.0000      -7.223972      -196.5743
  30   2.0000      -7.214588      -196.3189
  31   2.0000      -7.214236      -196.3093
  32   2.0000      -1.028332       -27.9823
  33   2.0000      -0.996341       -27.1118
  34   2.0000      -0.925080       -25.1727
  35   2.0000      -0.890266       -24.2254
  36   2.0000      -0.860613       -23.4185
  37   2.0000      -0.857475       -23.3331
  38   2.0000      -0.848272       -23.0827
  39   2.0000      -0.838529       -22.8175
  40   2.0000      -0.793609       -21.5952
  41   2.0000      -0.769669       -20.9438
  42   2.0000      -0.756823       -20.5942
  43   2.0000      -0.750836       -20.4313
  44   2.0000      -0.745303       -20.2807
  45   2.0000      -0.738672       -20.1003
  46   2.0000      -0.728507       -19.8237
  47   2.0000      -0.700268       -19.0553
  48   2.0000      -0.655037       -17.8245
  49   2.0000      -0.630687       -17.1619
  50   2.0000      -0.615254       -16.7419
  51   2.0000      -0.610547       -16.6138
  52   2.0000      -0.604604       -16.4521
  53   2.0000      -0.595137       -16.1945
  54   2.0000      -0.584281       -15.8991
  55   2.0000      -0.571349       -15.5472
  56   2.0000      -0.547028       -14.8854
  57   2.0000      -0.529713       -14.4142
  58   2.0000      -0.524148       -14.2628
  59   2.0000      -0.511336       -13.9142
  60   2.0000      -0.499624       -13.5955
  61   2.0000      -0.494164       -13.4469
  62   2.0000      -0.490191       -13.3388
  63   2.0000      -0.474858       -12.9215
  64   2.0000      -0.466796       -12.7022
  65   2.0000      -0.460663       -12.5353
  66   2.0000      -0.456934       -12.4338
  67   2.0000      -0.453457       -12.3392
  68   2.0000      -0.446692       -12.1551
  69   2.0000      -0.442108       -12.0304
  70   2.0000      -0.433007       -11.7827
  71   2.0000      -0.427229       -11.6255
  72   2.0000      -0.425587       -11.5808
  73   2.0000      -0.419078       -11.4037
  74   2.0000      -0.417829       -11.3697
  75   2.0000      -0.411072       -11.1859
  76   2.0000      -0.405028       -11.0214
  77   2.0000      -0.400636       -10.9018
  78   2.0000      -0.392342       -10.6762
  79   2.0000      -0.386337       -10.5128
  80   2.0000      -0.382562       -10.4100
  81   2.0000      -0.377596       -10.2749
  82   2.0000      -0.365331        -9.9412
  83   2.0000      -0.362975        -9.8771
  84   2.0000      -0.360199        -9.8015
  85   2.0000      -0.354275        -9.6403
  86   2.0000      -0.350757        -9.5446
  87   2.0000      -0.346105        -9.4180
  88   2.0000      -0.343134        -9.3372
  89   2.0000      -0.339999        -9.2518
  90   2.0000      -0.334597        -9.1048
  91   2.0000      -0.331469        -9.0197
  92   2.0000      -0.312358        -8.4997
  93   2.0000      -0.277162        -7.5420
  94   2.0000      -0.264011        -7.1841
  95   2.0000      -0.258496        -7.0340
  96   2.0000      -0.254141        -6.9155
  97   2.0000      -0.250179        -6.8077
  98   2.0000      -0.247889        -6.7454
  99   2.0000      -0.242588        -6.6011
 100   2.0000      -0.240335        -6.5399
 101   2.0000      -0.233388        -6.3508
 102   2.0000      -0.209618        -5.7040
 103   0.0000      -0.064910        -1.7663
 104   0.0000      -0.018402        -0.5007
 105   0.0000      -0.017662        -0.4806
 106   0.0000      -0.007983        -0.2172
 107   0.0000       0.000578         0.0157

MULLIKEN ATOMIC CHARGES
-----------------------
   0 C :   -0.453013
   1 C :   -0.064918
   2 C :    0.174375
   3 C :   -0.174882
   4 C :   -0.117205
   5 C :   -0.132559
   6 C :   -0.064650
   7 Cl:   -0.014087
   8 C :   -0.197404
   9 N :   -0.451966
  10 C :    0.416919
  11 O :   -0.427204
  12 C :    0.110986
  13 C :   -0.148479
  14 C :   -0.127493
  15 C :   -0.114547
  16 C :   -0.132617
  17 C :   -0.152142
  18 C :   -0.166053
  19 C :    0.553263
  20 N :   -0.766570
  21 O :   -0.483247
  22 C :    0.202873
  23 C :   -0.191420
  24 C :   -0.128855
  25 C :   -0.124092
  26 C :   -0.127373
  27 C :   -0.146822
  28 H :    0.148290
  29 H :    0.157463
  30 H :    0.158678
  31 H :    0.157693
  32 H :    0.131724
  33 H :    0.143651
  34 H :    0.152276
  35 H :    0.163607
  36 H :    0.147993
  37 H :    0.134406
  38 H :    0.136195
  39 H :    0.137221
  40 H :    0.158308
  41 H :    0.180219
  42 H :    0.360853
  43 H :    0.343209
  44 H :    0.117341
  45 H :    0.124735
  46 H :    0.124589
  47 H :    0.129822
  48 H :    0.140909
Sum of atomic charges:   -0.0000000

LOEWDIN ATOMIC CHARGES
----------------------
   0 C :   -0.360051
   1 C :   -0.044042
   2 C :   -0.021647
   3 C :   -0.137560
   4 C :   -0.117030
   5 C :   -0.135518
   6 C :   -0.087806
   7 Cl:    0.039095
   8 C :   -0.141196
   9 N :   -0.150144
  10 C :    0.156667
  11 O :   -0.231437
  12 C :   -0.055687
  13 C :   -0.099233
  14 C :   -0.127293
  15 C :   -0.109181
  16 C :   -0.130382
  17 C :   -0.094724
  18 C :   -0.064075
  19 C :    0.127538
  20 N :   -0.389850
  21 O :   -0.296657
  22 C :   -0.008100
  23 C :   -0.137586
  24 C :   -0.133291
  25 C :   -0.129308
  26 C :   -0.124405
  27 C :   -0.110409
  28 H :    0.121751
  29 H :    0.134252
  30 H :    0.129224
  31 H :    0.137964
  32 H :    0.131737
  33 H :    0.139587
  34 H :    0.144577
  35 H :    0.149333
  36 H :    0.140054
  37 H :    0.134680
  38 H :    0.134881
  39 H :    0.135613
  40 H :    0.148084
  41 H :    0.154834
  42 H :    0.259759
  43 H :    0.261659
  44 H :    0.125218
  45 H :    0.129776
  46 H :    0.129801
  47 H :    0.132679
  48 H :    0.137845

  Mayer bond orders larger than 0.100000
B(  0-C ,  1-C ) :   0.9935 B(  0-C , 28-H ) :   0.9330 B(  0-C , 29-H ) :   0.9381
B(  0-C , 30-H ) :   0.9367 B(  1-C ,  2-C ) :   0.9508 B(  1-C ,  9-N ) :   0.9487
B(  1-C , 31-H ) :   0.9228 B(  2-C ,  3-C ) :   1.4125 B(  2-C ,  8-C ) :   1.4169
B(  3-C ,  4-C ) :   1.4402 B(  3-C , 32-H ) :   0.9196 B(  4-C ,  5-C ) :   1.4500
B(  4-C , 33-H ) :   0.9267 B(  5-C ,  6-C ) :   1.4174 B(  5-C , 34-H ) :   0.9237
B(  6-C ,  7-Cl) :   1.0150 B(  6-C ,  8-C ) :   1.3964 B(  8-C , 35-H ) :   0.9125
B(  9-N , 10-C ) :   0.9537 B(  9-N , 18-C ) :   0.9204 B( 10-C , 11-O ) :   1.8576
B( 10-C , 12-C ) :   1.0021 B( 12-C , 13-C ) :   1.3872 B( 12-C , 17-C ) :   1.3784
B( 13-C , 14-C ) :   1.4406 B( 13-C , 36-H ) :   0.9055 B( 14-C , 15-C ) :   1.4446
B( 14-C , 37-H ) :   0.9292 B( 15-C , 16-C ) :   1.4359 B( 15-C , 38-H ) :   0.9293
B( 16-C , 17-C ) :   1.4403 B( 16-C , 39-H ) :   0.9293 B( 17-C , 40-H ) :   0.9162
B( 18-C , 19-C ) :   0.9053 B( 18-C , 22-C ) :   0.9435 B( 18-C , 41-H ) :   0.9007
B( 19-C , 20-N ) :   1.1114 B( 19-C , 21-O ) :   1.8231 B( 20-N , 21-O ) :   0.1048
B( 20-N , 42-H ) :   0.7839 B( 20-N , 43-H ) :   0.8286 B( 22-C , 23-C ) :   1.4230
B( 22-C , 27-C ) :   1.4200 B( 23-C , 24-C ) :   1.4384 B( 23-C , 44-H ) :   0.9214
B( 24-C , 25-C ) :   1.4561 B( 24-C , 45-H ) :   0.9301 B( 25-C , 26-C ) :   1.4469
B( 25-C , 46-H ) :   0.9306 B( 26-C , 27-C ) :   1.4441 B( 26-C , 47-H ) :   0.9292
B( 27-C , 48-H ) :   0.9182

FINAL SINGLE POINT ENERGY     -1608.428358345989

DIPOLE MOMENT
-------------

Method             : SCF
Type of density    : Electron Density
Multiplicity       :   1
Irrep              :   0
Energy             : -1608.4283583459889542 Eh
Relativity type    :
Basis              : AO
                                X                 Y                 Z
Electronic contribution:     16.939272554     -10.919438939      15.383207287
Nuclear contribution   :    -16.867406602      12.386313193     -16.108191241
                        -----------------------------------------
Total Dipole Moment    :      0.071865952       1.466874254      -0.724983954
                        -----------------------------------------
Magnitude (a.u.)       :      1.637829822
Magnitude (Debye)      :      4.163032567

Rotational constants in cm-1:             0.010097             0.003663             0.003257
Rotational constants in MHz :           302.701719           109.826519            97.656551

                             ****ORCA TERMINATED NORMALLY****
TOTAL RUN TIME: 0 days 0 hours 7 minutes 37 seconds 579 msec
