                         Program Version 6.0.0  -   RELEASE  -
|  1> ! B3LYP 6-31G* SP
|  2>
|  3> * xyz 0 1
|  4> O 3.1671 0.2895 -1.1482
|  5> C 2.0884 0.0328 -0.5456
|  6> N 2.0505 -1.0679 0.3773
|  7> C 3.2022 -1.5566 1.0881
|  8> C 4.2803 -0.7145 1.4128
|  9> C 5.3680 -1.2292 2.1232
| 10> N 5.3750 -2.5313 2.5119
| 11> C 4.3386 -3.3636 2.2290
| 12> C 3.2317 -2.8898 1.5200
| 13> N 0.9065 0.8305 -0.8066
| 14> C 0.9289 1.8387 -1.8800
| 15> C 0.6549 3.2161 -1.2948
| 16> C -0.6223 3.2113 -0.5031
| 17> C -1.3469 4.4061 -0.3602
| 18> C -2.4960 4.4458 0.4313
| 19> C -2.9205 3.3006 1.1043
| 20> C -2.2002 2.1104 0.9845
| 21> C -1.0522 2.0450 0.1720
| 22> C -0.2785 0.7359 0.0787
| 23> C -1.1954 -0.3979 -0.3555
| 24> C -1.4858 -1.4474 0.5345
| 25> C -2.3375 -2.4885 0.1559
| 26> C -2.9511 -2.4834 -1.1073
| 27> C -3.8295 -3.6297 -1.5417
| 28> F -3.0609 -4.5595 -2.2176
| 29> F -4.8349 -3.1795 -2.3809
| 30> F -4.4196 -4.2415 -0.4488
| 31> C -2.6697 -1.4326 -1.9949
| 32> C -1.8151 -0.3933 -1.6177
| 33> H 1.1685 -1.6165 0.4515
| 34> H 4.2762 0.3325 1.1413
| 35> H 6.2036 -0.5892 2.3741
| 36> H 4.3721 -4.3940 2.5564
| 37> H 2.4086 -3.5586 1.3006
| 38> H 0.1658 1.5997 -2.6456
| 39> H 1.9038 1.8667 -2.4104
| 40> H 1.4928 3.5071 -0.6248
| 41> H 0.5965 3.9538 -2.1253
| 42> H -1.0165 5.3104 -0.8569
| 43> H -3.0505 5.3696 0.5333
| 44> H -3.8052 3.3365 1.7269
| 45> H -2.5378 1.2362 1.5274
| 46> H 0.0840 0.5456 1.1139
| 47> H -1.0455 -1.4670 1.5238
| 48> H -2.5161 -3.2972 0.8529
| 49> H -3.1157 -1.4124 -2.9815
| 50> H -1.6606 0.4204 -2.3081
| 51> *
| 52>
| 53>                          ****END OF INPUT****

CARTESIAN COORDINATES (ANGSTROEM)
---------------------------------
  O      3.167100    0.289500   -1.148200
  C      2.088400    0.032800   -0.545600
  N      2.050500   -1.067900    0.377300
  C      3.202200   -1.556600    1.088100
  C      4.280300   -0.714500    1.412800
  C      5.368000   -1.229200    2.123200
  N      5.375000   -2.531300    2.511900
  C      4.338600   -3.363600    2.229000
  C      3.231700   -2.889800    1.520000
  N      0.906500    0.830500   -0.806600
  C      0.928900    1.838700   -1.880000
  C      0.654900    3.216100   -1.294800
  C     -0.622300    3.211300   -0.503100
  C     -1.346900    4.406100   -0.360200
  C     -2.496000    4.445800    0.431300
  C     -2.920500    3.300600    1.104300
  C     -2.200200    2.110400    0.984500
  C     -1.052200    2.045000    0.172000
  C     -0.278500    0.735900    0.078700
  C     -1.195400   -0.397900   -0.355500
  C     -1.485800   -1.447400    0.534500
  C     -2.337500   -2.488500    0.155900
  C     -2.951100   -2.483400   -1.107300
  C     -3.829500   -3.629700   -1.541700
  F     -3.060900   -4.559500   -2.217600
  F     -4.834900   -3.179500   -2.380900
  F     -4.419600   -4.241500   -0.448800
  C     -2.669700   -1.432600   -1.994900
  C     -1.815100   -0.393300   -1.617700
  H      1.168500   -1.616500    0.451500
  H      4.276200    0.332500    1.141300
  H      6.203600   -0.589200    2.374100
  H      4.372100   -4.394000    2.556400
  H      2.408600   -3.558600    1.300600
  H      0.165800    1.599700   -2.645600
  H      1.903800    1.866700   -2.410400
  H      1.492800    3.507100   -0.624800
  H      0.596500    3.953800   -2.125300
  H     -1.016500    5.310400   -0.856900
  H     -3.050500    5.369600    0.533300
  H     -3.805200    3.336500    1.726900
  H     -2.537800    1.236200    1.527400
  H      0.084000    0.545600    1.113900
  H     -1.045500   -1.467000    1.523800
  H     -2.516100   -3.297200    0.852900
  H     -3.115700   -1.412400   -2.981500
  H     -1.660600    0.420400   -2.308100

 Total Charge           Charge          ....    0
 Multiplicity           Mult            ....    1
 Number of Electrons    NEL             ....  206
 Basis Dimension        Dim             ....  442

ORBITAL ENERGIES
----------------

  NO   OCC          E(Eh)            E(eV)
   0   2.0000     -24.725210      -672.8072
   1   2.0000     -24.724143      -672.7781
   2   2.0000     -24.720659      -672.6833
   3   2.0000     -19.110384      -520.0200
   4   2.0000     -14.375363      -391.1735
   5   2.0000     -14.370540      -391.0423
   6   2.0000     -14.311885      -389.4462
   7   2.0000     -10.440522      -284.1011
   8   2.0000     -10.325799      -280.9793
   9   2.0000     -10.250961      -278.9428
  10   2.0000     -10.245853      -278.8038
  11   2.0000     -10.223759      -278.2026
  12   2.0000     -10.222871      -278.1785
  13   2.0000     -10.220197      -278.1057
  14   2.0000     -10.214804      -277.9589
  15   2.0000     -10.213839      -277.9327
  16   2.0000     -10.213308      -277.9183
  17   2.0000     -10.211408      -277.8665
  18   2.0000     -10.211171      -277.8601
  19   2.0000     -10.208296      -277.7819
  20   2.0000     -10.207080      -277.7488
  21   2.0000     -10.201509      -277.5972
  22   2.0000     -10.193859      -277.3890
  23   2.0000     -10.193491      -277.3790
  24   2.0000     -10.190346      -277.2934
  25   2.0000     -10.189909      -277.2815
  26   2.0000     -10.189499      -277.2704
  27   2.0000     -10.188235      -277.2360
  28   2.0000     -10.182433      -277.0781
  29   2.0000      -1.284098       -34.9421
  30   2.0000      -1.209910       -32.9233
  31   2.0000      -1.208247       -32.8781
  32   2.0000      -1.026593       -27.9350
  33   2.0000      -0.939429       -25.5632
  34   2.0000      -0.929409       -25.2905
  35   2.0000      -0.906505       -24.6673
  36   2.0000      -0.882967       -24.0268
  37   2.0000      -0.862107       -23.4591
  38   2.0000      -0.815366       -22.1872
  39   2.0000      -0.792895       -21.5758
  40   2.0000      -0.776727       -21.1358
  41   2.0000      -0.772008       -21.0074
  42   2.0000      -0.768772       -20.9193
  43   2.0000      -0.755561       -20.5598
  44   2.0000      -0.739853       -20.1324
  45   2.0000      -0.708927       -19.2909
  46   2.0000      -0.674890       -18.3647
  47   2.0000      -0.657052       -17.8793
  48   2.0000      -0.637877       -17.3575
  49   2.0000      -0.629583       -17.1318
  50   2.0000      -0.626180       -17.0392
  51   2.0000      -0.621379       -16.9086
  52   2.0000      -0.603986       -16.4353
  53   2.0000      -0.587833       -15.9958
  54   2.0000      -0.575186       -15.6516
  55   2.0000      -0.572662       -15.5829
  56   2.0000      -0.570744       -15.5307
  57   2.0000      -0.558476       -15.1969
  58   2.0000      -0.544347       -14.8124
  59   2.0000      -0.527657       -14.3583
  60   2.0000      -0.516151       -14.0452
  61   2.0000      -0.505621       -13.7586
  62   2.0000      -0.485279       -13.2051
  63   2.0000      -0.480760       -13.0822
  64   2.0000      -0.474135       -12.9019
  65   2.0000      -0.471406       -12.8276
  66   2.0000      -0.468477       -12.7479
  67   2.0000      -0.463857       -12.6222
  68   2.0000      -0.453723       -12.3464
  69   2.0000      -0.453192       -12.3320
  70   2.0000      -0.449870       -12.2416
  71   2.0000      -0.446885       -12.1603
  72   2.0000      -0.441552       -12.0152
  73   2.0000      -0.434844       -11.8327
  74   2.0000      -0.428080       -11.6487
  75   2.0000      -0.426478       -11.6050
  76   2.0000      -0.424370       -11.5477
  77   2.0000      -0.420563       -11.4441
  78   2.0000      -0.415588       -11.3087
  79   2.0000      -0.406684       -11.0664
  80   2.0000      -0.405539       -11.0353
  81   2.0000      -0.402901       -10.9635
  82   2.0000      -0.395938       -10.7740
  83   2.0000      -0.390614       -10.6291
  84   2.0000      -0.387580       -10.5466
  85   2.0000      -0.381676       -10.3859
  86   2.0000      -0.375339       -10.2135
  87   2.0000      -0.369548       -10.0559
  88   2.0000      -0.367596       -10.0028
  89   2.0000      -0.367088        -9.9890
  90   2.0000      -0.353606        -9.6221
  91   2.0000      -0.345398        -9.3987
  92   2.0000      -0.334207        -9.0942
  93   2.0000      -0.316275        -8.6063
  94   2.0000      -0.279870        -7.6156
  95   2.0000      -0.277631        -7.5547
  96   2.0000      -0.264720        -7.2034
  97   2.0000      -0.252658        -6.8752
  98   2.0000      -0.252169        -6.8619
  99   2.0000      -0.247924        -6.7463
 100   2.0000      -0.239563        -6.5188
 101   2.0000      -0.232834        -6.3357
 102   2.0000      -0.229518        -6.2455
 103   0.0000      -0.042196        -1.1482
 104   0.0000      -0.032774        -0.8918
 105   0.0000      -0.019982        -0.5438
 106   0.0000      -0.014090        -0.3834
 107   0.0000      -0.005766        -0.1569

MULLIKEN ATOMIC CHARGES
-----------------------
   0 O :   -0.483614
   1 C :    0.684871
   2 N :   -0.726910
   3 C :    0.380126
   4 C :   -0.156107
   5 C :    0.009874
   6 N :   -0.378192
   7 C :    0.019793
   8 C :   -0.206149
   9 N :   -0.446515
  10 C :   -0.150751
  11 C :   -0.338213
  12 C :    0.104028
  13 C :   -0.183923
  14 C :   -0.120930
  15 C :   -0.129371
  16 C :   -0.173424
  17 C :    0.101800
  18 C :   -0.149250
  19 C :    0.197013
  20 C :   -0.218813
  21 C :   -0.156874
  22 C :   -0.015678
  23 C :    0.898107
  24 F :   -0.295483
  25 F :   -0.304273
  26 F :   -0.305043
  27 C :   -0.155437
  28 C :   -0.167514
  29 H :    0.337284
  30 H :    0.151161
  31 H :    0.149688
  32 H :    0.146724
  33 H :    0.124694
  34 H :    0.146183
  35 H :    0.196967
  36 H :    0.170024
  37 H :    0.145901
  38 H :    0.128323
  39 H :    0.131068
  40 H :    0.132485
  41 H :    0.130915
  42 H :    0.169871
  43 H :    0.141703
  44 H :    0.156866
  45 H :    0.158847
  46 H :    0.148145
Sum of atomic charges:   -0.0000000

LOEWDIN ATOMIC CHARGES
----------------------
   0 O :   -0.301840
   1 C :    0.168453
   2 N :   -0.228210
   3 C :    0.065198
   4 C :   -0.150123
   5 C :   -0.067120
   6 N :   -0.152802
   7 C :   -0.067177
   8 C :   -0.172763
   9 N :   -0.108046
  10 C :   -0.148659
  11 C :   -0.227911
  12 C :   -0.024734
  13 C :   -0.130448
  14 C :   -0.125351
  15 C :   -0.129847
  16 C :   -0.125869
  17 C :   -0.028167
  18 C :   -0.048707
  19 C :   -0.009567
  20 C :   -0.154073
  21 C :   -0.110383
  22 C :   -0.069132
  23 C :    0.311338
  24 F :   -0.113008
  25 F :   -0.113207
  26 F :   -0.112965
  27 C :   -0.104465
  28 C :   -0.116274
  29 H :    0.257233
  30 H :    0.146551
  31 H :    0.136029
  32 H :    0.134605
  33 H :    0.131215
  34 H :    0.116599
  35 H :    0.156430
  36 H :    0.140999
  37 H :    0.131765
  38 H :    0.132420
  39 H :    0.133132
  40 H :    0.133934
  41 H :    0.133963
  42 H :    0.142565
  43 H :    0.135155
  44 H :    0.145612
  45 H :    0.146660
  46 H :    0.140991

  Mayer bond orders larger than 0.100000
B(  0-O ,  1-C ) :   1.7957 B(  1-C ,  2-N ) :   0.9871 B(  1-C ,  9-N ) :   1.0490
B(  2-N ,  3-C ) :   0.9054 B(  2-N , 29-H ) :   0.7962 B(  3-C ,  4-C ) :   1.4167
B(  3-C ,  8-C ) :   1.4020 B(  4-C ,  5-C ) :   1.4243 B(  4-C , 30-H ) :   0.9079
B(  5-C ,  6-N ) :   1.4221 B(  5-C , 31-H ) :   0.9309 B(  6-N ,  7-C ) :   1.4407
B(  7-C ,  8-C ) :   1.4224 B(  7-C , 32-H ) :   0.9315 B(  8-C , 33-H ) :   0.9195
B(  9-N , 10-C ) :   0.9311 B(  9-N , 18-C ) :   0.9249 B( 10-C , 11-C ) :   0.9879
B( 10-C , 34-H ) :   0.9225 B( 10-C , 35-H ) :   0.9106 B( 11-C , 12-C ) :   0.9876
B( 11-C , 36-H ) :   0.9188 B( 11-C , 37-H ) :   0.9287 B( 12-C , 13-C ) :   1.4074
B( 12-C , 17-C ) :   1.4429 B( 13-C , 14-C ) :   1.4498 B( 13-C , 38-H ) :   0.9249
B( 14-C , 15-C ) :   1.4386 B( 14-C , 39-H ) :   0.9290 B( 15-C , 16-C ) :   1.4514
B( 15-C , 40-H ) :   0.9293 B( 16-C , 17-C ) :   1.3950 B( 16-C , 41-H ) :   0.9205
B( 17-C , 18-C ) :   0.9601 B( 18-C , 19-C ) :   0.9229 B( 18-C , 42-H ) :   0.9061
B( 19-C , 20-C ) :   1.4027 B( 19-C , 28-C ) :   1.4136 B( 20-C , 21-C ) :   1.4069
B( 20-C , 43-H ) :   0.9207 B( 21-C , 22-C ) :   1.4261 B( 21-C , 44-H ) :   0.9182
B( 22-C , 23-C ) :   0.9785 B( 22-C , 27-C ) :   1.3981 B( 23-C , 24-F ) :   0.9867
B( 23-C , 25-F ) :   0.9499 B( 23-C , 26-F ) :   0.9473 B( 27-C , 28-C ) :   1.4407
B( 27-C , 45-H ) :   0.9187 B( 28-C , 46-H ) :   0.9143

FINAL SINGLE POINT ENERGY     -1387.401476788872

DIPOLE MOMENT
-------------

Method             : SCF
Type of density    : Electron Density
Multiplicity       :   1
Irrep              :   0
Energy             : -1387.4014767888722872 Eh
Relativity type    :
Basis              : AO
                                X                 Y                 Z
Electronic contribution:    -20.395433003     -27.775902476      -8.300224913
Nuclear contribution   :     18.741268251      29.040112598       8.464764050
                        -----------------------------------------
Total Dipole Moment    :     -1.654164752       1.264210121       0.164539137
                        -----------------------------------------
Magnitude (a.u.)       :      2.088435152
Magnitude (Debye)      :      5.308380293

Rotational constants in cm-1:             0.005352             0.003785             0.002509
Rotational constants in MHz :           160.448701           113.486054            75.212889

                             ****ORCA TERMINATED NORMALLY****
TOTAL RUN TIME: 0 days 0 hours 7 minutes 58 seconds 98 msec
