                         Program Version 6.0.0  -   RELEASE  -
|  1> ! B3LYP 6-31G* SP
|  2>
|  3> * xyz 0 1
|  4> O 0.6081 0.2320 -1.3220
|  5> C 1.4190 0.2784 -0.3577
|  6> N 0.9806 -0.0760 0.9684
|  7> C -0.3360 -0.6486 1.2860
|  8> C -1.4535 0.2792 0.8364
|  9> C -2.2000 0.0493 -0.3362
| 10> C -3.2004 0.9431 -0.7278
| 11> C -3.4844 2.0801 0.0462
| 12> C -4.5287 3.0698 -0.4050
| 13> F -5.5424 2.4294 -1.0967
| 14> F -5.0897 3.7181 0.6818
| 15> F -3.9400 4.0066 -1.2336
| 16> C -2.7138 2.3318 1.1930
| 17> C -1.7134 1.4384 1.5852
| 18> C -0.4733 -2.0705 0.7763
| 19> N 0.3758 -2.5477 -0.1779
| 20> C 0.2734 -3.8101 -0.6716
| 21> C -0.7272 -4.6637 -0.2051
| 22> C -1.6149 -4.2055 0.7687
| 23> C -1.4942 -2.9058 1.2653
| 24> F -2.3656 -2.4632 2.2070
| 25> C 2.8138 0.7110 -0.6102
| 26> C 3.1122 1.5270 -1.7130
| 27> C 4.4260 1.9289 -1.9549
| 28> C 5.4417 1.5044 -1.0959
| 29> O 6.6316 1.8617 -1.3052
| 30> N 5.1464 0.7026 -0.0357
| 31> C 3.8713 0.2993 0.2201
| 32> H 1.6062 0.1388 1.7766
| 33> H -0.4015 -0.7197 2.3958
| 34> H -2.0054 -0.8133 -0.9600
| 35> H -3.7485 0.7478 -1.6410
| 36> H -2.8813 3.2230 1.7847
| 37> H -1.1335 1.6549 2.4742
| 38> H 0.9683 -4.1499 -1.4278
| 39> H -0.8143 -5.6694 -0.5954
| 40> H -2.3969 -4.8571 1.1368
| 41> H 2.3285 1.8629 -2.3810
| 42> H 4.6507 2.5643 -2.8028
| 43> H 5.9137 0.3806 0.5969
| 44> H 3.6918 -0.3629 1.0569
| 45> *
| 46>
| 47>                          ****END OF INPUT****

CARTESIAN COORDINATES (ANGSTROEM)
---------------------------------
  O      0.608100    0.232000   -1.322000
  C      1.419000    0.278400   -0.357700
  N      0.980600   -0.076000    0.968400
  C     -0.336000   -0.648600    1.286000
  C     -1.453500    0.279200    0.836400
  C     -2.200000    0.049300   -0.336200
  C     -3.200400    0.943100   -0.727800
  C     -3.484400    2.080100    0.046200
  C     -4.528700    3.069800   -0.405000
  F     -5.542400    2.429400   -1.096700
  F     -5.089700    3.718100    0.681800
  F     -3.940000    4.006600   -1.233600
  C     -2.713800    2.331800    1.193000
  C     -1.713400    1.438400    1.585200
  C     -0.473300   -2.070500    0.776300
  N      0.375800   -2.547700   -0.177900
  C      0.273400   -3.810100   -0.671600
  C     -0.727200   -4.663700   -0.205100
  C     -1.614900   -4.205500    0.768700
  C     -1.494200   -2.905800    1.265300
  F     -2.365600   -2.463200    2.207000
  C      2.813800    0.711000   -0.610200
  C      3.112200    1.527000   -1.713000
  C      4.426000    1.928900   -1.954900
  C      5.441700    1.504400   -1.095900
  O      6.631600    1.861700   -1.305200
  N      5.146400    0.702600   -0.035700
  C      3.871300    0.299300    0.220100
  H      1.606200    0.138800    1.776600
  H     -0.401500   -0.719700    2.395800
  H     -2.005400   -0.813300   -0.960000
  H     -3.748500    0.747800   -1.641000
  H     -2.881300    3.223000    1.784700
  H     -1.133500    1.654900    2.474200
  H      0.968300   -4.149900   -1.427800
  H     -0.814300   -5.669400   -0.595400
  H     -2.396900   -4.857100    1.136800
  H      2.328500    1.862900   -2.381000
  H      4.650700    2.564300   -2.802800
  H      5.913700    0.380600    0.596900
  H      3.691800   -0.362900    1.056900

 Total Charge           Charge          ....    0
 Multiplicity           Mult            ....    1
 Number of Electrons    NEL             ....  200
 Basis Dimension        Dim             ....  418

ORBITAL ENERGIES
----------------

  NO   OCC          E(Eh)            E(eV)
   0   2.0000     -24.720200      -672.6708
   1   2.0000     -24.712433      -672.4595
   2   2.0000     -24.712023      -672.4483
   3   2.0000     -24.707871      -672.3353
   4   2.0000     -19.112044      -520.0652
   5   2.0000     -19.084803      -519.3239
   6   2.0000     -14.410040      -392.1171
   7   2.0000     -14.366405      -390.9297
   8   2.0000     -14.342754      -390.2862
   9   2.0000     -10.426795      -283.7275
  10   2.0000     -10.298074      -280.2248
  11   2.0000     -10.288315      -279.9593
  12   2.0000     -10.275880      -279.6209
  13   2.0000     -10.266126      -279.3555
  14   2.0000     -10.253369      -279.0084
  15   2.0000     -10.244811      -278.7755
  16   2.0000     -10.229964      -278.3715
  17   2.0000     -10.216190      -277.9967
  18   2.0000     -10.213537      -277.9245
  19   2.0000     -10.209049      -277.8023
  20   2.0000     -10.208257      -277.7808
  21   2.0000     -10.205324      -277.7010
  22   2.0000     -10.205142      -277.6960
  23   2.0000     -10.196070      -277.4492
  24   2.0000     -10.193650      -277.3833
  25   2.0000     -10.193319      -277.3743
  26   2.0000     -10.190675      -277.3024
  27   2.0000     -10.189302      -277.2650
  28   2.0000      -1.271837       -34.6084
  29   2.0000      -1.232559       -33.5396
  30   2.0000      -1.197670       -32.5902
  31   2.0000      -1.195859       -32.5410
  32   2.0000      -1.028767       -27.9942
  33   2.0000      -1.013728       -27.5849
  34   2.0000      -0.954012       -25.9600
  35   2.0000      -0.948671       -25.8146
  36   2.0000      -0.913178       -24.8488
  37   2.0000      -0.863935       -23.5089
  38   2.0000      -0.832391       -22.6505
  39   2.0000      -0.812241       -22.1022
  40   2.0000      -0.802726       -21.8433
  41   2.0000      -0.774571       -21.0772
  42   2.0000      -0.768372       -20.9085
  43   2.0000      -0.752300       -20.4711
  44   2.0000      -0.721684       -19.6380
  45   2.0000      -0.679402       -18.4875
  46   2.0000      -0.673946       -18.3390
  47   2.0000      -0.654797       -17.8179
  48   2.0000      -0.645418       -17.5627
  49   2.0000      -0.634964       -17.2783
  50   2.0000      -0.617372       -16.7995
  51   2.0000      -0.611364       -16.6361
  52   2.0000      -0.586122       -15.9492
  53   2.0000      -0.566531       -15.4161
  54   2.0000      -0.562561       -15.3081
  55   2.0000      -0.558593       -15.2001
  56   2.0000      -0.553508       -15.0617
  57   2.0000      -0.549500       -14.9527
  58   2.0000      -0.532782       -14.4977
  59   2.0000      -0.526205       -14.3188
  60   2.0000      -0.517068       -14.0701
  61   2.0000      -0.505423       -13.7533
  62   2.0000      -0.490091       -13.3361
  63   2.0000      -0.484836       -13.1931
  64   2.0000      -0.475858       -12.9488
  65   2.0000      -0.468609       -12.7515
  66   2.0000      -0.463400       -12.6097
  67   2.0000      -0.456012       -12.4087
  68   2.0000      -0.451433       -12.2841
  69   2.0000      -0.442747       -12.0477
  70   2.0000      -0.440399       -11.9839
  71   2.0000      -0.437731       -11.9113
  72   2.0000      -0.433034       -11.7834
  73   2.0000      -0.429426       -11.6853
  74   2.0000      -0.422684       -11.5018
  75   2.0000      -0.413794       -11.2599
  76   2.0000      -0.412444       -11.2232
  77   2.0000      -0.406562       -11.0631
  78   2.0000      -0.402778       -10.9601
  79   2.0000      -0.402195       -10.9443
  80   2.0000      -0.396134       -10.7794
  81   2.0000      -0.390609       -10.6290
  82   2.0000      -0.388301       -10.5662
  83   2.0000      -0.381408       -10.3786
  84   2.0000      -0.376024       -10.2321
  85   2.0000      -0.373976       -10.1764
  86   2.0000      -0.362614        -9.8672
  87   2.0000      -0.351879        -9.5751
  88   2.0000      -0.349213        -9.5026
  89   2.0000      -0.329397        -8.9633
  90   2.0000      -0.309608        -8.4249
  91   2.0000      -0.292991        -7.9727
  92   2.0000      -0.273848        -7.4518
  93   2.0000      -0.264667        -7.2020
  94   2.0000      -0.261441        -7.1142
  95   2.0000      -0.257062        -6.9950
  96   2.0000      -0.248801        -6.7702
  97   2.0000      -0.239221        -6.5095
  98   2.0000      -0.233965        -6.3665
  99   2.0000      -0.215553        -5.8655
 100   0.0000      -0.057429        -1.5627
 101   0.0000      -0.040206        -1.0941
 102   0.0000      -0.027705        -0.7539
 103   0.0000      -0.024265        -0.6603
 104   0.0000      -0.020553        -0.5593

MULLIKEN ATOMIC CHARGES
-----------------------
   0 O :   -0.476011
   1 C :    0.545088
   2 N :   -0.631445
   3 C :   -0.095287
   4 C :    0.188332
   5 C :   -0.132605
   6 C :   -0.167206
   7 C :   -0.013232
   8 C :    0.893310
   9 F :   -0.306662
  10 F :   -0.307570
  11 F :   -0.296658
  12 C :   -0.160990
  13 C :   -0.172190
  14 C :    0.163109
  15 N :   -0.385626
  16 C :    0.010526
  17 C :   -0.127216
  18 C :   -0.176345
  19 C :    0.384399
  20 F :   -0.310306
  21 C :    0.019466
  22 C :   -0.104837
  23 C :   -0.207510
  24 C :    0.551667
  25 O :   -0.522933
  26 N :   -0.579003
  27 C :    0.035809
  28 H :    0.314749
  29 H :    0.160536
  30 H :    0.155035
  31 H :    0.151651
  32 H :    0.148217
  33 H :    0.122818
  34 H :    0.156287
  35 H :    0.145384
  36 H :    0.159540
  37 H :    0.175955
  38 H :    0.166086
  39 H :    0.354039
  40 H :    0.171631
Sum of atomic charges:    0.0000000

LOEWDIN ATOMIC CHARGES
----------------------
   0 O :   -0.274696
   1 C :    0.154215
   2 N :   -0.234445
   3 C :   -0.047609
   4 C :   -0.004478
   5 C :   -0.104216
   6 C :   -0.112391
   7 C :   -0.069735
   8 C :    0.309623
   9 F :   -0.114697
  10 F :   -0.115454
  11 F :   -0.114175
  12 C :   -0.115447
  13 C :   -0.126345
  14 C :   -0.000815
  15 N :   -0.112587
  16 C :   -0.074730
  17 C :   -0.137344
  18 C :   -0.131670
  19 C :    0.100914
  20 F :   -0.099012
  21 C :   -0.094539
  22 C :   -0.069366
  23 C :   -0.147503
  24 C :    0.079510
  25 O :   -0.325949
  26 N :   -0.094905
  27 C :   -0.045622
  28 H :    0.244757
  29 H :    0.145830
  30 H :    0.146454
  31 H :    0.143541
  32 H :    0.141701
  33 H :    0.129828
  34 H :    0.139171
  35 H :    0.141096
  36 H :    0.150109
  37 H :    0.157412
  38 H :    0.158368
  39 H :    0.279752
  40 H :    0.145450

  Mayer bond orders larger than 0.100000
B(  0-O ,  1-C ) :   1.8013 B(  1-C ,  2-N ) :   1.0062 B(  1-C , 21-C ) :   1.0052
B(  2-N ,  3-C ) :   0.9362 B(  2-N , 28-H ) :   0.8308 B(  3-C ,  4-C ) :   0.9421
B(  3-C , 14-C ) :   0.9427 B(  3-C , 29-H ) :   0.9178 B(  4-C ,  5-C ) :   1.4366
B(  4-C , 13-C ) :   1.4135 B(  5-C ,  6-C ) :   1.4227 B(  5-C , 30-H ) :   0.9113
B(  6-C ,  7-C ) :   1.4064 B(  6-C , 31-H ) :   0.9203 B(  7-C ,  8-C ) :   0.9802
B(  7-C , 12-C ) :   1.4128 B(  8-C ,  9-F ) :   0.9472 B(  8-C , 10-F ) :   0.9459
B(  8-C , 11-F ) :   0.9869 B( 12-C , 13-C ) :   1.4312 B( 12-C , 32-H ) :   0.9204
B( 13-C , 33-H ) :   0.9266 B( 14-C , 15-N ) :   1.4103 B( 14-C , 19-C ) :   1.3089
B( 15-N , 16-C ) :   1.4236 B( 16-C , 17-C ) :   1.4175 B( 16-C , 34-H ) :   0.9280
B( 17-C , 18-C ) :   1.4360 B( 17-C , 35-H ) :   0.9240 B( 18-C , 19-C ) :   1.3921
B( 18-C , 36-H ) :   0.9175 B( 19-C , 20-F ) :   0.9287 B( 21-C , 22-C ) :   1.2461
B( 21-C , 27-C ) :   1.5144 B( 22-C , 23-C ) :   1.5544 B( 22-C , 37-H ) :   0.9105
B( 23-C , 24-C ) :   1.1879 B( 23-C , 38-H ) :   0.9254 B( 24-C , 25-O ) :   1.7555
B( 24-C , 26-N ) :   0.9793 B( 26-N , 27-C ) :   1.1395 B( 26-N , 39-H ) :   0.8121
B( 27-C , 40-H ) :   0.9116

FINAL SINGLE POINT ENERGY     -1445.131068754616

DIPOLE MOMENT
-------------

Method             : SCF
Type of density    : Electron Density
Multiplicity       :   1
Irrep              :   0
Energy             : -1445.1310687546156259 Eh
Relativity type    :
Basis              : AO
                                X                 Y                 Z
Electronic contribution:    -24.299343968      13.326223075       0.665559176
Nuclear contribution   :     24.312127956     -15.445339053       1.224295156
                        -----------------------------------------
Total Dipole Moment    :      0.012783988      -2.119115978       1.889854331
                        -----------------------------------------
Magnitude (a.u.)       :      2.839430463
Magnitude (Debye)      :      7.217258671

Rotational constants in cm-1:             0.006579             0.003443             0.002491
Rotational constants in MHz :           197.238253           103.213491            74.663905

                             ****ORCA TERMINATED NORMALLY****
TOTAL RUN TIME: 0 days 0 hours 4 minutes 38 seconds 563 msec
