                         Program Version 6.0.0  -   RELEASE  -
|  1> ! B3LYP 6-31G* SP
|  2>
|  3> * xyz 0 1
|  4> C -4.9784 -0.4384 -2.5244
|  5> N -5.4509 -0.3135 -1.1347
|  6> C -4.7189 0.4156 -0.2255
|  7> O -3.6332 0.9646 -0.5578
|  8> C -5.2088 0.5439 1.0717
|  9> C -6.3921 -0.0374 1.4083
| 10> C -6.6456 0.2525 2.7363
| 11> C -5.5617 1.0153 3.1521
| 12> N -4.6871 1.1987 2.1338
| 13> C -3.4156 1.9187 2.2269
| 14> C -2.2673 0.9532 2.2456
| 15> O -2.2992 -0.0262 3.0395
| 16> N -1.1224 1.1818 1.4098
| 17> C -0.0997 0.2096 1.1508
| 18> N 1.0393 0.5146 0.4946
| 19> C 1.8440 -0.5722 0.3209
| 20> C 3.1592 -0.4606 -0.3601
| 21> C 3.8136 -1.5929 -0.8793
| 22> C 5.0559 -1.4734 -1.5127
| 23> Cl 5.7757 -2.9071 -2.2333
| 24> C 5.6715 -0.2132 -1.6256
| 25> O 6.9242 -0.0745 -2.2364
| 26> C 8.1182 -0.6268 -1.6802
| 27> C 8.8480 0.4175 -0.8284
| 28> C 9.5462 1.4876 -1.6743
| 29> F 10.5418 0.9116 -2.4451
| 30> F 8.6396 2.1229 -2.5043
| 31> F 10.1199 2.4279 -0.8374
| 32> C 5.0052 0.9241 -1.1448
| 33> Cl 5.7207 2.5195 -1.3101
| 34> C 3.7625 0.7993 -0.5149
| 35> C 1.3300 -1.7625 0.8458
| 36> S -0.1671 -1.4281 1.5339
| 37> N -7.1361 -0.7524 0.5201
| 38> C -8.4256 -1.3268 0.9325
| 39> C -6.6668 -0.8668 -0.7711
| 40> O -7.3567 -1.4793 -1.6346
| 41> H -5.2640 -1.4219 -2.9568
| 42> H -5.4175 0.3743 -3.1411
| 43> H -3.8702 -0.3822 -2.5838
| 44> H -7.4983 -0.0440 3.3316
| 45> H -5.4260 1.4112 4.1501
| 46> H -3.3861 2.5238 3.1586
| 47> H -3.3257 2.6257 1.3754
| 48> H -1.0275 2.1128 0.9452
| 49> H 3.3536 -2.5699 -0.8246
| 50> H 8.7751 -0.9772 -2.5044
| 51> H 7.8843 -1.5062 -1.0423
| 52> H 9.6140 -0.0972 -0.2089
| 53> H 8.1254 0.9001 -0.1354
| 54> H 3.2750 1.6899 -0.1366
| 55> H 1.8048 -2.7337 0.8404
| 56> H -8.8142 -2.0578 0.1928
| 57> H -8.3123 -1.8707 1.8947
| 58> H -9.1729 -0.5144 1.0573
| 59> *
| 60>
| 61>                          ****END OF INPUT****

CARTESIAN COORDINATES (ANGSTROEM)
---------------------------------
  C     -4.978400   -0.438400   -2.524400
  N     -5.450900   -0.313500   -1.134700
  C     -4.718900    0.415600   -0.225500
  O     -3.633200    0.964600   -0.557800
  C     -5.208800    0.543900    1.071700
  C     -6.392100   -0.037400    1.408300
  C     -6.645600    0.252500    2.736300
  C     -5.561700    1.015300    3.152100
  N     -4.687100    1.198700    2.133800
  C     -3.415600    1.918700    2.226900
  C     -2.267300    0.953200    2.245600
  O     -2.299200   -0.026200    3.039500
  N     -1.122400    1.181800    1.409800
  C     -0.099700    0.209600    1.150800
  N      1.039300    0.514600    0.494600
  C      1.844000   -0.572200    0.320900
  C      3.159200   -0.460600   -0.360100
  C      3.813600   -1.592900   -0.879300
  C      5.055900   -1.473400   -1.512700
  Cl     5.775700   -2.907100   -2.233300
  C      5.671500   -0.213200   -1.625600
  O      6.924200   -0.074500   -2.236400
  C      8.118200   -0.626800   -1.680200
  C      8.848000    0.417500   -0.828400
  C      9.546200    1.487600   -1.674300
  F     10.541800    0.911600   -2.445100
  F      8.639600    2.122900   -2.504300
  F     10.119900    2.427900   -0.837400
  C      5.005200    0.924100   -1.144800
  Cl     5.720700    2.519500   -1.310100
  C      3.762500    0.799300   -0.514900
  C      1.330000   -1.762500    0.845800
  S     -0.167100   -1.428100    1.533900
  N     -7.136100   -0.752400    0.520100
  C     -8.425600   -1.326800    0.932500
  C     -6.666800   -0.866800   -0.771100
  O     -7.356700   -1.479300   -1.634600
  H     -5.264000   -1.421900   -2.956800
  H     -5.417500    0.374300   -3.141100
  H     -3.870200   -0.382200   -2.583800
  H     -7.498300   -0.044000    3.331600
  H     -5.426000    1.411200    4.150100
  H     -3.386100    2.523800    3.158600
  H     -3.325700    2.625700    1.375400
  H     -1.027500    2.112800    0.945200
  H      3.353600   -2.569900   -0.824600
  H      8.775100   -0.977200   -2.504400
  H      7.884300   -1.506200   -1.042300
  H      9.614000   -0.097200   -0.208900
  H      8.125400    0.900100   -0.135400
  H      3.275000    1.689900   -0.136600
  H      1.804800   -2.733700    0.840400
  H     -8.814200   -2.057800    0.192800
  H     -8.312300   -1.870700    1.894700
  H     -9.172900   -0.514400    1.057300

 Total Charge           Charge          ....    0
 Multiplicity           Mult            ....    1
 Number of Electrons    NEL             ....  294
 Basis Dimension        Dim             ....  566

ORBITAL ENERGIES
----------------

  NO   OCC          E(Eh)            E(eV)
   0   2.0000    -101.539787     -2763.0381
   1   2.0000    -101.529932     -2762.7699
   2   2.0000     -88.907853     -2419.3057
   3   2.0000     -24.713575      -672.4906
   4   2.0000     -24.709315      -672.3746
   5   2.0000     -24.706730      -672.3043
   6   2.0000     -19.170240      -521.6487
   7   2.0000     -19.144607      -520.9512
   8   2.0000     -19.106055      -519.9022
   9   2.0000     -19.102282      -519.7995
  10   2.0000     -14.412319      -392.1791
  11   2.0000     -14.401914      -391.8960
  12   2.0000     -14.394208      -391.6863
  13   2.0000     -14.390950      -391.5977
  14   2.0000     -14.336310      -390.1108
  15   2.0000     -10.425360      -283.6885
  16   2.0000     -10.322967      -280.9022
  17   2.0000     -10.319229      -280.8005
  18   2.0000     -10.296054      -280.1699
  19   2.0000     -10.289142      -279.9818
  20   2.0000     -10.270022      -279.4615
  21   2.0000     -10.265258      -279.3319
  22   2.0000     -10.259436      -279.1735
  23   2.0000     -10.255802      -279.0746
  24   2.0000     -10.251535      -278.9585
  25   2.0000     -10.233143      -278.4580
  26   2.0000     -10.232213      -278.4327
  27   2.0000     -10.230862      -278.3959
  28   2.0000     -10.230725      -278.3922
  29   2.0000     -10.216177      -277.9963
  30   2.0000     -10.215445      -277.9764
  31   2.0000     -10.213924      -277.9350
  32   2.0000     -10.212707      -277.9019
  33   2.0000     -10.208043      -277.7750
  34   2.0000     -10.207067      -277.7484
  35   2.0000     -10.202134      -277.6142
  36   2.0000     -10.186381      -277.1855
  37   2.0000      -9.470992      -257.7188
  38   2.0000      -9.461194      -257.4522
  39   2.0000      -7.984160      -217.2600
  40   2.0000      -7.234260      -196.8542
  41   2.0000      -7.224581      -196.5908
  42   2.0000      -7.224568      -196.5905
  43   2.0000      -7.224209      -196.5807
  44   2.0000      -7.214852      -196.3261
  45   2.0000      -7.214177      -196.3077
  46   2.0000      -5.947289      -161.8340
  47   2.0000      -5.943020      -161.7178
  48   2.0000      -5.941126      -161.6663
  49   2.0000      -1.270187       -34.5635
  50   2.0000      -1.197587       -32.5880
  51   2.0000      -1.193399       -32.4741
  52   2.0000      -1.062627       -28.9156
  53   2.0000      -1.055996       -28.7351
  54   2.0000      -1.047220       -28.4963
  55   2.0000      -1.024851       -27.8876
  56   2.0000      -1.011294       -27.5187
  57   2.0000      -0.983342       -26.7581
  58   2.0000      -0.961574       -26.1658
  59   2.0000      -0.933199       -25.3936
  60   2.0000      -0.923270       -25.1235
  61   2.0000      -0.901505       -24.5312
  62   2.0000      -0.874237       -23.7892
  63   2.0000      -0.840918       -22.8826
  64   2.0000      -0.833275       -22.6746
  65   2.0000      -0.813557       -22.1380
  66   2.0000      -0.805304       -21.9134
  67   2.0000      -0.783492       -21.3199
  68   2.0000      -0.773528       -21.0488
  69   2.0000      -0.752641       -20.4804
  70   2.0000      -0.737635       -20.0721
  71   2.0000      -0.732641       -19.9362
  72   2.0000      -0.725966       -19.7545
  73   2.0000      -0.707931       -19.2638
  74   2.0000      -0.688368       -18.7314
  75   2.0000      -0.654477       -17.8092
  76   2.0000      -0.646186       -17.5836
  77   2.0000      -0.640418       -17.4267
  78   2.0000      -0.627943       -17.0872
  79   2.0000      -0.619739       -16.8640
  80   2.0000      -0.610371       -16.6090
  81   2.0000      -0.599789       -16.3211
  82   2.0000      -0.591519       -16.0960
  83   2.0000      -0.579672       -15.7737
  84   2.0000      -0.567311       -15.4373
  85   2.0000      -0.564789       -15.3687
  86   2.0000      -0.562224       -15.2989
  87   2.0000      -0.546703       -14.8765
  88   2.0000      -0.534971       -14.5573
  89   2.0000      -0.529042       -14.3960
  90   2.0000      -0.522323       -14.2131
  91   2.0000      -0.518388       -14.1061
  92   2.0000      -0.503963       -13.7135
  93   2.0000      -0.497863       -13.5475
  94   2.0000      -0.496121       -13.5001
  95   2.0000      -0.490079       -13.3357
  96   2.0000      -0.480529       -13.0759
  97   2.0000      -0.473844       -12.8939
  98   2.0000      -0.471489       -12.8299
  99   2.0000      -0.461379       -12.5548
 100   2.0000      -0.456400       -12.4193
 101   2.0000      -0.451794       -12.2939
 102   2.0000      -0.447505       -12.1772
 103   2.0000      -0.444452       -12.0942
 104   2.0000      -0.442096       -12.0300
 105   2.0000      -0.440134       -11.9767
 106   2.0000      -0.438833       -11.9412
 107   2.0000      -0.437386       -11.9019
 108   2.0000      -0.432248       -11.7621
 109   2.0000      -0.431144       -11.7320
 110   2.0000      -0.426924       -11.6172
 111   2.0000      -0.421490       -11.4693
 112   2.0000      -0.417462       -11.3597
 113   2.0000      -0.414030       -11.2663
 114   2.0000      -0.411680       -11.2024
 115   2.0000      -0.407125       -11.0784
 116   2.0000      -0.399225       -10.8635
 117   2.0000      -0.398305       -10.8384
 118   2.0000      -0.393728       -10.7139
 119   2.0000      -0.390396       -10.6232
 120   2.0000      -0.390040       -10.6135
 121   2.0000      -0.388274       -10.5655
 122   2.0000      -0.386237       -10.5100
 123   2.0000      -0.383877       -10.4458
 124   2.0000      -0.378578       -10.3016
 125   2.0000      -0.371876       -10.1193
 126   2.0000      -0.367927       -10.0118
 127   2.0000      -0.364255        -9.9119
 128   2.0000      -0.361586        -9.8393
 129   2.0000      -0.341764        -9.2999
 130   2.0000      -0.334770        -9.1096
 131   2.0000      -0.320811        -8.7297
 132   2.0000      -0.319722        -8.7001
 133   2.0000      -0.312313        -8.4985
 134   2.0000      -0.309920        -8.4334
 135   2.0000      -0.294097        -8.0028
 136   2.0000      -0.288129        -7.8404
 137   2.0000      -0.281653        -7.6642
 138   2.0000      -0.277229        -7.5438
 139   2.0000      -0.267974        -7.2919
 140   2.0000      -0.261162        -7.1066
 141   2.0000      -0.251750        -6.8505
 142   2.0000      -0.249736        -6.7957
 143   2.0000      -0.248334        -6.7575
 144   2.0000      -0.245145        -6.6707
 145   2.0000      -0.216426        -5.8893
 146   2.0000      -0.215371        -5.8606
 147   0.0000      -0.050018        -1.3611
 148   0.0000      -0.037802        -1.0286
 149   0.0000      -0.026999        -0.7347
 150   0.0000      -0.024439        -0.6650
 151   0.0000       0.001886         0.0513

MULLIKEN ATOMIC CHARGES
-----------------------
   0 C :   -0.313103
   1 N :   -0.489396
   2 C :    0.555094
   3 O :   -0.539479
   4 C :    0.208140
   5 C :    0.287178
   6 C :   -0.216071
   7 C :    0.025825
   8 N :   -0.419981
   9 C :   -0.242402
  10 C :    0.581502
  11 O :   -0.451195
  12 N :   -0.631282
  13 C :    0.267912
  14 N :   -0.432458
  15 C :    0.208929
  16 C :    0.143072
  17 C :   -0.190810
  18 C :   -0.120622
  19 Cl:    0.005963
  20 C :    0.349247
  21 O :   -0.496284
  22 C :   -0.050660
  23 C :   -0.385723
  24 C :    0.928817
  25 F :   -0.308268
  26 F :   -0.287765
  27 F :   -0.308372
  28 C :   -0.116433
  29 Cl:    0.013448
  30 C :   -0.181849
  31 C :   -0.400564
  32 S :    0.326325
  33 N :   -0.504823
  34 C :   -0.330919
  35 C :    0.667092
  36 O :   -0.515693
  37 H :    0.192368
  38 H :    0.174105
  39 H :    0.193813
  40 H :    0.142459
  41 H :    0.162494
  42 H :    0.194842
  43 H :    0.195902
  44 H :    0.362020
  45 H :    0.153798
  46 H :    0.172914
  47 H :    0.153814
  48 H :    0.166651
  49 H :    0.185749
  50 H :    0.177026
  51 H :    0.184081
  52 H :    0.214854
  53 H :    0.168145
  54 H :    0.170574
Sum of atomic charges:    0.0000000

LOEWDIN ATOMIC CHARGES
----------------------
   0 C :   -0.258896
   1 N :   -0.030409
   2 C :    0.102811
   3 O :   -0.329802
   4 C :   -0.071196
   5 C :    0.015109
   6 C :   -0.208540
   7 C :   -0.074088
   8 N :    0.059868
   9 C :   -0.160580
  10 C :    0.146088
  11 O :   -0.255804
  12 N :   -0.185706
  13 C :   -0.073688
  14 N :   -0.183280
  15 C :   -0.007290
  16 C :   -0.013663
  17 C :   -0.128958
  18 C :   -0.104567
  19 Cl:    0.050734
  20 C :    0.060702
  21 O :   -0.184506
  22 C :   -0.086434
  23 C :   -0.276877
  24 C :    0.307644
  25 F :   -0.121975
  26 F :   -0.106216
  27 F :   -0.119719
  28 C :   -0.100109
  29 Cl:    0.055774
  30 C :   -0.117014
  31 C :   -0.346686
  32 S :    0.434220
  33 N :   -0.024752
  34 C :   -0.260514
  35 C :    0.141766
  36 O :   -0.325246
  37 H :    0.151067
  38 H :    0.138097
  39 H :    0.151924
  40 H :    0.141813
  41 H :    0.143711
  42 H :    0.158552
  43 H :    0.153388
  44 H :    0.280157
  45 H :    0.146141
  46 H :    0.136849
  47 H :    0.125145
  48 H :    0.146982
  49 H :    0.153705
  50 H :    0.159630
  51 H :    0.162259
  52 H :    0.163911
  53 H :    0.134663
  54 H :    0.133802

  Mayer bond orders larger than 0.100000
B(  0-C ,  1-N ) :   0.9211 B(  0-C , 37-H ) :   0.9275 B(  0-C , 38-H ) :   0.9414
B(  0-C , 39-H ) :   0.9237 B(  1-N ,  2-C ) :   0.9819 B(  1-N , 35-C ) :   1.0304
B(  2-C ,  3-O ) :   1.6991 B(  2-C ,  4-C ) :   1.1184 B(  4-C ,  5-C ) :   1.3625
B(  4-C ,  8-N ) :   1.0305 B(  5-C ,  6-C ) :   1.3581 B(  5-C , 33-N ) :   0.9584
B(  6-C ,  7-C ) :   1.4794 B(  6-C , 40-H ) :   0.9247 B(  7-C ,  8-N ) :   1.2187
B(  7-C , 41-H ) :   0.9245 B(  8-N ,  9-C ) :   0.9752 B(  9-C , 10-C ) :   0.9165
B(  9-C , 42-H ) :   0.9135 B(  9-C , 43-H ) :   0.9069 B( 10-C , 11-O ) :   1.8361
B( 10-C , 12-N ) :   1.0342 B( 12-N , 13-C ) :   0.9495 B( 12-N , 44-H ) :   0.8057
B( 13-C , 14-N ) :   1.4801 B( 13-C , 31-C ) :   0.1072 B( 13-C , 32-S ) :   1.1823
B( 14-N , 15-C ) :   1.2904 B( 15-C , 16-C ) :   1.0535 B( 15-C , 31-C ) :   1.5145
B( 16-C , 17-C ) :   1.3958 B( 16-C , 30-C ) :   1.3927 B( 17-C , 18-C ) :   1.3982
B( 17-C , 45-H ) :   0.9113 B( 18-C , 19-Cl) :   1.0309 B( 18-C , 20-C ) :   1.3207
B( 20-C , 21-O ) :   0.9538 B( 20-C , 28-C ) :   1.3370 B( 21-O , 22-C ) :   0.8996
B( 22-C , 23-C ) :   0.9659 B( 22-C , 46-H ) :   0.9261 B( 22-C , 47-H ) :   0.9216
B( 23-C , 24-C ) :   0.9833 B( 23-C , 48-H ) :   0.9169 B( 23-C , 49-H ) :   0.9153
B( 24-C , 25-F ) :   0.9572 B( 24-C , 26-F ) :   0.9822 B( 24-C , 27-F ) :   0.9613
B( 28-C , 29-Cl) :   1.0498 B( 28-C , 30-C ) :   1.3753 B( 30-C , 50-H ) :   0.9045
B( 31-C , 32-S ) :   1.1166 B( 31-C , 51-H ) :   0.9017 B( 33-N , 34-C ) :   0.9446
B( 33-N , 35-C ) :   1.0622 B( 34-C , 52-H ) :   0.9204 B( 34-C , 53-H ) :   0.9332
B( 34-C , 54-H ) :   0.9362 B( 35-C , 36-O ) :   1.7862

FINAL SINGLE POINT ENERGY     -3040.802202063194

DIPOLE MOMENT
-------------

Method             : SCF
Type of density    : Electron Density
Multiplicity       :   1
Irrep              :   0
Energy             : -3040.8022020631938176 Eh
Relativity type    :
Basis              : AO
                                X                 Y                 Z
Electronic contribution:     70.981559303       7.979189998     -13.672095368
Nuclear contribution   :    -72.569866064      -7.919988016      15.842300455
                        -----------------------------------------
Total Dipole Moment    :     -1.588306761       0.059201981       2.170205087
                        -----------------------------------------
Magnitude (a.u.)       :      2.689983896
Magnitude (Debye)      :      6.837395686

Rotational constants in cm-1:             0.007668             0.000803             0.000781
Rotational constants in MHz :           229.870915            24.079189            23.412415

                             ****ORCA TERMINATED NORMALLY****
TOTAL RUN TIME: 0 days 0 hours 6 minutes 8 seconds 280 msec
