                         Program Version 6.0.0  -   RELEASE  -
|  1> ! B3LYP 6-31G* SP
|  2>
|  3> * xyz 0 1
|  4> C 5.2811 -1.6591 1.9484
|  5> O 5.1372 -1.4360 0.5502
|  6> C 4.1186 -0.6642 -0.0289
|  7> C 4.1058 -0.5204 -1.4196
|  8> C 3.1142 0.2415 -2.0451
|  9> C 2.1205 0.8601 -1.2830
| 10> C 2.1103 0.7220 0.1127
| 11> C 1.0168 1.3574 0.9375
| 12> N -0.2334 0.5775 0.9063
| 13> C -1.4651 1.3200 0.9865
| 14> O -2.0571 1.4190 2.0950
| 15> C -2.0316 1.9726 -0.2189
| 16> C -1.5949 1.6043 -1.5061
| 17> C -2.1370 2.2161 -2.6398
| 18> C -3.1259 3.1957 -2.5040
| 19> C -3.5776 3.5610 -1.2355
| 20> C -3.0383 2.9503 -0.0959
| 21> C -0.2406 -0.8743 1.1934
| 22> C -0.3781 -1.1495 2.6723
| 23> O -0.6829 -2.3064 3.0742
| 24> O -0.0769 -0.1619 3.6022
| 25> C -1.2971 -1.5721 0.3492
| 26> C -0.9472 -2.0716 -0.9199
| 27> C -1.9114 -2.6687 -1.7386
| 28> C -3.2360 -2.7644 -1.3050
| 29> C -3.6034 -2.2503 -0.0592
| 30> C -2.6443 -1.6480 0.7619
| 31> C 3.1161 -0.0365 0.7371
| 32> H 4.3960 -2.1974 2.3423
| 33> H 6.1834 -2.2856 2.1280
| 34> H 5.4096 -0.6887 2.4806
| 35> H 4.8708 -1.0012 -2.0173
| 36> H 3.1180 0.3507 -3.1207
| 37> H 1.3660 1.4497 -1.7805
| 38> H 1.3459 1.4758 1.9929
| 39> H 0.8360 2.3851 0.5465
| 40> H -0.8624 0.8210 -1.6357
| 41> H -1.7945 1.9257 -3.6218
| 42> H -3.5438 3.6680 -3.3856
| 43> H -4.3511 4.3133 -1.1331
| 44> H -3.4176 3.2327 0.8814
| 45> H 0.7372 -1.3156 0.9140
| 46> H -0.1145 -0.3542 4.5955
| 47> H 0.0728 -1.9936 -1.2769
| 48> H -1.6299 -3.0570 -2.7079
| 49> H -3.9758 -3.2361 -1.9326
| 50> H -4.6329 -2.3146 0.2708
| 51> H -2.9537 -1.2404 1.7172
| 52> H 3.0988 -0.1516 1.8159
| 53> *
| 54>
| 55>                          ****END OF INPUT****

CARTESIAN COORDINATES (ANGSTROEM)
---------------------------------
  C      5.281100   -1.659100    1.948400
  O      5.137200   -1.436000    0.550200
  C      4.118600   -0.664200   -0.028900
  C      4.105800   -0.520400   -1.419600
  C      3.114200    0.241500   -2.045100
  C      2.120500    0.860100   -1.283000
  C      2.110300    0.722000    0.112700
  C      1.016800    1.357400    0.937500
  N     -0.233400    0.577500    0.906300
  C     -1.465100    1.320000    0.986500
  O     -2.057100    1.419000    2.095000
  C     -2.031600    1.972600   -0.218900
  C     -1.594900    1.604300   -1.506100
  C     -2.137000    2.216100   -2.639800
  C     -3.125900    3.195700   -2.504000
  C     -3.577600    3.561000   -1.235500
  C     -3.038300    2.950300   -0.095900
  C     -0.240600   -0.874300    1.193400
  C     -0.378100   -1.149500    2.672300
  O     -0.682900   -2.306400    3.074200
  O     -0.076900   -0.161900    3.602200
  C     -1.297100   -1.572100    0.349200
  C     -0.947200   -2.071600   -0.919900
  C     -1.911400   -2.668700   -1.738600
  C     -3.236000   -2.764400   -1.305000
  C     -3.603400   -2.250300   -0.059200
  C     -2.644300   -1.648000    0.761900
  C      3.116100   -0.036500    0.737100
  H      4.396000   -2.197400    2.342300
  H      6.183400   -2.285600    2.128000
  H      5.409600   -0.688700    2.480600
  H      4.870800   -1.001200   -2.017300
  H      3.118000    0.350700   -3.120700
  H      1.366000    1.449700   -1.780500
  H      1.345900    1.475800    1.992900
  H      0.836000    2.385100    0.546500
  H     -0.862400    0.821000   -1.635700
  H     -1.794500    1.925700   -3.621800
  H     -3.543800    3.668000   -3.385600
  H     -4.351100    4.313300   -1.133100
  H     -3.417600    3.232700    0.881400
  H      0.737200   -1.315600    0.914000
  H     -0.114500   -0.354200    4.595500
  H      0.072800   -1.993600   -1.276900
  H     -1.629900   -3.057000   -2.707900
  H     -3.975800   -3.236100   -1.932600
  H     -4.632900   -2.314600    0.270800
  H     -2.953700   -1.240400    1.717200
  H      3.098800   -0.151600    1.815900

 Total Charge           Charge          ....    0
 Multiplicity           Mult            ....    1
 Number of Electrons    NEL             ....  198
 Basis Dimension        Dim             ....  434

ORBITAL ENERGIES
----------------

  NO   OCC          E(Eh)            E(eV)
   0   2.0000     -19.175905      -521.8029
   1   2.0000     -19.166822      -521.5558
   2   2.0000     -19.124879      -520.4144
   3   2.0000     -19.117417      -520.2114
   4   2.0000     -14.330941      -389.9647
   5   2.0000     -10.311177      -280.5814
   6   2.0000     -10.291306      -280.0407
   7   2.0000     -10.250307      -278.9250
   8   2.0000     -10.241229      -278.6780
   9   2.0000     -10.238989      -278.6170
  10   2.0000     -10.218692      -278.0648
  11   2.0000     -10.197325      -277.4833
  12   2.0000     -10.195388      -277.4306
  13   2.0000     -10.193579      -277.3814
  14   2.0000     -10.193125      -277.3690
  15   2.0000     -10.191040      -277.3123
  16   2.0000     -10.190279      -277.2916
  17   2.0000     -10.188827      -277.2521
  18   2.0000     -10.188322      -277.2383
  19   2.0000     -10.188282      -277.2373
  20   2.0000     -10.185859      -277.1713
  21   2.0000     -10.182702      -277.0854
  22   2.0000     -10.180415      -277.0232
  23   2.0000     -10.178906      -276.9821
  24   2.0000     -10.178399      -276.9683
  25   2.0000     -10.176922      -276.9281
  26   2.0000     -10.176685      -276.9217
  27   2.0000     -10.176242      -276.9096
  28   2.0000      -1.061245       -28.8779
  29   2.0000      -1.044692       -28.4275
  30   2.0000      -1.017552       -27.6890
  31   2.0000      -0.974243       -26.5105
  32   2.0000      -0.916674       -24.9440
  33   2.0000      -0.856552       -23.3080
  34   2.0000      -0.853773       -23.2323
  35   2.0000      -0.844209       -22.9721
  36   2.0000      -0.782500       -21.2929
  37   2.0000      -0.767748       -20.8915
  38   2.0000      -0.753597       -20.5064
  39   2.0000      -0.749245       -20.3880
  40   2.0000      -0.747398       -20.3377
  41   2.0000      -0.737352       -20.0644
  42   2.0000      -0.710451       -19.3323
  43   2.0000      -0.694319       -18.8934
  44   2.0000      -0.674780       -18.3617
  45   2.0000      -0.630034       -17.1441
  46   2.0000      -0.620594       -16.8872
  47   2.0000      -0.607430       -16.5290
  48   2.0000      -0.601525       -16.3683
  49   2.0000      -0.599171       -16.3043
  50   2.0000      -0.583295       -15.8723
  51   2.0000      -0.578651       -15.7459
  52   2.0000      -0.553217       -15.0538
  53   2.0000      -0.527978       -14.3670
  54   2.0000      -0.523242       -14.2381
  55   2.0000      -0.510034       -13.8787
  56   2.0000      -0.491115       -13.3639
  57   2.0000      -0.489140       -13.3102
  58   2.0000      -0.481257       -13.0957
  59   2.0000      -0.479465       -13.0469
  60   2.0000      -0.467619       -12.7246
  61   2.0000      -0.461242       -12.5510
  62   2.0000      -0.455063       -12.3829
  63   2.0000      -0.453189       -12.3319
  64   2.0000      -0.449681       -12.2365
  65   2.0000      -0.442537       -12.0420
  66   2.0000      -0.439003       -11.9459
  67   2.0000      -0.428849       -11.6696
  68   2.0000      -0.423934       -11.5358
  69   2.0000      -0.421858       -11.4793
  70   2.0000      -0.418877       -11.3982
  71   2.0000      -0.412602       -11.2275
  72   2.0000      -0.411586       -11.1998
  73   2.0000      -0.409771       -11.1504
  74   2.0000      -0.390979       -10.6391
  75   2.0000      -0.385369       -10.4864
  76   2.0000      -0.380601       -10.3567
  77   2.0000      -0.373599       -10.1662
  78   2.0000      -0.365705        -9.9513
  79   2.0000      -0.360639        -9.8135
  80   2.0000      -0.358227        -9.7478
  81   2.0000      -0.354844        -9.6558
  82   2.0000      -0.351352        -9.5608
  83   2.0000      -0.347744        -9.4626
  84   2.0000      -0.344486        -9.3740
  85   2.0000      -0.337750        -9.1907
  86   2.0000      -0.335468        -9.1285
  87   2.0000      -0.315864        -8.5951
  88   2.0000      -0.312771        -8.5109
  89   2.0000      -0.292442        -7.9578
  90   2.0000      -0.268004        -7.2927
  91   2.0000      -0.256742        -6.9863
  92   2.0000      -0.255031        -6.9397
  93   2.0000      -0.252577        -6.8730
  94   2.0000      -0.246744        -6.7143
  95   2.0000      -0.243710        -6.6317
  96   2.0000      -0.239755        -6.5241
  97   2.0000      -0.223181        -6.0731
  98   2.0000      -0.207034        -5.6337
  99   0.0000      -0.058215        -1.5841
 100   0.0000      -0.010066        -0.2739
 101   0.0000      -0.005796        -0.1577
 102   0.0000      -0.002116        -0.0576
 103   0.0000      -0.000029        -0.0008

MULLIKEN ATOMIC CHARGES
-----------------------
   0 C :   -0.196389
   1 O :   -0.511522
   2 C :    0.376080
   3 C :   -0.172750
   4 C :   -0.127199
   5 C :   -0.177881
   6 C :    0.146927
   7 C :   -0.217819
   8 N :   -0.438375
   9 C :    0.433895
  10 O :   -0.429463
  11 C :    0.101631
  12 C :   -0.160563
  13 C :   -0.135679
  14 C :   -0.113251
  15 C :   -0.132285
  16 C :   -0.152915
  17 C :   -0.154056
  18 C :    0.592726
  19 O :   -0.453660
  20 O :   -0.602220
  21 C :    0.173921
  22 C :   -0.187758
  23 C :   -0.127532
  24 C :   -0.121022
  25 C :   -0.133813
  26 C :   -0.154236
  27 C :   -0.266647
  28 H :    0.150119
  29 H :    0.169954
  30 H :    0.146233
  31 H :    0.139110
  32 H :    0.133578
  33 H :    0.127464
  34 H :    0.156817
  35 H :    0.160680
  36 H :    0.156969
  37 H :    0.132982
  38 H :    0.135169
  39 H :    0.136517
  40 H :    0.159146
  41 H :    0.197963
  42 H :    0.424482
  43 H :    0.135714
  44 H :    0.127258
  45 H :    0.126599
  46 H :    0.132405
  47 H :    0.155949
  48 H :    0.136748
Sum of atomic charges:    0.0000000

LOEWDIN ATOMIC CHARGES
----------------------
   0 C :   -0.199614
   1 O :   -0.193126
   2 C :    0.090391
   3 C :   -0.149918
   4 C :   -0.121118
   5 C :   -0.152222
   6 C :   -0.025035
   7 C :   -0.139664
   8 N :   -0.147481
   9 C :    0.158415
  10 O :   -0.232606
  11 C :   -0.057742
  12 C :   -0.108743
  13 C :   -0.133118
  14 C :   -0.110209
  15 C :   -0.130568
  16 C :   -0.091577
  17 C :   -0.064357
  18 C :    0.171353
  19 O :   -0.270436
  20 O :   -0.321317
  21 C :   -0.011971
  22 C :   -0.131077
  23 C :   -0.131042
  24 C :   -0.127009
  25 C :   -0.125455
  26 C :   -0.116691
  27 C :   -0.183349
  28 H :    0.117461
  29 H :    0.135966
  30 H :    0.115922
  31 H :    0.141295
  32 H :    0.134864
  33 H :    0.132384
  34 H :    0.121247
  35 H :    0.137766
  36 H :    0.145401
  37 H :    0.133666
  38 H :    0.134233
  39 H :    0.135170
  40 H :    0.148590
  41 H :    0.168174
  42 H :    0.342898
  43 H :    0.134014
  44 H :    0.131182
  45 H :    0.130989
  46 H :    0.133677
  47 H :    0.144450
  48 H :    0.135937

  Mayer bond orders larger than 0.100000
B(  0-C ,  1-O ) :   0.9192 B(  0-C , 28-H ) :   0.9298 B(  0-C , 29-H ) :   0.9447
B(  0-C , 30-H ) :   0.9303 B(  1-O ,  2-C ) :   0.9191 B(  2-C ,  3-C ) :   1.4059
B(  2-C , 27-C ) :   1.3442 B(  3-C ,  4-C ) :   1.4487 B(  3-C , 31-H ) :   0.9197
B(  4-C ,  5-C ) :   1.4301 B(  4-C , 32-H ) :   0.9294 B(  5-C ,  6-C ) :   1.4311
B(  5-C , 33-H ) :   0.9180 B(  6-C ,  7-C ) :   0.9645 B(  6-C , 27-C ) :   1.4104
B(  7-C ,  8-N ) :   0.9446 B(  7-C , 34-H ) :   0.9097 B(  7-C , 35-H ) :   0.9237
B(  8-N ,  9-C ) :   0.9471 B(  8-N , 17-C ) :   0.9524 B(  9-C , 10-O ) :   1.8710
B(  9-C , 11-C ) :   1.0039 B( 11-C , 12-C ) :   1.3905 B( 11-C , 16-C ) :   1.3826
B( 12-C , 13-C ) :   1.4312 B( 12-C , 36-H ) :   0.8995 B( 13-C , 14-C ) :   1.4463
B( 13-C , 37-H ) :   0.9302 B( 14-C , 15-C ) :   1.4386 B( 14-C , 38-H ) :   0.9296
B( 15-C , 16-C ) :   1.4364 B( 15-C , 39-H ) :   0.9297 B( 16-C , 40-H ) :   0.9143
B( 17-C , 18-C ) :   0.9042 B( 17-C , 21-C ) :   0.9648 B( 17-C , 41-H ) :   0.8853
B( 18-C , 19-O ) :   1.8691 B( 18-C , 20-O ) :   1.0320 B( 20-O , 42-H ) :   0.7461
B( 21-C , 22-C ) :   1.4224 B( 21-C , 26-C ) :   1.4311 B( 22-C , 23-C ) :   1.4390
B( 22-C , 43-H ) :   0.9201 B( 23-C , 24-C ) :   1.4549 B( 23-C , 44-H ) :   0.9300
B( 24-C , 25-C ) :   1.4507 B( 24-C , 45-H ) :   0.9306 B( 25-C , 26-C ) :   1.4364
B( 25-C , 46-H ) :   0.9293 B( 26-C , 47-H ) :   0.9128 B( 27-C , 48-H ) :   0.9098

FINAL SINGLE POINT ENERGY     -1243.939882006092

DIPOLE MOMENT
-------------

Method             : SCF
Type of density    : Electron Density
Multiplicity       :   1
Irrep              :   0
Energy             : -1243.9398820060923754 Eh
Relativity type    :
Basis              : AO
                                X                 Y                 Z
Electronic contribution:     -5.338212998       0.601726590       5.585133278
Nuclear contribution   :      5.880490054       0.102769228      -6.351617130
                        -----------------------------------------
Total Dipole Moment    :      0.542277056       0.704495818      -0.766483852
                        -----------------------------------------
Magnitude (a.u.)       :      1.173829740
Magnitude (Debye)      :      2.983638086

Rotational constants in cm-1:             0.007807             0.004402             0.003909
Rotational constants in MHz :           234.040032           131.980412           117.182200

                             ****ORCA TERMINATED NORMALLY****
TOTAL RUN TIME: 0 days 0 hours 5 minutes 44 seconds 26 msec
