                         Program Version 6.0.0  -   RELEASE  -
|  1> ! B3LYP 6-31G* SP
|  2>
|  3> * xyz 0 1
|  4> C -2.2397 -1.3033 -3.1797
|  5> C -3.0485 -0.8246 -2.0187
|  6> O -3.8977 0.1823 -2.0911
|  7> C -4.4114 0.3513 -0.8954
|  8> C -3.9012 -0.5483 -0.0097
|  9> C -3.0112 -1.3382 -0.7211
| 10> C -2.1120 -2.4298 -0.2118
| 11> C -0.7330 -1.8954 0.0313
| 12> O 0.1969 -2.2066 -0.7613
| 13> N -0.4859 -1.0213 1.1435
| 14> C 0.7805 -0.4051 1.4081
| 15> N 1.8803 -0.5712 0.6431
| 16> C 2.9469 0.1327 1.1164
| 17> C 4.2617 0.1026 0.4238
| 18> C 4.3519 -0.4088 -0.8795
| 19> C 5.5771 -0.4432 -1.5455
| 20> C 6.7443 0.0358 -0.9401
| 21> O 7.9175 -0.0197 -1.7156
| 22> C 9.0368 0.8618 -1.6530
| 23> F 9.9464 0.4130 -0.7145
| 24> F 8.6308 2.1516 -1.3577
| 25> F 9.6587 0.8707 -2.8863
| 26> C 6.6719 0.5198 0.3917
| 27> Cl 8.0756 1.0007 1.3352
| 28> C 5.4358 0.5534 1.0527
| 29> C 2.6798 0.8738 2.2733
| 30> S 1.0711 0.6254 2.6993
| 31> C -4.3118 -0.5221 1.3189
| 32> O -3.8707 -1.3703 2.1415
| 33> N -5.2113 0.4436 1.7098
| 34> C -5.6789 0.4874 3.1057
| 35> C -5.7299 1.3306 0.7823
| 36> O -6.5794 2.1935 1.1445
| 37> N -5.3323 1.2841 -0.5347
| 38> C -5.8464 2.2489 -1.5148
| 39> H -2.3801 -2.3960 -3.3138
| 40> H -2.5634 -0.7842 -4.1060
| 41> H -1.1662 -1.0863 -3.0016
| 42> H -2.0732 -3.2505 -0.9598
| 43> H -2.5101 -2.8706 0.7236
| 44> H -1.2733 -0.8079 1.7947
| 45> H 3.4717 -0.7746 -1.3935
| 46> H 5.6177 -0.8318 -2.5555
| 47> H 5.4088 0.9060 2.0745
| 48> H 3.3639 1.5198 2.8048
| 49> H -4.9039 0.1082 3.8055
| 50> H -6.5963 -0.1290 3.2101
| 51> H -5.9006 1.5291 3.4215
| 52> H -5.3712 3.2384 -1.3473
| 53> H -6.9483 2.3500 -1.4140
| 54> H -5.6385 1.9244 -2.5568
| 55> *
| 56>
| 57>                          ****END OF INPUT****

CARTESIAN COORDINATES (ANGSTROEM)
---------------------------------
  C     -2.239700   -1.303300   -3.179700
  C     -3.048500   -0.824600   -2.018700
  O     -3.897700    0.182300   -2.091100
  C     -4.411400    0.351300   -0.895400
  C     -3.901200   -0.548300   -0.009700
  C     -3.011200   -1.338200   -0.721100
  C     -2.112000   -2.429800   -0.211800
  C     -0.733000   -1.895400    0.031300
  O      0.196900   -2.206600   -0.761300
  N     -0.485900   -1.021300    1.143500
  C      0.780500   -0.405100    1.408100
  N      1.880300   -0.571200    0.643100
  C      2.946900    0.132700    1.116400
  C      4.261700    0.102600    0.423800
  C      4.351900   -0.408800   -0.879500
  C      5.577100   -0.443200   -1.545500
  C      6.744300    0.035800   -0.940100
  O      7.917500   -0.019700   -1.715600
  C      9.036800    0.861800   -1.653000
  F      9.946400    0.413000   -0.714500
  F      8.630800    2.151600   -1.357700
  F      9.658700    0.870700   -2.886300
  C      6.671900    0.519800    0.391700
  Cl     8.075600    1.000700    1.335200
  C      5.435800    0.553400    1.052700
  C      2.679800    0.873800    2.273300
  S      1.071100    0.625400    2.699300
  C     -4.311800   -0.522100    1.318900
  O     -3.870700   -1.370300    2.141500
  N     -5.211300    0.443600    1.709800
  C     -5.678900    0.487400    3.105700
  C     -5.729900    1.330600    0.782300
  O     -6.579400    2.193500    1.144500
  N     -5.332300    1.284100   -0.534700
  C     -5.846400    2.248900   -1.514800
  H     -2.380100   -2.396000   -3.313800
  H     -2.563400   -0.784200   -4.106000
  H     -1.166200   -1.086300   -3.001600
  H     -2.073200   -3.250500   -0.959800
  H     -2.510100   -2.870600    0.723600
  H     -1.273300   -0.807900    1.794700
  H      3.471700   -0.774600   -1.393500
  H      5.617700   -0.831800   -2.555500
  H      5.408800    0.906000    2.074500
  H      3.363900    1.519800    2.804800
  H     -4.903900    0.108200    3.805500
  H     -6.596300   -0.129000    3.210100
  H     -5.900600    1.529100    3.421500
  H     -5.371200    3.238400   -1.347300
  H     -6.948300    2.350000   -1.414000
  H     -5.638500    1.924400   -2.556800

 Total Charge           Charge          ....    0
 Multiplicity           Mult            ....    1
 Number of Electrons    NEL             ....  270
 Basis Dimension        Dim             ....  530

ORBITAL ENERGIES
----------------

  NO   OCC          E(Eh)            E(eV)
   0   2.0000    -101.528738     -2762.7374
   1   2.0000     -88.908537     -2419.3243
   2   2.0000     -24.731393      -672.9754
   3   2.0000     -24.730358      -672.9472
   4   2.0000     -24.725621      -672.8184
   5   2.0000     -19.259139      -524.0678
   6   2.0000     -19.209709      -522.7228
   7   2.0000     -19.122738      -520.3562
   8   2.0000     -19.121305      -520.3172
   9   2.0000     -19.118869      -520.2509
  10   2.0000     -14.422848      -392.4657
  11   2.0000     -14.407096      -392.0370
  12   2.0000     -14.391531      -391.6135
  13   2.0000     -14.326123      -389.8336
  14   2.0000     -10.496385      -285.6212
  15   2.0000     -10.339711      -281.3578
  16   2.0000     -10.307395      -280.4785
  17   2.0000     -10.303509      -280.3727
  18   2.0000     -10.301866      -280.3280
  19   2.0000     -10.290886      -280.0293
  20   2.0000     -10.275630      -279.6141
  21   2.0000     -10.257670      -279.1254
  22   2.0000     -10.256255      -279.0869
  23   2.0000     -10.247108      -278.8380
  24   2.0000     -10.228385      -278.3285
  25   2.0000     -10.227893      -278.3151
  26   2.0000     -10.211093      -277.8580
  27   2.0000     -10.206997      -277.7465
  28   2.0000     -10.205587      -277.7081
  29   2.0000     -10.205318      -277.7008
  30   2.0000     -10.203069      -277.6396
  31   2.0000     -10.200071      -277.5581
  32   2.0000     -10.198163      -277.5061
  33   2.0000     -10.196362      -277.4571
  34   2.0000     -10.191279      -277.3188
  35   2.0000      -9.460687      -257.4384
  36   2.0000      -7.986229      -217.3163
  37   2.0000      -7.224042      -196.5762
  38   2.0000      -7.214176      -196.3077
  39   2.0000      -7.213686      -196.2944
  40   2.0000      -5.949313      -161.8890
  41   2.0000      -5.945191      -161.7769
  42   2.0000      -5.943044      -161.7184
  43   2.0000      -1.294714       -35.2310
  44   2.0000      -1.215876       -33.0857
  45   2.0000      -1.213213       -33.0132
  46   2.0000      -1.189374       -32.3645
  47   2.0000      -1.078632       -29.3511
  48   2.0000      -1.077827       -29.3292
  49   2.0000      -1.031429       -28.0666
  50   2.0000      -1.022037       -27.8110
  51   2.0000      -0.984664       -26.7941
  52   2.0000      -0.975695       -26.5500
  53   2.0000      -0.949752       -25.8441
  54   2.0000      -0.914814       -24.8933
  55   2.0000      -0.890595       -24.2343
  56   2.0000      -0.860047       -23.4031
  57   2.0000      -0.842303       -22.9202
  58   2.0000      -0.813822       -22.1452
  59   2.0000      -0.813248       -22.1296
  60   2.0000      -0.788207       -21.4482
  61   2.0000      -0.773082       -21.0366
  62   2.0000      -0.752431       -20.4747
  63   2.0000      -0.739621       -20.1261
  64   2.0000      -0.733721       -19.9656
  65   2.0000      -0.730707       -19.8836
  66   2.0000      -0.714888       -19.4531
  67   2.0000      -0.693221       -18.8635
  68   2.0000      -0.671794       -18.2804
  69   2.0000      -0.641232       -17.4488
  70   2.0000      -0.636935       -17.3319
  71   2.0000      -0.630185       -17.1482
  72   2.0000      -0.619376       -16.8541
  73   2.0000      -0.614961       -16.7339
  74   2.0000      -0.598642       -16.2899
  75   2.0000      -0.587464       -15.9857
  76   2.0000      -0.586350       -15.9554
  77   2.0000      -0.583972       -15.8907
  78   2.0000      -0.573186       -15.5972
  79   2.0000      -0.545257       -14.8372
  80   2.0000      -0.541999       -14.7485
  81   2.0000      -0.537280       -14.6201
  82   2.0000      -0.523723       -14.2512
  83   2.0000      -0.514449       -13.9989
  84   2.0000      -0.502326       -13.6690
  85   2.0000      -0.495051       -13.4710
  86   2.0000      -0.484757       -13.1909
  87   2.0000      -0.481300       -13.0969
  88   2.0000      -0.469858       -12.7855
  89   2.0000      -0.468277       -12.7425
  90   2.0000      -0.467755       -12.7283
  91   2.0000      -0.459689       -12.5088
  92   2.0000      -0.458090       -12.4653
  93   2.0000      -0.457236       -12.4420
  94   2.0000      -0.453832       -12.3494
  95   2.0000      -0.451105       -12.2752
  96   2.0000      -0.440632       -11.9902
  97   2.0000      -0.439127       -11.9493
  98   2.0000      -0.434642       -11.8272
  99   2.0000      -0.432845       -11.7783
 100   2.0000      -0.430905       -11.7255
 101   2.0000      -0.428814       -11.6686
 102   2.0000      -0.425249       -11.5716
 103   2.0000      -0.423537       -11.5250
 104   2.0000      -0.420145       -11.4327
 105   2.0000      -0.414069       -11.2674
 106   2.0000      -0.411658       -11.2018
 107   2.0000      -0.409665       -11.1475
 108   2.0000      -0.407673       -11.0933
 109   2.0000      -0.405572       -11.0362
 110   2.0000      -0.403698       -10.9852
 111   2.0000      -0.397507       -10.8167
 112   2.0000      -0.394009       -10.7215
 113   2.0000      -0.392640       -10.6843
 114   2.0000      -0.384186       -10.4542
 115   2.0000      -0.376063       -10.2332
 116   2.0000      -0.368840       -10.0366
 117   2.0000      -0.364091        -9.9074
 118   2.0000      -0.359241        -9.7754
 119   2.0000      -0.348952        -9.4955
 120   2.0000      -0.336432        -9.1548
 121   2.0000      -0.334537        -9.1032
 122   2.0000      -0.308781        -8.4023
 123   2.0000      -0.305400        -8.3104
 124   2.0000      -0.295848        -8.0504
 125   2.0000      -0.290503        -7.9050
 126   2.0000      -0.285785        -7.7766
 127   2.0000      -0.280558        -7.6344
 128   2.0000      -0.277383        -7.5480
 129   2.0000      -0.260283        -7.0826
 130   2.0000      -0.256697        -6.9851
 131   2.0000      -0.244464        -6.6522
 132   2.0000      -0.236921        -6.4470
 133   2.0000      -0.213415        -5.8073
 134   2.0000      -0.210629        -5.7315
 135   0.0000      -0.041012        -1.1160
 136   0.0000      -0.031914        -0.8684
 137   0.0000      -0.023244        -0.6325
 138   0.0000      -0.015349        -0.4177
 139   0.0000      -0.010978        -0.2987

MULLIKEN ATOMIC CHARGES
-----------------------
   0 C :   -0.530669
   1 C :    0.255203
   2 O :   -0.401527
   3 C :    0.487883
   4 C :    0.027532
   5 C :    0.014081
   6 C :   -0.435262
   7 C :    0.566266
   8 O :   -0.436242
   9 N :   -0.665763
  10 C :    0.254712
  11 N :   -0.378566
  12 C :    0.217744
  13 C :    0.130822
  14 C :   -0.169648
  15 C :   -0.164649
  16 C :    0.347990
  17 O :   -0.545266
  18 C :    1.078476
  19 F :   -0.277465
  20 F :   -0.287237
  21 F :   -0.281805
  22 C :   -0.126768
  23 Cl:    0.002492
  24 C :   -0.184221
  25 C :   -0.397956
  26 S :    0.255110
  27 C :    0.502487
  28 O :   -0.519468
  29 N :   -0.482651
  30 C :   -0.316336
  31 C :    0.676188
  32 O :   -0.503385
  33 N :   -0.501281
  34 C :   -0.329857
  35 H :    0.178889
  36 H :    0.162239
  37 H :    0.205476
  38 H :    0.181243
  39 H :    0.203905
  40 H :    0.359799
  41 H :    0.182921
  42 H :    0.159155
  43 H :    0.152762
  44 H :    0.183957
  45 H :    0.194014
  46 H :    0.181202
  47 H :    0.195928
  48 H :    0.189302
  49 H :    0.203460
  50 H :    0.184785
Sum of atomic charges:    0.0000000

LOEWDIN ATOMIC CHARGES
----------------------
   0 C :   -0.362697
   1 C :    0.027822
   2 O :    0.001214
   3 C :    0.094098
   4 C :   -0.117174
   5 C :   -0.050255
   6 C :   -0.241973
   7 C :    0.157441
   8 O :   -0.253911
   9 N :   -0.208216
  10 C :   -0.079223
  11 N :   -0.155469
  12 C :   -0.003305
  13 C :   -0.017168
  14 C :   -0.104803
  15 C :   -0.130892
  16 C :    0.076608
  17 O :   -0.160974
  18 C :    0.358046
  19 F :   -0.096218
  20 F :   -0.102194
  21 F :   -0.092286
  22 C :   -0.110602
  23 Cl:    0.045281
  24 C :   -0.124494
  25 C :   -0.348558
  26 S :    0.392103
  27 C :    0.108189
  28 O :   -0.317668
  29 N :   -0.027530
  30 C :   -0.260276
  31 C :    0.142454
  32 O :   -0.311889
  33 N :   -0.021401
  34 C :   -0.259780
  35 H :    0.148998
  36 H :    0.141730
  37 H :    0.160352
  38 H :    0.155675
  39 H :    0.163710
  40 H :    0.272640
  41 H :    0.160158
  42 H :    0.151350
  43 H :    0.145535
  44 H :    0.161061
  45 H :    0.152316
  46 H :    0.142115
  47 H :    0.152793
  48 H :    0.144797
  49 H :    0.156118
  50 H :    0.146354

  Mayer bond orders larger than 0.100000
B(  0-C ,  1-C ) :   1.0397 B(  0-C , 35-H ) :   0.9299 B(  0-C , 36-H ) :   0.9352
B(  0-C , 37-H ) :   0.9141 B(  1-C ,  2-O ) :   0.9865 B(  1-C ,  5-C ) :   1.5494
B(  2-O ,  3-C ) :   1.0753 B(  3-C ,  4-C ) :   1.3623 B(  3-C , 33-N ) :   0.9792
B(  4-C ,  5-C ) :   1.2793 B(  4-C , 27-C ) :   1.0895 B(  5-C ,  6-C ) :   0.9942
B(  6-C ,  7-C ) :   0.9614 B(  6-C , 38-H ) :   0.9135 B(  6-C , 39-H ) :   0.8919
B(  7-C ,  8-O ) :   1.8753 B(  7-C ,  9-N ) :   0.9949 B(  9-N , 10-C ) :   0.9580
B(  9-N , 40-H ) :   0.7915 B( 10-C , 11-N ) :   1.5092 B( 10-C , 25-C ) :   0.1068
B( 10-C , 26-S ) :   1.1407 B( 11-N , 12-C ) :   1.2667 B( 12-C , 13-C ) :   1.0513
B( 12-C , 25-C ) :   1.5117 B( 13-C , 14-C ) :   1.3969 B( 13-C , 24-C ) :   1.4034
B( 14-C , 15-C ) :   1.4202 B( 14-C , 41-H ) :   0.9049 B( 15-C , 16-C ) :   1.4078
B( 15-C , 42-H ) :   0.9171 B( 16-C , 17-O ) :   0.8349 B( 16-C , 22-C ) :   1.3263
B( 17-O , 18-C ) :   0.9789 B( 18-C , 19-F ) :   0.9846 B( 18-C , 20-F ) :   0.9711
B( 18-C , 21-F ) :   1.0042 B( 22-C , 23-Cl) :   1.0409 B( 22-C , 24-C ) :   1.3969
B( 24-C , 43-H ) :   0.9117 B( 25-C , 26-S ) :   1.1156 B( 25-C , 44-H ) :   0.9016
B( 27-C , 28-O ) :   1.7287 B( 27-C , 29-N ) :   0.9785 B( 29-N , 30-C ) :   0.9168
B( 29-N , 31-C ) :   1.0385 B( 30-C , 45-H ) :   0.9239 B( 30-C , 46-H ) :   0.9399
B( 30-C , 47-H ) :   0.9261 B( 31-C , 32-O ) :   1.7932 B( 31-C , 33-N ) :   1.0487
B( 33-N , 34-C ) :   0.9244 B( 34-C , 48-H ) :   0.9341 B( 34-C , 49-H ) :   0.9269
B( 34-C , 50-H ) :   0.9297

FINAL SINGLE POINT ENERGY     -2561.845070943724

DIPOLE MOMENT
-------------

Method             : SCF
Type of density    : Electron Density
Multiplicity       :   1
Irrep              :   0
Energy             : -2561.8450709437238402 Eh
Relativity type    :
Basis              : AO
                                X                 Y                 Z
Electronic contribution:     76.679231008       7.931308448       0.165608153
Nuclear contribution   :    -79.091053016      -7.289220054      -0.701648177
                        -----------------------------------------
Total Dipole Moment    :     -2.411822008       0.642088394      -0.536040024
                        -----------------------------------------
Magnitude (a.u.)       :      2.552743977
Magnitude (Debye)      :      6.488559534

Rotational constants in cm-1:             0.008125             0.001039             0.000994
Rotational constants in MHz :           243.584822            31.139910            29.800499

                             ****ORCA TERMINATED NORMALLY****
TOTAL RUN TIME: 0 days 0 hours 9 minutes 35 seconds 794 msec
