                         Program Version 6.0.0  -   RELEASE  -
|  1> ! B3LYP 6-31G* SP
|  2>
|  3> * xyz 0 1
|  4> C -2.0017 1.1885 -3.4018
|  5> C -2.7960 0.7305 -2.2226
|  6> O -3.6315 -0.2896 -2.2614
|  7> C -4.1363 -0.4312 -1.0584
|  8> C -3.6368 0.5026 -0.2026
|  9> C -2.7601 1.2825 -0.9409
| 10> C -1.8806 2.4071 -0.4704
| 11> C -0.4914 1.9069 -0.2133
| 12> O 0.4315 2.2118 -1.0163
| 13> N -0.2263 1.0723 0.9249
| 14> C 1.0535 0.4939 1.2092
| 15> N 2.1510 0.6641 0.4418
| 16> C 3.2330 -0.0002 0.9369
| 17> C 4.5525 0.0562 0.2540
| 18> C 4.7862 1.0347 -0.7257
| 19> C 6.0152 1.1054 -1.3799
| 20> C 7.0352 0.2007 -1.0753
| 21> Cl 8.5611 0.3529 -1.9432
| 22> C 6.8260 -0.7986 -0.0995
| 23> C 7.9208 -1.7907 0.2336
| 24> F 7.5280 -2.6846 1.2153
| 25> F 9.0384 -1.1139 0.6876
| 26> F 8.2542 -2.5109 -0.8992
| 27> C 5.5784 -0.8611 0.5547
| 28> C 2.9837 -0.7036 2.1212
| 29> S 1.3685 -0.4813 2.5371
| 30> C -4.0550 0.5214 1.1237
| 31> O -3.6186 1.3970 1.9197
| 32> N -4.9626 -0.4261 1.5401
| 33> C -5.4520 -0.4107 2.9291
| 34> C -5.4758 -1.3438 0.6400
| 35> O -6.3583 -2.1667 1.0160
| 36> N -5.0402 -1.3676 -0.6658
| 37> C -5.5887 -2.3261 -1.6333
| 38> H -2.1750 2.2706 -3.5767
| 39> H -0.9222 1.0108 -3.2170
| 40> H -2.3095 0.6252 -4.3074
| 41> H -1.8587 3.2032 -1.2453
| 42> H -2.2850 2.8712 0.4509
| 43> H -1.0095 0.8618 1.5822
| 44> H 4.0199 1.7554 -0.9829
| 45> H 6.1750 1.8711 -2.1287
| 46> H 5.4021 -1.6363 1.2852
| 47> H 3.6935 -1.2770 2.7001
| 48> H -4.6822 -0.0155 3.6258
| 49> H -6.3623 0.2215 2.9956
| 50> H -5.6931 -1.4368 3.2802
| 51> H -4.9137 -2.4509 -2.5070
| 52> H -5.7071 -3.3269 -1.1656
| 53> H -6.5776 -1.9692 -1.9904
| 54> *
| 55>
| 56>                          ****END OF INPUT****

CARTESIAN COORDINATES (ANGSTROEM)
---------------------------------
  C     -2.001700    1.188500   -3.401800
  C     -2.796000    0.730500   -2.222600
  O     -3.631500   -0.289600   -2.261400
  C     -4.136300   -0.431200   -1.058400
  C     -3.636800    0.502600   -0.202600
  C     -2.760100    1.282500   -0.940900
  C     -1.880600    2.407100   -0.470400
  C     -0.491400    1.906900   -0.213300
  O      0.431500    2.211800   -1.016300
  N     -0.226300    1.072300    0.924900
  C      1.053500    0.493900    1.209200
  N      2.151000    0.664100    0.441800
  C      3.233000   -0.000200    0.936900
  C      4.552500    0.056200    0.254000
  C      4.786200    1.034700   -0.725700
  C      6.015200    1.105400   -1.379900
  C      7.035200    0.200700   -1.075300
  Cl     8.561100    0.352900   -1.943200
  C      6.826000   -0.798600   -0.099500
  C      7.920800   -1.790700    0.233600
  F      7.528000   -2.684600    1.215300
  F      9.038400   -1.113900    0.687600
  F      8.254200   -2.510900   -0.899200
  C      5.578400   -0.861100    0.554700
  C      2.983700   -0.703600    2.121200
  S      1.368500   -0.481300    2.537100
  C     -4.055000    0.521400    1.123700
  O     -3.618600    1.397000    1.919700
  N     -4.962600   -0.426100    1.540100
  C     -5.452000   -0.410700    2.929100
  C     -5.475800   -1.343800    0.640000
  O     -6.358300   -2.166700    1.016000
  N     -5.040200   -1.367600   -0.665800
  C     -5.588700   -2.326100   -1.633300
  H     -2.175000    2.270600   -3.576700
  H     -0.922200    1.010800   -3.217000
  H     -2.309500    0.625200   -4.307400
  H     -1.858700    3.203200   -1.245300
  H     -2.285000    2.871200    0.450900
  H     -1.009500    0.861800    1.582200
  H      4.019900    1.755400   -0.982900
  H      6.175000    1.871100   -2.128700
  H      5.402100   -1.636300    1.285200
  H      3.693500   -1.277000    2.700100
  H     -4.682200   -0.015500    3.625800
  H     -6.362300    0.221500    2.995600
  H     -5.693100   -1.436800    3.280200
  H     -4.913700   -2.450900   -2.507000
  H     -5.707100   -3.326900   -1.165600
  H     -6.577600   -1.969200   -1.990400

 Total Charge           Charge          ....    0
 Multiplicity           Mult            ....    1
 Number of Electrons    NEL             ....  262
 Basis Dimension        Dim             ....  516

ORBITAL ENERGIES
----------------

  NO   OCC          E(Eh)            E(eV)
   0   2.0000    -101.527986     -2762.7169
   1   2.0000     -88.910437     -2419.3760
   2   2.0000     -24.720565      -672.6808
   3   2.0000     -24.711280      -672.4281
   4   2.0000     -24.711140      -672.4243
   5   2.0000     -19.259523      -524.0783
   6   2.0000     -19.123020      -520.3638
   7   2.0000     -19.121849      -520.3320
   8   2.0000     -19.120207      -520.2873
   9   2.0000     -14.423051      -392.4712
  10   2.0000     -14.407477      -392.0474
  11   2.0000     -14.392964      -391.6525
  12   2.0000     -14.328036      -389.8857
  13   2.0000     -10.434544      -283.9384
  14   2.0000     -10.340139      -281.3695
  15   2.0000     -10.307659      -280.4856
  16   2.0000     -10.304805      -280.4080
  17   2.0000     -10.302347      -280.3411
  18   2.0000     -10.292785      -280.0809
  19   2.0000     -10.258173      -279.1391
  20   2.0000     -10.258103      -279.1372
  21   2.0000     -10.247162      -278.8395
  22   2.0000     -10.230514      -278.3865
  23   2.0000     -10.228284      -278.3258
  24   2.0000     -10.222659      -278.1727
  25   2.0000     -10.213450      -277.9221
  26   2.0000     -10.210894      -277.8526
  27   2.0000     -10.208615      -277.7905
  28   2.0000     -10.206311      -277.7278
  29   2.0000     -10.206009      -277.7196
  30   2.0000     -10.200597      -277.5724
  31   2.0000     -10.200156      -277.5603
  32   2.0000     -10.196832      -277.4699
  33   2.0000     -10.196012      -277.4476
  34   2.0000      -9.459836      -257.4152
  35   2.0000      -7.988128      -217.3680
  36   2.0000      -7.223104      -196.5507
  37   2.0000      -7.213428      -196.2873
  38   2.0000      -7.212870      -196.2722
  39   2.0000      -5.951212      -161.9407
  40   2.0000      -5.947083      -161.8284
  41   2.0000      -5.944943      -161.7701
  42   2.0000      -1.275974       -34.7210
  43   2.0000      -1.202348       -32.7176
  44   2.0000      -1.197756       -32.5926
  45   2.0000      -1.189762       -32.3751
  46   2.0000      -1.078135       -29.3375
  47   2.0000      -1.031854       -28.0782
  48   2.0000      -1.023456       -27.8496
  49   2.0000      -0.985033       -26.8041
  50   2.0000      -0.977554       -26.6006
  51   2.0000      -0.950132       -25.8544
  52   2.0000      -0.916424       -24.9372
  53   2.0000      -0.895470       -24.3670
  54   2.0000      -0.860592       -23.4179
  55   2.0000      -0.843718       -22.9587
  56   2.0000      -0.815716       -22.1968
  57   2.0000      -0.813734       -22.1428
  58   2.0000      -0.787384       -21.4258
  59   2.0000      -0.776627       -21.1331
  60   2.0000      -0.766929       -20.8692
  61   2.0000      -0.749997       -20.4084
  62   2.0000      -0.732079       -19.9209
  63   2.0000      -0.719544       -19.5798
  64   2.0000      -0.713329       -19.4107
  65   2.0000      -0.691586       -18.8190
  66   2.0000      -0.672306       -18.2944
  67   2.0000      -0.639616       -17.4048
  68   2.0000      -0.634206       -17.2576
  69   2.0000      -0.630051       -17.1446
  70   2.0000      -0.619071       -16.8458
  71   2.0000      -0.610648       -16.6166
  72   2.0000      -0.597654       -16.2630
  73   2.0000      -0.587137       -15.9768
  74   2.0000      -0.566157       -15.4059
  75   2.0000      -0.564975       -15.3738
  76   2.0000      -0.563931       -15.3454
  77   2.0000      -0.542391       -14.7592
  78   2.0000      -0.537698       -14.6315
  79   2.0000      -0.531460       -14.4618
  80   2.0000      -0.519407       -14.1338
  81   2.0000      -0.514780       -14.0079
  82   2.0000      -0.498442       -13.5633
  83   2.0000      -0.494349       -13.4519
  84   2.0000      -0.484402       -13.1813
  85   2.0000      -0.480465       -13.0741
  86   2.0000      -0.473312       -12.8795
  87   2.0000      -0.469548       -12.7771
  88   2.0000      -0.460225       -12.5234
  89   2.0000      -0.457366       -12.4456
  90   2.0000      -0.454684       -12.3726
  91   2.0000      -0.451619       -12.2892
  92   2.0000      -0.447087       -12.1659
  93   2.0000      -0.441837       -12.0230
  94   2.0000      -0.440527       -11.9874
  95   2.0000      -0.433441       -11.7945
  96   2.0000      -0.430649       -11.7186
  97   2.0000      -0.428115       -11.6496
  98   2.0000      -0.424002       -11.5377
  99   2.0000      -0.420188       -11.4339
 100   2.0000      -0.419059       -11.4032
 101   2.0000      -0.413597       -11.2545
 102   2.0000      -0.411995       -11.2110
 103   2.0000      -0.409389       -11.1400
 104   2.0000      -0.408334       -11.1113
 105   2.0000      -0.398366       -10.8401
 106   2.0000      -0.397456       -10.8153
 107   2.0000      -0.395580       -10.7643
 108   2.0000      -0.394103       -10.7241
 109   2.0000      -0.393394       -10.7048
 110   2.0000      -0.391701       -10.6587
 111   2.0000      -0.388694       -10.5769
 112   2.0000      -0.373439       -10.1618
 113   2.0000      -0.365375        -9.9424
 114   2.0000      -0.362209        -9.8562
 115   2.0000      -0.357556        -9.7296
 116   2.0000      -0.339563        -9.2400
 117   2.0000      -0.334909        -9.1133
 118   2.0000      -0.308594        -8.3973
 119   2.0000      -0.307136        -8.3576
 120   2.0000      -0.296466        -8.0672
 121   2.0000      -0.293255        -7.9799
 122   2.0000      -0.286657        -7.8003
 123   2.0000      -0.282028        -7.6744
 124   2.0000      -0.277463        -7.5501
 125   2.0000      -0.268611        -7.3093
 126   2.0000      -0.260851        -7.0981
 127   2.0000      -0.253093        -6.8870
 128   2.0000      -0.238524        -6.4906
 129   2.0000      -0.215501        -5.8641
 130   2.0000      -0.211832        -5.7643
 131   0.0000      -0.044855        -1.2206
 132   0.0000      -0.034293        -0.9332
 133   0.0000      -0.030193        -0.8216
 134   0.0000      -0.020831        -0.5668
 135   0.0000      -0.011480        -0.3124

MULLIKEN ATOMIC CHARGES
-----------------------
   0 C :   -0.531669
   1 C :    0.255148
   2 O :   -0.401491
   3 C :    0.488623
   4 C :    0.026770
   5 C :    0.013742
   6 C :   -0.435040
   7 C :    0.566524
   8 O :   -0.436514
   9 N :   -0.665625
  10 C :    0.255195
  11 N :   -0.379689
  12 C :    0.219395
  13 C :    0.114703
  14 C :   -0.151745
  15 C :   -0.134359
  16 C :   -0.107440
  17 Cl:    0.011918
  18 C :   -0.020880
  19 C :    0.906552
  20 F :   -0.306823
  21 F :   -0.297382
  22 F :   -0.297463
  23 C :   -0.209332
  24 C :   -0.397497
  25 S :    0.257653
  26 C :    0.503231
  27 O :   -0.519877
  28 N :   -0.482352
  29 C :   -0.315823
  30 C :    0.675832
  31 O :   -0.502759
  32 N :   -0.501825
  33 C :   -0.330590
  34 H :    0.178379
  35 H :    0.207025
  36 H :    0.162982
  37 H :    0.181305
  38 H :    0.203990
  39 H :    0.360229
  40 H :    0.187759
  41 H :    0.162312
  42 H :    0.152222
  43 H :    0.185684
  44 H :    0.193857
  45 H :    0.181351
  46 H :    0.195573
  47 H :    0.184461
  48 H :    0.205950
  49 H :    0.187808
Sum of atomic charges:   -0.0000000

LOEWDIN ATOMIC CHARGES
----------------------
   0 C :   -0.363040
   1 C :    0.028181
   2 O :    0.001646
   3 C :    0.094148
   4 C :   -0.117266
   5 C :   -0.050655
   6 C :   -0.241924
   7 C :    0.157719
   8 O :   -0.254036
   9 N :   -0.208028
  10 C :   -0.078693
  11 N :   -0.155883
  12 C :   -0.004693
  13 C :   -0.015495
  14 C :   -0.094726
  15 C :   -0.127833
  16 C :   -0.071243
  17 Cl:    0.046850
  18 C :   -0.077262
  19 C :    0.314561
  20 F :   -0.112251
  21 F :   -0.108786
  22 F :   -0.109055
  23 C :   -0.108583
  24 C :   -0.347151
  25 S :    0.394130
  26 C :    0.108316
  27 O :   -0.317962
  28 N :   -0.027548
  29 C :   -0.260028
  30 C :    0.142605
  31 O :   -0.311856
  32 N :   -0.021642
  33 C :   -0.260234
  34 H :    0.148655
  35 H :    0.161183
  36 H :    0.142177
  37 H :    0.155721
  38 H :    0.163798
  39 H :    0.272980
  40 H :    0.162098
  41 H :    0.149984
  42 H :    0.144666
  43 H :    0.161700
  44 H :    0.152212
  45 H :    0.142207
  46 H :    0.152693
  47 H :    0.145932
  48 H :    0.158148
  49 H :    0.143565

  Mayer bond orders larger than 0.100000
B(  0-C ,  1-C ) :   1.0393 B(  0-C , 34-H ) :   0.9299 B(  0-C , 35-H ) :   0.9136
B(  0-C , 36-H ) :   0.9352 B(  1-C ,  2-O ) :   0.9873 B(  1-C ,  5-C ) :   1.5494
B(  2-O ,  3-C ) :   1.0749 B(  3-C ,  4-C ) :   1.3627 B(  3-C , 32-N ) :   0.9801
B(  4-C ,  5-C ) :   1.2790 B(  4-C , 26-C ) :   1.0898 B(  5-C ,  6-C ) :   0.9941
B(  6-C ,  7-C ) :   0.9618 B(  6-C , 37-H ) :   0.9135 B(  6-C , 38-H ) :   0.8918
B(  7-C ,  8-O ) :   1.8752 B(  7-C ,  9-N ) :   0.9942 B(  9-N , 10-C ) :   0.9591
B(  9-N , 39-H ) :   0.7914 B( 10-C , 11-N ) :   1.5093 B( 10-C , 24-C ) :   0.1061
B( 10-C , 25-S ) :   1.1408 B( 11-N , 12-C ) :   1.2657 B( 12-C , 13-C ) :   1.0485
B( 12-C , 24-C ) :   1.5109 B( 13-C , 14-C ) :   1.4016 B( 13-C , 23-C ) :   1.3746
B( 14-C , 15-C ) :   1.4193 B( 14-C , 40-H ) :   0.9040 B( 15-C , 16-C ) :   1.4035
B( 15-C , 41-H ) :   0.9219 B( 16-C , 17-Cl) :   1.0533 B( 16-C , 18-C ) :   1.3574
B( 18-C , 19-C ) :   0.9788 B( 18-C , 23-C ) :   1.4030 B( 19-C , 20-F ) :   0.9378
B( 19-C , 21-F ) :   0.9562 B( 19-C , 22-F ) :   0.9575 B( 23-C , 42-H ) :   0.9062
B( 24-C , 25-S ) :   1.1170 B( 24-C , 43-H ) :   0.9013 B( 26-C , 27-O ) :   1.7281
B( 26-C , 28-N ) :   0.9788 B( 28-N , 29-C ) :   0.9168 B( 28-N , 30-C ) :   1.0385
B( 29-C , 44-H ) :   0.9241 B( 29-C , 45-H ) :   0.9398 B( 29-C , 46-H ) :   0.9264
B( 30-C , 31-O ) :   1.7944 B( 30-C , 32-N ) :   1.0476 B( 32-N , 33-C ) :   0.9246
B( 33-C , 47-H ) :   0.9301 B( 33-C , 48-H ) :   0.9260 B( 33-C , 49-H ) :   0.9344

FINAL SINGLE POINT ENERGY     -2486.673751392613

DIPOLE MOMENT
-------------

Method             : SCF
Type of density    : Electron Density
Multiplicity       :   1
Irrep              :   0
Energy             : -2486.6737513926127576 Eh
Relativity type    :
Basis              : AO
                                X                 Y                 Z
Electronic contribution:     68.917722175      -9.612083972       3.113797730
Nuclear contribution   :    -71.431282055       9.301020035      -3.504145490
                        -----------------------------------------
Total Dipole Moment    :     -2.513559880      -0.311063937      -0.390347760
                        -----------------------------------------
Magnitude (a.u.)       :      2.562638370
Magnitude (Debye)      :      6.513709084

Rotational constants in cm-1:             0.007927             0.001184             0.001138
Rotational constants in MHz :           237.633621            35.507249            34.103109

                             ****ORCA TERMINATED NORMALLY****
TOTAL RUN TIME: 0 days 0 hours 9 minutes 34 seconds 826 msec
