                         Program Version 6.0.0  -   RELEASE  -
|  1> ! B3LYP 6-31G* SP
|  2>
|  3> * xyz 0 1
|  4> C -3.6009 4.4860 2.2253
|  5> C -2.9957 3.5009 1.2703
|  6> C -1.7074 2.9961 1.4865
|  7> N -1.1835 2.0751 0.6359
|  8> C -1.8769 1.5998 -0.4339
|  9> N -1.2697 0.6195 -1.2860
| 10> C -1.7947 -0.7494 -1.3334
| 11> C -0.9650 -1.6687 -0.4766
| 12> C -0.9330 -1.4964 0.9177
| 13> C -0.1247 -2.3172 1.7107
| 14> C 0.6508 -3.3186 1.1198
| 15> C 0.6140 -3.5056 -0.2644
| 16> C -0.1922 -2.6864 -1.0613
| 17> S 0.2082 1.0128 -2.1139
| 18> O 0.0637 0.6510 -3.5661
| 19> O 0.4722 2.4897 -2.0188
| 20> C 1.5618 0.1440 -1.3942
| 21> C 1.8752 0.3396 -0.0439
| 22> C 2.9001 -0.3960 0.5567
| 23> C 3.6334 -1.3354 -0.1883
| 24> C 4.7024 -2.1290 0.4563
| 25> O 5.3764 -2.9568 -0.2148
| 26> O 4.9723 -1.9716 1.8133
| 27> C 3.3290 -1.5128 -1.5502
| 28> C 2.3013 -0.7774 -2.1478
| 29> C -3.1739 2.0797 -0.6881
| 30> Cl -4.0900 1.5618 -2.0974
| 31> C -3.7314 3.0254 0.1775
| 32> H -2.8116 5.0994 2.7108
| 33> H -4.1658 3.9405 3.0096
| 34> H -4.2915 5.1732 1.6916
| 35> H -1.1185 3.3339 2.3293
| 36> H -2.8431 -0.7790 -0.9666
| 37> H -1.8162 -1.0968 -2.3886
| 38> H -1.5237 -0.7202 1.3880
| 39> H -0.0953 -2.1730 2.7830
| 40> H 1.2814 -3.9480 1.7343
| 41> H 1.2199 -4.2775 -0.7217
| 42> H -0.1958 -2.8327 -2.1343
| 43> H 1.3145 1.0481 0.5508
| 44> H 3.1110 -0.2347 1.6064
| 45> H 5.6996 -2.5131 2.2651
| 46> H 3.8747 -2.2298 -2.1505
| 47> H 2.0708 -0.9465 -3.1917
| 48> H -4.7324 3.3962 -0.0066
| 49> *
| 50>
| 51>                          ****END OF INPUT****

CARTESIAN COORDINATES (ANGSTROEM)
---------------------------------
  C     -3.600900    4.486000    2.225300
  C     -2.995700    3.500900    1.270300
  C     -1.707400    2.996100    1.486500
  N     -1.183500    2.075100    0.635900
  C     -1.876900    1.599800   -0.433900
  N     -1.269700    0.619500   -1.286000
  C     -1.794700   -0.749400   -1.333400
  C     -0.965000   -1.668700   -0.476600
  C     -0.933000   -1.496400    0.917700
  C     -0.124700   -2.317200    1.710700
  C      0.650800   -3.318600    1.119800
  C      0.614000   -3.505600   -0.264400
  C     -0.192200   -2.686400   -1.061300
  S      0.208200    1.012800   -2.113900
  O      0.063700    0.651000   -3.566100
  O      0.472200    2.489700   -2.018800
  C      1.561800    0.144000   -1.394200
  C      1.875200    0.339600   -0.043900
  C      2.900100   -0.396000    0.556700
  C      3.633400   -1.335400   -0.188300
  C      4.702400   -2.129000    0.456300
  O      5.376400   -2.956800   -0.214800
  O      4.972300   -1.971600    1.813300
  C      3.329000   -1.512800   -1.550200
  C      2.301300   -0.777400   -2.147800
  C     -3.173900    2.079700   -0.688100
  Cl    -4.090000    1.561800   -2.097400
  C     -3.731400    3.025400    0.177500
  H     -2.811600    5.099400    2.710800
  H     -4.165800    3.940500    3.009600
  H     -4.291500    5.173200    1.691600
  H     -1.118500    3.333900    2.329300
  H     -2.843100   -0.779000   -0.966600
  H     -1.816200   -1.096800   -2.388600
  H     -1.523700   -0.720200    1.388000
  H     -0.095300   -2.173000    2.783000
  H      1.281400   -3.948000    1.734300
  H      1.219900   -4.277500   -0.721700
  H     -0.195800   -2.832700   -2.134300
  H      1.314500    1.048100    0.550800
  H      3.111000   -0.234700    1.606400
  H      5.699600   -2.513100    2.265100
  H      3.874700   -2.229800   -2.150500
  H      2.070800   -0.946500   -3.191700
  H     -4.732400    3.396200   -0.006600

 Total Charge           Charge          ....    0
 Multiplicity           Mult            ....    1
 Number of Electrons    NEL             ....  216
 Basis Dimension        Dim             ....  434

ORBITAL ENERGIES
----------------

  NO   OCC          E(Eh)            E(eV)
   0   2.0000    -101.540363     -2763.0537
   1   2.0000     -89.095526     -2424.4125
   2   2.0000     -19.192651      -522.2586
   3   2.0000     -19.132937      -520.6337
   4   2.0000     -19.123638      -520.3807
   5   2.0000     -19.120708      -520.3009
   6   2.0000     -14.377147      -391.2221
   7   2.0000     -14.350778      -390.5045
   8   2.0000     -10.330271      -281.1010
   9   2.0000     -10.282998      -279.8146
  10   2.0000     -10.266410      -279.3632
  11   2.0000     -10.235214      -278.5143
  12   2.0000     -10.233899      -278.4785
  13   2.0000     -10.233851      -278.4772
  14   2.0000     -10.223236      -278.1884
  15   2.0000     -10.219688      -278.0918
  16   2.0000     -10.219010      -278.0734
  17   2.0000     -10.210764      -277.8490
  18   2.0000     -10.208653      -277.7916
  19   2.0000     -10.208170      -277.7784
  20   2.0000     -10.208101      -277.7765
  21   2.0000     -10.198814      -277.5238
  22   2.0000     -10.194714      -277.4123
  23   2.0000     -10.187084      -277.2047
  24   2.0000     -10.186870      -277.1988
  25   2.0000     -10.186232      -277.1815
  26   2.0000     -10.186020      -277.1757
  27   2.0000     -10.185644      -277.1655
  28   2.0000      -9.471676      -257.7374
  29   2.0000      -8.131082      -221.2580
  30   2.0000      -7.234909      -196.8719
  31   2.0000      -7.225323      -196.6110
  32   2.0000      -7.224819      -196.5973
  33   2.0000      -6.096422      -165.8921
  34   2.0000      -6.093939      -165.8245
  35   2.0000      -6.093630      -165.8161
  36   2.0000      -1.080282       -29.3960
  37   2.0000      -1.076853       -29.3027
  38   2.0000      -0.990646       -26.9569
  39   2.0000      -0.975463       -26.5437
  40   2.0000      -0.957942       -26.0669
  41   2.0000      -0.921884       -25.0857
  42   2.0000      -0.881638       -23.9906
  43   2.0000      -0.879664       -23.9369
  44   2.0000      -0.854657       -23.2564
  45   2.0000      -0.823054       -22.3964
  46   2.0000      -0.799266       -21.7491
  47   2.0000      -0.777326       -21.1521
  48   2.0000      -0.767577       -20.8868
  49   2.0000      -0.761103       -20.7107
  50   2.0000      -0.746605       -20.3162
  51   2.0000      -0.719874       -19.5888
  52   2.0000      -0.709102       -19.2956
  53   2.0000      -0.679705       -18.4957
  54   2.0000      -0.657377       -17.8881
  55   2.0000      -0.637537       -17.3483
  56   2.0000      -0.625593       -17.0232
  57   2.0000      -0.610476       -16.6119
  58   2.0000      -0.608188       -16.5496
  59   2.0000      -0.596838       -16.2408
  60   2.0000      -0.583242       -15.8708
  61   2.0000      -0.557896       -15.1811
  62   2.0000      -0.536283       -14.5930
  63   2.0000      -0.529999       -14.4220
  64   2.0000      -0.518308       -14.1039
  65   2.0000      -0.509304       -13.8589
  66   2.0000      -0.485741       -13.2177
  67   2.0000      -0.479485       -13.0475
  68   2.0000      -0.469811       -12.7842
  69   2.0000      -0.467393       -12.7184
  70   2.0000      -0.465312       -12.6618
  71   2.0000      -0.463257       -12.6059
  72   2.0000      -0.454736       -12.3740
  73   2.0000      -0.453843       -12.3497
  74   2.0000      -0.445596       -12.1253
  75   2.0000      -0.439487       -11.9591
  76   2.0000      -0.437381       -11.9017
  77   2.0000      -0.429982       -11.7004
  78   2.0000      -0.424515       -11.5516
  79   2.0000      -0.421095       -11.4586
  80   2.0000      -0.420188       -11.4339
  81   2.0000      -0.413233       -11.2447
  82   2.0000      -0.408031       -11.1031
  83   2.0000      -0.406391       -11.0585
  84   2.0000      -0.395698       -10.7675
  85   2.0000      -0.391802       -10.6615
  86   2.0000      -0.388419       -10.5694
  87   2.0000      -0.378713       -10.3053
  88   2.0000      -0.361099        -9.8260
  89   2.0000      -0.357201        -9.7199
  90   2.0000      -0.354952        -9.6587
  91   2.0000      -0.351151        -9.5553
  92   2.0000      -0.344588        -9.3767
  93   2.0000      -0.325426        -8.8553
  94   2.0000      -0.323504        -8.8030
  95   2.0000      -0.316849        -8.6219
  96   2.0000      -0.303174        -8.2498
  97   2.0000      -0.297082        -8.0840
  98   2.0000      -0.293404        -7.9839
  99   2.0000      -0.279935        -7.6174
 100   2.0000      -0.278153        -7.5689
 101   2.0000      -0.272551        -7.4165
 102   2.0000      -0.271412        -7.3855
 103   2.0000      -0.269572        -7.3354
 104   2.0000      -0.263763        -7.1774
 105   2.0000      -0.247767        -6.7421
 106   2.0000      -0.246992        -6.7210
 107   2.0000      -0.236905        -6.4465
 108   0.0000      -0.077098        -2.0979
 109   0.0000      -0.046822        -1.2741
 110   0.0000      -0.034600        -0.9415
 111   0.0000      -0.026352        -0.7171
 112   0.0000      -0.008505        -0.2314

MULLIKEN ATOMIC CHARGES
-----------------------
   0 C :   -0.531073
   1 C :    0.158625
   2 C :   -0.021833
   3 N :   -0.383094
   4 C :    0.418445
   5 N :   -0.602073
   6 C :   -0.260331
   7 C :    0.149366
   8 C :   -0.159406
   9 C :   -0.129888
  10 C :   -0.125396
  11 C :   -0.122842
  12 C :   -0.175516
  13 S :    1.207094
  14 O :   -0.535244
  15 O :   -0.532032
  16 C :   -0.127950
  17 C :   -0.131920
  18 C :   -0.142174
  19 C :    0.088081
  20 C :    0.523620
  21 O :   -0.448180
  22 O :   -0.624760
  23 C :   -0.139841
  24 C :   -0.145781
  25 C :   -0.098259
  26 Cl:    0.022251
  27 C :   -0.142542
  28 H :    0.165913
  29 H :    0.174032
  30 H :    0.167043
  31 H :    0.154350
  32 H :    0.184906
  33 H :    0.189436
  34 H :    0.132075
  35 H :    0.128453
  36 H :    0.130473
  37 H :    0.135469
  38 H :    0.136481
  39 H :    0.193316
  40 H :    0.165935
  41 H :    0.431474
  42 H :    0.174783
  43 H :    0.185427
  44 H :    0.163087
Sum of atomic charges:   -0.0000000

LOEWDIN ATOMIC CHARGES
----------------------
   0 C :   -0.352300
   1 C :   -0.028538
   2 C :   -0.071789
   3 N :   -0.121619
   4 C :    0.048578
   5 N :   -0.275535
   6 C :   -0.148880
   7 C :   -0.042315
   8 C :   -0.127132
   9 C :   -0.127807
  10 C :   -0.128713
  11 C :   -0.123984
  12 C :   -0.131269
  13 S :    1.272212
  14 O :   -0.569014
  15 O :   -0.562405
  16 C :   -0.170150
  17 C :   -0.094992
  18 C :   -0.096184
  19 C :   -0.039192
  20 C :    0.179282
  21 O :   -0.264515
  22 O :   -0.336208
  23 C :   -0.089298
  24 C :   -0.102265
  25 C :   -0.096143
  26 Cl:    0.058016
  27 C :   -0.110032
  28 H :    0.138579
  29 H :    0.143537
  30 H :    0.139287
  31 H :    0.139031
  32 H :    0.150081
  33 H :    0.145398
  34 H :    0.133685
  35 H :    0.131260
  36 H :    0.132309
  37 H :    0.134494
  38 H :    0.134078
  39 H :    0.161837
  40 H :    0.151711
  41 H :    0.347903
  42 H :    0.157530
  43 H :    0.160526
  44 H :    0.150943

  Mayer bond orders larger than 0.100000
B(  0-C ,  1-C ) :   0.9882 B(  0-C , 28-H ) :   0.9426 B(  0-C , 29-H ) :   0.9305
B(  0-C , 30-H ) :   0.9417 B(  1-C ,  2-C ) :   1.3851 B(  1-C , 27-C ) :   1.4317
B(  2-C ,  3-N ) :   1.4096 B(  2-C , 31-H ) :   0.9247 B(  3-N ,  4-C ) :   1.3671
B(  4-C ,  5-N ) :   0.9269 B(  4-C , 25-C ) :   1.3415 B(  5-N ,  6-C ) :   0.9126
B(  5-N , 13-S ) :   0.7823 B(  6-C ,  7-C ) :   0.9435 B(  6-C , 32-H ) :   0.9179
B(  6-C , 33-H ) :   0.9188 B(  7-C ,  8-C ) :   1.4190 B(  7-C , 12-C ) :   1.4412
B(  8-C ,  9-C ) :   1.4523 B(  8-C , 34-H ) :   0.9199 B(  9-C , 10-C ) :   1.4418
B(  9-C , 35-H ) :   0.9300 B( 10-C , 11-C ) :   1.4611 B( 10-C , 36-H ) :   0.9299
B( 11-C , 12-C ) :   1.4320 B( 11-C , 37-H ) :   0.9278 B( 12-C , 38-H ) :   0.9212
B( 13-S , 14-O ) :   1.6454 B( 13-S , 15-O ) :   1.6625 B( 13-S , 16-C ) :   0.8144
B( 16-C , 17-C ) :   1.3933 B( 16-C , 24-C ) :   1.3890 B( 17-C , 18-C ) :   1.4233
B( 17-C , 39-H ) :   0.8906 B( 18-C , 19-C ) :   1.3788 B( 18-C , 40-H ) :   0.9167
B( 19-C , 20-C ) :   1.0101 B( 19-C , 23-C ) :   1.4015 B( 20-C , 21-O ) :   1.8609
B( 20-C , 22-O ) :   1.0218 B( 22-O , 41-H ) :   0.7434 B( 23-C , 24-C ) :   1.4157
B( 23-C , 42-H ) :   0.9110 B( 24-C , 43-H ) :   0.9087 B( 25-C , 26-Cl) :   1.0414
B( 25-C , 27-C ) :   1.3988 B( 27-C , 44-H ) :   0.9160

FINAL SINGLE POINT ENERGY     -2040.215987839723

DIPOLE MOMENT
-------------

Method             : SCF
Type of density    : Electron Density
Multiplicity       :   1
Irrep              :   0
Energy             : -2040.2159878397226294 Eh
Relativity type    :
Basis              : AO
                                X                 Y                 Z
Electronic contribution:     -1.816588658       3.382856476     -15.142078357
Nuclear contribution   :      0.847082814      -3.757672342      17.907396394
                        -----------------------------------------
Total Dipole Moment    :     -0.969505844      -0.374815867       2.765318037
                        -----------------------------------------
Magnitude (a.u.)       :      2.954219416
Magnitude (Debye)      :      7.509029004

Rotational constants in cm-1:             0.009732             0.003316             0.003210
Rotational constants in MHz :           291.762508            99.402500            96.246389

                             ****ORCA TERMINATED NORMALLY****
TOTAL RUN TIME: 0 days 0 hours 7 minutes 9 seconds 147 msec
