                         Program Version 6.0.0  -   RELEASE  -
|  1> ! B3LYP 6-31G* SP
|  2>
|  3> * xyz 0 1
|  4> C -0.7006 -1.4110 -0.7624
|  5> C -0.7361 -2.2855 0.4710
|  6> C -0.9508 -1.7201 1.7509
|  7> N -1.1777 -0.3147 1.9177
|  8> C -0.1365 0.5180 2.5233
|  9> C 0.9785 0.7428 1.5396
| 10> C 0.9333 1.8316 0.6543
| 11> C 1.9314 2.0005 -0.3089
| 12> C 2.9915 1.0844 -0.3974
| 13> C 4.0566 1.2425 -1.4447
| 14> O 3.8510 0.2730 -2.4541
| 15> C 4.7847 0.4383 -3.5034
| 16> F 4.5904 1.6506 -4.1486
| 17> F 4.5932 -0.5764 -4.4218
| 18> F 6.0890 0.3575 -3.0355
| 19> C 3.0263 -0.0147 0.4754
| 20> C 2.0266 -0.1846 1.4366
| 21> S -2.7856 0.3113 1.7117
| 22> O -3.4309 0.4833 3.0585
| 23> O -3.6112 -0.6538 0.9062
| 24> C -2.7258 1.8563 0.8679
| 25> C -2.6706 3.0539 1.5933
| 26> C -2.5730 4.2788 0.9270
| 27> C -2.5290 4.3235 -0.4771
| 28> C -2.4146 5.6207 -1.1794
| 29> O -2.3748 5.6635 -2.4386
| 30> O -2.3471 6.8079 -0.4555
| 31> C -2.5945 3.1183 -1.1999
| 32> C -2.6945 1.8951 -0.5311
| 33> N -0.9321 -2.5086 2.8571
| 34> C -0.7299 -3.8468 2.7936
| 35> C -0.5366 -4.4703 1.5580
| 36> C -0.3410 -5.8589 1.4884
| 37> C -0.1547 -6.4800 0.2529
| 38> C -0.1619 -5.7231 -0.9189
| 39> C -0.3522 -4.3398 -0.8642
| 40> C -0.5414 -3.6883 0.3754
| 41> H 0.2553 -1.5649 -1.3059
| 42> H -0.7600 -0.3324 -0.5265
| 43> H -1.5531 -1.6655 -1.4255
| 44> H -0.5567 1.4954 2.8440
| 45> H 0.2526 0.0266 3.4420
| 46> H 0.1225 2.5460 0.7028
| 47> H 1.8747 2.8445 -0.9853
| 48> H 4.0208 2.2761 -1.8605
| 49> H 5.0478 1.0981 -0.9556
| 50> H 3.8249 -0.7435 0.4054
| 51> H 2.0621 -1.0460 2.0922
| 52> H -2.6908 3.0409 2.6761
| 53> H -2.5274 5.1895 1.5131
| 54> H -2.2671 7.7015 -0.9261
| 55> H -2.5666 3.1201 -2.2812
| 56> H -2.7433 0.9799 -1.1057
| 57> H -0.7272 -4.4226 3.7110
| 58> H -0.3347 -6.4628 2.3885
| 59> H -0.0071 -7.5513 0.2029
| 60> H -0.0205 -6.2105 -1.8753
| 61> H -0.3556 -3.7948 -1.7983
| 62> *
| 63>
| 64>                          ****END OF INPUT****

CARTESIAN COORDINATES (ANGSTROEM)
---------------------------------
  C     -0.700600   -1.411000   -0.762400
  C     -0.736100   -2.285500    0.471000
  C     -0.950800   -1.720100    1.750900
  N     -1.177700   -0.314700    1.917700
  C     -0.136500    0.518000    2.523300
  C      0.978500    0.742800    1.539600
  C      0.933300    1.831600    0.654300
  C      1.931400    2.000500   -0.308900
  C      2.991500    1.084400   -0.397400
  C      4.056600    1.242500   -1.444700
  O      3.851000    0.273000   -2.454100
  C      4.784700    0.438300   -3.503400
  F      4.590400    1.650600   -4.148600
  F      4.593200   -0.576400   -4.421800
  F      6.089000    0.357500   -3.035500
  C      3.026300   -0.014700    0.475400
  C      2.026600   -0.184600    1.436600
  S     -2.785600    0.311300    1.711700
  O     -3.430900    0.483300    3.058500
  O     -3.611200   -0.653800    0.906200
  C     -2.725800    1.856300    0.867900
  C     -2.670600    3.053900    1.593300
  C     -2.573000    4.278800    0.927000
  C     -2.529000    4.323500   -0.477100
  C     -2.414600    5.620700   -1.179400
  O     -2.374800    5.663500   -2.438600
  O     -2.347100    6.807900   -0.455500
  C     -2.594500    3.118300   -1.199900
  C     -2.694500    1.895100   -0.531100
  N     -0.932100   -2.508600    2.857100
  C     -0.729900   -3.846800    2.793600
  C     -0.536600   -4.470300    1.558000
  C     -0.341000   -5.858900    1.488400
  C     -0.154700   -6.480000    0.252900
  C     -0.161900   -5.723100   -0.918900
  C     -0.352200   -4.339800   -0.864200
  C     -0.541400   -3.688300    0.375400
  H      0.255300   -1.564900   -1.305900
  H     -0.760000   -0.332400   -0.526500
  H     -1.553100   -1.665500   -1.425500
  H     -0.556700    1.495400    2.844000
  H      0.252600    0.026600    3.442000
  H      0.122500    2.546000    0.702800
  H      1.874700    2.844500   -0.985300
  H      4.020800    2.276100   -1.860500
  H      5.047800    1.098100   -0.955600
  H      3.824900   -0.743500    0.405400
  H      2.062100   -1.046000    2.092200
  H     -2.690800    3.040900    2.676100
  H     -2.527400    5.189500    1.513100
  H     -2.267100    7.701500   -0.926100
  H     -2.566600    3.120100   -2.281200
  H     -2.743300    0.979900   -1.105700
  H     -0.727200   -4.422600    3.711000
  H     -0.334700   -6.462800    2.388500
  H     -0.007100   -7.551300    0.202900
  H     -0.020500   -6.210500   -1.875300
  H     -0.355600   -3.794800   -1.798300

 Total Charge           Charge          ....    0
 Multiplicity           Mult            ....    1
 Number of Electrons    NEL             ....  274
 Basis Dimension        Dim             ....  564

ORBITAL ENERGIES
----------------

  NO   OCC          E(Eh)            E(eV)
   0   2.0000     -89.096061     -2424.4271
   1   2.0000     -24.735012      -673.0739
   2   2.0000     -24.734053      -673.0478
   3   2.0000     -24.730748      -672.9579
   4   2.0000     -19.203222      -522.5462
   5   2.0000     -19.201756      -522.5064
   6   2.0000     -19.143925      -520.9327
   7   2.0000     -19.124308      -520.3989
   8   2.0000     -19.119654      -520.2722
   9   2.0000     -14.368168      -390.9777
  10   2.0000     -14.327773      -389.8785
  11   2.0000     -10.490623      -285.4644
  12   2.0000     -10.341344      -281.4023
  13   2.0000     -10.255771      -279.0737
  14   2.0000     -10.253937      -279.0238
  15   2.0000     -10.248301      -278.8704
  16   2.0000     -10.239246      -278.6240
  17   2.0000     -10.234426      -278.4929
  18   2.0000     -10.226782      -278.2849
  19   2.0000     -10.226130      -278.2671
  20   2.0000     -10.224418      -278.2205
  21   2.0000     -10.223797      -278.2037
  22   2.0000     -10.221415      -278.1388
  23   2.0000     -10.207213      -277.7524
  24   2.0000     -10.204795      -277.6866
  25   2.0000     -10.203316      -277.6463
  26   2.0000     -10.203034      -277.6387
  27   2.0000     -10.198083      -277.5040
  28   2.0000     -10.197619      -277.4913
  29   2.0000     -10.196763      -277.4680
  30   2.0000     -10.195478      -277.4331
  31   2.0000     -10.195310      -277.4285
  32   2.0000     -10.195252      -277.4269
  33   2.0000     -10.194878      -277.4167
  34   2.0000     -10.193635      -277.3829
  35   2.0000     -10.193457      -277.3781
  36   2.0000     -10.178518      -276.9716
  37   2.0000      -8.131940      -221.2813
  38   2.0000      -6.096895      -165.9050
  39   2.0000      -6.095055      -165.8549
  40   2.0000      -6.094526      -165.8405
  41   2.0000      -1.297895       -35.3175
  42   2.0000      -1.219938       -33.1962
  43   2.0000      -1.216210       -33.0948
  44   2.0000      -1.086707       -29.5708
  45   2.0000      -1.082491       -29.4561
  46   2.0000      -1.080545       -29.4031
  47   2.0000      -1.000926       -27.2366
  48   2.0000      -0.959515       -26.1097
  49   2.0000      -0.958565       -26.0839
  50   2.0000      -0.912188       -24.8219
  51   2.0000      -0.896720       -24.4010
  52   2.0000      -0.868689       -23.6382
  53   2.0000      -0.860797       -23.4235
  54   2.0000      -0.813145       -22.1268
  55   2.0000      -0.806356       -21.9421
  56   2.0000      -0.797291       -21.6954
  57   2.0000      -0.783225       -21.3126
  58   2.0000      -0.772672       -21.0255
  59   2.0000      -0.757747       -20.6193
  60   2.0000      -0.746550       -20.3147
  61   2.0000      -0.737423       -20.0663
  62   2.0000      -0.716473       -19.4962
  63   2.0000      -0.698300       -19.0017
  64   2.0000      -0.686605       -18.6835
  65   2.0000      -0.661941       -18.0123
  66   2.0000      -0.656257       -17.8577
  67   2.0000      -0.642472       -17.4826
  68   2.0000      -0.641287       -17.4503
  69   2.0000      -0.624247       -16.9866
  70   2.0000      -0.619589       -16.8599
  71   2.0000      -0.602636       -16.3986
  72   2.0000      -0.594330       -16.1725
  73   2.0000      -0.591331       -16.0909
  74   2.0000      -0.591113       -16.0850
  75   2.0000      -0.583719       -15.8838
  76   2.0000      -0.578000       -15.7282
  77   2.0000      -0.562770       -15.3138
  78   2.0000      -0.543366       -14.7857
  79   2.0000      -0.531928       -14.4745
  80   2.0000      -0.522613       -14.2210
  81   2.0000      -0.507056       -13.7977
  82   2.0000      -0.501147       -13.6369
  83   2.0000      -0.497899       -13.5485
  84   2.0000      -0.495740       -13.4898
  85   2.0000      -0.481065       -13.0904
  86   2.0000      -0.478838       -13.0298
  87   2.0000      -0.474525       -12.9125
  88   2.0000      -0.471332       -12.8256
  89   2.0000      -0.465192       -12.6585
  90   2.0000      -0.464624       -12.6431
  91   2.0000      -0.462812       -12.5937
  92   2.0000      -0.455041       -12.3823
  93   2.0000      -0.450125       -12.2485
  94   2.0000      -0.449175       -12.2227
  95   2.0000      -0.447785       -12.1849
  96   2.0000      -0.446697       -12.1552
  97   2.0000      -0.442632       -12.0446
  98   2.0000      -0.438773       -11.9396
  99   2.0000      -0.434018       -11.8102
 100   2.0000      -0.428519       -11.6606
 101   2.0000      -0.427831       -11.6419
 102   2.0000      -0.423872       -11.5341
 103   2.0000      -0.421479       -11.4690
 104   2.0000      -0.418227       -11.3805
 105   2.0000      -0.415906       -11.3174
 106   2.0000      -0.410030       -11.1575
 107   2.0000      -0.402485       -10.9522
 108   2.0000      -0.400633       -10.9018
 109   2.0000      -0.395101       -10.7512
 110   2.0000      -0.393074       -10.6961
 111   2.0000      -0.391207       -10.6453
 112   2.0000      -0.387960       -10.5569
 113   2.0000      -0.381581       -10.3834
 114   2.0000      -0.374102       -10.1798
 115   2.0000      -0.368674       -10.0321
 116   2.0000      -0.365615        -9.9489
 117   2.0000      -0.355481        -9.6731
 118   2.0000      -0.353426        -9.6172
 119   2.0000      -0.349808        -9.5188
 120   2.0000      -0.347512        -9.4563
 121   2.0000      -0.326669        -8.8891
 122   2.0000      -0.322049        -8.7634
 123   2.0000      -0.317443        -8.6381
 124   2.0000      -0.308654        -8.3989
 125   2.0000      -0.297548        -8.0967
 126   2.0000      -0.290043        -7.8925
 127   2.0000      -0.286271        -7.7898
 128   2.0000      -0.284329        -7.7370
 129   2.0000      -0.280540        -7.6339
 130   2.0000      -0.273177        -7.4335
 131   2.0000      -0.267161        -7.2698
 132   2.0000      -0.262550        -7.1443
 133   2.0000      -0.259677        -7.0662
 134   2.0000      -0.248523        -6.7627
 135   2.0000      -0.242355        -6.5948
 136   2.0000      -0.218729        -5.9519
 137   0.0000      -0.090199        -2.4544
 138   0.0000      -0.058005        -1.5784
 139   0.0000      -0.040123        -1.0918
 140   0.0000      -0.031535        -0.8581
 141   0.0000      -0.025763        -0.7010

MULLIKEN ATOMIC CHARGES
-----------------------
   0 C :   -0.543381
   1 C :    0.127654
   2 C :    0.320439
   3 N :   -0.607109
   4 C :   -0.248832
   5 C :    0.179047
   6 C :   -0.180656
   7 C :   -0.169209
   8 C :    0.128361
   9 C :   -0.143676
  10 O :   -0.467678
  11 C :    1.086018
  12 F :   -0.297649
  13 F :   -0.288917
  14 F :   -0.299573
  15 C :   -0.156036
  16 C :   -0.173660
  17 S :    1.203519
  18 O :   -0.525818
  19 O :   -0.549928
  20 C :   -0.136436
  21 C :   -0.152265
  22 C :   -0.148365
  23 C :    0.082071
  24 C :    0.528941
  25 O :   -0.441627
  26 O :   -0.623014
  27 C :   -0.143522
  28 C :   -0.137361
  29 N :   -0.384184
  30 C :   -0.055777
  31 C :    0.137412
  32 C :   -0.203138
  33 C :   -0.125994
  34 C :   -0.120928
  35 C :   -0.195442
  36 C :    0.118259
  37 H :    0.165752
  38 H :    0.165990
  39 H :    0.170867
  40 H :    0.165357
  41 H :    0.186293
  42 H :    0.134997
  43 H :    0.136138
  44 H :    0.156913
  45 H :    0.159407
  46 H :    0.140160
  47 H :    0.145235
  48 H :    0.188417
  49 H :    0.176365
  50 H :    0.435946
  51 H :    0.183788
  52 H :    0.190098
  53 H :    0.152827
  54 H :    0.138982
  55 H :    0.135746
  56 H :    0.137850
  57 H :    0.141324
Sum of atomic charges:    0.0000000

LOEWDIN ATOMIC CHARGES
----------------------
   0 C :   -0.361713
   1 C :    0.002964
   2 C :    0.029567
   3 N :   -0.279535
   4 C :   -0.145282
   5 C :   -0.025942
   6 C :   -0.133319
   7 C :   -0.123104
   8 C :   -0.036689
   9 C :   -0.098019
  10 O :   -0.186131
  11 C :    0.347268
  12 F :   -0.112459
  13 F :   -0.097518
  14 F :   -0.112904
  15 C :   -0.116431
  16 C :   -0.127058
  17 S :    1.260929
  18 O :   -0.567523
  19 O :   -0.573284
  20 C :   -0.175388
  21 C :   -0.109532
  22 C :   -0.101387
  23 C :   -0.039204
  24 C :    0.179279
  25 O :   -0.257995
  26 O :   -0.333710
  27 C :   -0.086108
  28 C :   -0.099970
  29 N :   -0.124294
  30 C :   -0.060498
  31 C :   -0.027538
  32 C :   -0.112333
  33 C :   -0.125575
  34 C :   -0.117675
  35 C :   -0.120442
  36 C :   -0.006487
  37 H :    0.138753
  38 H :    0.137285
  39 H :    0.141504
  40 H :    0.138735
  41 H :    0.143649
  42 H :    0.135508
  43 H :    0.135028
  44 H :    0.123612
  45 H :    0.125400
  46 H :    0.137662
  47 H :    0.139161
  48 H :    0.160479
  49 H :    0.156223
  50 H :    0.351085
  51 H :    0.161965
  52 H :    0.162514
  53 H :    0.137381
  54 H :    0.137030
  55 H :    0.135319
  56 H :    0.136628
  57 H :    0.140121

  Mayer bond orders larger than 0.100000
B(  0-C ,  1-C ) :   1.0069 B(  0-C , 37-H ) :   0.9247 B(  0-C , 38-H ) :   0.9214
B(  0-C , 39-H ) :   0.9222 B(  1-C ,  2-C ) :   1.4290 B(  1-C , 30-C ) :   0.1000
B(  1-C , 36-C ) :   1.2649 B(  2-C ,  3-N ) :   0.8834 B(  2-C , 29-N ) :   1.2884
B(  3-N ,  4-C ) :   0.9211 B(  3-N , 17-S ) :   0.8110 B(  4-C ,  5-C ) :   0.9410
B(  4-C , 40-H ) :   0.9230 B(  4-C , 41-H ) :   0.9159 B(  5-C ,  6-C ) :   1.4266
B(  5-C , 16-C ) :   1.4280 B(  6-C ,  7-C ) :   1.4286 B(  6-C , 42-H ) :   0.9166
B(  7-C ,  8-C ) :   1.4417 B(  7-C , 43-H ) :   0.9221 B(  8-C ,  9-C ) :   0.9921
B(  8-C , 15-C ) :   1.4248 B(  9-C , 10-O ) :   0.8655 B(  9-C , 44-H ) :   0.9140
B(  9-C , 45-H ) :   0.9131 B( 10-O , 11-C ) :   1.0219 B( 11-C , 12-F ) :   0.9669
B( 11-C , 13-F ) :   1.0009 B( 11-C , 14-F ) :   0.9564 B( 15-C , 16-C ) :   1.4278
B( 15-C , 46-H ) :   0.9239 B( 16-C , 47-H ) :   0.9200 B( 17-S , 18-O ) :   1.6717
B( 17-S , 19-O ) :   1.6140 B( 17-S , 20-C ) :   0.8079 B( 20-C , 21-C ) :   1.3909
B( 20-C , 28-C ) :   1.3837 B( 21-C , 22-C ) :   1.4090 B( 21-C , 48-H ) :   0.9075
B( 22-C , 23-C ) :   1.3837 B( 22-C , 49-H ) :   0.9141 B( 23-C , 24-C ) :   1.0068
B( 23-C , 27-C ) :   1.3985 B( 24-C , 25-O ) :   1.8646 B( 24-C , 26-O ) :   1.0271
B( 26-O , 50-H ) :   0.7406 B( 27-C , 28-C ) :   1.4213 B( 27-C , 51-H ) :   0.9089
B( 28-C , 52-H ) :   0.9059 B( 29-N , 30-C ) :   1.4968 B( 30-C , 31-C ) :   1.2365
B( 30-C , 53-H ) :   0.9264 B( 31-C , 32-C ) :   1.2838 B( 31-C , 36-C ) :   1.2911
B( 32-C , 33-C ) :   1.5122 B( 32-C , 35-C ) :   0.1060 B( 32-C , 54-H ) :   0.9233
B( 33-C , 34-C ) :   1.3529 B( 33-C , 55-H ) :   0.9294 B( 34-C , 35-C ) :   1.5085
B( 34-C , 56-H ) :   0.9290 B( 35-C , 36-C ) :   1.2950 B( 35-C , 57-H ) :   0.9158

FINAL SINGLE POINT ENERGY     -2185.600460413380

DIPOLE MOMENT
-------------

Method             : SCF
Type of density    : Electron Density
Multiplicity       :   1
Irrep              :   0
Energy             : -2185.6004604133804605 Eh
Relativity type    :
Basis              : AO
                                X                 Y                 Z
Electronic contribution:     15.930329840       8.352556852     -16.474203355
Nuclear contribution   :    -14.229222717      -7.593945036      16.308759879
                        -----------------------------------------
Total Dipole Moment    :      1.701107124       0.758611815      -0.165443476
                        -----------------------------------------
Magnitude (a.u.)       :      1.869927506
Magnitude (Debye)      :      4.752977994

Rotational constants in cm-1:             0.002818             0.002655             0.001572
Rotational constants in MHz :            84.492193            79.596662            47.142113

                             ****ORCA TERMINATED NORMALLY****
TOTAL RUN TIME: 0 days 0 hours 12 minutes 3 seconds 890 msec
