                         Program Version 6.0.0  -   RELEASE  -
|  1> ! B3LYP 6-31G* SP
|  2>
|  3> * xyz 0 1
|  4> C -1.9014 -5.8258 -3.0916
|  5> C -1.3533 -5.2114 -1.8279
|  6> C -0.8546 -6.0602 -0.8287
|  7> C -0.3415 -5.5387 0.3546
|  8> C -0.3117 -4.1624 0.5642
|  9> C -0.7983 -3.2719 -0.4163
| 10> C -0.7671 -1.8648 -0.2227
| 11> C -0.1631 -1.2633 1.0275
| 12> C -1.3018 -1.0329 -1.2315
| 13> N -1.3215 0.3932 -1.0924
| 14> C -0.4105 1.2102 -1.8965
| 15> C 0.9866 1.1109 -1.3484
| 16> C 1.4300 2.0128 -0.3695
| 17> C 2.6976 1.8704 0.2012
| 18> C 3.5415 0.8152 -0.1971
| 19> O 4.8212 0.6198 0.3467
| 20> C 5.4206 1.4315 1.3543
| 21> F 4.6559 1.4026 2.5069
| 22> F 6.6771 0.9346 1.6413
| 23> F 5.5477 2.7338 0.9051
| 24> C 3.0939 -0.0834 -1.1727
| 25> C 1.8263 0.0587 -1.7429
| 26> S -2.6295 1.1389 -0.2258
| 27> O -3.6268 1.6921 -1.2047
| 28> O -3.3214 0.1168 0.6332
| 29> C -2.0123 2.4280 0.8036
| 30> C -1.5428 2.1385 2.0906
| 31> C -1.0105 3.1525 2.8917
| 32> C -0.9439 4.4748 2.4172
| 33> C -0.3763 5.5511 3.2585
| 34> O 0.0598 5.2961 4.4137
| 35> O -0.3178 6.8580 2.7814
| 36> C -1.4252 4.7607 1.1278
| 37> C -1.9554 3.7442 0.3280
| 38> N -1.7992 -1.5781 -2.3692
| 39> C -1.8241 -2.9135 -2.5896
| 40> C -1.3304 -3.8059 -1.6228
| 41> H -2.9725 -5.5575 -3.2066
| 42> H -1.8272 -6.9340 -3.0786
| 43> H -1.3283 -5.4580 -3.9683
| 44> H -0.8635 -7.1350 -0.9626
| 45> H 0.0360 -6.2076 1.1175
| 46> H 0.0913 -3.8102 1.5036
| 47> H 0.8767 -1.6292 1.1577
| 48> H -0.7733 -1.5448 1.9109
| 49> H -0.1050 -0.1596 0.9900
| 50> H -0.4343 0.8701 -2.9549
| 51> H -0.7396 2.2712 -1.8995
| 52> H 0.7928 2.8232 -0.0415
| 53> H 3.0053 2.5823 0.9536
| 54> H 3.7298 -0.9021 -1.4846
| 55> H 1.4937 -0.6596 -2.4818
| 56> H -1.5837 1.1276 2.4747
| 57> H -0.6497 2.9004 3.8810
| 58> H 0.0688 7.6025 3.3493
| 59> H -1.3875 5.7683 0.7333
| 60> H -2.3092 3.9832 -0.6667
| 61> H -2.2384 -3.2642 -3.5241
| 62> *
| 63>
| 64>                          ****END OF INPUT****

CARTESIAN COORDINATES (ANGSTROEM)
---------------------------------
  C     -1.901400   -5.825800   -3.091600
  C     -1.353300   -5.211400   -1.827900
  C     -0.854600   -6.060200   -0.828700
  C     -0.341500   -5.538700    0.354600
  C     -0.311700   -4.162400    0.564200
  C     -0.798300   -3.271900   -0.416300
  C     -0.767100   -1.864800   -0.222700
  C     -0.163100   -1.263300    1.027500
  C     -1.301800   -1.032900   -1.231500
  N     -1.321500    0.393200   -1.092400
  C     -0.410500    1.210200   -1.896500
  C      0.986600    1.110900   -1.348400
  C      1.430000    2.012800   -0.369500
  C      2.697600    1.870400    0.201200
  C      3.541500    0.815200   -0.197100
  O      4.821200    0.619800    0.346700
  C      5.420600    1.431500    1.354300
  F      4.655900    1.402600    2.506900
  F      6.677100    0.934600    1.641300
  F      5.547700    2.733800    0.905100
  C      3.093900   -0.083400   -1.172700
  C      1.826300    0.058700   -1.742900
  S     -2.629500    1.138900   -0.225800
  O     -3.626800    1.692100   -1.204700
  O     -3.321400    0.116800    0.633200
  C     -2.012300    2.428000    0.803600
  C     -1.542800    2.138500    2.090600
  C     -1.010500    3.152500    2.891700
  C     -0.943900    4.474800    2.417200
  C     -0.376300    5.551100    3.258500
  O      0.059800    5.296100    4.413700
  O     -0.317800    6.858000    2.781400
  C     -1.425200    4.760700    1.127800
  C     -1.955400    3.744200    0.328000
  N     -1.799200   -1.578100   -2.369200
  C     -1.824100   -2.913500   -2.589600
  C     -1.330400   -3.805900   -1.622800
  H     -2.972500   -5.557500   -3.206600
  H     -1.827200   -6.934000   -3.078600
  H     -1.328300   -5.458000   -3.968300
  H     -0.863500   -7.135000   -0.962600
  H      0.036000   -6.207600    1.117500
  H      0.091300   -3.810200    1.503600
  H      0.876700   -1.629200    1.157700
  H     -0.773300   -1.544800    1.910900
  H     -0.105000   -0.159600    0.990000
  H     -0.434300    0.870100   -2.954900
  H     -0.739600    2.271200   -1.899500
  H      0.792800    2.823200   -0.041500
  H      3.005300    2.582300    0.953600
  H      3.729800   -0.902100   -1.484600
  H      1.493700   -0.659600   -2.481800
  H     -1.583700    1.127600    2.474700
  H     -0.649700    2.900400    3.881000
  H      0.068800    7.602500    3.349300
  H     -1.387500    5.768300    0.733300
  H     -2.309200    3.983200   -0.666700
  H     -2.238400   -3.264200   -3.524100

 Total Charge           Charge          ....    0
 Multiplicity           Mult            ....    1
 Number of Electrons    NEL             ....  274
 Basis Dimension        Dim             ....  564

ORBITAL ENERGIES
----------------

  NO   OCC          E(Eh)            E(eV)
   0   2.0000     -89.096191     -2424.4306
   1   2.0000     -24.744218      -673.3244
   2   2.0000     -24.742125      -673.2675
   3   2.0000     -24.742041      -673.2652
   4   2.0000     -19.216582      -522.9098
   5   2.0000     -19.201138      -522.4895
   6   2.0000     -19.143376      -520.9177
   7   2.0000     -19.124363      -520.4004
   8   2.0000     -19.119931      -520.2798
   9   2.0000     -14.367757      -390.9665
  10   2.0000     -14.327410      -389.8686
  11   2.0000     -10.507189      -285.9151
  12   2.0000     -10.340810      -281.3878
  13   2.0000     -10.273295      -279.5506
  14   2.0000     -10.255294      -279.0607
  15   2.0000     -10.248164      -278.8667
  16   2.0000     -10.238850      -278.6133
  17   2.0000     -10.234432      -278.4930
  18   2.0000     -10.226631      -278.2808
  19   2.0000     -10.225966      -278.2627
  20   2.0000     -10.224132      -278.2128
  21   2.0000     -10.223598      -278.1982
  22   2.0000     -10.221075      -278.1296
  23   2.0000     -10.207298      -277.7547
  24   2.0000     -10.204947      -277.6907
  25   2.0000     -10.203067      -277.6396
  26   2.0000     -10.201626      -277.6004
  27   2.0000     -10.201251      -277.5901
  28   2.0000     -10.201067      -277.5851
  29   2.0000     -10.200224      -277.5622
  30   2.0000     -10.200122      -277.5594
  31   2.0000     -10.197595      -277.4907
  32   2.0000     -10.192532      -277.3529
  33   2.0000     -10.189557      -277.2719
  34   2.0000     -10.189470      -277.2696
  35   2.0000     -10.186940      -277.2007
  36   2.0000     -10.180002      -277.0119
  37   2.0000      -8.132033      -221.2839
  38   2.0000      -6.096986      -165.9074
  39   2.0000      -6.095150      -165.8575
  40   2.0000      -6.094631      -165.8433
  41   2.0000      -1.307196       -35.5706
  42   2.0000      -1.227899       -33.4128
  43   2.0000      -1.227412       -33.3996
  44   2.0000      -1.086546       -29.5664
  45   2.0000      -1.085948       -29.5501
  46   2.0000      -1.080838       -29.4111
  47   2.0000      -1.000247       -27.2181
  48   2.0000      -0.959868       -26.1193
  49   2.0000      -0.958788       -26.0899
  50   2.0000      -0.912009       -24.8170
  51   2.0000      -0.896584       -24.3973
  52   2.0000      -0.869297       -23.6548
  53   2.0000      -0.861923       -23.4541
  54   2.0000      -0.813358       -22.1326
  55   2.0000      -0.809752       -22.0345
  56   2.0000      -0.788961       -21.4687
  57   2.0000      -0.783086       -21.3088
  58   2.0000      -0.775343       -21.0982
  59   2.0000      -0.763670       -20.7805
  60   2.0000      -0.756630       -20.5889
  61   2.0000      -0.730251       -19.8711
  62   2.0000      -0.715101       -19.4589
  63   2.0000      -0.695940       -18.9375
  64   2.0000      -0.691689       -18.8218
  65   2.0000      -0.679881       -18.5005
  66   2.0000      -0.656990       -17.8776
  67   2.0000      -0.642416       -17.4810
  68   2.0000      -0.637223       -17.3397
  69   2.0000      -0.633485       -17.2380
  70   2.0000      -0.628198       -17.0941
  71   2.0000      -0.617148       -16.7935
  72   2.0000      -0.599318       -16.3083
  73   2.0000      -0.597479       -16.2582
  74   2.0000      -0.594823       -16.1860
  75   2.0000      -0.578266       -15.7354
  76   2.0000      -0.573210       -15.5978
  77   2.0000      -0.561645       -15.2831
  78   2.0000      -0.542400       -14.7595
  79   2.0000      -0.526595       -14.3294
  80   2.0000      -0.520867       -14.1735
  81   2.0000      -0.506834       -13.7917
  82   2.0000      -0.499546       -13.5933
  83   2.0000      -0.497014       -13.5244
  84   2.0000      -0.489902       -13.3309
  85   2.0000      -0.480275       -13.0689
  86   2.0000      -0.477558       -12.9950
  87   2.0000      -0.473069       -12.8729
  88   2.0000      -0.472216       -12.8496
  89   2.0000      -0.469310       -12.7706
  90   2.0000      -0.464338       -12.6353
  91   2.0000      -0.464062       -12.6278
  92   2.0000      -0.455468       -12.3939
  93   2.0000      -0.454288       -12.3618
  94   2.0000      -0.448658       -12.2086
  95   2.0000      -0.447869       -12.1871
  96   2.0000      -0.445258       -12.1161
  97   2.0000      -0.439791       -11.9673
  98   2.0000      -0.436110       -11.8672
  99   2.0000      -0.435269       -11.8443
 100   2.0000      -0.432462       -11.7679
 101   2.0000      -0.425881       -11.5888
 102   2.0000      -0.422682       -11.5018
 103   2.0000      -0.419475       -11.4145
 104   2.0000      -0.418711       -11.3937
 105   2.0000      -0.417969       -11.3735
 106   2.0000      -0.413102       -11.2411
 107   2.0000      -0.410251       -11.1635
 108   2.0000      -0.408635       -11.1195
 109   2.0000      -0.397837       -10.8257
 110   2.0000      -0.391007       -10.6399
 111   2.0000      -0.389073       -10.5872
 112   2.0000      -0.386277       -10.5111
 113   2.0000      -0.385197       -10.4818
 114   2.0000      -0.379663       -10.3311
 115   2.0000      -0.378235       -10.2923
 116   2.0000      -0.373663       -10.1679
 117   2.0000      -0.358418        -9.7530
 118   2.0000      -0.353354        -9.6153
 119   2.0000      -0.350316        -9.5326
 120   2.0000      -0.346310        -9.4236
 121   2.0000      -0.342688        -9.3250
 122   2.0000      -0.325946        -8.8694
 123   2.0000      -0.321980        -8.7615
 124   2.0000      -0.308291        -8.3890
 125   2.0000      -0.297265        -8.0890
 126   2.0000      -0.288184        -7.8419
 127   2.0000      -0.285846        -7.7783
 128   2.0000      -0.279985        -7.6188
 129   2.0000      -0.279454        -7.6043
 130   2.0000      -0.272582        -7.4173
 131   2.0000      -0.267449        -7.2776
 132   2.0000      -0.265949        -7.2368
 133   2.0000      -0.252347        -6.8667
 134   2.0000      -0.246442        -6.7060
 135   2.0000      -0.238799        -6.4981
 136   2.0000      -0.216868        -5.9013
 137   0.0000      -0.089799        -2.4436
 138   0.0000      -0.058286        -1.5860
 139   0.0000      -0.039769        -1.0822
 140   0.0000      -0.032077        -0.8729
 141   0.0000      -0.017469        -0.4753

MULLIKEN ATOMIC CHARGES
-----------------------
   0 C :   -0.531397
   1 C :    0.102066
   2 C :   -0.181322
   3 C :   -0.115515
   4 C :   -0.199122
   5 C :    0.118811
   6 C :    0.124676
   7 C :   -0.543605
   8 C :    0.320797
   9 N :   -0.606851
  10 C :   -0.250038
  11 C :    0.171414
  12 C :   -0.178814
  13 C :   -0.190789
  14 C :    0.352220
  15 O :   -0.545231
  16 C :    1.086543
  17 F :   -0.291310
  18 F :   -0.278449
  19 F :   -0.291076
  20 C :   -0.173463
  21 C :   -0.166070
  22 S :    1.202508
  23 O :   -0.526016
  24 O :   -0.549577
  25 C :   -0.133991
  26 C :   -0.138310
  27 C :   -0.142713
  28 C :    0.082232
  29 C :    0.529290
  30 O :   -0.441366
  31 O :   -0.623091
  32 C :   -0.148669
  33 C :   -0.154182
  34 N :   -0.379406
  35 C :   -0.067418
  36 C :    0.091832
  37 H :    0.170215
  38 H :    0.159354
  39 H :    0.163331
  40 H :    0.128877
  41 H :    0.134817
  42 H :    0.136046
  43 H :    0.160563
  44 H :    0.170840
  45 H :    0.167101
  46 H :    0.185987
  47 H :    0.166095
  48 H :    0.140493
  49 H :    0.154602
  50 H :    0.150765
  51 H :    0.150423
  52 H :    0.189705
  53 H :    0.184009
  54 H :    0.436090
  55 H :    0.176349
  56 H :    0.187717
  57 H :    0.152020
Sum of atomic charges:   -0.0000000

LOEWDIN ATOMIC CHARGES
----------------------
   0 C :   -0.354686
   1 C :   -0.002644
   2 C :   -0.133890
   3 C :   -0.117058
   4 C :   -0.129093
   5 C :   -0.003939
   6 C :    0.002270
   7 C :   -0.361792
   8 C :    0.028863
   9 N :   -0.280011
  10 C :   -0.145168
  11 C :   -0.038665
  12 C :   -0.126039
  13 C :   -0.158683
  14 C :    0.086312
  15 O :   -0.159856
  16 C :    0.359586
  17 F :   -0.104860
  18 F :   -0.086909
  19 F :   -0.104646
  20 C :   -0.140604
  21 C :   -0.120430
  22 S :    1.260862
  23 O :   -0.567235
  24 O :   -0.573255
  25 C :   -0.175248
  26 C :   -0.100204
  27 C :   -0.085546
  28 C :   -0.039026
  29 C :    0.179608
  30 O :   -0.257784
  31 O :   -0.333810
  32 C :   -0.101721
  33 C :   -0.110397
  34 N :   -0.123068
  35 C :   -0.064966
  36 C :   -0.031930
  37 H :    0.140168
  38 H :    0.134310
  39 H :    0.136754
  40 H :    0.132721
  41 H :    0.135375
  42 H :    0.138125
  43 H :    0.136136
  44 H :    0.141120
  45 H :    0.137619
  46 H :    0.143595
  47 H :    0.138738
  48 H :    0.138567
  49 H :    0.142885
  50 H :    0.146145
  51 H :    0.142861
  52 H :    0.162270
  53 H :    0.162040
  54 H :    0.351151
  55 H :    0.156293
  56 H :    0.160015
  57 H :    0.138777

  Mayer bond orders larger than 0.100000
B(  0-C ,  1-C ) :   0.9975 B(  0-C , 37-H ) :   0.9286 B(  0-C , 38-H ) :   0.9450
B(  0-C , 39-H ) :   0.9301 B(  1-C ,  2-C ) :   1.5064 B(  1-C ,  4-C ) :   0.1006
B(  1-C , 36-C ) :   1.2728 B(  2-C ,  3-C ) :   1.3402 B(  2-C , 40-H ) :   0.9231
B(  3-C ,  4-C ) :   1.5088 B(  3-C , 41-H ) :   0.9282 B(  4-C ,  5-C ) :   1.2931
B(  4-C , 42-H ) :   0.9166 B(  5-C ,  6-C ) :   1.2643 B(  5-C , 36-C ) :   1.2746
B(  6-C ,  7-C ) :   1.0053 B(  6-C ,  8-C ) :   1.4288 B(  7-C , 43-H ) :   0.9257
B(  7-C , 44-H ) :   0.9221 B(  7-C , 45-H ) :   0.9209 B(  8-C ,  9-N ) :   0.8834
B(  8-C , 34-N ) :   1.2907 B(  9-N , 10-C ) :   0.9195 B(  9-N , 22-S ) :   0.8126
B( 10-C , 11-C ) :   0.9416 B( 10-C , 46-H ) :   0.9164 B( 10-C , 47-H ) :   0.9233
B( 11-C , 12-C ) :   1.4242 B( 11-C , 21-C ) :   1.4318 B( 12-C , 13-C ) :   1.4358
B( 12-C , 48-H ) :   0.9151 B( 13-C , 14-C ) :   1.3900 B( 13-C , 49-H ) :   0.9090
B( 14-C , 15-O ) :   0.8254 B( 14-C , 20-C ) :   1.4186 B( 15-O , 16-C ) :   0.9895
B( 16-C , 17-F ) :   0.9687 B( 16-C , 18-F ) :   1.0087 B( 16-C , 19-F ) :   0.9686
B( 20-C , 21-C ) :   1.4322 B( 20-C , 50-H ) :   0.9179 B( 21-C , 51-H ) :   0.9192
B( 22-S , 23-O ) :   1.6715 B( 22-S , 24-O ) :   1.6153 B( 22-S , 25-C ) :   0.8077
B( 25-C , 26-C ) :   1.3838 B( 25-C , 33-C ) :   1.3909 B( 26-C , 27-C ) :   1.4211
B( 26-C , 52-H ) :   0.9059 B( 27-C , 28-C ) :   1.3992 B( 27-C , 53-H ) :   0.9087
B( 28-C , 29-C ) :   1.0067 B( 28-C , 32-C ) :   1.3838 B( 29-C , 30-O ) :   1.8646
B( 29-C , 31-O ) :   1.0270 B( 31-O , 54-H ) :   0.7406 B( 32-C , 33-C ) :   1.4084
B( 32-C , 55-H ) :   0.9141 B( 33-C , 56-H ) :   0.9078 B( 34-N , 35-C ) :   1.4971
B( 35-C , 36-C ) :   1.2367 B( 35-C , 57-H ) :   0.9212

FINAL SINGLE POINT ENERGY     -2185.602216214798

DIPOLE MOMENT
-------------

Method             : SCF
Type of density    : Electron Density
Multiplicity       :   1
Irrep              :   0
Energy             : -2185.6022162147978634 Eh
Relativity type    :
Basis              : AO
                                X                 Y                 Z
Electronic contribution:     27.885532890      25.275356487      14.073789946
Nuclear contribution   :    -26.384714811     -25.376083717     -14.241679118
                        -----------------------------------------
Total Dipole Moment    :      1.500818079      -0.100727230      -0.167889172
                        -----------------------------------------
Magnitude (a.u.)       :      1.513534822
Magnitude (Debye)      :      3.847099783

Rotational constants in cm-1:             0.003717             0.002274             0.001621
Rotational constants in MHz :           111.444103            68.172813            48.598352

                             ****ORCA TERMINATED NORMALLY****
TOTAL RUN TIME: 0 days 0 hours 12 minutes 15 seconds 918 msec
