                         Program Version 6.0.0  -   RELEASE  -
|  1> ! B3LYP 6-31G* SP
|  2>
|  3> * xyz 0 1
|  4> C 0.4469 1.7190 -1.5159
|  5> C -0.4285 1.8727 -0.2915
|  6> C -1.1349 0.7650 0.2353
|  7> N -1.0446 -0.5306 -0.3685
|  8> C -0.2615 -1.5828 0.2801
|  9> C 1.2024 -1.2470 0.2088
| 10> C 1.9501 -1.5931 -0.9212
| 11> C 3.2818 -1.1895 -1.0390
| 12> C 3.9040 -0.4130 -0.0322
| 13> C 5.3621 0.0669 -0.1998
| 14> C 6.2190 -0.4096 0.9896
| 15> O 5.9434 -0.5156 -1.3493
| 16> C 5.4352 1.6186 -0.3288
| 17> F 5.1429 2.2527 0.8644
| 18> F 4.5398 2.0611 -1.2888
| 19> F 6.7101 1.9964 -0.7142
| 20> C 3.1333 -0.0777 1.1109
| 21> F 3.6483 0.6498 2.1313
| 22> C 1.8019 -0.4888 1.2208
| 23> S -2.0835 -0.9211 -1.7010
| 24> O -1.2684 -1.5404 -2.8023
| 25> O -2.7334 0.3265 -2.2326
| 26> C -3.3300 -2.0328 -1.1477
| 27> C -4.3124 -1.5838 -0.2568
| 28> C -5.2955 -2.4618 0.2100
| 29> C -5.3068 -3.8058 -0.2068
| 30> C -6.3454 -4.7403 0.2815
| 31> O -7.2396 -4.3430 1.0780
| 32> O -6.3483 -6.0680 -0.1387
| 33> C -4.3138 -4.2510 -1.0971
| 34> C -3.3318 -3.3707 -1.5624
| 35> N -1.8957 0.9082 1.3517
| 36> C -2.0203 2.0910 2.0004
| 37> C -1.3447 3.2221 1.5346
| 38> C -1.4634 4.4465 2.2109
| 39> C -0.7823 5.5728 1.7477
| 40> C 0.0222 5.4863 0.6116
| 41> C 0.1511 4.2737 -0.0704
| 42> C -0.5332 3.1207 0.3765
| 43> H 1.5051 1.9216 -1.2448
| 44> H 0.4045 0.7034 -1.9555
| 45> H 0.1206 2.4304 -2.3036
| 46> H -0.4452 -2.5624 -0.2121
| 47> H -0.5854 -1.6904 1.3382
| 48> H 1.4955 -2.1627 -1.7232
| 49> H 3.8104 -1.4876 -1.9335
| 50> H 6.1049 -1.5065 1.1281
| 51> H 7.2929 -0.1988 0.7939
| 52> H 5.9507 0.0942 1.9396
| 53> H 5.5875 -0.0573 -2.1561
| 54> H 1.2282 -0.1974 2.0936
| 55> H -4.3148 -0.5538 0.0788
| 56> H -6.0445 -2.0892 0.8977
| 57> H -7.0555 -6.7160 0.1889
| 58> H -4.2935 -5.2801 -1.4339
| 59> H -2.5736 -3.7368 -2.2424
| 60> H -2.6442 2.1429 2.8841
| 61> H -2.0811 4.5314 3.0974
| 62> H -0.8774 6.5152 2.2717
| 63> H 0.5494 6.3632 0.2572
| 64> H 0.7889 4.2532 -0.9434
| 65> *
| 66>
| 67>                          ****END OF INPUT****

CARTESIAN COORDINATES (ANGSTROEM)
---------------------------------
  C      0.446900    1.719000   -1.515900
  C     -0.428500    1.872700   -0.291500
  C     -1.134900    0.765000    0.235300
  N     -1.044600   -0.530600   -0.368500
  C     -0.261500   -1.582800    0.280100
  C      1.202400   -1.247000    0.208800
  C      1.950100   -1.593100   -0.921200
  C      3.281800   -1.189500   -1.039000
  C      3.904000   -0.413000   -0.032200
  C      5.362100    0.066900   -0.199800
  C      6.219000   -0.409600    0.989600
  O      5.943400   -0.515600   -1.349300
  C      5.435200    1.618600   -0.328800
  F      5.142900    2.252700    0.864400
  F      4.539800    2.061100   -1.288800
  F      6.710100    1.996400   -0.714200
  C      3.133300   -0.077700    1.110900
  F      3.648300    0.649800    2.131300
  C      1.801900   -0.488800    1.220800
  S     -2.083500   -0.921100   -1.701000
  O     -1.268400   -1.540400   -2.802300
  O     -2.733400    0.326500   -2.232600
  C     -3.330000   -2.032800   -1.147700
  C     -4.312400   -1.583800   -0.256800
  C     -5.295500   -2.461800    0.210000
  C     -5.306800   -3.805800   -0.206800
  C     -6.345400   -4.740300    0.281500
  O     -7.239600   -4.343000    1.078000
  O     -6.348300   -6.068000   -0.138700
  C     -4.313800   -4.251000   -1.097100
  C     -3.331800   -3.370700   -1.562400
  N     -1.895700    0.908200    1.351700
  C     -2.020300    2.091000    2.000400
  C     -1.344700    3.222100    1.534600
  C     -1.463400    4.446500    2.210900
  C     -0.782300    5.572800    1.747700
  C      0.022200    5.486300    0.611600
  C      0.151100    4.273700   -0.070400
  C     -0.533200    3.120700    0.376500
  H      1.505100    1.921600   -1.244800
  H      0.404500    0.703400   -1.955500
  H      0.120600    2.430400   -2.303600
  H     -0.445200   -2.562400   -0.212100
  H     -0.585400   -1.690400    1.338200
  H      1.495500   -2.162700   -1.723200
  H      3.810400   -1.487600   -1.933500
  H      6.104900   -1.506500    1.128100
  H      7.292900   -0.198800    0.793900
  H      5.950700    0.094200    1.939600
  H      5.587500   -0.057300   -2.156100
  H      1.228200   -0.197400    2.093600
  H     -4.314800   -0.553800    0.078800
  H     -6.044500   -2.089200    0.897700
  H     -7.055500   -6.716000    0.188900
  H     -4.293500   -5.280100   -1.433900
  H     -2.573600   -3.736800   -2.242400
  H     -2.644200    2.142900    2.884100
  H     -2.081100    4.531400    3.097400
  H     -0.877400    6.515200    2.271700
  H      0.549400    6.363200    0.257200
  H      0.788900    4.253200   -0.943400

 Total Charge           Charge          ....    0
 Multiplicity           Mult            ....    1
 Number of Electrons    NEL             ....  290
 Basis Dimension        Dim             ....  594

ORBITAL ENERGIES
----------------

  NO   OCC          E(Eh)            E(eV)
   0   2.0000     -89.098207     -2424.4855
   1   2.0000     -24.729468      -672.9230
   2   2.0000     -24.722816      -672.7420
   3   2.0000     -24.721659      -672.7106
   4   2.0000     -24.708884      -672.3629
   5   2.0000     -19.195801      -522.3443
   6   2.0000     -19.165828      -521.5287
   7   2.0000     -19.137207      -520.7499
   8   2.0000     -19.128866      -520.5229
   9   2.0000     -19.127166      -520.4767
  10   2.0000     -14.371673      -391.0731
  11   2.0000     -14.333624      -390.0377
  12   2.0000     -10.435513      -283.9647
  13   2.0000     -10.334699      -281.2215
  14   2.0000     -10.280379      -279.7433
  15   2.0000     -10.278516      -279.6927
  16   2.0000     -10.257424      -279.1187
  17   2.0000     -10.240782      -278.6658
  18   2.0000     -10.237458      -278.5754
  19   2.0000     -10.230754      -278.3930
  20   2.0000     -10.225605      -278.2529
  21   2.0000     -10.218794      -278.0675
  22   2.0000     -10.218013      -278.0463
  23   2.0000     -10.216124      -277.9949
  24   2.0000     -10.215677      -277.9827
  25   2.0000     -10.212904      -277.9073
  26   2.0000     -10.209385      -277.8115
  27   2.0000     -10.205388      -277.7027
  28   2.0000     -10.204970      -277.6914
  29   2.0000     -10.200724      -277.5758
  30   2.0000     -10.199416      -277.5402
  31   2.0000     -10.197536      -277.4891
  32   2.0000     -10.196969      -277.4736
  33   2.0000     -10.196837      -277.4700
  34   2.0000     -10.195869      -277.4437
  35   2.0000     -10.194997      -277.4200
  36   2.0000     -10.189863      -277.2803
  37   2.0000     -10.182086      -277.0687
  38   2.0000     -10.172366      -276.8042
  39   2.0000      -8.133990      -221.3371
  40   2.0000      -6.098986      -165.9619
  41   2.0000      -6.097056      -165.9093
  42   2.0000      -6.096619      -165.8974
  43   2.0000      -1.285465       -34.9793
  44   2.0000      -1.223845       -33.3025
  45   2.0000      -1.211781       -32.9742
  46   2.0000      -1.206699       -32.8359
  47   2.0000      -1.085097       -29.5270
  48   2.0000      -1.080037       -29.3893
  49   2.0000      -1.046980       -28.4898
  50   2.0000      -0.994023       -27.0487
  51   2.0000      -0.965525       -26.2733
  52   2.0000      -0.962717       -26.1969
  53   2.0000      -0.915990       -24.9254
  54   2.0000      -0.888684       -24.1823
  55   2.0000      -0.868906       -23.6441
  56   2.0000      -0.863003       -23.4835
  57   2.0000      -0.809267       -22.0213
  58   2.0000      -0.808660       -22.0048
  59   2.0000      -0.801083       -21.7986
  60   2.0000      -0.776752       -21.1365
  61   2.0000      -0.774558       -21.0768
  62   2.0000      -0.764659       -20.8074
  63   2.0000      -0.754773       -20.5384
  64   2.0000      -0.741320       -20.1723
  65   2.0000      -0.715303       -19.4644
  66   2.0000      -0.702879       -19.1263
  67   2.0000      -0.701306       -19.0835
  68   2.0000      -0.685728       -18.6596
  69   2.0000      -0.653164       -17.7735
  70   2.0000      -0.643574       -17.5125
  71   2.0000      -0.637536       -17.3482
  72   2.0000      -0.633780       -17.2460
  73   2.0000      -0.624019       -16.9804
  74   2.0000      -0.615900       -16.7595
  75   2.0000      -0.600853       -16.3500
  76   2.0000      -0.594646       -16.1811
  77   2.0000      -0.590738       -16.0748
  78   2.0000      -0.575261       -15.6536
  79   2.0000      -0.574447       -15.6315
  80   2.0000      -0.571038       -15.5387
  81   2.0000      -0.560119       -15.2416
  82   2.0000      -0.544869       -14.8266
  83   2.0000      -0.539518       -14.6810
  84   2.0000      -0.530769       -14.4430
  85   2.0000      -0.514845       -14.0097
  86   2.0000      -0.509857       -13.8739
  87   2.0000      -0.503608       -13.7039
  88   2.0000      -0.499153       -13.5826
  89   2.0000      -0.487569       -13.2674
  90   2.0000      -0.483070       -13.1450
  91   2.0000      -0.477039       -12.9809
  92   2.0000      -0.471045       -12.8178
  93   2.0000      -0.468964       -12.7612
  94   2.0000      -0.461360       -12.5542
  95   2.0000      -0.459593       -12.5062
  96   2.0000      -0.456859       -12.4318
  97   2.0000      -0.452501       -12.3132
  98   2.0000      -0.448606       -12.2072
  99   2.0000      -0.447204       -12.1690
 100   2.0000      -0.446589       -12.1523
 101   2.0000      -0.445160       -12.1134
 102   2.0000      -0.441246       -12.0069
 103   2.0000      -0.435609       -11.8535
 104   2.0000      -0.432728       -11.7751
 105   2.0000      -0.429655       -11.6915
 106   2.0000      -0.426900       -11.6165
 107   2.0000      -0.423479       -11.5235
 108   2.0000      -0.422518       -11.4973
 109   2.0000      -0.417177       -11.3520
 110   2.0000      -0.413618       -11.2551
 111   2.0000      -0.413143       -11.2422
 112   2.0000      -0.403289       -10.9741
 113   2.0000      -0.401551       -10.9268
 114   2.0000      -0.396093       -10.7782
 115   2.0000      -0.393448       -10.7063
 116   2.0000      -0.390841       -10.6353
 117   2.0000      -0.387496       -10.5443
 118   2.0000      -0.384381       -10.4595
 119   2.0000      -0.377790       -10.2802
 120   2.0000      -0.377690       -10.2775
 121   2.0000      -0.369358       -10.0507
 122   2.0000      -0.367074        -9.9886
 123   2.0000      -0.365584        -9.9480
 124   2.0000      -0.360058        -9.7977
 125   2.0000      -0.356335        -9.6964
 126   2.0000      -0.354027        -9.6336
 127   2.0000      -0.350113        -9.5271
 128   2.0000      -0.342028        -9.3071
 129   2.0000      -0.327140        -8.9019
 130   2.0000      -0.320495        -8.7211
 131   2.0000      -0.307800        -8.3757
 132   2.0000      -0.301725        -8.2103
 133   2.0000      -0.297791        -8.1033
 134   2.0000      -0.288566        -7.8523
 135   2.0000      -0.281979        -7.6730
 136   2.0000      -0.277971        -7.5640
 137   2.0000      -0.277801        -7.5593
 138   2.0000      -0.273499        -7.4423
 139   2.0000      -0.266970        -7.2646
 140   2.0000      -0.262326        -7.1383
 141   2.0000      -0.255959        -6.9650
 142   2.0000      -0.254310        -6.9201
 143   2.0000      -0.244797        -6.6613
 144   2.0000      -0.222897        -6.0653
 145   0.0000      -0.082339        -2.2406
 146   0.0000      -0.060701        -1.6518
 147   0.0000      -0.034056        -0.9267
 148   0.0000      -0.028917        -0.7869
 149   0.0000      -0.025019        -0.6808

MULLIKEN ATOMIC CHARGES
-----------------------
   0 C :   -0.548643
   1 C :    0.133606
   2 C :    0.306266
   3 N :   -0.610497
   4 C :   -0.239885
   5 C :    0.183766
   6 C :   -0.171776
   7 C :   -0.172044
   8 C :    0.011046
   9 C :    0.180000
  10 C :   -0.477396
  11 O :   -0.636181
  12 C :    0.899873
  13 F :   -0.291331
  14 F :   -0.307268
  15 F :   -0.298008
  16 C :    0.370748
  17 F :   -0.309713
  18 C :   -0.255653
  19 S :    1.222312
  20 O :   -0.557825
  21 O :   -0.541970
  22 C :   -0.128140
  23 C :   -0.136444
  24 C :   -0.142051
  25 C :    0.082958
  26 C :    0.528312
  27 O :   -0.444938
  28 O :   -0.623819
  29 C :   -0.146381
  30 C :   -0.152944
  31 N :   -0.404129
  32 C :   -0.059042
  33 C :    0.139961
  34 C :   -0.203589
  35 C :   -0.124818
  36 C :   -0.119897
  37 C :   -0.192481
  38 C :    0.116506
  39 H :    0.161613
  40 H :    0.198575
  41 H :    0.169001
  42 H :    0.172683
  43 H :    0.174019
  44 H :    0.158542
  45 H :    0.142705
  46 H :    0.168164
  47 H :    0.169304
  48 H :    0.177601
  49 H :    0.402557
  50 H :    0.152936
  51 H :    0.191345
  52 H :    0.180889
  53 H :    0.433940
  54 H :    0.171981
  55 H :    0.183267
  56 H :    0.150950
  57 H :    0.138444
  58 H :    0.137023
  59 H :    0.139923
  60 H :    0.146045
Sum of atomic charges:    0.0000000

LOEWDIN ATOMIC CHARGES
----------------------
   0 C :   -0.362923
   1 C :    0.010485
   2 C :    0.021841
   3 N :   -0.279846
   4 C :   -0.144144
   5 C :   -0.021733
   6 C :   -0.130070
   7 C :   -0.120219
   8 C :   -0.060048
   9 C :    0.035019
  10 C :   -0.358178
  11 O :   -0.359820
  12 C :    0.294496
  13 F :   -0.105276
  14 F :   -0.118224
  15 F :   -0.110724
  16 C :    0.113478
  17 F :   -0.096058
  18 C :   -0.155055
  19 S :    1.263248
  20 O :   -0.581070
  21 O :   -0.566589
  22 C :   -0.176420
  23 C :   -0.095802
  24 C :   -0.085386
  25 C :   -0.039453
  26 C :    0.180272
  27 O :   -0.261278
  28 O :   -0.334916
  29 C :   -0.100477
  30 C :   -0.109413
  31 N :   -0.141164
  32 C :   -0.064530
  33 C :   -0.026678
  34 C :   -0.113072
  35 C :   -0.123334
  36 C :   -0.116004
  37 C :   -0.116777
  38 C :   -0.005873
  39 H :    0.137483
  40 H :    0.151978
  41 H :    0.142135
  42 H :    0.143840
  43 H :    0.134679
  44 H :    0.145667
  45 H :    0.141093
  46 H :    0.141323
  47 H :    0.139221
  48 H :    0.142463
  49 H :    0.318450
  50 H :    0.147541
  51 H :    0.162932
  52 H :    0.160663
  53 H :    0.349733
  54 H :    0.154280
  55 H :    0.159215
  56 H :    0.136162
  57 H :    0.136760
  58 H :    0.135964
  59 H :    0.137649
  60 H :    0.142486

  Mayer bond orders larger than 0.100000
B(  0-C ,  1-C ) :   1.0093 B(  0-C , 39-H ) :   0.9203 B(  0-C , 40-H ) :   0.9166
B(  0-C , 41-H ) :   0.9239 B(  1-C ,  2-C ) :   1.4341 B(  1-C , 38-C ) :   1.2617
B(  2-C ,  3-N ) :   0.8884 B(  2-C , 31-N ) :   1.2761 B(  3-N ,  4-C ) :   0.9237
B(  3-N , 19-S ) :   0.8060 B(  4-C ,  5-C ) :   0.9563 B(  4-C , 42-H ) :   0.9194
B(  4-C , 43-H ) :   0.9185 B(  5-C ,  6-C ) :   1.4315 B(  5-C , 18-C ) :   1.4131
B(  6-C ,  7-C ) :   1.4274 B(  6-C , 44-H ) :   0.9143 B(  7-C ,  8-C ) :   1.4077
B(  7-C , 45-H ) :   0.9150 B(  8-C ,  9-C ) :   0.9272 B(  8-C , 16-C ) :   1.3239
B(  9-C , 10-C ) :   0.9793 B(  9-C , 11-O ) :   0.9123 B(  9-C , 12-C ) :   0.9054
B( 10-C , 46-H ) :   0.9395 B( 10-C , 47-H ) :   0.9343 B( 10-C , 48-H ) :   0.9239
B( 11-O , 49-H ) :   0.7682 B( 12-C , 13-F ) :   0.9674 B( 12-C , 14-F ) :   0.9450
B( 12-C , 15-F ) :   0.9726 B( 16-C , 17-F ) :   0.9098 B( 16-C , 18-C ) :   1.3738
B( 18-C , 50-H ) :   0.9108 B( 19-S , 20-O ) :   1.6086 B( 19-S , 21-O ) :   1.6503
B( 19-S , 22-C ) :   0.8121 B( 22-C , 23-C ) :   1.3782 B( 22-C , 30-C ) :   1.4003
B( 23-C , 24-C ) :   1.4317 B( 23-C , 51-H ) :   0.9040 B( 24-C , 25-C ) :   1.3955
B( 24-C , 52-H ) :   0.9098 B( 25-C , 26-C ) :   1.0082 B( 25-C , 29-C ) :   1.3889
B( 26-C , 27-O ) :   1.8621 B( 26-C , 28-O ) :   1.0245 B( 28-O , 53-H ) :   0.7419
B( 29-C , 30-C ) :   1.4086 B( 29-C , 54-H ) :   0.9150 B( 30-C , 55-H ) :   0.9094
B( 31-N , 32-C ) :   1.4923 B( 32-C , 33-C ) :   1.2423 B( 32-C , 56-H ) :   0.9264
B( 33-C , 34-C ) :   1.2833 B( 33-C , 38-C ) :   1.2912 B( 34-C , 35-C ) :   1.5126
B( 34-C , 37-C ) :   0.1060 B( 34-C , 57-H ) :   0.9235 B( 35-C , 36-C ) :   1.3526
B( 35-C , 58-H ) :   0.9291 B( 36-C , 37-C ) :   1.5078 B( 36-C , 59-H ) :   0.9287
B( 37-C , 38-C ) :   1.2964 B( 37-C , 60-H ) :   0.9147

FINAL SINGLE POINT ENERGY     -2324.091307670396

DIPOLE MOMENT
-------------

Method             : SCF
Type of density    : Electron Density
Multiplicity       :   1
Irrep              :   0
Energy             : -2324.0913076703959632 Eh
Relativity type    :
Basis              : AO
                                X                 Y                 Z
Electronic contribution:     15.218570515       4.696829329      -0.535770027
Nuclear contribution   :    -15.099703491      -5.160664052       1.514185929
                        -----------------------------------------
Total Dipole Moment    :      0.118867024      -0.463834724       0.978415901
                        -----------------------------------------
Magnitude (a.u.)       :      1.089297800
Magnitude (Debye)      :      2.768774968

Rotational constants in cm-1:             0.004677             0.001583             0.001327
Rotational constants in MHz :           140.220795            47.462315            39.770834

                             ****ORCA TERMINATED NORMALLY****
TOTAL RUN TIME: 0 days 0 hours 13 minutes 33 seconds 674 msec
