                         Program Version 6.0.0  -   RELEASE  -
|  1> ! B3LYP 6-31G* SP
|  2>
|  3> * xyz 0 1
|  4> O 1.1520 -0.6281 -1.9878
|  5> C 1.5082 -0.0805 -0.9088
|  6> N 0.7016 0.9652 -0.3333
|  7> C -0.6699 1.2852 -0.7771
|  8> C -1.4938 -0.0222 -0.8260
|  9> C -1.5756 -0.8220 0.3354
| 10> C -2.2922 -2.0208 0.3436
| 11> C -2.9340 -2.4717 -0.8209
| 12> O -3.6707 -3.6663 -0.8699
| 13> C -3.8679 -4.5582 0.2250
| 14> F -2.6514 -5.0468 0.6669
| 15> F -4.6471 -5.6185 -0.1954
| 16> F -4.5189 -3.9084 1.2583
| 17> C -2.8318 -1.7105 -1.9864
| 18> C -2.1144 -0.5113 -1.9990
| 19> C -0.5506 2.0297 -2.1451
| 20> C -1.8288 2.7924 -2.5212
| 21> O -2.1818 3.6992 -1.4865
| 22> C -2.0354 3.3686 -0.1392
| 23> C -2.5889 4.2016 0.8361
| 24> C -2.4263 3.8972 2.1868
| 25> C -1.7020 2.7615 2.5467
| 26> N -1.1650 1.9644 1.5860
| 27> C -1.3077 2.2250 0.2541
| 28> C 2.7619 -0.5196 -0.2530
| 29> C 3.7685 -1.1776 -1.0131
| 30> C 4.9614 -1.6122 -0.4068
| 31> C 5.1122 -1.3806 0.9560
| 32> N 6.1415 -1.7054 1.7468
| 33> C 5.7659 -1.2637 2.9712
| 34> N 4.5411 -0.6744 2.9830
| 35> C 4.1544 -0.7617 1.6974
| 36> C 2.9611 -0.3168 1.1351
| 37> H 1.1714 1.6193 0.3335
| 38> H -1.0629 -0.5327 1.2422
| 39> H -2.3295 -2.5912 1.2607
| 40> H -3.3044 -2.0575 -2.8969
| 41> H -2.0421 -0.0009 -2.9448
| 42> H -0.2586 1.3414 -2.9649
| 43> H 0.2686 2.7797 -2.0715
| 44> H -2.6794 2.1036 -2.6883
| 45> H -1.6619 3.3613 -3.4598
| 46> H -3.1432 5.0850 0.5457
| 47> H -2.8540 4.5374 2.9476
| 48> H -1.5640 2.5133 3.5904
| 49> H 3.6333 -1.3463 -2.0742
| 50> H 5.7323 -2.1102 -0.9806
| 51> H 7.0284 -2.1904 1.4851
| 52> H 6.3800 -1.3710 3.8555
| 53> H 2.2102 0.1465 1.7616
| 54> *
| 55>
| 56>                          ****END OF INPUT****

CARTESIAN COORDINATES (ANGSTROEM)
---------------------------------
  O      1.152000   -0.628100   -1.987800
  C      1.508200   -0.080500   -0.908800
  N      0.701600    0.965200   -0.333300
  C     -0.669900    1.285200   -0.777100
  C     -1.493800   -0.022200   -0.826000
  C     -1.575600   -0.822000    0.335400
  C     -2.292200   -2.020800    0.343600
  C     -2.934000   -2.471700   -0.820900
  O     -3.670700   -3.666300   -0.869900
  C     -3.867900   -4.558200    0.225000
  F     -2.651400   -5.046800    0.666900
  F     -4.647100   -5.618500   -0.195400
  F     -4.518900   -3.908400    1.258300
  C     -2.831800   -1.710500   -1.986400
  C     -2.114400   -0.511300   -1.999000
  C     -0.550600    2.029700   -2.145100
  C     -1.828800    2.792400   -2.521200
  O     -2.181800    3.699200   -1.486500
  C     -2.035400    3.368600   -0.139200
  C     -2.588900    4.201600    0.836100
  C     -2.426300    3.897200    2.186800
  C     -1.702000    2.761500    2.546700
  N     -1.165000    1.964400    1.586000
  C     -1.307700    2.225000    0.254100
  C      2.761900   -0.519600   -0.253000
  C      3.768500   -1.177600   -1.013100
  C      4.961400   -1.612200   -0.406800
  C      5.112200   -1.380600    0.956000
  N      6.141500   -1.705400    1.746800
  C      5.765900   -1.263700    2.971200
  N      4.541100   -0.674400    2.983000
  C      4.154400   -0.761700    1.697400
  C      2.961100   -0.316800    1.135100
  H      1.171400    1.619300    0.333500
  H     -1.062900   -0.532700    1.242200
  H     -2.329500   -2.591200    1.260700
  H     -3.304400   -2.057500   -2.896900
  H     -2.042100   -0.000900   -2.944800
  H     -0.258600    1.341400   -2.964900
  H      0.268600    2.779700   -2.071500
  H     -2.679400    2.103600   -2.688300
  H     -1.661900    3.361300   -3.459800
  H     -3.143200    5.085000    0.545700
  H     -2.854000    4.537400    2.947600
  H     -1.564000    2.513300    3.590400
  H      3.633300   -1.346300   -2.074200
  H      5.732300   -2.110200   -0.980600
  H      7.028400   -2.190400    1.485100
  H      6.380000   -1.371000    3.855500
  H      2.210200    0.146500    1.761600

 Total Charge           Charge          ....    0
 Multiplicity           Mult            ....    1
 Number of Electrons    NEL             ....  234
 Basis Dimension        Dim             ....  496

ORBITAL ENERGIES
----------------

  NO   OCC          E(Eh)            E(eV)
   0   2.0000     -24.731345      -672.9741
   1   2.0000     -24.728345      -672.8925
   2   2.0000     -24.727805      -672.8778
   3   2.0000     -19.199331      -522.4404
   4   2.0000     -19.170203      -521.6477
   5   2.0000     -19.098473      -519.6959
   6   2.0000     -14.402348      -391.9078
   7   2.0000     -14.343825      -390.3153
   8   2.0000     -14.331629      -389.9835
   9   2.0000     -14.315710      -389.5503
  10   2.0000     -10.492136      -285.5055
  11   2.0000     -10.279175      -279.7106
  12   2.0000     -10.257299      -279.1153
  13   2.0000     -10.253556      -279.0134
  14   2.0000     -10.251430      -278.9556
  15   2.0000     -10.246638      -278.8252
  16   2.0000     -10.238818      -278.6124
  17   2.0000     -10.230202      -278.3780
  18   2.0000     -10.217177      -278.0235
  19   2.0000     -10.215639      -277.9817
  20   2.0000     -10.198911      -277.5265
  21   2.0000     -10.196880      -277.4712
  22   2.0000     -10.194604      -277.4093
  23   2.0000     -10.193392      -277.3763
  24   2.0000     -10.189490      -277.2701
  25   2.0000     -10.189274      -277.2642
  26   2.0000     -10.186541      -277.1899
  27   2.0000     -10.185387      -277.1585
  28   2.0000     -10.183781      -277.1148
  29   2.0000     -10.182499      -277.0799
  30   2.0000     -10.180173      -277.0166
  31   2.0000     -10.178492      -276.9709
  32   2.0000     -10.175196      -276.8812
  33   2.0000      -1.293345       -35.1937
  34   2.0000      -1.214209       -33.0403
  35   2.0000      -1.213726       -33.0272
  36   2.0000      -1.069235       -29.0954
  37   2.0000      -1.057110       -28.7654
  38   2.0000      -1.039003       -28.2727
  39   2.0000      -0.999687       -27.2029
  40   2.0000      -0.934897       -25.4398
  41   2.0000      -0.897883       -24.4326
  42   2.0000      -0.891589       -24.2614
  43   2.0000      -0.847517       -23.0621
  44   2.0000      -0.843522       -22.9534
  45   2.0000      -0.804812       -21.9000
  46   2.0000      -0.787275       -21.4228
  47   2.0000      -0.769359       -20.9353
  48   2.0000      -0.754837       -20.5402
  49   2.0000      -0.750570       -20.4240
  50   2.0000      -0.739669       -20.1274
  51   2.0000      -0.734337       -19.9823
  52   2.0000      -0.698520       -19.0077
  53   2.0000      -0.673459       -18.3258
  54   2.0000      -0.655027       -17.8242
  55   2.0000      -0.650022       -17.6880
  56   2.0000      -0.636154       -17.3106
  57   2.0000      -0.628532       -17.1032
  58   2.0000      -0.619599       -16.8601
  59   2.0000      -0.608253       -16.5514
  60   2.0000      -0.602871       -16.4050
  61   2.0000      -0.585246       -15.9254
  62   2.0000      -0.581008       -15.8100
  63   2.0000      -0.574594       -15.6355
  64   2.0000      -0.564057       -15.3488
  65   2.0000      -0.557800       -15.1785
  66   2.0000      -0.549791       -14.9606
  67   2.0000      -0.532325       -14.4853
  68   2.0000      -0.521348       -14.1866
  69   2.0000      -0.505906       -13.7664
  70   2.0000      -0.493920       -13.4402
  71   2.0000      -0.492778       -13.4092
  72   2.0000      -0.482878       -13.1398
  73   2.0000      -0.473637       -12.8883
  74   2.0000      -0.463701       -12.6179
  75   2.0000      -0.459230       -12.4963
  76   2.0000      -0.459072       -12.4920
  77   2.0000      -0.458359       -12.4726
  78   2.0000      -0.451666       -12.2904
  79   2.0000      -0.449165       -12.2224
  80   2.0000      -0.443627       -12.0717
  81   2.0000      -0.439789       -11.9673
  82   2.0000      -0.437188       -11.8965
  83   2.0000      -0.434126       -11.8132
  84   2.0000      -0.427696       -11.6382
  85   2.0000      -0.422516       -11.4972
  86   2.0000      -0.418330       -11.3833
  87   2.0000      -0.415364       -11.3026
  88   2.0000      -0.412010       -11.2114
  89   2.0000      -0.405912       -11.0454
  90   2.0000      -0.404692       -11.0122
  91   2.0000      -0.399609       -10.8739
  92   2.0000      -0.399211       -10.8631
  93   2.0000      -0.393004       -10.6942
  94   2.0000      -0.387832       -10.5535
  95   2.0000      -0.381328       -10.3765
  96   2.0000      -0.376941       -10.2571
  97   2.0000      -0.372141       -10.1265
  98   2.0000      -0.359343        -9.7782
  99   2.0000      -0.358056        -9.7432
 100   2.0000      -0.346717        -9.4346
 101   2.0000      -0.337529        -9.1846
 102   2.0000      -0.334300        -9.0968
 103   2.0000      -0.330315        -8.9883
 104   2.0000      -0.321086        -8.7372
 105   2.0000      -0.318872        -8.6769
 106   2.0000      -0.311042        -8.4639
 107   2.0000      -0.277708        -7.5568
 108   2.0000      -0.275335        -7.4923
 109   2.0000      -0.251629        -6.8472
 110   2.0000      -0.248971        -6.7748
 111   2.0000      -0.243109        -6.6153
 112   2.0000      -0.238012        -6.4766
 113   2.0000      -0.231342        -6.2951
 114   2.0000      -0.226101        -6.1525
 115   2.0000      -0.221789        -6.0352
 116   2.0000      -0.215231        -5.8567
 117   0.0000      -0.033213        -0.9038
 118   0.0000      -0.031450        -0.8558
 119   0.0000      -0.010617        -0.2889
 120   0.0000      -0.008189        -0.2228
 121   0.0000       0.007045         0.1917

MULLIKEN ATOMIC CHARGES
-----------------------
   0 O :   -0.491790
   1 C :    0.511738
   2 N :   -0.649647
   3 C :    0.176009
   4 C :    0.134379
   5 C :   -0.158145
   6 C :   -0.188990
   7 C :    0.356127
   8 O :   -0.548503
   9 C :    1.084843
  10 F :   -0.291640
  11 F :   -0.281702
  12 F :   -0.292822
  13 C :   -0.177690
  14 C :   -0.151382
  15 C :   -0.327359
  16 C :   -0.038054
  17 O :   -0.514509
  18 C :    0.343637
  19 C :   -0.153911
  20 C :   -0.131520
  21 C :    0.003549
  22 N :   -0.409688
  23 C :    0.126419
  24 C :    0.056707
  25 C :   -0.171243
  26 C :   -0.186995
  27 C :    0.331382
  28 N :   -0.606031
  29 C :    0.160420
  30 N :   -0.420709
  31 C :    0.208216
  32 C :   -0.233502
  33 H :    0.325893
  34 H :    0.167064
  35 H :    0.148031
  36 H :    0.141299
  37 H :    0.129848
  38 H :    0.183819
  39 H :    0.148332
  40 H :    0.146403
  41 H :    0.154975
  42 H :    0.152721
  43 H :    0.138741
  44 H :    0.148257
  45 H :    0.154866
  46 H :    0.127054
  47 H :    0.347577
  48 H :    0.162251
  49 H :    0.155274
Sum of atomic charges:    0.0000000

LOEWDIN ATOMIC CHARGES
----------------------
   0 O :   -0.292113
   1 C :    0.143396
   2 N :   -0.227637
   3 C :    0.041408
   4 C :   -0.012890
   5 C :   -0.108531
   6 C :   -0.161771
   7 C :    0.084999
   8 O :   -0.161495
   9 C :    0.358363
  10 F :   -0.105278
  11 F :   -0.089808
  12 F :   -0.106158
  13 C :   -0.145641
  14 C :   -0.116160
  15 C :   -0.243209
  16 C :   -0.094949
  17 O :   -0.181561
  18 C :    0.076946
  19 C :   -0.124773
  20 C :   -0.135831
  21 C :   -0.088157
  22 N :   -0.131699
  23 C :   -0.004783
  24 C :   -0.059008
  25 C :   -0.106430
  26 C :   -0.151876
  27 C :   -0.007602
  28 N :   -0.107369
  29 C :   -0.044198
  30 N :   -0.165848
  31 C :   -0.028951
  32 C :   -0.116907
  33 H :    0.253220
  34 H :    0.150556
  35 H :    0.140077
  36 H :    0.142023
  37 H :    0.134941
  38 H :    0.149210
  39 H :    0.131780
  40 H :    0.116995
  41 H :    0.131119
  42 H :    0.147486
  43 H :    0.138661
  44 H :    0.134851
  45 H :    0.148797
  46 H :    0.131912
  47 H :    0.276206
  48 H :    0.140129
  49 H :    0.147557

  Mayer bond orders larger than 0.100000
B(  0-O ,  1-C ) :   1.7806 B(  1-C ,  2-N ) :   1.0272 B(  1-C , 24-C ) :   0.9993
B(  2-N ,  3-C ) :   0.8833 B(  2-N , 33-H ) :   0.8130 B(  3-C ,  4-C ) :   0.9613
B(  3-C , 15-C ) :   0.9773 B(  3-C , 23-C ) :   0.9385 B(  4-C ,  5-C ) :   1.4119
B(  4-C , 14-C ) :   1.4257 B(  5-C ,  6-C ) :   1.4298 B(  5-C , 34-H ) :   0.9014
B(  6-C ,  7-C ) :   1.3883 B(  6-C , 35-H ) :   0.9111 B(  7-C ,  8-O ) :   0.8155
B(  7-C , 13-C ) :   1.4252 B(  8-O ,  9-C ) :   0.9965 B(  9-C , 10-F ) :   0.9683
B(  9-C , 11-F ) :   1.0052 B(  9-C , 12-F ) :   0.9672 B( 13-C , 14-C ) :   1.4340
B( 13-C , 36-H ) :   0.9189 B( 14-C , 37-H ) :   0.9140 B( 15-C , 16-C ) :   0.9808
B( 15-C , 38-H ) :   0.9050 B( 15-C , 39-H ) :   0.9281 B( 16-C , 17-O ) :   0.8964
B( 16-C , 40-H ) :   0.9171 B( 16-C , 41-H ) :   0.9339 B( 17-O , 18-C ) :   0.9292
B( 18-C , 19-C ) :   1.3962 B( 18-C , 23-C ) :   1.3173 B( 19-C , 20-C ) :   1.4566
B( 19-C , 42-H ) :   0.9169 B( 20-C , 21-C ) :   1.4073 B( 20-C , 43-H ) :   0.9249
B( 21-C , 22-N ) :   1.4261 B( 21-C , 44-H ) :   0.9300 B( 22-N , 23-C ) :   1.3612
B( 24-C , 25-C ) :   1.3358 B( 24-C , 32-C ) :   1.4060 B( 25-C , 26-C ) :   1.4705
B( 25-C , 45-H ) :   0.9159 B( 26-C , 27-C ) :   1.3388 B( 26-C , 46-H ) :   0.9241
B( 27-C , 28-N ) :   0.9922 B( 27-C , 31-C ) :   1.3199 B( 28-N , 29-C ) :   1.1464
B( 28-N , 47-H ) :   0.8253 B( 29-C , 30-N ) :   1.5999 B( 29-C , 48-H ) :   0.9326
B( 30-N , 31-C ) :   1.2489 B( 31-C , 32-C ) :   1.3280 B( 32-C , 49-H ) :   0.9065

FINAL SINGLE POINT ENERGY     -1629.963817969464

DIPOLE MOMENT
-------------

Method             : SCF
Type of density    : Electron Density
Multiplicity       :   1
Irrep              :   0
Energy             : -1629.9638179694643441 Eh
Relativity type    :
Basis              : AO
                                X                 Y                 Z
Electronic contribution:    -18.278051879     -29.864433143       5.948350919
Nuclear contribution   :     20.246066259      30.707329875      -5.679204331
                        -----------------------------------------
Total Dipole Moment    :      1.968014380       0.842896732       0.269146588
                        -----------------------------------------
Magnitude (a.u.)       :      2.157775565
Magnitude (Debye)      :      5.484629615

Rotational constants in cm-1:             0.004072             0.002900             0.002076
Rotational constants in MHz :           122.074625            86.954482            62.238098

                             ****ORCA TERMINATED NORMALLY****
TOTAL RUN TIME: 0 days 0 hours 8 minutes 45 seconds 223 msec
