                         Program Version 6.0.0  -   RELEASE  -
|  1> ! B3LYP 6-31G* SP
|  2>
|  3> * xyz 0 1
|  4> C -1.0176 -2.0356 1.3998
|  5> C -1.0911 -1.7729 -0.1126
|  6> C -1.2371 -3.0258 -0.9662
|  7> C -0.7143 -4.2751 -0.5674
|  8> C -0.8397 -5.3948 -1.3940
|  9> C -1.4707 -5.2848 -2.6335
| 10> F -1.5875 -6.3725 -3.4340
| 11> C -1.9727 -4.0515 -3.0528
| 12> C -1.8545 -2.9265 -2.2308
| 13> F -2.3410 -1.7381 -2.6724
| 14> N 0.0557 -0.9671 -0.5737
| 15> C 1.4335 -1.4799 -0.5102
| 16> C 2.2954 -0.5635 0.3212
| 17> C 2.4617 -0.7970 1.6944
| 18> C 3.2092 0.0870 2.4737
| 19> C 3.7886 1.2170 1.8956
| 20> C 3.6341 1.4712 0.5217
| 21> C 4.2378 2.6779 -0.0864
| 22> O 4.1100 2.9037 -1.3199
| 23> O 4.9498 3.5795 0.7007
| 24> C 2.8876 0.5705 -0.2595
| 25> C -0.1917 0.2529 -1.2949
| 26> O 0.2651 0.3925 -2.4612
| 27> C -0.9427 1.3540 -0.6727
| 28> C -1.2920 2.5510 -1.2945
| 29> C -1.9384 3.2482 -0.2993
| 30> C -2.5075 4.5193 -0.3357
| 31> C -3.1058 4.9948 0.8427
| 32> C -3.1174 4.1995 2.0058
| 33> C -2.5253 2.9278 1.9790
| 34> N -1.9593 2.5075 0.8195
| 35> N -1.3550 1.3505 0.6167
| 36> H -0.0972 -2.5794 1.6851
| 37> H -1.8993 -2.6282 1.7254
| 38> H -1.0255 -1.0706 1.9489
| 39> H -2.0281 -1.1861 -0.2457
| 40> H -0.2055 -4.3982 0.3770
| 41> H -0.4412 -6.3488 -1.0733
| 42> H -2.4524 -3.9655 -4.0192
| 43> H 1.4590 -2.5052 -0.0853
| 44> H 1.8484 -1.5638 -1.5383
| 45> H 2.0153 -1.6626 2.1656
| 46> H 3.3326 -0.0998 3.5329
| 47> H 4.3561 1.8914 2.5235
| 48> H 5.3577 4.4153 0.2969
| 49> H 2.7547 0.7549 -1.3187
| 50> H -1.0957 2.8634 -2.3120
| 51> H -2.4899 5.1196 -1.2363
| 52> H -3.5595 5.9772 0.8573
| 53> H -3.5779 4.5673 2.9136
| 54> H -2.5185 2.2991 2.8604
| 55> *
| 56>
| 57>                          ****END OF INPUT****

CARTESIAN COORDINATES (ANGSTROEM)
---------------------------------
  C     -1.017600   -2.035600    1.399800
  C     -1.091100   -1.772900   -0.112600
  C     -1.237100   -3.025800   -0.966200
  C     -0.714300   -4.275100   -0.567400
  C     -0.839700   -5.394800   -1.394000
  C     -1.470700   -5.284800   -2.633500
  F     -1.587500   -6.372500   -3.434000
  C     -1.972700   -4.051500   -3.052800
  C     -1.854500   -2.926500   -2.230800
  F     -2.341000   -1.738100   -2.672400
  N      0.055700   -0.967100   -0.573700
  C      1.433500   -1.479900   -0.510200
  C      2.295400   -0.563500    0.321200
  C      2.461700   -0.797000    1.694400
  C      3.209200    0.087000    2.473700
  C      3.788600    1.217000    1.895600
  C      3.634100    1.471200    0.521700
  C      4.237800    2.677900   -0.086400
  O      4.110000    2.903700   -1.319900
  O      4.949800    3.579500    0.700700
  C      2.887600    0.570500   -0.259500
  C     -0.191700    0.252900   -1.294900
  O      0.265100    0.392500   -2.461200
  C     -0.942700    1.354000   -0.672700
  C     -1.292000    2.551000   -1.294500
  C     -1.938400    3.248200   -0.299300
  C     -2.507500    4.519300   -0.335700
  C     -3.105800    4.994800    0.842700
  C     -3.117400    4.199500    2.005800
  C     -2.525300    2.927800    1.979000
  N     -1.959300    2.507500    0.819500
  N     -1.355000    1.350500    0.616700
  H     -0.097200   -2.579400    1.685100
  H     -1.899300   -2.628200    1.725400
  H     -1.025500   -1.070600    1.948900
  H     -2.028100   -1.186100   -0.245700
  H     -0.205500   -4.398200    0.377000
  H     -0.441200   -6.348800   -1.073300
  H     -2.452400   -3.965500   -4.019200
  H      1.459000   -2.505200   -0.085300
  H      1.848400   -1.563800   -1.538300
  H      2.015300   -1.662600    2.165600
  H      3.332600   -0.099800    3.532900
  H      4.356100    1.891400    2.523500
  H      5.357700    4.415300    0.296900
  H      2.754700    0.754900   -1.318700
  H     -1.095700    2.863400   -2.312000
  H     -2.489900    5.119600   -1.236300
  H     -3.559500    5.977200    0.857300
  H     -3.577900    4.567300    2.913600
  H     -2.518500    2.299100    2.860400

 Total Charge           Charge          ....    0
 Multiplicity           Mult            ....    1
 Number of Electrons    NEL             ....  226
 Basis Dimension        Dim             ....  486

ORBITAL ENERGIES
----------------

  NO   OCC          E(Eh)            E(eV)
   0   2.0000     -24.704424      -672.2415
   1   2.0000     -24.701264      -672.1556
   2   2.0000     -19.176861      -521.8289
   3   2.0000     -19.115509      -520.1595
   4   2.0000     -19.115026      -520.1463
   5   2.0000     -14.442828      -393.0093
   6   2.0000     -14.346192      -390.3797
   7   2.0000     -14.332121      -389.9968
   8   2.0000     -10.312644      -280.6213
   9   2.0000     -10.286228      -279.9025
  10   2.0000     -10.275769      -279.6179
  11   2.0000     -10.274757      -279.5904
  12   2.0000     -10.244706      -278.7726
  13   2.0000     -10.226350      -278.2731
  14   2.0000     -10.224947      -278.2349
  15   2.0000     -10.214081      -277.9393
  16   2.0000     -10.213117      -277.9131
  17   2.0000     -10.208594      -277.7900
  18   2.0000     -10.205265      -277.6994
  19   2.0000     -10.203799      -277.6595
  20   2.0000     -10.201143      -277.5872
  21   2.0000     -10.199092      -277.5314
  22   2.0000     -10.198470      -277.5145
  23   2.0000     -10.193800      -277.3874
  24   2.0000     -10.191719      -277.3308
  25   2.0000     -10.190448      -277.2962
  26   2.0000     -10.189147      -277.2608
  27   2.0000     -10.188296      -277.2376
  28   2.0000     -10.185652      -277.1657
  29   2.0000     -10.185350      -277.1575
  30   2.0000     -10.172444      -276.8063
  31   2.0000     -10.169550      -276.7275
  32   2.0000      -1.215853       -33.0851
  33   2.0000      -1.214413       -33.0458
  34   2.0000      -1.089897       -29.6576
  35   2.0000      -1.060555       -28.8592
  36   2.0000      -1.010525       -27.4978
  37   2.0000      -0.973621       -26.4936
  38   2.0000      -0.914549       -24.8862
  39   2.0000      -0.893202       -24.3053
  40   2.0000      -0.863752       -23.5039
  41   2.0000      -0.855650       -23.2834
  42   2.0000      -0.831760       -22.6333
  43   2.0000      -0.788814       -21.4647
  44   2.0000      -0.787847       -21.4384
  45   2.0000      -0.766015       -20.8443
  46   2.0000      -0.756093       -20.5743
  47   2.0000      -0.752304       -20.4712
  48   2.0000      -0.738138       -20.0858
  49   2.0000      -0.722809       -19.6686
  50   2.0000      -0.694198       -18.8901
  51   2.0000      -0.668445       -18.1893
  52   2.0000      -0.653906       -17.7937
  53   2.0000      -0.647666       -17.6239
  54   2.0000      -0.633359       -17.2346
  55   2.0000      -0.622663       -16.9435
  56   2.0000      -0.619216       -16.8497
  57   2.0000      -0.594153       -16.1677
  58   2.0000      -0.589491       -16.0409
  59   2.0000      -0.585661       -15.9366
  60   2.0000      -0.553676       -15.0663
  61   2.0000      -0.546914       -14.8823
  62   2.0000      -0.530656       -14.4399
  63   2.0000      -0.521628       -14.1942
  64   2.0000      -0.512919       -13.9572
  65   2.0000      -0.508349       -13.8329
  66   2.0000      -0.496323       -13.5056
  67   2.0000      -0.490872       -13.3573
  68   2.0000      -0.489057       -13.3079
  69   2.0000      -0.486053       -13.2262
  70   2.0000      -0.482324       -13.1247
  71   2.0000      -0.478907       -13.0317
  72   2.0000      -0.469317       -12.7708
  73   2.0000      -0.462155       -12.5759
  74   2.0000      -0.454246       -12.3607
  75   2.0000      -0.447709       -12.1828
  76   2.0000      -0.446129       -12.1398
  77   2.0000      -0.444032       -12.0827
  78   2.0000      -0.441293       -12.0082
  79   2.0000      -0.437828       -11.9139
  80   2.0000      -0.433392       -11.7932
  81   2.0000      -0.428096       -11.6491
  82   2.0000      -0.419502       -11.4152
  83   2.0000      -0.418559       -11.3896
  84   2.0000      -0.405965       -11.0469
  85   2.0000      -0.399609       -10.8739
  86   2.0000      -0.391172       -10.6443
  87   2.0000      -0.388734       -10.5780
  88   2.0000      -0.386598       -10.5199
  89   2.0000      -0.382781       -10.4160
  90   2.0000      -0.374332       -10.1861
  91   2.0000      -0.371287       -10.1032
  92   2.0000      -0.366819        -9.9816
  93   2.0000      -0.364617        -9.9217
  94   2.0000      -0.357047        -9.7157
  95   2.0000      -0.351057        -9.5527
  96   2.0000      -0.350049        -9.5253
  97   2.0000      -0.346070        -9.4170
  98   2.0000      -0.340948        -9.2777
  99   2.0000      -0.338210        -9.2032
 100   2.0000      -0.334159        -9.0929
 101   2.0000      -0.312028        -8.4907
 102   2.0000      -0.297093        -8.0843
 103   2.0000      -0.291373        -7.9287
 104   2.0000      -0.259609        -7.0643
 105   2.0000      -0.256551        -6.9811
 106   2.0000      -0.253288        -6.8923
 107   2.0000      -0.252627        -6.8743
 108   2.0000      -0.251456        -6.8425
 109   2.0000      -0.247389        -6.7318
 110   2.0000      -0.240038        -6.5318
 111   2.0000      -0.210206        -5.7200
 112   2.0000      -0.208041        -5.6611
 113   0.0000      -0.056744        -1.5441
 114   0.0000      -0.044892        -1.2216
 115   0.0000      -0.027799        -0.7565
 116   0.0000      -0.010604        -0.2886
 117   0.0000      -0.005085        -0.1384

MULLIKEN ATOMIC CHARGES
-----------------------
   0 C :   -0.458863
   1 C :   -0.063222
   2 C :    0.069464
   3 C :   -0.154586
   4 C :   -0.219431
   5 C :    0.431807
   6 F :   -0.316474
   7 C :   -0.293821
   8 C :    0.398705
   9 F :   -0.309454
  10 N :   -0.408341
  11 C :   -0.240657
  12 C :    0.160752
  13 C :   -0.151990
  14 C :   -0.131160
  15 C :   -0.158370
  16 C :    0.081615
  17 C :    0.519280
  18 O :   -0.450462
  19 O :   -0.628502
  20 C :   -0.209635
  21 C :    0.480454
  22 O :   -0.456023
  23 C :    0.231453
  24 C :   -0.287410
  25 C :    0.398461
  26 C :   -0.193227
  27 C :   -0.123174
  28 C :   -0.173020
  29 C :    0.047252
  30 N :   -0.255861
  31 N :   -0.353105
  32 H :    0.132237
  33 H :    0.140099
  34 H :    0.180918
  35 H :    0.165542
  36 H :    0.141887
  37 H :    0.144579
  38 H :    0.160895
  39 H :    0.150761
  40 H :    0.173000
  41 H :    0.127739
  42 H :    0.131430
  43 H :    0.152515
  44 H :    0.426123
  45 H :    0.189300
  46 H :    0.166127
  47 H :    0.157651
  48 H :    0.141522
  49 H :    0.151404
  50 H :    0.183815
Sum of atomic charges:    0.0000000

LOEWDIN ATOMIC CHARGES
----------------------
   0 C :   -0.364838
   1 C :   -0.048339
   2 C :   -0.058180
   3 C :   -0.122247
   4 C :   -0.167548
   5 C :    0.122003
   6 F :   -0.100597
   7 C :   -0.182611
   8 C :    0.130952
   9 F :   -0.094150
  10 N :   -0.114261
  11 C :   -0.143334
  12 C :   -0.024780
  13 C :   -0.110082
  14 C :   -0.131201
  15 C :   -0.107092
  16 C :   -0.056247
  17 C :    0.177965
  18 O :   -0.268424
  19 O :   -0.340799
  20 C :   -0.093622
  21 C :    0.147278
  22 O :   -0.247871
  23 C :   -0.034118
  24 C :   -0.174089
  25 C :    0.003875
  26 C :   -0.117888
  27 C :   -0.133317
  28 C :   -0.148754
  29 C :   -0.071605
  30 N :    0.135441
  31 N :   -0.155252
  32 H :    0.112847
  33 H :    0.124480
  34 H :    0.142961
  35 H :    0.143561
  36 H :    0.139469
  37 H :    0.143271
  38 H :    0.155024
  39 H :    0.131611
  40 H :    0.137616
  41 H :    0.130713
  42 H :    0.132996
  43 H :    0.144403
  44 H :    0.344313
  45 H :    0.162137
  46 H :    0.157884
  47 H :    0.149608
  48 H :    0.138193
  49 H :    0.145852
  50 H :    0.156795

  Mayer bond orders larger than 0.100000
B(  0-C ,  1-C ) :   0.9959 B(  0-C , 32-H ) :   0.9336 B(  0-C , 33-H ) :   0.9420
B(  0-C , 34-H ) :   0.9302 B(  1-C ,  2-C ) :   0.9434 B(  1-C , 10-N ) :   0.9602
B(  1-C , 35-H ) :   0.9133 B(  2-C ,  3-C ) :   1.4183 B(  2-C ,  8-C ) :   1.3493
B(  3-C ,  4-C ) :   1.4196 B(  3-C , 36-H ) :   0.9199 B(  4-C ,  5-C ) :   1.3971
B(  4-C , 37-H ) :   0.9203 B(  5-C ,  6-F ) :   0.9130 B(  5-C ,  7-C ) :   1.3700
B(  7-C ,  8-C ) :   1.3689 B(  7-C , 38-H ) :   0.9106 B(  8-C ,  9-F ) :   0.9125
B( 10-N , 11-C ) :   0.9395 B( 10-N , 21-C ) :   1.0016 B( 11-C , 12-C ) :   0.9562
B( 11-C , 39-H ) :   0.9260 B( 11-C , 40-H ) :   0.9139 B( 12-C , 13-C ) :   1.4226
B( 12-C , 20-C ) :   1.4121 B( 13-C , 14-C ) :   1.4394 B( 13-C , 41-H ) :   0.9203
B( 14-C , 15-C ) :   1.4318 B( 14-C , 42-H ) :   0.9296 B( 15-C , 16-C ) :   1.3882
B( 15-C , 43-H ) :   0.9187 B( 16-C , 17-C ) :   1.0105 B( 16-C , 20-C ) :   1.3784
B( 17-C , 18-O ) :   1.8609 B( 17-C , 19-O ) :   1.0132 B( 19-O , 44-H ) :   0.7466
B( 20-C , 45-H ) :   0.8962 B( 21-C , 22-O ) :   1.8349 B( 21-C , 23-C ) :   0.9823
B( 23-C , 24-C ) :   1.3668 B( 23-C , 31-N ) :   1.3150 B( 24-C , 25-C ) :   1.3377
B( 24-C , 46-H ) :   0.9274 B( 25-C , 26-C ) :   1.2801 B( 25-C , 30-N ) :   1.0225
B( 26-C , 27-C ) :   1.5357 B( 26-C , 29-C ) :   0.1085 B( 26-C , 47-H ) :   0.9246
B( 27-C , 28-C ) :   1.3097 B( 27-C , 48-H ) :   0.9289 B( 28-C , 29-C ) :   1.5620
B( 28-C , 49-H ) :   0.9296 B( 29-C , 30-N ) :   1.1348 B( 29-C , 50-H ) :   0.9186
B( 30-N , 31-N ) :   1.1793

FINAL SINGLE POINT ENERGY     -1514.684942255312

DIPOLE MOMENT
-------------

Method             : SCF
Type of density    : Electron Density
Multiplicity       :   1
Irrep              :   0
Energy             : -1514.6849422553118529 Eh
Relativity type    :
Basis              : AO
                                X                 Y                 Z
Electronic contribution:     -4.160042889      -7.584379951     -18.289211942
Nuclear contribution   :      3.282065731       8.335787801      20.559615762
                        -----------------------------------------
Total Dipole Moment    :     -0.877977157       0.751407850       2.270403820
                        -----------------------------------------
Magnitude (a.u.)       :      2.547585357
Magnitude (Debye)      :      6.475447365

Rotational constants in cm-1:             0.005457             0.003051             0.002330
Rotational constants in MHz :           163.609695            91.455128            69.856406

                             ****ORCA TERMINATED NORMALLY****
TOTAL RUN TIME: 0 days 0 hours 5 minutes 35 seconds 892 msec
