                         Program Version 6.0.0  -   RELEASE  -
|  1> ! B3LYP 6-31G* SP
|  2>
|  3> * xyz -1 1
|  4> C -1.4763 -0.4363 1.9604
|  5> C -0.5864 0.7490 1.6599
|  6> C 0.4086 0.6746 0.6554
|  7> N 0.6220 -0.5279 -0.0932
|  8> C 0.2424 -0.5816 -1.5049
|  9> C -1.2558 -0.5993 -1.6300
| 10> C -1.9735 0.6039 -1.7064
| 11> C -3.3707 0.5922 -1.7429
| 12> C -4.0722 -0.6283 -1.6954
| 13> O -5.4743 -0.7000 -1.7248
| 14> C -6.3550 0.4194 -1.7931
| 15> F -7.6591 -0.0361 -1.7990
| 16> F -6.1731 1.2376 -0.6926
| 17> F -6.1278 1.1352 -2.9550
| 18> C -3.3513 -1.8253 -1.6111
| 19> C -1.9545 -1.8138 -1.5722
| 20> S 1.5758 -1.8033 0.5961
| 21> O 0.8617 -3.1125 0.4052
| 22> O 1.7635 -1.5709 2.0698
| 23> C 3.1508 -1.8310 -0.1877
| 24> C 3.5615 -2.9429 -0.9343
| 25> C 4.8090 -2.9445 -1.5662
| 26> C 5.6617 -1.8314 -1.4634
| 27> C 6.9799 -1.8352 -2.1352
| 28> O 7.7457 -0.8382 -2.0494
| 29> O 7.3920 -2.9401 -2.8718
| 30> C 5.2409 -0.7171 -0.7147
| 31> C 3.9941 -0.7189 -0.0827
| 32> N 1.1693 1.7637 0.3657
| 33> C 1.0290 2.9430 1.0187
| 34> C 0.0767 3.0738 2.0265
| 35> N -0.0594 4.2586 2.6808
| 36> C -0.9771 4.4300 3.6668
| 37> C -1.8135 3.3766 4.0338
| 38> C -1.6999 2.1477 3.3815
| 39> C -0.7455 1.9726 2.3587
| 40> H -1.2682 -1.3104 1.3136
| 41> H -1.3314 -0.7549 3.0140
| 42> H -2.5385 -0.1559 1.7995
| 43> H 0.6690 -1.4885 -1.9867
| 44> H 0.6677 0.2946 -2.0413
| 45> H -1.4508 1.5526 -1.7240
| 46> H -3.8914 1.5372 -1.8006
| 47> H -3.8780 -2.7701 -1.5663
| 48> H -1.4183 -2.7506 -1.4860
| 49> H 2.9191 -3.8085 -1.0317
| 50> H 5.1037 -3.8167 -2.1364
| 51> H 5.8738 0.1563 -0.6178
| 52> H 3.6845 0.1483 0.4871
| 53> H 1.6623 3.7791 0.7510
| 54> H -1.0575 5.3861 4.1663
| 55> H -2.5457 3.5113 4.8195
| 56> H -2.3595 1.3467 3.6864
| 57> *
| 58>
| 59>                          ****END OF INPUT****

CARTESIAN COORDINATES (ANGSTROEM)
---------------------------------
  C     -1.476300   -0.436300    1.960400
  C     -0.586400    0.749000    1.659900
  C      0.408600    0.674600    0.655400
  N      0.622000   -0.527900   -0.093200
  C      0.242400   -0.581600   -1.504900
  C     -1.255800   -0.599300   -1.630000
  C     -1.973500    0.603900   -1.706400
  C     -3.370700    0.592200   -1.742900
  C     -4.072200   -0.628300   -1.695400
  O     -5.474300   -0.700000   -1.724800
  C     -6.355000    0.419400   -1.793100
  F     -7.659100   -0.036100   -1.799000
  F     -6.173100    1.237600   -0.692600
  F     -6.127800    1.135200   -2.955000
  C     -3.351300   -1.825300   -1.611100
  C     -1.954500   -1.813800   -1.572200
  S      1.575800   -1.803300    0.596100
  O      0.861700   -3.112500    0.405200
  O      1.763500   -1.570900    2.069800
  C      3.150800   -1.831000   -0.187700
  C      3.561500   -2.942900   -0.934300
  C      4.809000   -2.944500   -1.566200
  C      5.661700   -1.831400   -1.463400
  C      6.979900   -1.835200   -2.135200
  O      7.745700   -0.838200   -2.049400
  O      7.392000   -2.940100   -2.871800
  C      5.240900   -0.717100   -0.714700
  C      3.994100   -0.718900   -0.082700
  N      1.169300    1.763700    0.365700
  C      1.029000    2.943000    1.018700
  C      0.076700    3.073800    2.026500
  N     -0.059400    4.258600    2.680800
  C     -0.977100    4.430000    3.666800
  C     -1.813500    3.376600    4.033800
  C     -1.699900    2.147700    3.381500
  C     -0.745500    1.972600    2.358700
  H     -1.268200   -1.310400    1.313600
  H     -1.331400   -0.754900    3.014000
  H     -2.538500   -0.155900    1.799500
  H      0.669000   -1.488500   -1.986700
  H      0.667700    0.294600   -2.041300
  H     -1.450800    1.552600   -1.724000
  H     -3.891400    1.537200   -1.800600
  H     -3.878000   -2.770100   -1.566300
  H     -1.418300   -2.750600   -1.486000
  H      2.919100   -3.808500   -1.031700
  H      5.103700   -3.816700   -2.136400
  H      5.873800    0.156300   -0.617800
  H      3.684500    0.148300    0.487100
  H      1.662300    3.779100    0.751000
  H     -1.057500    5.386100    4.166300
  H     -2.545700    3.511300    4.819500
  H     -2.359500    1.346700    3.686400

 Total Charge           Charge          ....   -1
 Multiplicity           Mult            ....    1
 Number of Electrons    NEL             ....  266
 Basis Dimension        Dim             ....  542

ORBITAL ENERGIES
----------------

  NO   OCC          E(Eh)            E(eV)
   0   2.0000     -89.006117     -2421.9796
   1   2.0000     -24.697457      -672.0520
   2   2.0000     -24.693599      -671.9470
   3   2.0000     -24.693285      -671.9385
   4   2.0000     -19.162273      -521.4320
   5   2.0000     -19.039144      -518.0815
   6   2.0000     -19.037065      -518.0249
   7   2.0000     -18.905138      -514.4350
   8   2.0000     -18.884567      -513.8752
   9   2.0000     -14.290255      -388.8576
  10   2.0000     -14.278782      -388.5454
  11   2.0000     -14.273976      -388.4146
  12   2.0000     -10.457744      -284.5697
  13   2.0000     -10.212299      -277.8908
  14   2.0000     -10.195744      -277.4403
  15   2.0000     -10.175809      -276.8978
  16   2.0000     -10.167885      -276.6822
  17   2.0000     -10.162008      -276.5223
  18   2.0000     -10.160806      -276.4896
  19   2.0000     -10.155006      -276.3318
  20   2.0000     -10.149826      -276.1908
  21   2.0000     -10.149226      -276.1745
  22   2.0000     -10.148481      -276.1542
  23   2.0000     -10.140084      -275.9257
  24   2.0000     -10.139327      -275.9051
  25   2.0000     -10.137025      -275.8425
  26   2.0000     -10.135625      -275.8044
  27   2.0000     -10.134002      -275.7602
  28   2.0000     -10.115665      -275.2612
  29   2.0000     -10.113842      -275.2116
  30   2.0000     -10.092225      -274.6234
  31   2.0000     -10.091732      -274.6100
  32   2.0000     -10.090425      -274.5744
  33   2.0000     -10.073356      -274.1100
  34   2.0000     -10.072536      -274.0876
  35   2.0000     -10.070971      -274.0451
  36   2.0000      -8.041905      -218.8314
  37   2.0000      -6.007365      -163.4687
  38   2.0000      -6.005185      -163.4094
  39   2.0000      -6.003777      -163.3711
  40   2.0000      -1.259210       -34.2648
  41   2.0000      -1.180322       -32.1182
  42   2.0000      -1.179468       -32.0949
  43   2.0000      -1.032277       -28.0897
  44   2.0000      -0.995482       -27.0885
  45   2.0000      -0.901490       -24.5308
  46   2.0000      -0.879709       -23.9381
  47   2.0000      -0.874915       -23.8077
  48   2.0000      -0.838915       -22.8280
  49   2.0000      -0.814347       -22.1595
  50   2.0000      -0.804893       -21.9023
  51   2.0000      -0.771295       -20.9880
  52   2.0000      -0.755673       -20.5629
  53   2.0000      -0.734390       -19.9838
  54   2.0000      -0.727452       -19.7950
  55   2.0000      -0.705789       -19.2055
  56   2.0000      -0.699645       -19.0383
  57   2.0000      -0.695372       -18.9220
  58   2.0000      -0.672832       -18.3087
  59   2.0000      -0.661138       -17.9905
  60   2.0000      -0.641653       -17.4603
  61   2.0000      -0.638586       -17.3768
  62   2.0000      -0.621424       -16.9098
  63   2.0000      -0.606368       -16.5001
  64   2.0000      -0.596722       -16.2376
  65   2.0000      -0.579323       -15.7642
  66   2.0000      -0.568353       -15.4657
  67   2.0000      -0.552564       -15.0360
  68   2.0000      -0.550946       -14.9920
  69   2.0000      -0.543503       -14.7895
  70   2.0000      -0.535888       -14.5822
  71   2.0000      -0.516865       -14.0646
  72   2.0000      -0.507104       -13.7990
  73   2.0000      -0.499773       -13.5995
  74   2.0000      -0.479143       -13.0381
  75   2.0000      -0.466201       -12.6860
  76   2.0000      -0.457981       -12.4623
  77   2.0000      -0.444672       -12.1001
  78   2.0000      -0.440658       -11.9909
  79   2.0000      -0.429310       -11.6821
  80   2.0000      -0.424999       -11.5648
  81   2.0000      -0.422048       -11.4845
  82   2.0000      -0.417877       -11.3710
  83   2.0000      -0.415499       -11.3063
  84   2.0000      -0.409678       -11.1479
  85   2.0000      -0.406046       -11.0491
  86   2.0000      -0.399325       -10.8662
  87   2.0000      -0.394291       -10.7292
  88   2.0000      -0.386087       -10.5060
  89   2.0000      -0.383447       -10.4341
  90   2.0000      -0.380728       -10.3601
  91   2.0000      -0.372967       -10.1489
  92   2.0000      -0.371909       -10.1202
  93   2.0000      -0.371715       -10.1149
  94   2.0000      -0.358077        -9.7438
  95   2.0000      -0.357698        -9.7335
  96   2.0000      -0.354794        -9.6544
  97   2.0000      -0.345993        -9.4150
  98   2.0000      -0.344405        -9.3717
  99   2.0000      -0.343062        -9.3352
 100   2.0000      -0.334394        -9.0993
 101   2.0000      -0.332938        -9.0597
 102   2.0000      -0.325142        -8.8476
 103   2.0000      -0.323674        -8.8076
 104   2.0000      -0.316288        -8.6066
 105   2.0000      -0.314163        -8.5488
 106   2.0000      -0.309049        -8.4097
 107   2.0000      -0.303066        -8.2468
 108   2.0000      -0.291519        -7.9326
 109   2.0000      -0.290173        -7.8960
 110   2.0000      -0.288694        -7.8558
 111   2.0000      -0.272275        -7.4090
 112   2.0000      -0.250085        -6.8052
 113   2.0000      -0.243065        -6.6141
 114   2.0000      -0.242915        -6.6101
 115   2.0000      -0.229361        -6.2412
 116   2.0000      -0.221521        -6.0279
 117   2.0000      -0.215277        -5.8580
 118   2.0000      -0.210012        -5.7147
 119   2.0000      -0.205742        -5.5985
 120   2.0000      -0.203939        -5.5495
 121   2.0000      -0.197311        -5.3691
 122   2.0000      -0.192061        -5.2262
 123   2.0000      -0.188401        -5.1266
 124   2.0000      -0.184153        -5.0111
 125   2.0000      -0.183711        -4.9990
 126   2.0000      -0.174502        -4.7484
 127   2.0000      -0.170422        -4.6374
 128   2.0000      -0.147778        -4.0213
 129   2.0000      -0.128505        -3.4968
 130   2.0000      -0.059282        -1.6131
 131   2.0000      -0.037636        -1.0241
 132   2.0000      -0.021025        -0.5721
 133   0.0000      -0.015688        -0.4269
 134   0.0000       0.022426         0.6102
 135   0.0000       0.044265         1.2045
 136   0.0000       0.047486         1.2921
 137   0.0000       0.065029         1.7695

MULLIKEN ATOMIC CHARGES
-----------------------
   0 C :   -0.543145
   1 C :    0.127602
   2 C :    0.319716
   3 N :   -0.614657
   4 C :   -0.237610
   5 C :    0.160392
   6 C :   -0.172851
   7 C :   -0.194343
   8 C :    0.345986
   9 O :   -0.547669
  10 C :    1.082995
  11 F :   -0.284133
  12 F :   -0.293612
  13 F :   -0.293085
  14 C :   -0.174334
  15 C :   -0.163249
  16 S :    1.206180
  17 O :   -0.577319
  18 O :   -0.560919
  19 C :   -0.145207
  20 C :   -0.161050
  21 C :   -0.150534
  22 C :    0.105386
  23 C :    0.410973
  24 O :   -0.551619
  25 O :   -0.658109
  26 C :   -0.158969
  27 C :   -0.148421
  28 N :   -0.383102
  29 C :   -0.008217
  30 C :    0.192316
  31 N :   -0.436140
  32 C :    0.014100
  33 C :   -0.139384
  34 C :   -0.146227
  35 C :    0.125540
  36 H :    0.207304
  37 H :    0.167962
  38 H :    0.145846
  39 H :    0.184299
  40 H :    0.173292
  41 H :    0.145157
  42 H :    0.142832
  43 H :    0.142389
  44 H :    0.170985
  45 H :    0.145471
  46 H :    0.151306
  47 H :    0.147562
  48 H :    0.147608
  49 H :    0.160768
  50 H :    0.142988
  51 H :    0.128909
  52 H :    0.148045
Sum of atomic charges:   -1.0000000

LOEWDIN ATOMIC CHARGES
----------------------
   0 C :   -0.361661
   1 C :    0.004383
   2 C :    0.039242
   3 N :   -0.289121
   4 C :   -0.144632
   5 C :   -0.031179
   6 C :   -0.123643
   7 C :   -0.166075
   8 C :    0.078727
   9 O :   -0.162704
  10 C :    0.357503
  11 F :   -0.091957
  12 F :   -0.107044
  13 F :   -0.106699
  14 C :   -0.143874
  15 C :   -0.111066
  16 S :    1.261430
  17 O :   -0.599122
  18 O :   -0.586338
  19 C :   -0.217286
  20 C :   -0.128396
  21 C :   -0.110007
  22 C :   -0.002414
  23 C :    0.071509
  24 O :   -0.377153
  25 O :   -0.506272
  26 C :   -0.111981
  27 C :   -0.119994
  28 N :   -0.118887
  29 C :   -0.060402
  30 C :   -0.000242
  31 N :   -0.126224
  32 C :   -0.067328
  33 C :   -0.145892
  34 C :   -0.092049
  35 C :   -0.019933
  36 H :    0.157268
  37 H :    0.141746
  38 H :    0.128843
  39 H :    0.150539
  40 H :    0.135238
  41 H :    0.139698
  42 H :    0.137336
  43 H :    0.142123
  44 H :    0.152503
  45 H :    0.140560
  46 H :    0.150016
  47 H :    0.147022
  48 H :    0.140078
  49 H :    0.145030
  50 H :    0.132191
  51 H :    0.133476
  52 H :    0.143117

  Mayer bond orders larger than 0.100000
B(  0-C ,  1-C ) :   1.0080 B(  0-C , 36-H ) :   0.9137 B(  0-C , 37-H ) :   0.9245
B(  0-C , 38-H ) :   0.9274 B(  1-C ,  2-C ) :   1.4294 B(  1-C , 29-C ) :   0.1047
B(  1-C , 35-C ) :   1.2559 B(  2-C ,  3-N ) :   0.9159 B(  2-C , 28-N ) :   1.2751
B(  3-N ,  4-C ) :   0.9286 B(  3-N , 16-S ) :   0.7689 B(  4-C ,  5-C ) :   0.9527
B(  4-C , 39-H ) :   0.9167 B(  4-C , 40-H ) :   0.9192 B(  5-C ,  6-C ) :   1.4375
B(  5-C , 15-C ) :   1.4329 B(  6-C ,  7-C ) :   1.4235 B(  6-C , 41-H ) :   0.9195
B(  7-C ,  8-C ) :   1.3969 B(  7-C , 42-H ) :   0.9118 B(  8-C ,  9-O ) :   0.8116
B(  8-C , 14-C ) :   1.4141 B(  9-O , 10-C ) :   1.0023 B( 10-C , 11-F ) :   1.0026
B( 10-C , 12-F ) :   0.9667 B( 10-C , 13-F ) :   0.9671 B( 14-C , 15-C ) :   1.4341
B( 14-C , 43-H ) :   0.9202 B( 15-C , 44-H ) :   0.9102 B( 16-S , 17-O ) :   1.5931
B( 16-S , 18-O ) :   1.6483 B( 16-S , 19-C ) :   0.8475 B( 19-C , 20-C ) :   1.3690
B( 19-C , 27-C ) :   1.3580 B( 20-C , 21-C ) :   1.3984 B( 20-C , 45-H ) :   0.9204
B( 21-C , 22-C ) :   1.4056 B( 21-C , 46-H ) :   0.9013 B( 22-C , 23-C ) :   0.9273
B( 22-C , 26-C ) :   1.3824 B( 23-C , 24-O ) :   1.7070 B( 23-C , 25-O ) :   1.5491
B( 24-O , 25-O ) :   0.1486 B( 26-C , 27-C ) :   1.4261 B( 26-C , 47-H ) :   0.9076
B( 27-C , 48-H ) :   0.9152 B( 28-N , 29-C ) :   1.5000 B( 29-C , 30-C ) :   1.2477
B( 29-C , 49-H ) :   0.9199 B( 30-C , 31-N ) :   1.2407 B( 30-C , 35-C ) :   1.2368
B( 31-N , 32-C ) :   1.5181 B( 32-C , 33-C ) :   1.3249 B( 32-C , 50-H ) :   0.9317
B( 33-C , 34-C ) :   1.5140 B( 33-C , 51-H ) :   0.9258 B( 34-C , 35-C ) :   1.3020
B( 34-C , 52-H ) :   0.9148

FINAL SINGLE POINT ENERGY     -2161.801874760606

DIPOLE MOMENT
-------------

Method             : SCF
Type of density    : Electron Density
Multiplicity       :   1
Irrep              :   0
Energy             : -2161.8018747606056422 Eh
Relativity type    :
Basis              : AO
                                X                 Y                 Z
Electronic contribution:    -30.501180333       3.718720901     -10.047566712
Nuclear contribution   :     18.644314916      -0.009938585      12.816801386
                        -----------------------------------------
Total Dipole Moment    :    -11.856865417       3.708782316       2.769234674
                        -----------------------------------------
Magnitude (a.u.)       :     12.728275000
Magnitude (Debye)      :     32.352703938

Rotational constants in cm-1:             0.004806             0.001773             0.001447
Rotational constants in MHz :           144.089263            53.149016            43.393968

                             ****ORCA TERMINATED NORMALLY****
TOTAL RUN TIME: 0 days 0 hours 10 minutes 3 seconds 402 msec
