                         Program Version 6.0.0  -   RELEASE  -
|  1> ! B3LYP 6-31G* SP
|  2>
|  3> * xyz 0 1
|  4> C -2.4012 2.1048 -0.7803
|  5> C -1.0885 2.3264 -0.0171
|  6> C -0.1901 3.3861 -0.6297
|  7> C 0.5737 4.2034 0.2277
|  8> C 1.4406 5.1695 -0.2977
|  9> C 1.5612 5.3234 -1.6783
| 10> F 2.4115 6.2488 -2.1847
| 11> C 0.8291 4.5017 -2.5446
| 12> C -0.0297 3.5264 -2.0265
| 13> N -0.3465 1.0677 0.1835
| 14> C -0.3595 0.4364 1.5121
| 15> C -1.6851 -0.2404 1.7458
| 16> C -2.5720 0.2390 2.7247
| 17> C -3.8224 -0.3628 2.8969
| 18> C -4.2049 -1.4319 2.0795
| 19> C -3.3372 -1.9075 1.0812
| 20> C -3.7591 -3.0399 0.1827
| 21> C -3.5237 -4.3608 0.8393
| 22> O -2.3701 -4.6640 1.2525
| 23> O -4.5720 -5.2723 0.9601
| 24> C -2.0674 -1.3261 0.9390
| 25> C 0.2783 0.3668 -0.9112
| 26> O -0.3690 0.1144 -1.9600
| 27> C 1.6502 -0.1429 -0.7741
| 28> C 2.7067 0.7277 -0.4760
| 29> N 3.9722 0.2467 -0.3382
| 30> C 4.2487 -1.0808 -0.4670
| 31> C 5.5613 -1.5421 -0.2908
| 32> C 5.8338 -2.9135 -0.3778
| 33> C 4.8005 -3.8268 -0.6281
| 34> C 3.4909 -3.3725 -0.8125
| 35> C 3.2100 -1.9978 -0.7435
| 36> C 1.9079 -1.5138 -0.9150
| 37> H -2.2445 1.6819 -1.7897
| 38> H -2.9490 3.0683 -0.8815
| 39> H -3.0494 1.4007 -0.2139
| 40> H -1.4130 2.7115 0.9766
| 41> H 0.4963 4.0981 1.3065
| 42> H 2.0218 5.7917 0.3761
| 43> H 0.9323 4.6139 -3.6160
| 44> H -0.5649 2.8929 -2.7162
| 45> H 0.4501 -0.3210 1.6029
| 46> H -0.1587 1.2032 2.2917
| 47> H -2.2964 1.0765 3.3553
| 48> H -4.4949 0.0037 3.6621
| 49> H -5.1801 -1.8841 2.2186
| 50> H -4.8337 -2.9350 -0.0622
| 51> H -3.2035 -3.0067 -0.7795
| 52> H -4.4355 -6.1703 1.4146
| 53> H -1.3819 -1.7051 0.1880
| 54> H 2.5274 1.7900 -0.3685
| 55> H 6.3614 -0.8482 -0.0743
| 56> H 6.8436 -3.2696 -0.2231
| 57> H 5.0153 -4.8872 -0.6657
| 58> H 2.6962 -4.0942 -0.9930
| 59> H 1.0829 -2.2042 -1.0906
| 60> *
| 61>
| 62>                          ****END OF INPUT****

CARTESIAN COORDINATES (ANGSTROEM)
---------------------------------
  C     -2.401200    2.104800   -0.780300
  C     -1.088500    2.326400   -0.017100
  C     -0.190100    3.386100   -0.629700
  C      0.573700    4.203400    0.227700
  C      1.440600    5.169500   -0.297700
  C      1.561200    5.323400   -1.678300
  F      2.411500    6.248800   -2.184700
  C      0.829100    4.501700   -2.544600
  C     -0.029700    3.526400   -2.026500
  N     -0.346500    1.067700    0.183500
  C     -0.359500    0.436400    1.512100
  C     -1.685100   -0.240400    1.745800
  C     -2.572000    0.239000    2.724700
  C     -3.822400   -0.362800    2.896900
  C     -4.204900   -1.431900    2.079500
  C     -3.337200   -1.907500    1.081200
  C     -3.759100   -3.039900    0.182700
  C     -3.523700   -4.360800    0.839300
  O     -2.370100   -4.664000    1.252500
  O     -4.572000   -5.272300    0.960100
  C     -2.067400   -1.326100    0.939000
  C      0.278300    0.366800   -0.911200
  O     -0.369000    0.114400   -1.960000
  C      1.650200   -0.142900   -0.774100
  C      2.706700    0.727700   -0.476000
  N      3.972200    0.246700   -0.338200
  C      4.248700   -1.080800   -0.467000
  C      5.561300   -1.542100   -0.290800
  C      5.833800   -2.913500   -0.377800
  C      4.800500   -3.826800   -0.628100
  C      3.490900   -3.372500   -0.812500
  C      3.210000   -1.997800   -0.743500
  C      1.907900   -1.513800   -0.915000
  H     -2.244500    1.681900   -1.789700
  H     -2.949000    3.068300   -0.881500
  H     -3.049400    1.400700   -0.213900
  H     -1.413000    2.711500    0.976600
  H      0.496300    4.098100    1.306500
  H      2.021800    5.791700    0.376100
  H      0.932300    4.613900   -3.616000
  H     -0.564900    2.892900   -2.716200
  H      0.450100   -0.321000    1.602900
  H     -0.158700    1.203200    2.291700
  H     -2.296400    1.076500    3.355300
  H     -4.494900    0.003700    3.662100
  H     -5.180100   -1.884100    2.218600
  H     -4.833700   -2.935000   -0.062200
  H     -3.203500   -3.006700   -0.779500
  H     -4.435500   -6.170300    1.414600
  H     -1.381900   -1.705100    0.188000
  H      2.527400    1.790000   -0.368500
  H      6.361400   -0.848200   -0.074300
  H      6.843600   -3.269600   -0.223100
  H      5.015300   -4.887200   -0.665700
  H      2.696200   -4.094200   -0.993000
  H      1.082900   -2.204200   -1.090600

 Total Charge           Charge          ....    0
 Multiplicity           Mult            ....    1
 Number of Electrons    NEL             ....  232
 Basis Dimension        Dim             ....  508

ORBITAL ENERGIES
----------------

  NO   OCC          E(Eh)            E(eV)
   0   2.0000     -24.695665      -672.0032
   1   2.0000     -19.187790      -522.1263
   2   2.0000     -19.126020      -520.4455
   3   2.0000     -19.123556      -520.3784
   4   2.0000     -14.343858      -390.3162
   5   2.0000     -14.324512      -389.7898
   6   2.0000     -10.324246      -280.9370
   7   2.0000     -10.293145      -280.0907
   8   2.0000     -10.267254      -279.3862
   9   2.0000     -10.227037      -278.2918
  10   2.0000     -10.225165      -278.2409
  11   2.0000     -10.224141      -278.2130
  12   2.0000     -10.220042      -278.1015
  13   2.0000     -10.207674      -277.7649
  14   2.0000     -10.207473      -277.7594
  15   2.0000     -10.202724      -277.6302
  16   2.0000     -10.201867      -277.6069
  17   2.0000     -10.196986      -277.4741
  18   2.0000     -10.193980      -277.3923
  19   2.0000     -10.193229      -277.3719
  20   2.0000     -10.192863      -277.3619
  21   2.0000     -10.192806      -277.3603
  22   2.0000     -10.192377      -277.3487
  23   2.0000     -10.191158      -277.3155
  24   2.0000     -10.189825      -277.2792
  25   2.0000     -10.188657      -277.2475
  26   2.0000     -10.188084      -277.2319
  27   2.0000     -10.188055      -277.2311
  28   2.0000     -10.187340      -277.2116
  29   2.0000     -10.186846      -277.1982
  30   2.0000     -10.186218      -277.1811
  31   2.0000     -10.185349      -277.1574
  32   2.0000     -10.160146      -276.4716
  33   2.0000      -1.209133       -32.9022
  34   2.0000      -1.069143       -29.0929
  35   2.0000      -1.020947       -27.7814
  36   2.0000      -0.983782       -26.7701
  37   2.0000      -0.934860       -25.4388
  38   2.0000      -0.923047       -25.1174
  39   2.0000      -0.861822       -23.4514
  40   2.0000      -0.855077       -23.2678
  41   2.0000      -0.848105       -23.0781
  42   2.0000      -0.814337       -22.1592
  43   2.0000      -0.798567       -21.7301
  44   2.0000      -0.781814       -21.2742
  45   2.0000      -0.765431       -20.8284
  46   2.0000      -0.752685       -20.4816
  47   2.0000      -0.752184       -20.4680
  48   2.0000      -0.739818       -20.1315
  49   2.0000      -0.720897       -19.6166
  50   2.0000      -0.717301       -19.5187
  51   2.0000      -0.683877       -18.6092
  52   2.0000      -0.659054       -17.9338
  53   2.0000      -0.643448       -17.5091
  54   2.0000      -0.631726       -17.1902
  55   2.0000      -0.625512       -17.0211
  56   2.0000      -0.616384       -16.7727
  57   2.0000      -0.605949       -16.4887
  58   2.0000      -0.601668       -16.3722
  59   2.0000      -0.594946       -16.1893
  60   2.0000      -0.574913       -15.6442
  61   2.0000      -0.554335       -15.0842
  62   2.0000      -0.537429       -14.6242
  63   2.0000      -0.526190       -14.3184
  64   2.0000      -0.521562       -14.1924
  65   2.0000      -0.514124       -13.9900
  66   2.0000      -0.507359       -13.8059
  67   2.0000      -0.495861       -13.4931
  68   2.0000      -0.492382       -13.3984
  69   2.0000      -0.482944       -13.1416
  70   2.0000      -0.475433       -12.9372
  71   2.0000      -0.472163       -12.8482
  72   2.0000      -0.460355       -12.5269
  73   2.0000      -0.459613       -12.5067
  74   2.0000      -0.452219       -12.3055
  75   2.0000      -0.450977       -12.2717
  76   2.0000      -0.448600       -12.2070
  77   2.0000      -0.446015       -12.1367
  78   2.0000      -0.437576       -11.9070
  79   2.0000      -0.434009       -11.8100
  80   2.0000      -0.428843       -11.6694
  81   2.0000      -0.427046       -11.6205
  82   2.0000      -0.426269       -11.5994
  83   2.0000      -0.416382       -11.3303
  84   2.0000      -0.410584       -11.1726
  85   2.0000      -0.408950       -11.1281
  86   2.0000      -0.404768       -11.0143
  87   2.0000      -0.402584       -10.9549
  88   2.0000      -0.395577       -10.7642
  89   2.0000      -0.391431       -10.6514
  90   2.0000      -0.382791       -10.4163
  91   2.0000      -0.378532       -10.3004
  92   2.0000      -0.373468       -10.1626
  93   2.0000      -0.364196        -9.9103
  94   2.0000      -0.362537        -9.8651
  95   2.0000      -0.359887        -9.7930
  96   2.0000      -0.356991        -9.7142
  97   2.0000      -0.351242        -9.5578
  98   2.0000      -0.348769        -9.4905
  99   2.0000      -0.347375        -9.4526
 100   2.0000      -0.342782        -9.3276
 101   2.0000      -0.338859        -9.2208
 102   2.0000      -0.335417        -9.1272
 103   2.0000      -0.332292        -9.0421
 104   2.0000      -0.304892        -8.2965
 105   2.0000      -0.302100        -8.2206
 106   2.0000      -0.266075        -7.2403
 107   2.0000      -0.262750        -7.1498
 108   2.0000      -0.257704        -7.0125
 109   2.0000      -0.254752        -6.9322
 110   2.0000      -0.249465        -6.7883
 111   2.0000      -0.246503        -6.7077
 112   2.0000      -0.242228        -6.5914
 113   2.0000      -0.238751        -6.4967
 114   2.0000      -0.225376        -6.1328
 115   2.0000      -0.216400        -5.8885
 116   0.0000      -0.064604        -1.7580
 117   0.0000      -0.034866        -0.9488
 118   0.0000      -0.019244        -0.5237
 119   0.0000      -0.012796        -0.3482
 120   0.0000      -0.008803        -0.2395

MULLIKEN ATOMIC CHARGES
-----------------------
   0 C :   -0.450474
   1 C :   -0.050705
   2 C :    0.143240
   3 C :   -0.168973
   4 C :   -0.208327
   5 C :    0.411611
   6 F :   -0.317755
   7 C :   -0.212590
   8 C :   -0.160342
   9 N :   -0.397545
  10 C :   -0.269822
  11 C :    0.179035
  12 C :   -0.178938
  13 C :   -0.123569
  14 C :   -0.168829
  15 C :    0.167371
  16 C :   -0.431064
  17 C :    0.585852
  18 O :   -0.450602
  19 O :   -0.610153
  20 C :   -0.195246
  21 C :    0.413726
  22 O :   -0.448858
  23 C :    0.068621
  24 C :   -0.017388
  25 N :   -0.433393
  26 C :    0.214526
  27 C :   -0.141730
  28 C :   -0.130145
  29 C :   -0.130134
  30 C :   -0.198577
  31 C :    0.161232
  32 C :   -0.178341
  33 H :    0.180487
  34 H :    0.131893
  35 H :    0.154454
  36 H :    0.141921
  37 H :    0.131829
  38 H :    0.144882
  39 H :    0.147959
  40 H :    0.160738
  41 H :    0.172735
  42 H :    0.144253
  43 H :    0.123829
  44 H :    0.131298
  45 H :    0.131128
  46 H :    0.173153
  47 H :    0.198475
  48 H :    0.426544
  49 H :    0.140674
  50 H :    0.170473
  51 H :    0.146072
  52 H :    0.137390
  53 H :    0.136177
  54 H :    0.141217
  55 H :    0.160708
Sum of atomic charges:   -0.0000000

LOEWDIN ATOMIC CHARGES
----------------------
   0 C :   -0.367194
   1 C :   -0.044493
   2 C :   -0.033828
   3 C :   -0.125750
   4 C :   -0.159434
   5 C :    0.115585
   6 F :   -0.103891
   7 C :   -0.155138
   8 C :   -0.121652
   9 N :   -0.113780
  10 C :   -0.145728
  11 C :   -0.028286
  12 C :   -0.139796
  13 C :   -0.124606
  14 C :   -0.131887
  15 C :   -0.007600
  16 C :   -0.238735
  17 C :    0.183941
  18 O :   -0.272643
  19 O :   -0.337186
  20 C :   -0.115071
  21 C :    0.143338
  22 O :   -0.250798
  23 C :   -0.068378
  24 C :   -0.056596
  25 N :   -0.128001
  26 C :    0.019786
  27 C :   -0.115595
  28 C :   -0.118790
  29 C :   -0.127126
  30 C :   -0.115273
  31 C :   -0.029617
  32 C :   -0.070704
  33 H :    0.139204
  34 H :    0.119832
  35 H :    0.132632
  36 H :    0.130022
  37 H :    0.133023
  38 H :    0.143202
  39 H :    0.144658
  40 H :    0.147732
  41 H :    0.141830
  42 H :    0.120048
  43 H :    0.129091
  44 H :    0.133263
  45 H :    0.132892
  46 H :    0.146506
  47 H :    0.163542
  48 H :    0.343575
  49 H :    0.136936
  50 H :    0.146472
  51 H :    0.145403
  52 H :    0.136453
  53 H :    0.135558
  54 H :    0.136887
  55 H :    0.146165

  Mayer bond orders larger than 0.100000
B(  0-C ,  1-C ) :   0.9939 B(  0-C , 33-H ) :   0.9262 B(  0-C , 34-H ) :   0.9412
B(  0-C , 35-H ) :   0.9390 B(  1-C ,  2-C ) :   0.9731 B(  1-C ,  9-N ) :   0.9219
B(  1-C , 36-H ) :   0.9241 B(  2-C ,  3-C ) :   1.4189 B(  2-C ,  8-C ) :   1.4246
B(  3-C ,  4-C ) :   1.4165 B(  3-C , 37-H ) :   0.9250 B(  4-C ,  5-C ) :   1.3965
B(  4-C , 38-H ) :   0.9204 B(  5-C ,  6-F ) :   0.9180 B(  5-C ,  7-C ) :   1.3884
B(  7-C ,  8-C ) :   1.4162 B(  7-C , 39-H ) :   0.9207 B(  8-C , 40-H ) :   0.9147
B(  9-N , 10-C ) :   0.9768 B(  9-N , 21-C ) :   1.0343 B( 10-C , 11-C ) :   0.9323
B( 10-C , 41-H ) :   0.9187 B( 10-C , 42-H ) :   0.9267 B( 11-C , 12-C ) :   1.4383
B( 11-C , 20-C ) :   1.3961 B( 12-C , 13-C ) :   1.4314 B( 12-C , 43-H ) :   0.9234
B( 13-C , 14-C ) :   1.4513 B( 13-C , 44-H ) :   0.9281 B( 14-C , 15-C ) :   1.4202
B( 14-C , 45-H ) :   0.9244 B( 15-C , 16-C ) :   0.9694 B( 15-C , 20-C ) :   1.4378
B( 16-C , 17-C ) :   0.9521 B( 16-C , 46-H ) :   0.9173 B( 16-C , 47-H ) :   0.9140
B( 17-C , 18-O ) :   1.9026 B( 17-C , 19-O ) :   1.0384 B( 19-O , 48-H ) :   0.7462
B( 20-C , 49-H ) :   0.9115 B( 21-C , 22-O ) :   1.8258 B( 21-C , 23-C ) :   0.9415
B( 23-C , 24-C ) :   1.2812 B( 23-C , 32-C ) :   1.4513 B( 24-C , 25-N ) :   1.4992
B( 24-C , 50-H ) :   0.9172 B( 25-N , 26-C ) :   1.2479 B( 26-C , 27-C ) :   1.3081
B( 26-C , 31-C ) :   1.2497 B( 27-C , 28-C ) :   1.5158 B( 27-C , 30-C ) :   0.1079
B( 27-C , 51-H ) :   0.9175 B( 28-C , 29-C ) :   1.3441 B( 28-C , 52-H ) :   0.9294
B( 29-C , 30-C ) :   1.5178 B( 29-C , 53-H ) :   0.9296 B( 30-C , 31-C ) :   1.2764
B( 30-C , 54-H ) :   0.9233 B( 31-C , 32-C ) :   1.2833 B( 32-C , 55-H ) :   0.9147

FINAL SINGLE POINT ENERGY     -1476.833799550466

DIPOLE MOMENT
-------------

Method             : SCF
Type of density    : Electron Density
Multiplicity       :   1
Irrep              :   0
Energy             : -1476.8337995504659830 Eh
Relativity type    :
Basis              : AO
                                X                 Y                 Z
Electronic contribution:     12.521560687       6.896478826      -6.508509809
Nuclear contribution   :    -13.387528974      -7.703914011       7.452201540
                        -----------------------------------------
Total Dipole Moment    :     -0.865968287      -0.807435185       0.943691731
                        -----------------------------------------
Magnitude (a.u.)       :      1.514069594
Magnitude (Debye)      :      3.848459066

Rotational constants in cm-1:             0.004447             0.002996             0.001971
Rotational constants in MHz :           133.321753            89.821479            59.074395

                             ****ORCA TERMINATED NORMALLY****
TOTAL RUN TIME: 0 days 0 hours 10 minutes 9 seconds 796 msec
