                         Program Version 6.0.0  -   RELEASE  -
|  1> ! B3LYP 6-31G* SP
|  2>
|  3> * xyz 0 1
|  4> C -4.6104 1.4863 0.0794
|  5> C -3.5915 0.3402 0.1393
|  6> C -4.2465 -0.9818 -0.2726
|  7> C -2.3948 0.6247 -0.7410
|  8> O -2.5737 1.1858 -1.8567
|  9> C -1.0170 0.2390 -0.3631
| 10> S 0.3633 0.8065 -1.1429
| 11> C 1.4316 -0.0685 -0.1770
| 12> C 2.9083 -0.0611 -0.2895
| 13> C 3.6870 -0.8450 0.5821
| 14> C 5.0816 -0.8431 0.4820
| 15> C 5.7139 -0.0609 -0.4866
| 16> C 4.9527 0.7218 -1.3578
| 17> F 5.5678 1.4810 -2.2978
| 18> C 3.5571 0.7236 -1.2620
| 19> N 0.7558 -0.8034 0.7353
| 20> C -0.5921 -0.6432 0.6366
| 21> O -1.4604 -1.3385 1.4708
| 22> H -5.0334 1.5909 -0.9430
| 23> H -4.1250 2.4433 0.3681
| 24> H -5.4434 1.2929 0.7887
| 25> H -3.2670 0.2666 1.1978
| 26> H -3.5128 -1.8132 -0.2116
| 27> H -5.0934 -1.2168 0.4068
| 28> H -4.6284 -0.9218 -1.3147
| 29> H 3.2195 -1.4596 1.3411
| 30> H 5.6726 -1.4492 1.1565
| 31> H 6.7937 -0.0619 -0.5612
| 32> H 2.9904 1.3387 -1.9487
| 33> H -1.1054 -1.9733 2.1755
| 34> *
| 35>
| 36>                          ****END OF INPUT****

CARTESIAN COORDINATES (ANGSTROEM)
---------------------------------
  C     -4.610400    1.486300    0.079400
  C     -3.591500    0.340200    0.139300
  C     -4.246500   -0.981800   -0.272600
  C     -2.394800    0.624700   -0.741000
  O     -2.573700    1.185800   -1.856700
  C     -1.017000    0.239000   -0.363100
  S      0.363300    0.806500   -1.142900
  C      1.431600   -0.068500   -0.177000
  C      2.908300   -0.061100   -0.289500
  C      3.687000   -0.845000    0.582100
  C      5.081600   -0.843100    0.482000
  C      5.713900   -0.060900   -0.486600
  C      4.952700    0.721800   -1.357800
  F      5.567800    1.481000   -2.297800
  C      3.557100    0.723600   -1.262000
  N      0.755800   -0.803400    0.735300
  C     -0.592100   -0.643200    0.636600
  O     -1.460400   -1.338500    1.470800
  H     -5.033400    1.590900   -0.943000
  H     -4.125000    2.443300    0.368100
  H     -5.443400    1.292900    0.788700
  H     -3.267000    0.266600    1.197800
  H     -3.512800   -1.813200   -0.211600
  H     -5.093400   -1.216800    0.406800
  H     -4.628400   -0.921800   -1.314700
  H      3.219500   -1.459600    1.341100
  H      5.672600   -1.449200    1.156500
  H      6.793700   -0.061900   -0.561200
  H      2.990400    1.338700   -1.948700
  H     -1.105400   -1.973300    2.175500

 Total Charge           Charge          ....    0
 Multiplicity           Mult            ....    1
 Number of Electrons    NEL             ....  138
 Basis Dimension        Dim             ....  280

ORBITAL ENERGIES
----------------

  NO   OCC          E(Eh)            E(eV)
   0   2.0000     -88.908721     -2419.3293
   1   2.0000     -24.708402      -672.3498
   2   2.0000     -19.192961      -522.2670
   3   2.0000     -19.121664      -520.3269
   4   2.0000     -14.343446      -390.3050
   5   2.0000     -10.298003      -280.2229
   6   2.0000     -10.282902      -279.8120
   7   2.0000     -10.270376      -279.4711
   8   2.0000     -10.270006      -279.4611
   9   2.0000     -10.226136      -278.2673
  10   2.0000     -10.220498      -278.1139
  11   2.0000     -10.207091      -277.7491
  12   2.0000     -10.204125      -277.6684
  13   2.0000     -10.202790      -277.6320
  14   2.0000     -10.199363      -277.5388
  15   2.0000     -10.185028      -277.1487
  16   2.0000     -10.169388      -276.7231
  17   2.0000     -10.163505      -276.5630
  18   2.0000      -7.985358      -217.2926
  19   2.0000      -5.948317      -161.8619
  20   2.0000      -5.944235      -161.7509
  21   2.0000      -5.942505      -161.7038
  22   2.0000      -1.221429       -33.2368
  23   2.0000      -1.061883       -28.8953
  24   2.0000      -1.008257       -27.4361
  25   2.0000      -0.970953       -26.4210
  26   2.0000      -0.874564       -23.7981
  27   2.0000      -0.821570       -22.3561
  28   2.0000      -0.797434       -21.6993
  29   2.0000      -0.789040       -21.4709
  30   2.0000      -0.760355       -20.6903
  31   2.0000      -0.739989       -20.1361
  32   2.0000      -0.673599       -18.3296
  33   2.0000      -0.663781       -18.0624
  34   2.0000      -0.639186       -17.3931
  35   2.0000      -0.626961       -17.0605
  36   2.0000      -0.599622       -16.3166
  37   2.0000      -0.584938       -15.9170
  38   2.0000      -0.549622       -14.9560
  39   2.0000      -0.544759       -14.8236
  40   2.0000      -0.513285       -13.9672
  41   2.0000      -0.504715       -13.7340
  42   2.0000      -0.490862       -13.3570
  43   2.0000      -0.476757       -12.9732
  44   2.0000      -0.464641       -12.6435
  45   2.0000      -0.461922       -12.5695
  46   2.0000      -0.452181       -12.3045
  47   2.0000      -0.444523       -12.0961
  48   2.0000      -0.432212       -11.7611
  49   2.0000      -0.420017       -11.4292
  50   2.0000      -0.406491       -11.0612
  51   2.0000      -0.403622       -10.9831
  52   2.0000      -0.390129       -10.6160
  53   2.0000      -0.386255       -10.5105
  54   2.0000      -0.383766       -10.4428
  55   2.0000      -0.377356       -10.2684
  56   2.0000      -0.373139       -10.1536
  57   2.0000      -0.362022        -9.8511
  58   2.0000      -0.360437        -9.8080
  59   2.0000      -0.353459        -9.6181
  60   2.0000      -0.347834        -9.4650
  61   2.0000      -0.325302        -8.8519
  62   2.0000      -0.322854        -8.7853
  63   2.0000      -0.292192        -7.9510
  64   2.0000      -0.289061        -7.8658
  65   2.0000      -0.276484        -7.5235
  66   2.0000      -0.256690        -6.9849
  67   2.0000      -0.238925        -6.5015
  68   2.0000      -0.225887        -6.1467
  69   0.0000      -0.078224        -2.1286
  70   0.0000      -0.020211        -0.5500
  71   0.0000      -0.013305        -0.3620
  72   0.0000       0.017848         0.4857
  73   0.0000       0.034342         0.9345

MULLIKEN ATOMIC CHARGES
-----------------------
   0 C :   -0.431342
   1 C :   -0.143057
   2 C :   -0.442658
   3 C :    0.413225
   4 O :   -0.458554
   5 C :   -0.255138
   6 S :    0.316470
   7 C :   -0.016763
   8 C :    0.156111
   9 C :   -0.159001
  10 C :   -0.116407
  11 C :   -0.198900
  12 C :    0.413421
  13 F :   -0.313744
  14 C :   -0.278139
  15 N :   -0.430011
  16 C :    0.492865
  17 O :   -0.645367
  18 H :    0.163571
  19 H :    0.142125
  20 H :    0.134275
  21 H :    0.146051
  22 H :    0.153723
  23 H :    0.144248
  24 H :    0.157107
  25 H :    0.160179
  26 H :    0.147154
  27 H :    0.151189
  28 H :    0.166344
  29 H :    0.431023
Sum of atomic charges:    0.0000000

LOEWDIN ATOMIC CHARGES
----------------------
   0 C :   -0.345591
   1 C :   -0.149319
   2 C :   -0.344038
   3 C :    0.139760
   4 O :   -0.247691
   5 C :   -0.268273
   6 S :    0.443104
   7 C :   -0.108555
   8 C :   -0.022683
   9 C :   -0.113775
  10 C :   -0.116644
  11 C :   -0.147512
  12 C :    0.120816
  13 F :   -0.099843
  14 C :   -0.150085
  15 N :   -0.189455
  16 C :    0.096002
  17 O :   -0.328164
  18 H :    0.133581
  19 H :    0.124454
  20 H :    0.121031
  21 H :    0.131660
  22 H :    0.127650
  23 H :    0.125866
  24 H :    0.130013
  25 H :    0.149251
  26 H :    0.141129
  27 H :    0.146482
  28 H :    0.152886
  29 H :    0.347944

  Mayer bond orders larger than 0.100000
B(  0-C ,  1-C ) :   0.9980 B(  0-C , 18-H ) :   0.9411 B(  0-C , 19-H ) :   0.9515
B(  0-C , 20-H ) :   0.9448 B(  1-C ,  2-C ) :   0.9946 B(  1-C ,  3-C ) :   0.9628
B(  1-C , 21-H ) :   0.9145 B(  2-C , 22-H ) :   0.9426 B(  2-C , 23-H ) :   0.9468
B(  2-C , 24-H ) :   0.9420 B(  3-C ,  4-O ) :   1.8099 B(  3-C ,  5-C ) :   1.0107
B(  5-C ,  6-S ) :   1.0790 B(  5-C ,  7-C ) :   0.1117 B(  5-C , 16-C ) :   1.4034
B(  6-S ,  7-C ) :   1.1802 B(  7-C ,  8-C ) :   1.0241 B(  7-C , 15-N ) :   1.4278
B(  8-C ,  9-C ) :   1.4077 B(  8-C , 14-C ) :   1.3565 B(  9-C , 10-C ) :   1.4342
B(  9-C , 25-H ) :   0.9123 B( 10-C , 11-C ) :   1.4233 B( 10-C , 26-H ) :   0.9284
B( 11-C , 12-C ) :   1.3871 B( 11-C , 27-H ) :   0.9197 B( 12-C , 13-F ) :   0.9167
B( 12-C , 14-C ) :   1.3925 B( 14-C , 28-H ) :   0.9061 B( 15-N , 16-C ) :   1.3043
B( 16-C , 17-O ) :   0.9682 B( 17-O , 29-H ) :   0.7503

FINAL SINGLE POINT ENERGY     -1205.290266629454

DIPOLE MOMENT
-------------

Method             : SCF
Type of density    : Electron Density
Multiplicity       :   1
Irrep              :   0
Energy             : -1205.2902666294539813 Eh
Relativity type    :
Basis              : AO
                                X                 Y                 Z
Electronic contribution:     25.676101105       4.061154044      -7.328232122
Nuclear contribution   :    -24.954347535      -5.033086580       8.753689745
                        -----------------------------------------
Total Dipole Moment    :      0.721753570      -0.971932537       1.425457623
                        -----------------------------------------
Magnitude (a.u.)       :      1.870163230
Magnitude (Debye)      :      4.753577158

Rotational constants in cm-1:             0.035276             0.005484             0.004859
Rotational constants in MHz :          1057.555370           164.416653           145.683589

                             ****ORCA TERMINATED NORMALLY****
TOTAL RUN TIME: 0 days 0 hours 3 minutes 18 seconds 544 msec
