                         Program Version 6.0.0  -   RELEASE  -
|  1> ! B3LYP 6-31G* SP
|  2>
|  3> * xyz 0 1
|  4> C 2.0611 1.1439 -1.7215
|  5> C 1.2340 0.8191 -0.4671
|  6> C 1.8219 -0.3135 0.3622
|  7> C 1.6879 -0.2777 1.7625
|  8> C 2.1418 -1.3405 2.5484
|  9> C 2.7249 -2.4574 1.9474
| 10> C 2.8609 -2.5122 0.5581
| 11> Cl 3.5571 -3.9325 -0.1993
| 12> C 2.4170 -1.4463 -0.2320
| 13> N -0.1847 0.5628 -0.8207
| 14> C -0.4841 -0.6481 -1.5513
| 15> O -0.6618 -0.5818 -2.7984
| 16> C -0.6154 -1.9530 -0.8557
| 17> C -0.9729 -1.9879 0.5040
| 18> C -1.0586 -3.2030 1.1871
| 19> C -0.7942 -4.3997 0.5217
| 20> C -0.4465 -4.3845 -0.8301
| 21> C -0.3535 -3.1697 -1.5252
| 22> O 0.0194 -3.1728 -2.8690
| 23> C -1.1049 1.7169 -0.9844
| 24> C -2.5448 1.2804 -1.1518
| 25> N -3.2908 1.6712 -2.3059
| 26> O -3.1000 0.5761 -0.2657
| 27> C -1.0296 2.6867 0.1813
| 28> C -1.1544 2.2353 1.5090
| 29> C -1.0815 3.1383 2.5731
| 30> C -0.8957 4.5001 2.3246
| 31> C -0.7849 4.9615 1.0109
| 32> C -0.8538 4.0620 -0.0568
| 33> H 1.9610 0.3541 -2.4936
| 34> H 3.1341 1.2593 -1.4565
| 35> H 1.7120 2.1007 -2.1636
| 36> H 1.3079 1.7325 0.1602
| 37> H 1.2206 0.5697 2.2482
| 38> H 2.0311 -1.3030 3.6251
| 39> H 3.0625 -3.2826 2.5613
| 40> H 2.5061 -1.5263 -1.3062
| 41> H -1.1820 -1.0744 1.0421
| 42> H -1.3294 -3.2153 2.2353
| 43> H -0.8572 -5.3401 1.0534
| 44> H -0.2411 -5.3191 -1.3364
| 45> H 0.2233 -4.0334 -3.3635
| 46> H -0.7976 2.2467 -1.9130
| 47> H -2.8598 2.2627 -3.0492
| 48> H -4.2856 1.3736 -2.4120
| 49> H -1.2997 1.1851 1.7211
| 50> H -1.1701 2.7819 3.5913
| 51> H -0.8402 5.1985 3.1496
| 52> H -0.6437 6.0169 0.8191
| 53> H -0.7665 4.4388 -1.0683
| 54> *
| 55>
| 56>                          ****END OF INPUT****

CARTESIAN COORDINATES (ANGSTROEM)
---------------------------------
  C      2.061100    1.143900   -1.721500
  C      1.234000    0.819100   -0.467100
  C      1.821900   -0.313500    0.362200
  C      1.687900   -0.277700    1.762500
  C      2.141800   -1.340500    2.548400
  C      2.724900   -2.457400    1.947400
  C      2.860900   -2.512200    0.558100
  Cl     3.557100   -3.932500   -0.199300
  C      2.417000   -1.446300   -0.232000
  N     -0.184700    0.562800   -0.820700
  C     -0.484100   -0.648100   -1.551300
  O     -0.661800   -0.581800   -2.798400
  C     -0.615400   -1.953000   -0.855700
  C     -0.972900   -1.987900    0.504000
  C     -1.058600   -3.203000    1.187100
  C     -0.794200   -4.399700    0.521700
  C     -0.446500   -4.384500   -0.830100
  C     -0.353500   -3.169700   -1.525200
  O      0.019400   -3.172800   -2.869000
  C     -1.104900    1.716900   -0.984400
  C     -2.544800    1.280400   -1.151800
  N     -3.290800    1.671200   -2.305900
  O     -3.100000    0.576100   -0.265700
  C     -1.029600    2.686700    0.181300
  C     -1.154400    2.235300    1.509000
  C     -1.081500    3.138300    2.573100
  C     -0.895700    4.500100    2.324600
  C     -0.784900    4.961500    1.010900
  C     -0.853800    4.062000   -0.056800
  H      1.961000    0.354100   -2.493600
  H      3.134100    1.259300   -1.456500
  H      1.712000    2.100700   -2.163600
  H      1.307900    1.732500    0.160200
  H      1.220600    0.569700    2.248200
  H      2.031100   -1.303000    3.625100
  H      3.062500   -3.282600    2.561300
  H      2.506100   -1.526300   -1.306200
  H     -1.182000   -1.074400    1.042100
  H     -1.329400   -3.215300    2.235300
  H     -0.857200   -5.340100    1.053400
  H     -0.241100   -5.319100   -1.336400
  H      0.223300   -4.033400   -3.363500
  H     -0.797600    2.246700   -1.913000
  H     -2.859800    2.262700   -3.049200
  H     -4.285600    1.373600   -2.412000
  H     -1.299700    1.185100    1.721100
  H     -1.170100    2.781900    3.591300
  H     -0.840200    5.198500    3.149600
  H     -0.643700    6.016900    0.819100
  H     -0.766500    4.438800   -1.068300

 Total Charge           Charge          ....    0
 Multiplicity           Mult            ....    1
 Number of Electrons    NEL             ....  214
 Basis Dimension        Dim             ....  452

ORBITAL ENERGIES
----------------

  NO   OCC          E(Eh)            E(eV)
   0   2.0000    -101.522145     -2762.5580
   1   2.0000     -19.160101      -521.3728
   2   2.0000     -19.112880      -520.0879
   3   2.0000     -19.107170      -519.9325
   4   2.0000     -14.351989      -390.5375
   5   2.0000     -14.330213      -389.9449
   6   2.0000     -10.290850      -280.0283
   7   2.0000     -10.280889      -279.7572
   8   2.0000     -10.250790      -278.9382
   9   2.0000     -10.240099      -278.6473
  10   2.0000     -10.234167      -278.4858
  11   2.0000     -10.223432      -278.1937
  12   2.0000     -10.197680      -277.4930
  13   2.0000     -10.195245      -277.4267
  14   2.0000     -10.189514      -277.2708
  15   2.0000     -10.188654      -277.2474
  16   2.0000     -10.188150      -277.2336
  17   2.0000     -10.187911      -277.2271
  18   2.0000     -10.186867      -277.1988
  19   2.0000     -10.185359      -277.1577
  20   2.0000     -10.184604      -277.1372
  21   2.0000     -10.184046      -277.1220
  22   2.0000     -10.183463      -277.1061
  23   2.0000     -10.183088      -277.0959
  24   2.0000     -10.182369      -277.0763
  25   2.0000     -10.179441      -276.9967
  26   2.0000     -10.177180      -276.9351
  27   2.0000     -10.170062      -276.7414
  28   2.0000     -10.165671      -276.6220
  29   2.0000      -9.454076      -257.2585
  30   2.0000      -7.217033      -196.3855
  31   2.0000      -7.207695      -196.1314
  32   2.0000      -7.207442      -196.1245
  33   2.0000      -1.026810       -27.9409
  34   2.0000      -1.010865       -27.5070
  35   2.0000      -1.001024       -27.2392
  36   2.0000      -0.911706       -24.8088
  37   2.0000      -0.881018       -23.9737
  38   2.0000      -0.874373       -23.7929
  39   2.0000      -0.853295       -23.2193
  40   2.0000      -0.843529       -22.9536
  41   2.0000      -0.829998       -22.5854
  42   2.0000      -0.785668       -21.3791
  43   2.0000      -0.763154       -20.7665
  44   2.0000      -0.750795       -20.4302
  45   2.0000      -0.744800       -20.2670
  46   2.0000      -0.731784       -19.9129
  47   2.0000      -0.730653       -19.8821
  48   2.0000      -0.718862       -19.5612
  49   2.0000      -0.695271       -18.9193
  50   2.0000      -0.641187       -17.4476
  51   2.0000      -0.624316       -16.9885
  52   2.0000      -0.614135       -16.7115
  53   2.0000      -0.606299       -16.4982
  54   2.0000      -0.602812       -16.4033
  55   2.0000      -0.596805       -16.2399
  56   2.0000      -0.579874       -15.7792
  57   2.0000      -0.568382       -15.4665
  58   2.0000      -0.544121       -14.8063
  59   2.0000      -0.528860       -14.3910
  60   2.0000      -0.520088       -14.1523
  61   2.0000      -0.511862       -13.9285
  62   2.0000      -0.508225       -13.8295
  63   2.0000      -0.492224       -13.3941
  64   2.0000      -0.484562       -13.1856
  65   2.0000      -0.478646       -13.0246
  66   2.0000      -0.464066       -12.6279
  67   2.0000      -0.461499       -12.5580
  68   2.0000      -0.455965       -12.4074
  69   2.0000      -0.451467       -12.2850
  70   2.0000      -0.444205       -12.0874
  71   2.0000      -0.433213       -11.7883
  72   2.0000      -0.428967       -11.6728
  73   2.0000      -0.428607       -11.6630
  74   2.0000      -0.423355       -11.5201
  75   2.0000      -0.419589       -11.4176
  76   2.0000      -0.414014       -11.2659
  77   2.0000      -0.409936       -11.1549
  78   2.0000      -0.401597       -10.9280
  79   2.0000      -0.390128       -10.6159
  80   2.0000      -0.385912       -10.5012
  81   2.0000      -0.381767       -10.3884
  82   2.0000      -0.378596       -10.3021
  83   2.0000      -0.372928       -10.1479
  84   2.0000      -0.367455        -9.9990
  85   2.0000      -0.363345        -9.8871
  86   2.0000      -0.360690        -9.8149
  87   2.0000      -0.354711        -9.6522
  88   2.0000      -0.346226        -9.4213
  89   2.0000      -0.344321        -9.3694
  90   2.0000      -0.341772        -9.3001
  91   2.0000      -0.338540        -9.2121
  92   2.0000      -0.332691        -9.0530
  93   2.0000      -0.331302        -9.0152
  94   2.0000      -0.324737        -8.8365
  95   2.0000      -0.317167        -8.6306
  96   2.0000      -0.305139        -8.3032
  97   2.0000      -0.260485        -7.0882
  98   2.0000      -0.258023        -7.0212
  99   2.0000      -0.256707        -6.9854
 100   2.0000      -0.246908        -6.7187
 101   2.0000      -0.243693        -6.6312
 102   2.0000      -0.239805        -6.5254
 103   2.0000      -0.236513        -6.4358
 104   2.0000      -0.234358        -6.3772
 105   2.0000      -0.214325        -5.8321
 106   2.0000      -0.208589        -5.6760
 107   0.0000      -0.042807        -1.1648
 108   0.0000      -0.020350        -0.5538
 109   0.0000      -0.006643        -0.1808
 110   0.0000      -0.005687        -0.1548
 111   0.0000      -0.001503        -0.0409

MULLIKEN ATOMIC CHARGES
-----------------------
   0 C :   -0.451346
   1 C :   -0.057293
   2 C :    0.157912
   3 C :   -0.178298
   4 C :   -0.117400
   5 C :   -0.127139
   6 C :   -0.059842
   7 Cl:   -0.029134
   8 C :   -0.177982
   9 N :   -0.458768
  10 C :    0.444723
  11 O :   -0.435743
  12 C :    0.056206
  13 C :   -0.140568
  14 C :   -0.140975
  15 C :   -0.112764
  16 C :   -0.197008
  17 C :    0.352612
  18 O :   -0.646401
  19 C :   -0.053631
  20 C :    0.563798
  21 N :   -0.757491
  22 O :   -0.482107
  23 C :    0.102825
  24 C :   -0.142606
  25 C :   -0.133719
  26 C :   -0.122452
  27 C :   -0.127227
  28 C :   -0.175612
  29 H :    0.170304
  30 H :    0.144554
  31 H :    0.141324
  32 H :    0.157943
  33 H :    0.135198
  34 H :    0.134715
  35 H :    0.145159
  36 H :    0.160474
  37 H :    0.170726
  38 H :    0.123471
  39 H :    0.131546
  40 H :    0.120897
  41 H :    0.413122
  42 H :    0.125810
  43 H :    0.336802
  44 H :    0.352416
  45 H :    0.166553
  46 H :    0.131572
  47 H :    0.129960
  48 H :    0.130234
  49 H :    0.124650
Sum of atomic charges:    0.0000000

LOEWDIN ATOMIC CHARGES
----------------------
   0 C :   -0.367538
   1 C :   -0.050366
   2 C :   -0.012899
   3 C :   -0.129013
   4 C :   -0.123831
   5 C :   -0.132433
   6 C :   -0.084006
   7 Cl:    0.029067
   8 C :   -0.132032
   9 N :   -0.141600
  10 C :    0.154683
  11 O :   -0.232861
  12 C :   -0.073950
  13 C :   -0.083787
  14 C :   -0.152117
  15 C :   -0.106169
  16 C :   -0.173843
  17 C :    0.112669
  18 O :   -0.327956
  19 C :   -0.053481
  20 C :    0.149495
  21 N :   -0.388373
  22 O :   -0.289252
  23 C :   -0.021257
  24 C :   -0.115292
  25 C :   -0.130688
  26 C :   -0.126305
  27 C :   -0.129798
  28 C :   -0.133310
  29 H :    0.134664
  30 H :    0.126974
  31 H :    0.124256
  32 H :    0.138944
  33 H :    0.135408
  34 H :    0.135287
  35 H :    0.141425
  36 H :    0.147612
  37 H :    0.148378
  38 H :    0.130365
  39 H :    0.133564
  40 H :    0.130479
  41 H :    0.333892
  42 H :    0.113940
  43 H :    0.253429
  44 H :    0.266105
  45 H :    0.144657
  46 H :    0.132845
  47 H :    0.132076
  48 H :    0.132563
  49 H :    0.129381

  Mayer bond orders larger than 0.100000
B(  0-C ,  1-C ) :   0.9858 B(  0-C , 29-H ) :   0.9311 B(  0-C , 30-H ) :   0.9407
B(  0-C , 31-H ) :   0.9451 B(  1-C ,  2-C ) :   0.9768 B(  1-C ,  9-N ) :   0.9522
B(  1-C , 32-H ) :   0.9085 B(  2-C ,  3-C ) :   1.4291 B(  2-C ,  8-C ) :   1.4167
B(  3-C ,  4-C ) :   1.4338 B(  3-C , 33-H ) :   0.9157 B(  4-C ,  5-C ) :   1.4480
B(  4-C , 34-H ) :   0.9283 B(  5-C ,  6-C ) :   1.4220 B(  5-C , 35-H ) :   0.9249
B(  6-C ,  7-Cl) :   1.0053 B(  6-C ,  8-C ) :   1.3995 B(  8-C , 36-H ) :   0.9113
B(  9-N , 10-C ) :   0.9560 B(  9-N , 19-C ) :   0.9328 B( 10-C , 11-O ) :   1.8401
B( 10-C , 12-C ) :   0.9908 B( 12-C , 13-C ) :   1.4075 B( 12-C , 17-C ) :   1.3177
B( 13-C , 14-C ) :   1.4410 B( 13-C , 37-H ) :   0.8985 B( 14-C , 15-C ) :   1.4300
B( 14-C , 38-H ) :   0.9311 B( 15-C , 16-C ) :   1.4472 B( 15-C , 39-H ) :   0.9290
B( 16-C , 17-C ) :   1.3660 B( 16-C , 40-H ) :   0.9246 B( 17-C , 18-O ) :   0.9473
B( 18-O , 41-H ) :   0.7666 B( 19-C , 20-C ) :   0.9143 B( 19-C , 23-C ) :   0.9649
B( 19-C , 42-H ) :   0.9022 B( 20-C , 21-N ) :   1.0905 B( 20-C , 22-O ) :   1.8236
B( 21-N , 22-O ) :   0.1002 B( 21-N , 43-H ) :   0.8275 B( 21-N , 44-H ) :   0.8225
B( 23-C , 24-C ) :   1.4178 B( 23-C , 28-C ) :   1.4227 B( 24-C , 25-C ) :   1.4336
B( 24-C , 45-H ) :   0.9052 B( 25-C , 26-C ) :   1.4402 B( 25-C , 46-H ) :   0.9303
B( 26-C , 27-C ) :   1.4617 B( 26-C , 47-H ) :   0.9303 B( 27-C , 28-C ) :   1.4330
B( 27-C , 48-H ) :   0.9294 B( 28-C , 49-H ) :   0.9240

FINAL SINGLE POINT ENERGY     -1683.605148257780

DIPOLE MOMENT
-------------

Method             : SCF
Type of density    : Electron Density
Multiplicity       :   1
Irrep              :   0
Energy             : -1683.6051482577802290 Eh
Relativity type    :
Basis              : AO
                                X                 Y                 Z
Electronic contribution:      6.431922183     -18.354436204      -3.853492651
Nuclear contribution   :     -6.349626633      18.978824295       4.077347848
                        -----------------------------------------
Total Dipole Moment    :      0.082295550       0.624388091       0.223855198
                        -----------------------------------------
Magnitude (a.u.)       :      0.668389254
Magnitude (Debye)      :      1.698910469

Rotational constants in cm-1:             0.008561             0.004103             0.003510
Rotational constants in MHz :           256.646342           122.999911           105.231198

                             ****ORCA TERMINATED NORMALLY****
TOTAL RUN TIME: 0 days 0 hours 9 minutes 35 seconds 482 msec
