                         Program Version 6.0.0  -   RELEASE  -
|  1> ! B3LYP 6-31G* SP
|  2>
|  3> * xyz 0 1
|  4> O 0.7391 -0.3234 -2.6181
|  5> C 1.1295 0.0836 -1.4893
|  6> N 0.2243 0.8156 -0.6441
|  7> C -1.2042 0.9547 -0.9600
|  8> C -1.9976 -0.3336 -0.7919
|  9> C -3.3376 -0.3580 -1.2145
| 10> C -4.1047 -1.5192 -1.0959
| 11> C -3.5463 -2.6911 -0.5571
| 12> C -4.3585 -3.9566 -0.4206
| 13> F -3.7798 -4.9592 -1.1775
| 14> F -4.3831 -4.3489 0.9055
| 15> F -5.6627 -3.7787 -0.8495
| 16> C -2.2017 -2.6772 -0.1469
| 17> F -1.6291 -3.7933 0.3722
| 18> C -1.4353 -1.5142 -0.2663
| 19> C -1.8160 2.1348 -0.1986
| 20> C -2.0475 3.3128 -0.9415
| 21> C -2.6140 4.4406 -0.3537
| 22> C -2.9642 4.4233 0.9896
| 23> C -2.7328 3.2846 1.7573
| 24> C -2.1299 2.1345 1.2017
| 25> C -1.9330 0.9330 2.1141
| 26> F -1.9555 1.3057 3.4478
| 27> F -2.9532 0.0237 1.9092
| 28> F -0.7160 0.3244 1.8922
| 29> C 2.5175 -0.1998 -1.0544
| 30> C 3.5169 -0.4539 -2.0118
| 31> C 4.8292 -0.7308 -1.6172
| 32> C 5.1599 -0.7666 -0.2569
| 33> C 6.4659 -1.0435 0.1681
| 34> C 6.7582 -1.0781 1.5332
| 35> C 5.7415 -0.8366 2.4607
| 36> N 4.4779 -0.5685 2.0355
| 37> C 4.1623 -0.5256 0.7124
| 38> C 2.8507 -0.2477 0.3124
| 39> H 0.6274 1.3868 0.1323
| 40> H -1.2670 1.1804 -2.0485
| 41> H -3.7918 0.5305 -1.6362
| 42> H -5.1342 -1.4944 -1.4288
| 43> H -0.4079 -1.5447 0.0684
| 44> H -1.7947 3.3628 -1.9935
| 45> H -2.7895 5.3294 -0.9462
| 46> H -3.4182 5.2967 1.4401
| 47> H -3.0322 3.3116 2.7971
| 48> H 3.2852 -0.4280 -3.0695
| 49> H 5.5826 -0.9168 -2.3733
| 50> H 7.2543 -1.2330 -0.5504
| 51> H 7.7642 -1.2917 1.8704
| 52> H 5.9577 -0.8623 3.5203
| 53> H 2.0942 -0.0940 1.0716
| 54> *
| 55>
| 56>                          ****END OF INPUT****

CARTESIAN COORDINATES (ANGSTROEM)
---------------------------------
  O      0.739100   -0.323400   -2.618100
  C      1.129500    0.083600   -1.489300
  N      0.224300    0.815600   -0.644100
  C     -1.204200    0.954700   -0.960000
  C     -1.997600   -0.333600   -0.791900
  C     -3.337600   -0.358000   -1.214500
  C     -4.104700   -1.519200   -1.095900
  C     -3.546300   -2.691100   -0.557100
  C     -4.358500   -3.956600   -0.420600
  F     -3.779800   -4.959200   -1.177500
  F     -4.383100   -4.348900    0.905500
  F     -5.662700   -3.778700   -0.849500
  C     -2.201700   -2.677200   -0.146900
  F     -1.629100   -3.793300    0.372200
  C     -1.435300   -1.514200   -0.266300
  C     -1.816000    2.134800   -0.198600
  C     -2.047500    3.312800   -0.941500
  C     -2.614000    4.440600   -0.353700
  C     -2.964200    4.423300    0.989600
  C     -2.732800    3.284600    1.757300
  C     -2.129900    2.134500    1.201700
  C     -1.933000    0.933000    2.114100
  F     -1.955500    1.305700    3.447800
  F     -2.953200    0.023700    1.909200
  F     -0.716000    0.324400    1.892200
  C      2.517500   -0.199800   -1.054400
  C      3.516900   -0.453900   -2.011800
  C      4.829200   -0.730800   -1.617200
  C      5.159900   -0.766600   -0.256900
  C      6.465900   -1.043500    0.168100
  C      6.758200   -1.078100    1.533200
  C      5.741500   -0.836600    2.460700
  N      4.477900   -0.568500    2.035500
  C      4.162300   -0.525600    0.712400
  C      2.850700   -0.247700    0.312400
  H      0.627400    1.386800    0.132300
  H     -1.267000    1.180400   -2.048500
  H     -3.791800    0.530500   -1.636200
  H     -5.134200   -1.494400   -1.428800
  H     -0.407900   -1.544700    0.068400
  H     -1.794700    3.362800   -1.993500
  H     -2.789500    5.329400   -0.946200
  H     -3.418200    5.296700    1.440100
  H     -3.032200    3.311600    2.797100
  H      3.285200   -0.428000   -3.069500
  H      5.582600   -0.916800   -2.373300
  H      7.254300   -1.233000   -0.550400
  H      7.764200   -1.291700    1.870400
  H      5.957700   -0.862300    3.520300
  H      2.094200   -0.094000    1.071600

 Total Charge           Charge          ....    0
 Multiplicity           Mult            ....    1
 Number of Electrons    NEL             ....  250
 Basis Dimension        Dim             ....  520

ORBITAL ENERGIES
----------------

  NO   OCC          E(Eh)            E(eV)
   0   2.0000     -24.731772      -672.9857
   1   2.0000     -24.725997      -672.8286
   2   2.0000     -24.721007      -672.6928
   3   2.0000     -24.713049      -672.4762
   4   2.0000     -24.704286      -672.2378
   5   2.0000     -24.704115      -672.2331
   6   2.0000     -24.700922      -672.1463
   7   2.0000     -19.116969      -520.1992
   8   2.0000     -14.362875      -390.8337
   9   2.0000     -14.330045      -389.9404
  10   2.0000     -10.445229      -284.2291
  11   2.0000     -10.426763      -283.7266
  12   2.0000     -10.296282      -280.1761
  13   2.0000     -10.277568      -279.6668
  14   2.0000     -10.249338      -278.8987
  15   2.0000     -10.232072      -278.4288
  16   2.0000     -10.231743      -278.4199
  17   2.0000     -10.227490      -278.3042
  18   2.0000     -10.226298      -278.2717
  19   2.0000     -10.213412      -277.9211
  20   2.0000     -10.212021      -277.8832
  21   2.0000     -10.210265      -277.8354
  22   2.0000     -10.208560      -277.7890
  23   2.0000     -10.208432      -277.7856
  24   2.0000     -10.208187      -277.7789
  25   2.0000     -10.207719      -277.7662
  26   2.0000     -10.206880      -277.7433
  27   2.0000     -10.203102      -277.6405
  28   2.0000     -10.200296      -277.5642
  29   2.0000     -10.200141      -277.5600
  30   2.0000     -10.199496      -277.5424
  31   2.0000     -10.197627      -277.4915
  32   2.0000     -10.197180      -277.4794
  33   2.0000     -10.190815      -277.3062
  34   2.0000     -10.190038      -277.2850
  35   2.0000      -1.289651       -35.0932
  36   2.0000      -1.268709       -34.5233
  37   2.0000      -1.215663       -33.0799
  38   2.0000      -1.213502       -33.0211
  39   2.0000      -1.209116       -32.9017
  40   2.0000      -1.195092       -32.5201
  41   2.0000      -1.190693       -32.4004
  42   2.0000      -1.017089       -27.6764
  43   2.0000      -0.940444       -25.5908
  44   2.0000      -0.920679       -25.0529
  45   2.0000      -0.879423       -23.9303
  46   2.0000      -0.866644       -23.5826
  47   2.0000      -0.857758       -23.3408
  48   2.0000      -0.815213       -22.1831
  49   2.0000      -0.802015       -21.8239
  50   2.0000      -0.792514       -21.5654
  51   2.0000      -0.774938       -21.0871
  52   2.0000      -0.768871       -20.9220
  53   2.0000      -0.752086       -20.4653
  54   2.0000      -0.747705       -20.3461
  55   2.0000      -0.720682       -19.6108
  56   2.0000      -0.701035       -19.0761
  57   2.0000      -0.676576       -18.4106
  58   2.0000      -0.662978       -18.0405
  59   2.0000      -0.641263       -17.4497
  60   2.0000      -0.632552       -17.2126
  61   2.0000      -0.625837       -17.0299
  62   2.0000      -0.622343       -16.9348
  63   2.0000      -0.614300       -16.7160
  64   2.0000      -0.605060       -16.4645
  65   2.0000      -0.582204       -15.8426
  66   2.0000      -0.579310       -15.7638
  67   2.0000      -0.575484       -15.6597
  68   2.0000      -0.567598       -15.4451
  69   2.0000      -0.559115       -15.2143
  70   2.0000      -0.558091       -15.1864
  71   2.0000      -0.557585       -15.1726
  72   2.0000      -0.542092       -14.7511
  73   2.0000      -0.524207       -14.2644
  74   2.0000      -0.520431       -14.1617
  75   2.0000      -0.518711       -14.1149
  76   2.0000      -0.508911       -13.8482
  77   2.0000      -0.499187       -13.5836
  78   2.0000      -0.484516       -13.1843
  79   2.0000      -0.480168       -13.0660
  80   2.0000      -0.472505       -12.8575
  81   2.0000      -0.467917       -12.7327
  82   2.0000      -0.461183       -12.5494
  83   2.0000      -0.458502       -12.4765
  84   2.0000      -0.455052       -12.3826
  85   2.0000      -0.453006       -12.3269
  86   2.0000      -0.450503       -12.2588
  87   2.0000      -0.447533       -12.1780
  88   2.0000      -0.443074       -12.0567
  89   2.0000      -0.436142       -11.8680
  90   2.0000      -0.435975       -11.8635
  91   2.0000      -0.432444       -11.7674
  92   2.0000      -0.429434       -11.6855
  93   2.0000      -0.424273       -11.5451
  94   2.0000      -0.418817       -11.3966
  95   2.0000      -0.418269       -11.3817
  96   2.0000      -0.415039       -11.2938
  97   2.0000      -0.409887       -11.1536
  98   2.0000      -0.407964       -11.1013
  99   2.0000      -0.405557       -11.0358
 100   2.0000      -0.404880       -11.0174
 101   2.0000      -0.403051       -10.9676
 102   2.0000      -0.398099       -10.8328
 103   2.0000      -0.391389       -10.6502
 104   2.0000      -0.385998       -10.5035
 105   2.0000      -0.385179       -10.4813
 106   2.0000      -0.381603       -10.3840
 107   2.0000      -0.376084       -10.2338
 108   2.0000      -0.370506       -10.0820
 109   2.0000      -0.367531       -10.0010
 110   2.0000      -0.360864        -9.8196
 111   2.0000      -0.359868        -9.7925
 112   2.0000      -0.349360        -9.5066
 113   2.0000      -0.344809        -9.3827
 114   2.0000      -0.336501        -9.1567
 115   2.0000      -0.310078        -8.4376
 116   2.0000      -0.279663        -7.6100
 117   2.0000      -0.278156        -7.5690
 118   2.0000      -0.264544        -7.1986
 119   2.0000      -0.257416        -7.0046
 120   2.0000      -0.254637        -6.9290
 121   2.0000      -0.252739        -6.8774
 122   2.0000      -0.248197        -6.7538
 123   2.0000      -0.243104        -6.6152
 124   2.0000      -0.234889        -6.3916
 125   0.0000      -0.072687        -1.9779
 126   0.0000      -0.045461        -1.2371
 127   0.0000      -0.037205        -1.0124
 128   0.0000      -0.031967        -0.8699
 129   0.0000      -0.020139        -0.5480

MULLIKEN ATOMIC CHARGES
-----------------------
   0 O :   -0.478121
   1 C :    0.493138
   2 N :   -0.643278
   3 C :   -0.074693
   4 C :    0.170659
   5 C :   -0.171506
   6 C :   -0.154216
   7 C :   -0.115099
   8 C :    0.916602
   9 F :   -0.299017
  10 F :   -0.299702
  11 F :   -0.308070
  12 C :    0.391800
  13 F :   -0.302304
  14 C :   -0.240808
  15 C :    0.094708
  16 C :   -0.188638
  17 C :   -0.111926
  18 C :   -0.119542
  19 C :   -0.162329
  20 C :   -0.071812
  21 C :    0.922008
  22 F :   -0.303727
  23 F :   -0.289046
  24 F :   -0.299915
  25 C :    0.081673
  26 C :   -0.155772
  27 C :   -0.207504
  28 C :    0.170572
  29 C :   -0.152364
  30 C :   -0.144579
  31 C :    0.015953
  32 N :   -0.432591
  33 C :    0.211765
  34 C :   -0.204944
  35 H :    0.333505
  36 H :    0.187270
  37 H :    0.132986
  38 H :    0.157248
  39 H :    0.156071
  40 H :    0.151454
  41 H :    0.144826
  42 H :    0.145545
  43 H :    0.161624
  44 H :    0.162119
  45 H :    0.140564
  46 H :    0.145444
  47 H :    0.138138
  48 H :    0.153784
  49 H :    0.152048
Sum of atomic charges:   -0.0000000

LOEWDIN ATOMIC CHARGES
----------------------
   0 O :   -0.282883
   1 C :    0.140109
   2 N :   -0.237975
   3 C :   -0.044054
   4 C :   -0.004147
   5 C :   -0.136980
   6 C :   -0.107864
   7 C :   -0.099818
   8 C :    0.313529
   9 F :   -0.112593
  10 F :   -0.112704
  11 F :   -0.113093
  12 C :    0.136257
  13 F :   -0.093728
  14 C :   -0.146697
  15 C :   -0.006109
  16 C :   -0.124983
  17 C :   -0.112836
  18 C :   -0.122246
  19 C :   -0.109468
  20 C :   -0.069852
  21 C :    0.311642
  22 F :   -0.110188
  23 F :   -0.101859
  24 F :   -0.102927
  25 C :   -0.046528
  26 C :   -0.100513
  27 C :   -0.117770
  28 C :   -0.021942
  29 C :   -0.092750
  30 C :   -0.144490
  31 C :   -0.061707
  32 N :   -0.128688
  33 C :    0.013727
  34 C :   -0.109580
  35 H :    0.254301
  36 H :    0.153249
  37 H :    0.135401
  38 H :    0.146938
  39 H :    0.151183
  40 H :    0.142052
  41 H :    0.139609
  42 H :    0.140158
  43 H :    0.147840
  44 H :    0.151731
  45 H :    0.137355
  46 H :    0.139765
  47 H :    0.137694
  48 H :    0.137603
  49 H :    0.146828

  Mayer bond orders larger than 0.100000
B(  0-O ,  1-C ) :   1.7970 B(  1-C ,  2-N ) :   1.0361 B(  1-C , 25-C ) :   0.9849
B(  2-N ,  3-C ) :   0.8940 B(  2-N , 35-H ) :   0.8138 B(  3-C ,  4-C ) :   0.9424
B(  3-C , 15-C ) :   0.9552 B(  3-C , 36-H ) :   0.8995 B(  4-C ,  5-C ) :   1.4075
B(  4-C , 14-C ) :   1.4046 B(  5-C ,  6-C ) :   1.4339 B(  5-C , 37-H ) :   0.9228
B(  6-C ,  7-C ) :   1.4089 B(  6-C , 38-H ) :   0.9186 B(  7-C ,  8-C ) :   0.9674
B(  7-C , 12-C ) :   1.3261 B(  8-C ,  9-F ) :   0.9730 B(  8-C , 10-F ) :   0.9704
B(  8-C , 11-F ) :   0.9440 B( 12-C , 13-F ) :   0.9484 B( 12-C , 14-C ) :   1.3731
B( 14-C , 39-H ) :   0.9015 B( 15-C , 16-C ) :   1.4156 B( 15-C , 20-C ) :   1.3830
B( 16-C , 17-C ) :   1.4316 B( 16-C , 40-H ) :   0.9211 B( 17-C , 18-C ) :   1.4565
B( 17-C , 41-H ) :   0.9266 B( 18-C , 19-C ) :   1.4333 B( 18-C , 42-H ) :   0.9273
B( 19-C , 20-C ) :   1.4003 B( 19-C , 43-H ) :   0.9169 B( 20-C , 21-C ) :   0.9737
B( 21-C , 22-F ) :   0.9417 B( 21-C , 23-F ) :   0.9714 B( 21-C , 24-F ) :   0.9178
B( 25-C , 26-C ) :   1.3121 B( 25-C , 34-C ) :   1.4376 B( 26-C , 27-C ) :   1.4978
B( 26-C , 44-H ) :   0.9147 B( 27-C , 28-C ) :   1.2727 B( 27-C , 45-H ) :   0.9241
B( 28-C , 29-C ) :   1.3051 B( 28-C , 33-C ) :   1.2568 B( 29-C , 30-C ) :   1.5116
B( 29-C , 46-H ) :   0.9236 B( 30-C , 31-C ) :   1.3249 B( 30-C , 47-H ) :   0.9245
B( 31-C , 32-N ) :   1.5124 B( 31-C , 48-H ) :   0.9295 B( 32-N , 33-C ) :   1.2500
B( 33-C , 34-C ) :   1.2873 B( 34-C , 49-H ) :   0.9027

FINAL SINGLE POINT ENERGY     -1844.354018906653

DIPOLE MOMENT
-------------

Method             : SCF
Type of density    : Electron Density
Multiplicity       :   1
Irrep              :   0
Energy             : -1844.3540189066529820 Eh
Relativity type    :
Basis              : AO
                                X                 Y                 Z
Electronic contribution:    -32.527961469     -27.007672599      10.090626304
Nuclear contribution   :     33.767648512      29.651875210     -10.123971109
                        -----------------------------------------
Total Dipole Moment    :      1.239687043       2.644202612      -0.033344805
                        -----------------------------------------
Magnitude (a.u.)       :      2.920572425
Magnitude (Debye)      :      7.423505149

Rotational constants in cm-1:             0.004536             0.002422             0.001938
Rotational constants in MHz :           135.984778            72.615127            58.091860

                             ****ORCA TERMINATED NORMALLY****
TOTAL RUN TIME: 0 days 0 hours 10 minutes 2 seconds 974 msec
