                         Program Version 6.0.0  -   RELEASE  -
|  1> ! B3LYP 6-31G* SP
|  2>
|  3> * xyz -1 1
|  4> C 2.2588 -1.3068 -1.9692
|  5> C 2.5249 0.1874 -2.1002
|  6> N 2.5821 0.8224 -0.7773
|  7> C 1.5808 1.4462 -0.0921
|  8> C 0.1486 1.5819 -0.5351
|  9> N -0.7240 0.7901 0.3338
| 10> C -0.8136 -0.6256 0.1426
| 11> N -1.4751 -1.0908 -0.9495
| 12> C -1.5858 -2.4122 -1.2253
| 13> C -0.9904 -3.3564 -0.3856
| 14> C -1.0797 -4.7246 -0.6848
| 15> C -0.4692 -5.6653 0.1450
| 16> C 0.2351 -5.2493 1.2746
| 17> C 0.3300 -3.8902 1.5862
| 18> C -0.2870 -2.9197 0.7655
| 19> C -0.2157 -1.5308 1.0511
| 20> C 0.5172 -1.0240 2.2730
| 21> S -1.9419 1.5791 1.2844
| 22> O -2.5172 0.6150 2.2850
| 23> O -1.3298 2.7286 2.0357
| 24> C -3.2199 2.1503 0.2194
| 25> C -4.1714 1.2488 -0.2725
| 26> C -5.1772 1.6884 -1.1380
| 27> C -5.2414 3.0388 -1.5279
| 28> C -6.3038 3.5108 -2.4430
| 29> O -7.1715 2.7107 -2.8851
| 30> O -6.3604 4.8459 -2.8272
| 31> C -4.2774 3.9369 -1.0366
| 32> C -3.2724 3.4942 -0.1713
| 33> C 2.0418 1.9119 1.1366
| 34> C 3.3608 1.5303 1.1998
| 35> C 4.2972 1.7048 2.2159
| 36> C 5.5882 1.1825 2.0176
| 37> Cl 6.8068 1.3722 3.2642
| 38> C 5.9052 0.5020 0.8212
| 39> C 4.9364 0.3388 -0.1852
| 40> C 3.6612 0.8718 0.0352
| 41> H 3.0389 -1.7848 -1.3398
| 42> H 1.2679 -1.4787 -1.5087
| 43> H 2.2695 -1.7776 -2.9745
| 44> H 3.4873 0.3405 -2.6330
| 45> H 1.7479 0.6557 -2.7358
| 46> H 0.0015 1.2708 -1.5870
| 47> H -0.1304 2.6559 -0.4821
| 48> H -2.1268 -2.7215 -2.1112
| 49> H -1.6173 -5.0651 -1.5620
| 50> H -0.5384 -6.7195 -0.0906
| 51> H 0.7121 -5.9830 1.9116
| 52> H 0.8948 -3.6145 2.4661
| 53> H 0.3645 0.0584 2.4470
| 54> H 1.6063 -1.2073 2.1565
| 55> H 0.1451 -1.5422 3.1814
| 56> H -4.1323 0.2041 0.0108
| 57> H -5.9020 0.9712 -1.5029
| 58> H -4.2970 4.9813 -1.3220
| 59> H -2.5346 4.2000 0.1884
| 60> H 1.4750 2.4330 1.8968
| 61> H 4.0365 2.2226 3.1301
| 62> H 6.8990 0.0986 0.6750
| 63> H 5.1817 -0.1917 -1.0950
| 64> *
| 65>
| 66>                          ****END OF INPUT****

CARTESIAN COORDINATES (ANGSTROEM)
---------------------------------
  C      2.258800   -1.306800   -1.969200
  C      2.524900    0.187400   -2.100200
  N      2.582100    0.822400   -0.777300
  C      1.580800    1.446200   -0.092100
  C      0.148600    1.581900   -0.535100
  N     -0.724000    0.790100    0.333800
  C     -0.813600   -0.625600    0.142600
  N     -1.475100   -1.090800   -0.949500
  C     -1.585800   -2.412200   -1.225300
  C     -0.990400   -3.356400   -0.385600
  C     -1.079700   -4.724600   -0.684800
  C     -0.469200   -5.665300    0.145000
  C      0.235100   -5.249300    1.274600
  C      0.330000   -3.890200    1.586200
  C     -0.287000   -2.919700    0.765500
  C     -0.215700   -1.530800    1.051100
  C      0.517200   -1.024000    2.273000
  S     -1.941900    1.579100    1.284400
  O     -2.517200    0.615000    2.285000
  O     -1.329800    2.728600    2.035700
  C     -3.219900    2.150300    0.219400
  C     -4.171400    1.248800   -0.272500
  C     -5.177200    1.688400   -1.138000
  C     -5.241400    3.038800   -1.527900
  C     -6.303800    3.510800   -2.443000
  O     -7.171500    2.710700   -2.885100
  O     -6.360400    4.845900   -2.827200
  C     -4.277400    3.936900   -1.036600
  C     -3.272400    3.494200   -0.171300
  C      2.041800    1.911900    1.136600
  C      3.360800    1.530300    1.199800
  C      4.297200    1.704800    2.215900
  C      5.588200    1.182500    2.017600
  Cl     6.806800    1.372200    3.264200
  C      5.905200    0.502000    0.821200
  C      4.936400    0.338800   -0.185200
  C      3.661200    0.871800    0.035200
  H      3.038900   -1.784800   -1.339800
  H      1.267900   -1.478700   -1.508700
  H      2.269500   -1.777600   -2.974500
  H      3.487300    0.340500   -2.633000
  H      1.747900    0.655700   -2.735800
  H      0.001500    1.270800   -1.587000
  H     -0.130400    2.655900   -0.482100
  H     -2.126800   -2.721500   -2.111200
  H     -1.617300   -5.065100   -1.562000
  H     -0.538400   -6.719500   -0.090600
  H      0.712100   -5.983000    1.911600
  H      0.894800   -3.614500    2.466100
  H      0.364500    0.058400    2.447000
  H      1.606300   -1.207300    2.156500
  H      0.145100   -1.542200    3.181400
  H     -4.132300    0.204100    0.010800
  H     -5.902000    0.971200   -1.502900
  H     -4.297000    4.981300   -1.322000
  H     -2.534600    4.200000    0.188400
  H      1.475000    2.433000    1.896800
  H      4.036500    2.222600    3.130100
  H      6.899000    0.098600    0.675000
  H      5.181700   -0.191700   -1.095000

 Total Charge           Charge          ....   -1
 Multiplicity           Mult            ....    1
 Number of Electrons    NEL             ....  278
 Basis Dimension        Dim             ....  572

ORBITAL ENERGIES
----------------

  NO   OCC          E(Eh)            E(eV)
   0   2.0000    -101.464692     -2760.9946
   1   2.0000     -89.004903     -2421.9465
   2   2.0000     -19.039289      -518.0854
   3   2.0000     -19.036939      -518.0215
   4   2.0000     -18.904564      -514.4193
   5   2.0000     -18.883862      -513.8560
   6   2.0000     -14.323663      -389.7667
   7   2.0000     -14.288776      -388.8174
   8   2.0000     -14.269142      -388.2831
   9   2.0000     -10.192220      -277.3444
  10   2.0000     -10.182992      -277.0933
  11   2.0000     -10.176344      -276.9124
  12   2.0000     -10.166926      -276.6561
  13   2.0000     -10.163668      -276.5675
  14   2.0000     -10.154060      -276.3060
  15   2.0000     -10.148740      -276.1613
  16   2.0000     -10.147150      -276.1180
  17   2.0000     -10.146038      -276.0877
  18   2.0000     -10.142955      -276.0038
  19   2.0000     -10.142626      -275.9949
  20   2.0000     -10.142160      -275.9822
  21   2.0000     -10.141591      -275.9667
  22   2.0000     -10.139821      -275.9186
  23   2.0000     -10.132483      -275.7189
  24   2.0000     -10.129817      -275.6463
  25   2.0000     -10.129695      -275.6430
  26   2.0000     -10.125467      -275.5280
  27   2.0000     -10.114202      -275.2214
  28   2.0000     -10.111601      -275.1507
  29   2.0000     -10.109590      -275.0959
  30   2.0000     -10.093989      -274.6714
  31   2.0000     -10.091305      -274.5984
  32   2.0000     -10.091031      -274.5909
  33   2.0000     -10.090050      -274.5642
  34   2.0000     -10.072309      -274.0815
  35   2.0000     -10.071407      -274.0569
  36   2.0000     -10.070147      -274.0226
  37   2.0000      -9.396629      -255.6953
  38   2.0000      -8.040803      -218.8014
  39   2.0000      -7.159471      -194.8191
  40   2.0000      -7.150287      -194.5692
  41   2.0000      -7.150103      -194.5642
  42   2.0000      -6.006150      -163.4356
  43   2.0000      -6.004157      -163.3814
  44   2.0000      -6.002690      -163.3415
  45   2.0000      -0.995072       -27.0773
  46   2.0000      -0.947311       -25.7776
  47   2.0000      -0.893952       -24.3257
  48   2.0000      -0.874509       -23.7966
  49   2.0000      -0.844337       -22.9756
  50   2.0000      -0.819227       -22.2923
  51   2.0000      -0.813740       -22.1430
  52   2.0000      -0.806111       -21.9354
  53   2.0000      -0.779348       -21.2071
  54   2.0000      -0.754884       -20.5414
  55   2.0000      -0.749298       -20.3894
  56   2.0000      -0.744088       -20.2477
  57   2.0000      -0.718851       -19.5609
  58   2.0000      -0.704924       -19.1819
  59   2.0000      -0.695197       -18.9173
  60   2.0000      -0.692576       -18.8460
  61   2.0000      -0.680326       -18.5126
  62   2.0000      -0.661683       -18.0053
  63   2.0000      -0.658014       -17.9055
  64   2.0000      -0.640796       -17.4369
  65   2.0000      -0.633893       -17.2491
  66   2.0000      -0.622433       -16.9373
  67   2.0000      -0.589574       -16.0431
  68   2.0000      -0.588737       -16.0204
  69   2.0000      -0.585418       -15.9300
  70   2.0000      -0.555994       -15.1294
  71   2.0000      -0.541119       -14.7246
  72   2.0000      -0.534613       -14.5475
  73   2.0000      -0.527460       -14.3529
  74   2.0000      -0.509451       -13.8629
  75   2.0000      -0.502753       -13.6806
  76   2.0000      -0.499213       -13.5843
  77   2.0000      -0.474642       -12.9157
  78   2.0000      -0.467975       -12.7342
  79   2.0000      -0.458015       -12.4632
  80   2.0000      -0.445328       -12.1180
  81   2.0000      -0.438496       -11.9321
  82   2.0000      -0.430815       -11.7231
  83   2.0000      -0.419361       -11.4114
  84   2.0000      -0.418003       -11.3744
  85   2.0000      -0.408799       -11.1240
  86   2.0000      -0.404642       -11.0109
  87   2.0000      -0.401259       -10.9188
  88   2.0000      -0.390744       -10.6327
  89   2.0000      -0.388196       -10.5633
  90   2.0000      -0.385516       -10.4904
  91   2.0000      -0.383144       -10.4259
  92   2.0000      -0.372974       -10.1492
  93   2.0000      -0.370790       -10.0897
  94   2.0000      -0.366020        -9.9599
  95   2.0000      -0.357542        -9.7292
  96   2.0000      -0.353580        -9.6214
  97   2.0000      -0.343542        -9.3483
  98   2.0000      -0.342963        -9.3325
  99   2.0000      -0.337558        -9.1854
 100   2.0000      -0.334944        -9.1143
 101   2.0000      -0.333042        -9.0625
 102   2.0000      -0.331848        -9.0300
 103   2.0000      -0.328798        -8.9470
 104   2.0000      -0.324975        -8.8430
 105   2.0000      -0.318740        -8.6733
 106   2.0000      -0.314976        -8.5709
 107   2.0000      -0.311747        -8.4831
 108   2.0000      -0.306815        -8.3489
 109   2.0000      -0.304223        -8.2783
 110   2.0000      -0.301899        -8.2151
 111   2.0000      -0.292862        -7.9692
 112   2.0000      -0.292197        -7.9511
 113   2.0000      -0.291076        -7.9206
 114   2.0000      -0.289685        -7.8827
 115   2.0000      -0.271399        -7.3851
 116   2.0000      -0.248134        -6.7521
 117   2.0000      -0.246562        -6.7093
 118   2.0000      -0.242467        -6.5979
 119   2.0000      -0.241798        -6.5797
 120   2.0000      -0.232175        -6.3178
 121   2.0000      -0.228159        -6.2085
 122   2.0000      -0.219985        -5.9861
 123   2.0000      -0.216085        -5.8800
 124   2.0000      -0.213220        -5.8020
 125   2.0000      -0.205659        -5.5963
 126   2.0000      -0.197421        -5.3721
 127   2.0000      -0.190461        -5.1827
 128   2.0000      -0.187555        -5.1036
 129   2.0000      -0.183697        -4.9987
 130   2.0000      -0.180379        -4.9084
 131   2.0000      -0.163166        -4.4400
 132   2.0000      -0.159578        -4.3423
 133   2.0000      -0.146699        -3.9919
 134   2.0000      -0.137483        -3.7411
 135   2.0000      -0.126759        -3.4493
 136   2.0000      -0.058813        -1.6004
 137   2.0000      -0.037190        -1.0120
 138   2.0000      -0.020544        -0.5590
 139   0.0000      -0.002483        -0.0676
 140   0.0000       0.027490         0.7480
 141   0.0000       0.039169         1.0659
 142   0.0000       0.068675         1.8688
 143   0.0000       0.077711         2.1146

MULLIKEN ATOMIC CHARGES
-----------------------
   0 C :   -0.447030
   1 C :   -0.169062
   2 N :   -0.466928
   3 C :    0.276178
   4 C :   -0.238652
   5 N :   -0.600038
   6 C :    0.287400
   7 N :   -0.373073
   8 C :   -0.072275
   9 C :    0.148859
  10 C :   -0.202540
  11 C :   -0.128585
  12 C :   -0.122943
  13 C :   -0.195919
  14 C :    0.103490
  15 C :    0.136857
  16 C :   -0.537491
  17 S :    1.214580
  18 O :   -0.569526
  19 O :   -0.575345
  20 C :   -0.138584
  21 C :   -0.137946
  22 C :   -0.159588
  23 C :    0.104821
  24 C :    0.410507
  25 O :   -0.553275
  26 O :   -0.659136
  27 C :   -0.150872
  28 C :   -0.164196
  29 C :   -0.268636
  30 C :    0.149319
  31 C :   -0.207766
  32 C :   -0.086579
  33 Cl:   -0.057496
  34 C :   -0.156175
  35 C :   -0.178388
  36 C :    0.280643
  37 H :    0.155902
  38 H :    0.180990
  39 H :    0.140375
  40 H :    0.156048
  41 H :    0.172345
  42 H :    0.167337
  43 H :    0.198926
  44 H :    0.150154
  45 H :    0.132777
  46 H :    0.123569
  47 H :    0.126278
  48 H :    0.139757
  49 H :    0.212149
  50 H :    0.154750
  51 H :    0.157165
  52 H :    0.140879
  53 H :    0.144658
  54 H :    0.150654
  55 H :    0.140652
  56 H :    0.168443
  57 H :    0.142926
  58 H :    0.127659
  59 H :    0.121000
Sum of atomic charges:   -1.0000000

LOEWDIN ATOMIC CHARGES
----------------------
   0 C :   -0.369339
   1 C :   -0.151145
   2 N :    0.019093
   3 C :    0.004223
   4 C :   -0.153231
   5 N :   -0.288266
   6 C :    0.027608
   7 N :   -0.125760
   8 C :   -0.068614
   9 C :   -0.030812
  10 C :   -0.114749
  11 C :   -0.133162
  12 C :   -0.125083
  13 C :   -0.120082
  14 C :   -0.008770
  15 C :    0.003717
  16 C :   -0.358971
  17 S :    1.263389
  18 O :   -0.585969
  19 O :   -0.593412
  20 C :   -0.215541
  21 C :   -0.116246
  22 C :   -0.112958
  23 C :   -0.003548
  24 C :    0.071668
  25 O :   -0.378764
  26 O :   -0.507498
  27 C :   -0.109933
  28 C :   -0.131846
  29 C :   -0.185619
  30 C :   -0.038016
  31 C :   -0.136776
  32 C :   -0.107119
  33 Cl:    0.007650
  34 C :   -0.159095
  35 C :   -0.154453
  36 C :    0.003037
  37 H :    0.129711
  38 H :    0.141336
  39 H :    0.125898
  40 H :    0.129160
  41 H :    0.137935
  42 H :    0.132303
  43 H :    0.160036
  44 H :    0.135913
  45 H :    0.134117
  46 H :    0.129614
  47 H :    0.131205
  48 H :    0.139657
  49 H :    0.158338
  50 H :    0.134325
  51 H :    0.135398
  52 H :    0.138504
  53 H :    0.145800
  54 H :    0.149596
  55 H :    0.137409
  56 H :    0.152559
  57 H :    0.142221
  58 H :    0.134267
  59 H :    0.129093

  Mayer bond orders larger than 0.100000
B(  0-C ,  1-C ) :   1.0031 B(  0-C , 37-H ) :   0.9461 B(  0-C , 38-H ) :   0.9293
B(  0-C , 39-H ) :   0.9444 B(  1-C ,  2-N ) :   0.9468 B(  1-C , 40-H ) :   0.9304
B(  1-C , 41-H ) :   0.9278 B(  2-N ,  3-C ) :   1.1197 B(  2-N , 36-C ) :   1.0406
B(  3-C ,  4-C ) :   0.9606 B(  3-C , 29-C ) :   1.5150 B(  4-C ,  5-N ) :   0.9444
B(  4-C , 42-H ) :   0.9123 B(  4-C , 43-H ) :   0.9098 B(  5-N ,  6-C ) :   0.9153
B(  5-N , 17-S ) :   0.7706 B(  6-C ,  7-N ) :   1.2767 B(  6-C , 15-C ) :   1.4264
B(  7-N ,  8-C ) :   1.4935 B(  8-C ,  9-C ) :   1.2333 B(  8-C , 15-C ) :   0.1043
B(  8-C , 44-H ) :   0.9272 B(  9-C , 10-C ) :   1.2836 B(  9-C , 14-C ) :   1.2882
B( 10-C , 11-C ) :   1.5136 B( 10-C , 13-C ) :   0.1068 B( 10-C , 45-H ) :   0.9239
B( 11-C , 12-C ) :   1.3513 B( 11-C , 46-H ) :   0.9313 B( 12-C , 13-C ) :   1.5096
B( 12-C , 47-H ) :   0.9310 B( 13-C , 14-C ) :   1.2957 B( 13-C , 48-H ) :   0.9152
B( 14-C , 15-C ) :   1.2582 B( 15-C , 16-C ) :   1.0107 B( 16-C , 49-H ) :   0.9141
B( 16-C , 50-H ) :   0.9247 B( 16-C , 51-H ) :   0.9265 B( 17-S , 18-O ) :   1.6257
B( 17-S , 19-O ) :   1.5932 B( 17-S , 20-C ) :   0.8469 B( 20-C , 21-C ) :   1.3653
B( 20-C , 28-C ) :   1.3654 B( 21-C , 22-C ) :   1.4198 B( 21-C , 52-H ) :   0.9193
B( 22-C , 23-C ) :   1.3848 B( 22-C , 53-H ) :   0.9080 B( 23-C , 24-C ) :   0.9274
B( 23-C , 27-C ) :   1.4054 B( 24-C , 25-O ) :   1.7063 B( 24-C , 26-O ) :   1.5501
B( 25-O , 26-O ) :   0.1480 B( 27-C , 28-C ) :   1.4004 B( 27-C , 54-H ) :   0.9016
B( 28-C , 55-H ) :   0.9209 B( 29-C , 30-C ) :   1.2794 B( 29-C , 56-H ) :   0.9139
B( 30-C , 31-C ) :   1.3235 B( 30-C , 36-C ) :   1.3076 B( 31-C , 32-C ) :   1.4353
B( 31-C , 57-H ) :   0.9220 B( 32-C , 33-Cl) :   0.9790 B( 32-C , 34-C ) :   1.3504
B( 34-C , 35-C ) :   1.4670 B( 34-C , 58-H ) :   0.9286 B( 35-C , 36-C ) :   1.3488
B( 35-C , 59-H ) :   0.9179

FINAL SINGLE POINT ENERGY     -2403.257939040484

DIPOLE MOMENT
-------------

Method             : SCF
Type of density    : Electron Density
Multiplicity       :   1
Irrep              :   0
Energy             : -2403.2579390404835067 Eh
Relativity type    :
Basis              : AO
                                X                 Y                 Z
Electronic contribution:      4.745817917      15.342984351      13.714979071
Nuclear contribution   :      4.761033611     -22.119968294     -11.930270637
                        -----------------------------------------
Total Dipole Moment    :      9.506851528      -6.776983942       1.784708433
                        -----------------------------------------
Magnitude (a.u.)       :     11.810712151
Magnitude (Debye)      :     30.020444524

Rotational constants in cm-1:             0.004277             0.001845             0.001490
Rotational constants in MHz :           128.211156            55.299980            44.676798

                             ****ORCA TERMINATED NORMALLY****
TOTAL RUN TIME: 0 days 0 hours 11 minutes 49 seconds 339 msec
