                         Program Version 6.0.0  -   RELEASE  -
|  1> ! B3LYP 6-31G* SP
|  2>
|  3> * xyz 0 1
|  4> C -3.3389 -3.2358 0.3988
|  5> N -3.5132 -1.8178 0.1034
|  6> N -4.1878 -0.9916 0.8961
|  7> C -4.0932 0.2317 0.3412
|  8> C -3.3542 0.1902 -0.7986
|  9> C -2.9879 -1.1360 -0.9480
| 10> C -2.0875 -1.7174 -2.0033
| 11> C -0.6557 -1.6140 -1.5733
| 12> O -0.0674 -0.5018 -1.6574
| 13> N 0.0246 -2.7644 -1.0473
| 14> C 1.3442 -2.7230 -0.4896
| 15> N 2.0835 -1.5994 -0.3736
| 16> C 3.2961 -1.8383 0.2006
| 17> C 4.2742 -0.7412 0.4229
| 18> C 4.0844 0.5027 -0.2069
| 19> C 4.9857 1.5511 -0.0030
| 20> C 6.0872 1.3880 0.8527
| 21> C 7.0860 2.5017 1.0423
| 22> F 7.6132 2.4659 2.3224
| 23> F 8.1119 2.3536 0.1271
| 24> F 6.4895 3.7377 0.8542
| 25> C 6.2934 0.1410 1.4643
| 26> C 5.3932 -0.9090 1.2607
| 27> C 3.5176 -3.1781 0.5404
| 28> S 2.1535 -4.0642 0.1097
| 29> C -3.1088 1.3537 -1.5151
| 30> O -2.3947 1.3258 -2.5544
| 31> N -3.6621 2.5297 -1.0615
| 32> C -3.4126 3.7857 -1.7891
| 33> C -4.3959 2.5485 0.1136
| 34> O -4.8762 3.6387 0.5354
| 35> N -4.6073 1.3914 0.8327
| 36> C -5.4157 1.3967 2.0594
| 37> H -3.9671 -3.5253 1.2679
| 38> H -3.6458 -3.8472 -0.4752
| 39> H -2.2762 -3.4391 0.6459
| 40> H -2.3567 -2.7768 -2.1930
| 41> H -2.2282 -1.1811 -2.9646
| 42> H -0.4671 -3.6857 -1.0592
| 43> H 3.2424 0.6651 -0.8684
| 44> H 4.8206 2.4895 -0.5176
| 45> H 7.1518 -0.0217 2.1043
| 46> H 5.5756 -1.8429 1.7733
| 47> H 4.4077 -3.5990 0.9854
| 48> H -3.2555 3.6024 -2.8734
| 49> H -2.5142 4.2861 -1.3703
| 50> H -4.2826 4.4722 -1.7121
| 51> H -6.4938 1.3860 1.7940
| 52> H -5.1971 2.3006 2.6674
| 53> H -5.1930 0.5151 2.6976
| 54> *
| 55>
| 56>                          ****END OF INPUT****

CARTESIAN COORDINATES (ANGSTROEM)
---------------------------------
  C     -3.338900   -3.235800    0.398800
  N     -3.513200   -1.817800    0.103400
  N     -4.187800   -0.991600    0.896100
  C     -4.093200    0.231700    0.341200
  C     -3.354200    0.190200   -0.798600
  C     -2.987900   -1.136000   -0.948000
  C     -2.087500   -1.717400   -2.003300
  C     -0.655700   -1.614000   -1.573300
  O     -0.067400   -0.501800   -1.657400
  N      0.024600   -2.764400   -1.047300
  C      1.344200   -2.723000   -0.489600
  N      2.083500   -1.599400   -0.373600
  C      3.296100   -1.838300    0.200600
  C      4.274200   -0.741200    0.422900
  C      4.084400    0.502700   -0.206900
  C      4.985700    1.551100   -0.003000
  C      6.087200    1.388000    0.852700
  C      7.086000    2.501700    1.042300
  F      7.613200    2.465900    2.322400
  F      8.111900    2.353600    0.127100
  F      6.489500    3.737700    0.854200
  C      6.293400    0.141000    1.464300
  C      5.393200   -0.909000    1.260700
  C      3.517600   -3.178100    0.540400
  S      2.153500   -4.064200    0.109700
  C     -3.108800    1.353700   -1.515100
  O     -2.394700    1.325800   -2.554400
  N     -3.662100    2.529700   -1.061500
  C     -3.412600    3.785700   -1.789100
  C     -4.395900    2.548500    0.113600
  O     -4.876200    3.638700    0.535400
  N     -4.607300    1.391400    0.832700
  C     -5.415700    1.396700    2.059400
  H     -3.967100   -3.525300    1.267900
  H     -3.645800   -3.847200   -0.475200
  H     -2.276200   -3.439100    0.645900
  H     -2.356700   -2.776800   -2.193000
  H     -2.228200   -1.181100   -2.964600
  H     -0.467100   -3.685700   -1.059200
  H      3.242400    0.665100   -0.868400
  H      4.820600    2.489500   -0.517600
  H      7.151800   -0.021700    2.104300
  H      5.575600   -1.842900    1.773300
  H      4.407700   -3.599000    0.985400
  H     -3.255500    3.602400   -2.873400
  H     -2.514200    4.286100   -1.370300
  H     -4.282600    4.472200   -1.712100
  H     -6.493800    1.386000    1.794000
  H     -5.197100    2.300600    2.667400
  H     -5.193000    0.515100    2.697600

 Total Charge           Charge          ....    0
 Multiplicity           Mult            ....    1
 Number of Electrons    NEL             ....  246
 Basis Dimension        Dim             ....  500

ORBITAL ENERGIES
----------------

  NO   OCC          E(Eh)            E(eV)
   0   2.0000     -88.916579     -2419.5431
   1   2.0000     -24.711617      -672.4373
   2   2.0000     -24.711574      -672.4361
   3   2.0000     -24.707998      -672.3388
   4   2.0000     -19.123712      -520.3827
   5   2.0000     -19.103637      -519.8364
   6   2.0000     -19.101167      -519.7692
   7   2.0000     -14.438149      -392.8820
   8   2.0000     -14.407094      -392.0370
   9   2.0000     -14.391484      -391.6122
  10   2.0000     -14.386807      -391.4849
  11   2.0000     -14.353432      -390.5768
  12   2.0000     -14.333073      -390.0227
  13   2.0000     -10.426451      -283.7182
  14   2.0000     -10.319370      -280.8043
  15   2.0000     -10.312049      -280.6051
  16   2.0000     -10.298820      -280.2451
  17   2.0000     -10.284019      -279.8424
  18   2.0000     -10.257315      -279.1157
  19   2.0000     -10.252340      -278.9804
  20   2.0000     -10.249171      -278.8941
  21   2.0000     -10.232817      -278.4491
  22   2.0000     -10.223994      -278.2090
  23   2.0000     -10.220839      -278.1232
  24   2.0000     -10.217416      -278.0300
  25   2.0000     -10.210577      -277.8439
  26   2.0000     -10.206910      -277.7441
  27   2.0000     -10.205403      -277.7031
  28   2.0000     -10.196791      -277.4688
  29   2.0000     -10.194974      -277.4193
  30   2.0000     -10.193045      -277.3669
  31   2.0000     -10.186134      -277.1788
  32   2.0000     -10.185247      -277.1547
  33   2.0000      -7.994256      -217.5348
  34   2.0000      -5.957324      -162.1070
  35   2.0000      -5.953232      -161.9957
  36   2.0000      -5.951096      -161.9375
  37   2.0000      -1.270961       -34.5846
  38   2.0000      -1.196708       -32.5641
  39   2.0000      -1.195513       -32.5316
  40   2.0000      -1.084133       -29.5008
  41   2.0000      -1.054127       -28.6842
  42   2.0000      -1.028749       -27.9937
  43   2.0000      -1.009642       -27.4738
  44   2.0000      -0.982660       -26.7395
  45   2.0000      -0.963302       -26.2128
  46   2.0000      -0.929182       -25.2843
  47   2.0000      -0.925957       -25.1966
  48   2.0000      -0.865646       -23.5554
  49   2.0000      -0.859921       -23.3996
  50   2.0000      -0.837466       -22.7886
  51   2.0000      -0.821506       -22.3543
  52   2.0000      -0.793749       -21.5990
  53   2.0000      -0.775734       -21.1088
  54   2.0000      -0.752049       -20.4643
  55   2.0000      -0.748245       -20.3608
  56   2.0000      -0.731646       -19.9091
  57   2.0000      -0.724774       -19.7221
  58   2.0000      -0.707560       -19.2537
  59   2.0000      -0.686384       -18.6775
  60   2.0000      -0.650220       -17.6934
  61   2.0000      -0.644385       -17.5346
  62   2.0000      -0.635211       -17.2850
  63   2.0000      -0.629730       -17.1358
  64   2.0000      -0.608925       -16.5697
  65   2.0000      -0.601003       -16.3541
  66   2.0000      -0.598394       -16.2831
  67   2.0000      -0.562099       -15.2955
  68   2.0000      -0.561259       -15.2726
  69   2.0000      -0.557584       -15.1726
  70   2.0000      -0.555975       -15.1289
  71   2.0000      -0.553063       -15.0496
  72   2.0000      -0.540021       -14.6947
  73   2.0000      -0.529452       -14.4071
  74   2.0000      -0.517976       -14.0948
  75   2.0000      -0.502142       -13.6640
  76   2.0000      -0.499023       -13.5791
  77   2.0000      -0.494693       -13.4613
  78   2.0000      -0.486957       -13.2508
  79   2.0000      -0.485895       -13.2219
  80   2.0000      -0.463052       -12.6003
  81   2.0000      -0.460487       -12.5305
  82   2.0000      -0.455202       -12.3867
  83   2.0000      -0.452960       -12.3257
  84   2.0000      -0.449514       -12.2319
  85   2.0000      -0.443230       -12.0609
  86   2.0000      -0.440859       -11.9964
  87   2.0000      -0.439544       -11.9606
  88   2.0000      -0.437111       -11.8944
  89   2.0000      -0.435323       -11.8457
  90   2.0000      -0.427551       -11.6343
  91   2.0000      -0.426110       -11.5950
  92   2.0000      -0.419361       -11.4114
  93   2.0000      -0.413568       -11.2538
  94   2.0000      -0.412925       -11.2363
  95   2.0000      -0.408351       -11.1118
  96   2.0000      -0.403716       -10.9857
  97   2.0000      -0.401913       -10.9366
  98   2.0000      -0.396943       -10.8014
  99   2.0000      -0.391121       -10.6429
 100   2.0000      -0.390106       -10.6153
 101   2.0000      -0.386791       -10.5251
 102   2.0000      -0.385403       -10.4874
 103   2.0000      -0.375295       -10.2123
 104   2.0000      -0.372043       -10.1238
 105   2.0000      -0.369624       -10.0580
 106   2.0000      -0.366064        -9.9611
 107   2.0000      -0.350714        -9.5434
 108   2.0000      -0.348147        -9.4736
 109   2.0000      -0.322168        -8.7666
 110   2.0000      -0.316382        -8.6092
 111   2.0000      -0.302653        -8.2356
 112   2.0000      -0.300157        -8.1677
 113   2.0000      -0.288393        -7.8476
 114   2.0000      -0.264995        -7.2109
 115   2.0000      -0.262360        -7.1392
 116   2.0000      -0.260989        -7.1019
 117   2.0000      -0.256371        -6.9762
 118   2.0000      -0.255723        -6.9586
 119   2.0000      -0.242601        -6.6015
 120   2.0000      -0.234603        -6.3839
 121   2.0000      -0.222535        -6.0555
 122   2.0000      -0.220065        -5.9883
 123   0.0000      -0.050081        -1.3628
 124   0.0000      -0.039773        -1.0823
 125   0.0000      -0.025624        -0.6973
 126   0.0000      -0.007189        -0.1956
 127   0.0000       0.003752         0.1021

MULLIKEN ATOMIC CHARGES
-----------------------
   0 C :   -0.336456
   1 N :   -0.250826
   2 N :   -0.348805
   3 C :    0.457860
   4 C :   -0.041891
   5 C :    0.307124
   6 C :   -0.431799
   7 C :    0.566468
   8 O :   -0.397773
   9 N :   -0.664144
  10 C :    0.253923
  11 N :   -0.369854
  12 C :    0.221426
  13 C :    0.123771
  14 C :   -0.174529
  15 C :   -0.163558
  16 C :   -0.010459
  17 C :    0.894143
  18 F :   -0.307090
  19 F :   -0.297819
  20 F :   -0.305907
  21 C :   -0.167573
  22 C :   -0.178918
  23 C :   -0.393992
  24 S :    0.247814
  25 C :    0.511657
  26 O :   -0.489823
  27 N :   -0.488218
  28 C :   -0.312857
  29 C :    0.677267
  30 O :   -0.509107
  31 N :   -0.494661
  32 C :   -0.321601
  33 H :    0.209052
  34 H :    0.177833
  35 H :    0.173876
  36 H :    0.137623
  37 H :    0.236843
  38 H :    0.337089
  39 H :    0.185495
  40 H :    0.155742
  41 H :    0.149191
  42 H :    0.128866
  43 H :    0.185948
  44 H :    0.193232
  45 H :    0.178880
  46 H :    0.190180
  47 H :    0.173830
  48 H :    0.194081
  49 H :    0.188448
Sum of atomic charges:   -0.0000000

LOEWDIN ATOMIC CHARGES
----------------------
   0 C :   -0.270347
   1 N :    0.069396
   2 N :   -0.175761
   3 C :    0.027913
   4 C :   -0.110228
   5 C :    0.034813
   6 C :   -0.246479
   7 C :    0.151516
   8 O :   -0.221074
   9 N :   -0.213171
  10 C :   -0.084348
  11 N :   -0.146578
  12 C :   -0.000501
  13 C :   -0.008246
  14 C :   -0.107974
  15 C :   -0.110964
  16 C :   -0.070816
  17 C :    0.310377
  18 F :   -0.115822
  19 F :   -0.115210
  20 F :   -0.114037
  21 C :   -0.113978
  22 C :   -0.124314
  23 C :   -0.343753
  24 S :    0.386307
  25 C :    0.116740
  26 O :   -0.286535
  27 N :   -0.032203
  28 C :   -0.259469
  29 C :    0.145525
  30 O :   -0.315496
  31 N :   -0.027879
  32 C :   -0.258463
  33 H :    0.162270
  34 H :    0.139239
  35 H :    0.135394
  36 H :    0.125678
  37 H :    0.187444
  38 H :    0.260202
  39 H :    0.159811
  40 H :    0.145294
  41 H :    0.142128
  42 H :    0.132634
  43 H :    0.162133
  44 H :    0.151839
  45 H :    0.140659
  46 H :    0.149777
  47 H :    0.136651
  48 H :    0.151468
  49 H :    0.148440

  Mayer bond orders larger than 0.100000
B(  0-C ,  1-N ) :   0.9338 B(  0-C , 33-H ) :   0.9315 B(  0-C , 34-H ) :   0.9320
B(  0-C , 35-H ) :   0.9262 B(  1-N ,  2-N ) :   1.1835 B(  1-N ,  4-C ) :   0.1093
B(  1-N ,  5-C ) :   1.1187 B(  2-N ,  3-C ) :   1.3859 B(  3-C ,  4-C ) :   1.2961
B(  3-C , 31-N ) :   0.9587 B(  4-C ,  5-C ) :   1.3925 B(  4-C , 25-C ) :   1.0649
B(  5-C ,  6-C ) :   0.9989 B(  6-C ,  7-C ) :   0.9402 B(  6-C , 36-H ) :   0.9150
B(  6-C , 37-H ) :   0.8850 B(  7-C ,  8-O ) :   1.9204 B(  7-C ,  9-N ) :   0.9704
B(  9-N , 10-C ) :   0.9415 B(  9-N , 38-H ) :   0.8207 B( 10-C , 11-N ) :   1.5162
B( 10-C , 23-C ) :   0.1097 B( 10-C , 24-S ) :   1.1378 B( 11-N , 12-C ) :   1.2641
B( 12-C , 13-C ) :   1.0510 B( 12-C , 23-C ) :   1.5107 B( 13-C , 14-C ) :   1.4000
B( 13-C , 22-C ) :   1.3992 B( 14-C , 15-C ) :   1.4108 B( 14-C , 39-H ) :   0.9063
B( 15-C , 16-C ) :   1.4062 B( 15-C , 40-H ) :   0.9204 B( 16-C , 17-C ) :   0.9805
B( 16-C , 21-C ) :   1.4036 B( 17-C , 18-F ) :   0.9472 B( 17-C , 19-F ) :   0.9847
B( 17-C , 20-F ) :   0.9469 B( 21-C , 22-C ) :   1.4359 B( 21-C , 41-H ) :   0.9205
B( 22-C , 42-H ) :   0.9209 B( 23-C , 24-S ) :   1.1167 B( 23-C , 43-H ) :   0.9007
B( 25-C , 26-O ) :   1.7856 B( 25-C , 27-N ) :   0.9771 B( 27-N , 28-C ) :   0.9201
B( 27-N , 29-C ) :   1.0270 B( 28-C , 44-H ) :   0.9240 B( 28-C , 45-H ) :   0.9407
B( 28-C , 46-H ) :   0.9279 B( 29-C , 30-O ) :   1.7920 B( 29-C , 31-N ) :   1.0601
B( 31-N , 32-C ) :   0.9346 B( 32-C , 47-H ) :   0.9397 B( 32-C , 48-H ) :   0.9293
B( 32-C , 49-H ) :   0.9260

FINAL SINGLE POINT ENERGY     -2023.310776697437

DIPOLE MOMENT
-------------

Method             : SCF
Type of density    : Electron Density
Multiplicity       :   1
Irrep              :   0
Energy             : -2023.3107766974369497 Eh
Relativity type    :
Basis              : AO
                                X                 Y                 Z
Electronic contribution:     44.297626361       8.988465674       3.314797059
Nuclear contribution   :    -45.455717489     -12.695073079      -2.956825255
                        -----------------------------------------
Total Dipole Moment    :     -1.158091128      -3.706607406       0.357971804
                        -----------------------------------------
Magnitude (a.u.)       :      3.899776575
Magnitude (Debye)      :      9.912444298

Rotational constants in cm-1:             0.005294             0.001707             0.001413
Rotational constants in MHz :           158.696414            51.180272            42.346841

                             ****ORCA TERMINATED NORMALLY****
TOTAL RUN TIME: 0 days 0 hours 8 minutes 4 seconds 325 msec
