                         Program Version 6.0.0  -   RELEASE  -
|  1> ! B3LYP 6-31G* SP
|  2>
|  3> * xyz 0 1
|  4> C 1.6323 2.5405 2.1731
|  5> C 0.6725 2.8909 1.0696
|  6> C 0.2126 4.2114 0.9557
|  7> C -0.6706 4.5641 -0.0708
|  8> C -1.1383 5.8799 -0.2118
|  9> C -2.0167 6.2018 -1.2520
| 10> C -2.4303 5.2157 -2.1533
| 11> C -1.9699 3.9018 -2.0183
| 12> C -1.0920 3.5715 -0.9799
| 13> N -0.6522 2.2942 -0.8397
| 14> C 0.1966 1.9236 0.1573
| 15> N 0.5906 0.5490 0.2553
| 16> C 0.0385 -0.2893 1.3227
| 17> C -1.2811 -0.8729 0.8970
| 18> C -2.4493 -0.0995 0.9657
| 19> C -3.6676 -0.6202 0.5202
| 20> C -3.7386 -1.9144 -0.0089
| 21> O -4.9865 -2.3835 -0.4503
| 22> C -5.2231 -3.6543 -1.0504
| 23> F -4.4722 -3.7837 -2.2042
| 24> F -6.5614 -3.7553 -1.3767
| 25> F -4.9033 -4.6649 -0.1631
| 26> C -2.5648 -2.6896 -0.0819
| 27> C -1.3472 -2.1702 0.3677
| 28> S 1.3329 -0.1968 -1.1262
| 29> O 2.1014 0.8325 -1.9074
| 30> O 0.2659 -0.7792 -2.0103
| 31> C 2.4571 -1.4457 -0.6011
| 32> C 3.5322 -1.1018 0.2275
| 33> C 4.4371 -2.0789 0.6508
| 34> C 4.2781 -3.4181 0.2491
| 35> C 5.2407 -4.4549 0.6827
| 36> O 6.2135 -4.1531 1.4278
| 37> O 5.0839 -5.7748 0.2657
| 38> C 3.1921 -3.7584 -0.5779
| 39> C 2.2888 -2.7784 -1.0000
| 40> H 2.2347 1.6409 1.9171
| 41> H 1.0634 2.3452 3.1086
| 42> H 2.3419 3.3792 2.3489
| 43> H 0.5498 4.9626 1.6611
| 44> H -0.8257 6.6551 0.4773
| 45> H -2.3773 7.2168 -1.3600
| 46> H -3.1100 5.4695 -2.9564
| 47> H -2.2972 3.1436 -2.7189
| 48> H -0.1071 0.3074 2.2480
| 49> H 0.7590 -1.0941 1.5810
| 50> H -2.4158 0.9093 1.3582
| 51> H -4.5608 -0.0114 0.5791
| 52> H -2.5781 -3.6915 -0.4874
| 53> H -0.4539 -2.7770 0.2929
| 54> H 3.6709 -0.0753 0.5441
| 55> H 5.2623 -1.7850 1.2886
| 56> H 5.7382 -6.4922 0.5555
| 57> H 3.0419 -4.7804 -0.9028
| 58> H 1.4622 -3.0619 -1.6384
| 59> *
| 60>
| 61>                          ****END OF INPUT****

CARTESIAN COORDINATES (ANGSTROEM)
---------------------------------
  C      1.632300    2.540500    2.173100
  C      0.672500    2.890900    1.069600
  C      0.212600    4.211400    0.955700
  C     -0.670600    4.564100   -0.070800
  C     -1.138300    5.879900   -0.211800
  C     -2.016700    6.201800   -1.252000
  C     -2.430300    5.215700   -2.153300
  C     -1.969900    3.901800   -2.018300
  C     -1.092000    3.571500   -0.979900
  N     -0.652200    2.294200   -0.839700
  C      0.196600    1.923600    0.157300
  N      0.590600    0.549000    0.255300
  C      0.038500   -0.289300    1.322700
  C     -1.281100   -0.872900    0.897000
  C     -2.449300   -0.099500    0.965700
  C     -3.667600   -0.620200    0.520200
  C     -3.738600   -1.914400   -0.008900
  O     -4.986500   -2.383500   -0.450300
  C     -5.223100   -3.654300   -1.050400
  F     -4.472200   -3.783700   -2.204200
  F     -6.561400   -3.755300   -1.376700
  F     -4.903300   -4.664900   -0.163100
  C     -2.564800   -2.689600   -0.081900
  C     -1.347200   -2.170200    0.367700
  S      1.332900   -0.196800   -1.126200
  O      2.101400    0.832500   -1.907400
  O      0.265900   -0.779200   -2.010300
  C      2.457100   -1.445700   -0.601100
  C      3.532200   -1.101800    0.227500
  C      4.437100   -2.078900    0.650800
  C      4.278100   -3.418100    0.249100
  C      5.240700   -4.454900    0.682700
  O      6.213500   -4.153100    1.427800
  O      5.083900   -5.774800    0.265700
  C      3.192100   -3.758400   -0.577900
  C      2.288800   -2.778400   -1.000000
  H      2.234700    1.640900    1.917100
  H      1.063400    2.345200    3.108600
  H      2.341900    3.379200    2.348900
  H      0.549800    4.962600    1.661100
  H     -0.825700    6.655100    0.477300
  H     -2.377300    7.216800   -1.360000
  H     -3.110000    5.469500   -2.956400
  H     -2.297200    3.143600   -2.718900
  H     -0.107100    0.307400    2.248000
  H      0.759000   -1.094100    1.581000
  H     -2.415800    0.909300    1.358200
  H     -4.560800   -0.011400    0.579100
  H     -2.578100   -3.691500   -0.487400
  H     -0.453900   -2.777000    0.292900
  H      3.670900   -0.075300    0.544100
  H      5.262300   -1.785000    1.288600
  H      5.738200   -6.492200    0.555500
  H      3.041900   -4.780400   -0.902800
  H      1.462200   -3.061900   -1.638400

 Total Charge           Charge          ....    0
 Multiplicity           Mult            ....    1
 Number of Electrons    NEL             ....  266
 Basis Dimension        Dim             ....  546

ORBITAL ENERGIES
----------------

  NO   OCC          E(Eh)            E(eV)
   0   2.0000     -89.095927     -2424.4234
   1   2.0000     -24.736019      -673.1013
   2   2.0000     -24.734167      -673.0509
   3   2.0000     -24.732446      -673.0041
   4   2.0000     -19.206283      -522.6295
   5   2.0000     -19.201072      -522.4877
   6   2.0000     -19.143389      -520.9181
   7   2.0000     -19.120866      -520.3052
   8   2.0000     -19.116006      -520.1730
   9   2.0000     -14.373727      -391.1290
  10   2.0000     -14.324994      -389.8029
  11   2.0000     -10.498177      -285.6699
  12   2.0000     -10.340781      -281.3870
  13   2.0000     -10.265703      -279.3440
  14   2.0000     -10.261829      -279.2386
  15   2.0000     -10.249243      -278.8961
  16   2.0000     -10.240197      -278.6499
  17   2.0000     -10.238792      -278.6117
  18   2.0000     -10.228263      -278.3252
  19   2.0000     -10.225890      -278.2606
  20   2.0000     -10.224487      -278.2224
  21   2.0000     -10.223824      -278.2044
  22   2.0000     -10.217609      -278.0353
  23   2.0000     -10.209001      -277.8011
  24   2.0000     -10.201176      -277.5881
  25   2.0000     -10.195144      -277.4240
  26   2.0000     -10.192485      -277.3516
  27   2.0000     -10.191618      -277.3280
  28   2.0000     -10.190708      -277.3033
  29   2.0000     -10.190547      -277.2989
  30   2.0000     -10.190091      -277.2865
  31   2.0000     -10.189982      -277.2835
  32   2.0000     -10.189434      -277.2686
  33   2.0000     -10.189241      -277.2633
  34   2.0000     -10.188602      -277.2459
  35   2.0000     -10.182894      -277.0906
  36   2.0000      -8.131698      -221.2748
  37   2.0000      -6.096940      -165.9062
  38   2.0000      -6.094682      -165.8447
  39   2.0000      -6.094168      -165.8308
  40   2.0000      -1.299035       -35.3486
  41   2.0000      -1.219943       -33.1963
  42   2.0000      -1.218762       -33.1642
  43   2.0000      -1.085366       -29.5343
  44   2.0000      -1.078994       -29.3609
  45   2.0000      -1.076410       -29.2906
  46   2.0000      -0.999765       -27.2050
  47   2.0000      -0.963589       -26.2206
  48   2.0000      -0.955699       -26.0059
  49   2.0000      -0.917819       -24.9751
  50   2.0000      -0.896549       -24.3964
  51   2.0000      -0.858890       -23.3716
  52   2.0000      -0.844953       -22.9923
  53   2.0000      -0.820055       -22.3148
  54   2.0000      -0.812131       -22.0992
  55   2.0000      -0.783570       -21.3220
  56   2.0000      -0.782833       -21.3020
  57   2.0000      -0.765732       -20.8366
  58   2.0000      -0.752399       -20.4738
  59   2.0000      -0.744119       -20.2485
  60   2.0000      -0.726413       -19.7667
  61   2.0000      -0.711078       -19.3494
  62   2.0000      -0.695338       -18.9211
  63   2.0000      -0.678323       -18.4581
  64   2.0000      -0.665212       -18.1013
  65   2.0000      -0.646821       -17.6009
  66   2.0000      -0.629774       -17.1370
  67   2.0000      -0.626271       -17.0417
  68   2.0000      -0.618121       -16.8199
  69   2.0000      -0.610545       -16.6138
  70   2.0000      -0.604078       -16.4378
  71   2.0000      -0.595936       -16.2162
  72   2.0000      -0.590888       -16.0789
  73   2.0000      -0.586785       -15.9672
  74   2.0000      -0.569699       -15.5023
  75   2.0000      -0.560215       -15.2442
  76   2.0000      -0.543119       -14.7790
  77   2.0000      -0.534310       -14.5393
  78   2.0000      -0.518399       -14.1063
  79   2.0000      -0.499805       -13.6004
  80   2.0000      -0.498028       -13.5520
  81   2.0000      -0.491992       -13.3878
  82   2.0000      -0.489566       -13.3218
  83   2.0000      -0.480168       -13.0660
  84   2.0000      -0.471636       -12.8339
  85   2.0000      -0.469028       -12.7629
  86   2.0000      -0.464643       -12.6436
  87   2.0000      -0.464202       -12.6316
  88   2.0000      -0.461762       -12.5652
  89   2.0000      -0.456240       -12.4149
  90   2.0000      -0.455295       -12.3892
  91   2.0000      -0.451093       -12.2749
  92   2.0000      -0.447151       -12.1676
  93   2.0000      -0.443547       -12.0695
  94   2.0000      -0.439678       -11.9643
  95   2.0000      -0.439014       -11.9462
  96   2.0000      -0.436810       -11.8862
  97   2.0000      -0.430739       -11.7210
  98   2.0000      -0.424101       -11.5404
  99   2.0000      -0.423845       -11.5334
 100   2.0000      -0.420959       -11.4549
 101   2.0000      -0.416378       -11.3302
 102   2.0000      -0.411012       -11.1842
 103   2.0000      -0.408990       -11.1292
 104   2.0000      -0.403408       -10.9773
 105   2.0000      -0.401659       -10.9297
 106   2.0000      -0.400102       -10.8873
 107   2.0000      -0.397351       -10.8125
 108   2.0000      -0.393440       -10.7061
 109   2.0000      -0.389087       -10.5876
 110   2.0000      -0.384579       -10.4649
 111   2.0000      -0.373765       -10.1707
 112   2.0000      -0.371853       -10.1186
 113   2.0000      -0.359569        -9.7844
 114   2.0000      -0.352841        -9.6013
 115   2.0000      -0.345230        -9.3942
 116   2.0000      -0.343060        -9.3351
 117   2.0000      -0.337565        -9.1856
 118   2.0000      -0.325361        -8.8535
 119   2.0000      -0.315761        -8.5923
 120   2.0000      -0.307488        -8.3672
 121   2.0000      -0.301243        -8.1972
 122   2.0000      -0.298694        -8.1279
 123   2.0000      -0.286432        -7.7942
 124   2.0000      -0.283862        -7.7243
 125   2.0000      -0.279977        -7.6186
 126   2.0000      -0.271376        -7.3845
 127   2.0000      -0.258958        -7.0466
 128   2.0000      -0.251918        -6.8550
 129   2.0000      -0.247095        -6.7238
 130   2.0000      -0.242070        -6.5871
 131   2.0000      -0.229382        -6.2418
 132   2.0000      -0.222600        -6.0573
 133   0.0000      -0.090386        -2.4595
 134   0.0000      -0.061124        -1.6633
 135   0.0000      -0.038229        -1.0403
 136   0.0000      -0.020831        -0.5668
 137   0.0000      -0.006975        -0.1898

MULLIKEN ATOMIC CHARGES
-----------------------
   0 C :   -0.537539
   1 C :    0.151352
   2 C :   -0.210226
   3 C :    0.177331
   4 C :   -0.208123
   5 C :   -0.127114
   6 C :   -0.132972
   7 C :   -0.142485
   8 C :    0.204558
   9 N :   -0.422042
  10 C :    0.338846
  11 N :   -0.611382
  12 C :   -0.288991
  13 C :    0.191421
  14 C :   -0.147334
  15 C :   -0.171315
  16 C :    0.354812
  17 O :   -0.546448
  18 C :    1.085481
  19 F :   -0.289352
  20 F :   -0.280262
  21 F :   -0.293052
  22 C :   -0.187424
  23 C :   -0.146131
  24 S :    1.217352
  25 O :   -0.530495
  26 O :   -0.529431
  27 C :   -0.144093
  28 C :   -0.145432
  29 C :   -0.139234
  30 C :    0.082722
  31 C :    0.530250
  32 O :   -0.443304
  33 O :   -0.622674
  34 C :   -0.146676
  35 C :   -0.145272
  36 H :    0.164427
  37 H :    0.161895
  38 H :    0.164067
  39 H :    0.136885
  40 H :    0.130801
  41 H :    0.133515
  42 H :    0.137344
  43 H :    0.157210
  44 H :    0.173471
  45 H :    0.164908
  46 H :    0.135988
  47 H :    0.146556
  48 H :    0.148352
  49 H :    0.126073
  50 H :    0.182236
  51 H :    0.182173
  52 H :    0.435866
  53 H :    0.177053
  54 H :    0.195859
Sum of atomic charges:   -0.0000000

LOEWDIN ATOMIC CHARGES
----------------------
   0 C :   -0.355886
   1 C :   -0.035009
   2 C :   -0.098847
   3 C :   -0.024486
   4 C :   -0.124825
   5 C :   -0.124848
   6 C :   -0.123926
   7 C :   -0.108871
   8 C :    0.015547
   9 N :   -0.103315
  10 C :    0.051731
  11 N :   -0.279612
  12 C :   -0.151584
  13 C :   -0.039679
  14 C :   -0.112038
  15 C :   -0.137874
  16 C :    0.089521
  17 O :   -0.159894
  18 C :    0.357905
  19 F :   -0.102990
  20 F :   -0.088446
  21 F :   -0.105964
  22 C :   -0.155456
  23 C :   -0.113560
  24 S :    1.262990
  25 O :   -0.565504
  26 O :   -0.564449
  27 C :   -0.174344
  28 C :   -0.104523
  29 C :   -0.085551
  30 C :   -0.037171
  31 C :    0.180870
  32 O :   -0.259616
  33 O :   -0.333549
  34 C :   -0.097894
  35 C :   -0.103736
  36 H :    0.133375
  37 H :    0.135688
  38 H :    0.138010
  39 H :    0.137379
  40 H :    0.132439
  41 H :    0.134239
  42 H :    0.136570
  43 H :    0.150193
  44 H :    0.140972
  45 H :    0.133034
  46 H :    0.136868
  47 H :    0.144491
  48 H :    0.140588
  49 H :    0.131388
  50 H :    0.155523
  51 H :    0.161081
  52 H :    0.351019
  53 H :    0.156807
  54 H :    0.165218

  Mayer bond orders larger than 0.100000
B(  0-C ,  1-C ) :   0.9807 B(  0-C , 36-H ) :   0.9321 B(  0-C , 37-H ) :   0.9294
B(  0-C , 38-H ) :   0.9411 B(  1-C ,  2-C ) :   1.4720 B(  1-C , 10-C ) :   1.3069
B(  2-C ,  3-C ) :   1.2943 B(  2-C , 39-H ) :   0.9186 B(  3-C ,  4-C ) :   1.2823
B(  3-C ,  8-C ) :   1.2433 B(  4-C ,  5-C ) :   1.5142 B(  4-C ,  7-C ) :   0.1078
B(  4-C , 40-H ) :   0.9254 B(  5-C ,  6-C ) :   1.3458 B(  5-C , 41-H ) :   0.9301
B(  6-C ,  7-C ) :   1.5150 B(  6-C , 42-H ) :   0.9294 B(  7-C ,  8-C ) :   1.3032
B(  7-C , 43-H ) :   0.9150 B(  8-C ,  9-N ) :   1.2471 B(  9-N , 10-C ) :   1.4416
B( 10-C , 11-N ) :   0.8981 B( 11-N , 12-C ) :   0.9361 B( 11-N , 24-S ) :   0.7896
B( 12-C , 13-C ) :   0.9351 B( 12-C , 44-H ) :   0.9210 B( 12-C , 45-H ) :   0.9252
B( 13-C , 14-C ) :   1.4284 B( 13-C , 23-C ) :   1.4346 B( 14-C , 15-C ) :   1.4434
B( 14-C , 46-H ) :   0.9215 B( 15-C , 16-C ) :   1.4172 B( 15-C , 47-H ) :   0.9183
B( 16-C , 17-O ) :   0.8219 B( 16-C , 22-C ) :   1.3960 B( 17-O , 18-C ) :   0.9927
B( 18-C , 19-F ) :   0.9717 B( 18-C , 20-F ) :   1.0069 B( 18-C , 21-F ) :   0.9662
B( 22-C , 23-C ) :   1.4381 B( 22-C , 48-H ) :   0.9096 B( 23-C , 49-H ) :   0.9173
B( 24-S , 25-O ) :   1.6610 B( 24-S , 26-O ) :   1.6457 B( 24-S , 27-C ) :   0.8064
B( 27-C , 28-C ) :   1.3717 B( 27-C , 35-C ) :   1.4054 B( 28-C , 29-C ) :   1.4306
B( 28-C , 50-H ) :   0.9093 B( 29-C , 30-C ) :   1.3992 B( 29-C , 51-H ) :   0.9090
B( 30-C , 31-C ) :   1.0073 B( 30-C , 34-C ) :   1.3866 B( 31-C , 32-O ) :   1.8624
B( 31-C , 33-O ) :   1.0272 B( 33-O , 52-H ) :   0.7408 B( 34-C , 35-C ) :   1.4073
B( 34-C , 53-H ) :   0.9139 B( 35-C , 54-H ) :   0.9040

FINAL SINGLE POINT ENERGY     -2146.311964365754

DIPOLE MOMENT
-------------

Method             : SCF
Type of density    : Electron Density
Multiplicity       :   1
Irrep              :   0
Energy             : -2146.3119643657541928 Eh
Relativity type    :
Basis              : AO
                                X                 Y                 Z
Electronic contribution:    -25.153306823     -30.392880359     -13.197626486
Nuclear contribution   :     25.642786084      30.466777458      15.178512319
                        -----------------------------------------
Total Dipole Moment    :      0.489479261       0.073897099       1.980885832
                        -----------------------------------------
Magnitude (a.u.)       :      2.041802980
Magnitude (Debye)      :      5.189850730

Rotational constants in cm-1:             0.003006             0.002528             0.001512
Rotational constants in MHz :            90.129040            75.773356            45.342469

                             ****ORCA TERMINATED NORMALLY****
TOTAL RUN TIME: 0 days 0 hours 7 minutes 6 seconds 103 msec
