                         Program Version 6.0.0  -   RELEASE  -
|  1> ! B3LYP 6-31G* SP
|  2>
|  3> * xyz 0 1
|  4> C 7.0109 0.4638 1.5839
|  5> O 5.5987 0.3990 1.6323
|  6> C 4.9806 0.5221 0.3552
|  7> C 5.4274 -0.5734 -0.6598
|  8> F 6.7218 -0.3532 -1.1003
|  9> F 5.3701 -1.8216 -0.0663
| 10> F 4.5977 -0.5723 -1.7689
| 11> C 5.1174 1.9642 -0.2259
| 12> C 3.7158 2.4261 -0.6620
| 13> C 2.8145 1.4599 -0.0001
| 14> C 1.4228 1.5403 0.0788
| 15> C 0.7205 0.5378 0.7755
| 16> C -0.7778 0.5926 0.8754
| 17> N -1.3899 -0.0823 -0.2719
| 18> C -1.2893 -1.5053 -0.4069
| 19> N -0.4017 -2.0111 -1.3036
| 20> C -0.2122 -3.3426 -1.4674
| 21> C -0.9263 -4.2548 -0.6847
| 22> C -0.7103 -5.6341 -0.8297
| 23> C -1.4103 -6.5415 -0.0339
| 24> C -2.3270 -6.0815 0.9109
| 25> C -2.5585 -4.7113 1.0614
| 26> C -1.8674 -3.7741 0.2610
| 27> C -2.0815 -2.3757 0.3776
| 28> C -3.1356 -1.8216 1.3108
| 29> S -2.0713 0.8424 -1.5713
| 30> O -0.9689 1.4515 -2.3893
| 31> O -2.8887 -0.0534 -2.4580
| 32> C -3.1195 2.0961 -0.9171
| 33> C -2.6442 3.4037 -0.7537
| 34> C -3.4619 4.3842 -0.1840
| 35> C -4.7681 4.0705 0.2306
| 36> C -5.6311 5.1107 0.8343
| 37> O -6.8179 4.8420 1.1681
| 38> O -5.1439 6.3998 1.0313
| 39> C -5.2390 2.7554 0.0634
| 40> C -4.4169 1.7755 -0.5026
| 41> C 1.4285 -0.5407 1.3454
| 42> C 2.8240 -0.6047 1.2429
| 43> C 3.5028 0.4136 0.5641
| 44> H 7.3976 1.1802 0.8248
| 45> H 7.3780 0.8134 2.5738
| 46> H 7.4324 -0.5492 1.4005
| 47> H 5.4792 2.6580 0.5665
| 48> H 5.8332 2.0195 -1.0726
| 49> H 3.6022 2.3511 -1.7660
| 50> H 3.5069 3.4633 -0.3177
| 51> H 0.8989 2.3692 -0.3810
| 52> H -1.1175 0.1182 1.8206
| 53> H -1.1048 1.6526 0.9250
| 54> H 0.5107 -3.6860 -2.1982
| 55> H 0.0025 -6.0093 -1.5545
| 56> H -1.2377 -7.6041 -0.1458
| 57> H -2.8603 -6.7909 1.5295
| 58> H -3.2697 -4.3992 1.8138
| 59> H -4.1004 -2.3482 1.1548
| 60> H -3.3412 -0.7474 1.1308
| 61> H -2.8067 -1.9477 2.3628
| 62> H -1.6355 3.6616 -1.0518
| 63> H -3.0699 5.3865 -0.0654
| 64> H -5.7285 7.1202 1.4407
| 65> H -6.2402 2.4838 0.3776
| 66> H -4.7884 0.7648 -0.6105
| 67> H 0.9005 -1.3278 1.8696
| 68> H 3.3644 -1.4283 1.6902
| 69> *
| 70>
| 71>                          ****END OF INPUT****

CARTESIAN COORDINATES (ANGSTROEM)
---------------------------------
  C      7.010900    0.463800    1.583900
  O      5.598700    0.399000    1.632300
  C      4.980600    0.522100    0.355200
  C      5.427400   -0.573400   -0.659800
  F      6.721800   -0.353200   -1.100300
  F      5.370100   -1.821600   -0.066300
  F      4.597700   -0.572300   -1.768900
  C      5.117400    1.964200   -0.225900
  C      3.715800    2.426100   -0.662000
  C      2.814500    1.459900   -0.000100
  C      1.422800    1.540300    0.078800
  C      0.720500    0.537800    0.775500
  C     -0.777800    0.592600    0.875400
  N     -1.389900   -0.082300   -0.271900
  C     -1.289300   -1.505300   -0.406900
  N     -0.401700   -2.011100   -1.303600
  C     -0.212200   -3.342600   -1.467400
  C     -0.926300   -4.254800   -0.684700
  C     -0.710300   -5.634100   -0.829700
  C     -1.410300   -6.541500   -0.033900
  C     -2.327000   -6.081500    0.910900
  C     -2.558500   -4.711300    1.061400
  C     -1.867400   -3.774100    0.261000
  C     -2.081500   -2.375700    0.377600
  C     -3.135600   -1.821600    1.310800
  S     -2.071300    0.842400   -1.571300
  O     -0.968900    1.451500   -2.389300
  O     -2.888700   -0.053400   -2.458000
  C     -3.119500    2.096100   -0.917100
  C     -2.644200    3.403700   -0.753700
  C     -3.461900    4.384200   -0.184000
  C     -4.768100    4.070500    0.230600
  C     -5.631100    5.110700    0.834300
  O     -6.817900    4.842000    1.168100
  O     -5.143900    6.399800    1.031300
  C     -5.239000    2.755400    0.063400
  C     -4.416900    1.775500   -0.502600
  C      1.428500   -0.540700    1.345400
  C      2.824000   -0.604700    1.242900
  C      3.502800    0.413600    0.564100
  H      7.397600    1.180200    0.824800
  H      7.378000    0.813400    2.573800
  H      7.432400   -0.549200    1.400500
  H      5.479200    2.658000    0.566500
  H      5.833200    2.019500   -1.072600
  H      3.602200    2.351100   -1.766000
  H      3.506900    3.463300   -0.317700
  H      0.898900    2.369200   -0.381000
  H     -1.117500    0.118200    1.820600
  H     -1.104800    1.652600    0.925000
  H      0.510700   -3.686000   -2.198200
  H      0.002500   -6.009300   -1.554500
  H     -1.237700   -7.604100   -0.145800
  H     -2.860300   -6.790900    1.529500
  H     -3.269700   -4.399200    1.813800
  H     -4.100400   -2.348200    1.154800
  H     -3.341200   -0.747400    1.130800
  H     -2.806700   -1.947700    2.362800
  H     -1.635500    3.661600   -1.051800
  H     -3.069900    5.386500   -0.065400
  H     -5.728500    7.120200    1.440700
  H     -6.240200    2.483800    0.377600
  H     -4.788400    0.764800   -0.610500
  H      0.900500   -1.327800    1.869600
  H      3.364400   -1.428300    1.690200

 Total Charge           Charge          ....    0
 Multiplicity           Mult            ....    1
 Number of Electrons    NEL             ....  296
 Basis Dimension        Dim             ....  614

ORBITAL ENERGIES
----------------

  NO   OCC          E(Eh)            E(eV)
   0   2.0000     -89.092525     -2424.3308
   1   2.0000     -24.717026      -672.5845
   2   2.0000     -24.715194      -672.5346
   3   2.0000     -24.713984      -672.5017
   4   2.0000     -19.199720      -522.4509
   5   2.0000     -19.153395      -521.1904
   6   2.0000     -19.141388      -520.8637
   7   2.0000     -19.118579      -520.2430
   8   2.0000     -19.116097      -520.1754
   9   2.0000     -14.366270      -390.9261
  10   2.0000     -14.323179      -389.7535
  11   2.0000     -10.425389      -283.6893
  12   2.0000     -10.338967      -281.3376
  13   2.0000     -10.257433      -279.1189
  14   2.0000     -10.256432      -279.0917
  15   2.0000     -10.245058      -278.7822
  16   2.0000     -10.236146      -278.5397
  17   2.0000     -10.233852      -278.4773
  18   2.0000     -10.223991      -278.2089
  19   2.0000     -10.223856      -278.2053
  20   2.0000     -10.221512      -278.1415
  21   2.0000     -10.221280      -278.1352
  22   2.0000     -10.220326      -278.1092
  23   2.0000     -10.218706      -278.0651
  24   2.0000     -10.208444      -277.7859
  25   2.0000     -10.204551      -277.6799
  26   2.0000     -10.196822      -277.4696
  27   2.0000     -10.195983      -277.4468
  28   2.0000     -10.194792      -277.4144
  29   2.0000     -10.194685      -277.4115
  30   2.0000     -10.193226      -277.3718
  31   2.0000     -10.189394      -277.2675
  32   2.0000     -10.189387      -277.2673
  33   2.0000     -10.185358      -277.1577
  34   2.0000     -10.180435      -277.0237
  35   2.0000     -10.179286      -276.9925
  36   2.0000     -10.178933      -276.9828
  37   2.0000     -10.178726      -276.9772
  38   2.0000     -10.177145      -276.9342
  39   2.0000     -10.176451      -276.9153
  40   2.0000      -8.128310      -221.1825
  41   2.0000      -6.093314      -165.8075
  42   2.0000      -6.091415      -165.7558
  43   2.0000      -6.090907      -165.7420
  44   2.0000      -1.275477       -34.7075
  45   2.0000      -1.201285       -32.6886
  46   2.0000      -1.198922       -32.6243
  47   2.0000      -1.084087       -29.4995
  48   2.0000      -1.077286       -29.3144
  49   2.0000      -1.042279       -28.3618
  50   2.0000      -0.998024       -27.1576
  51   2.0000      -0.957355       -26.0509
  52   2.0000      -0.954760       -25.9804
  53   2.0000      -0.910109       -24.7653
  54   2.0000      -0.893625       -24.3168
  55   2.0000      -0.873325       -23.7644
  56   2.0000      -0.861253       -23.4359
  57   2.0000      -0.818471       -22.2717
  58   2.0000      -0.810914       -22.0661
  59   2.0000      -0.804034       -21.8789
  60   2.0000      -0.780225       -21.2310
  61   2.0000      -0.773480       -21.0475
  62   2.0000      -0.765722       -20.8363
  63   2.0000      -0.751964       -20.4620
  64   2.0000      -0.740821       -20.1588
  65   2.0000      -0.716781       -19.5046
  66   2.0000      -0.714196       -19.4343
  67   2.0000      -0.701209       -19.0809
  68   2.0000      -0.688127       -18.7249
  69   2.0000      -0.676716       -18.4144
  70   2.0000      -0.655346       -17.8329
  71   2.0000      -0.650268       -17.6947
  72   2.0000      -0.641969       -17.4689
  73   2.0000      -0.640604       -17.4317
  74   2.0000      -0.619976       -16.8704
  75   2.0000      -0.607552       -16.5323
  76   2.0000      -0.595889       -16.2150
  77   2.0000      -0.593478       -16.1494
  78   2.0000      -0.593293       -16.1443
  79   2.0000      -0.574089       -15.6217
  80   2.0000      -0.565509       -15.3883
  81   2.0000      -0.561509       -15.2794
  82   2.0000      -0.555195       -15.1076
  83   2.0000      -0.542087       -14.7509
  84   2.0000      -0.534383       -14.5413
  85   2.0000      -0.527643       -14.3579
  86   2.0000      -0.513965       -13.9857
  87   2.0000      -0.504388       -13.7251
  88   2.0000      -0.498561       -13.5665
  89   2.0000      -0.493087       -13.4176
  90   2.0000      -0.482465       -13.1285
  91   2.0000      -0.477820       -13.0021
  92   2.0000      -0.473149       -12.8750
  93   2.0000      -0.469271       -12.7695
  94   2.0000      -0.464234       -12.6325
  95   2.0000      -0.459740       -12.5102
  96   2.0000      -0.455115       -12.3843
  97   2.0000      -0.452221       -12.3056
  98   2.0000      -0.450096       -12.2477
  99   2.0000      -0.448101       -12.1934
 100   2.0000      -0.447259       -12.1705
 101   2.0000      -0.445522       -12.1233
 102   2.0000      -0.441984       -12.0270
 103   2.0000      -0.438884       -11.9426
 104   2.0000      -0.436498       -11.8777
 105   2.0000      -0.435886       -11.8611
 106   2.0000      -0.430753       -11.7214
 107   2.0000      -0.426804       -11.6139
 108   2.0000      -0.420213       -11.4346
 109   2.0000      -0.415688       -11.3115
 110   2.0000      -0.414997       -11.2926
 111   2.0000      -0.410003       -11.1567
 112   2.0000      -0.406660       -11.0658
 113   2.0000      -0.405542       -11.0354
 114   2.0000      -0.401867       -10.9354
 115   2.0000      -0.397938       -10.8284
 116   2.0000      -0.394463       -10.7339
 117   2.0000      -0.393982       -10.7208
 118   2.0000      -0.389088       -10.5876
 119   2.0000      -0.387067       -10.5326
 120   2.0000      -0.384472       -10.4620
 121   2.0000      -0.372176       -10.1274
 122   2.0000      -0.371675       -10.1138
 123   2.0000      -0.366833        -9.9820
 124   2.0000      -0.365666        -9.9503
 125   2.0000      -0.354257        -9.6398
 126   2.0000      -0.351213        -9.5570
 127   2.0000      -0.349028        -9.4975
 128   2.0000      -0.344846        -9.3837
 129   2.0000      -0.334594        -9.1048
 130   2.0000      -0.332121        -9.0375
 131   2.0000      -0.323981        -8.8160
 132   2.0000      -0.317210        -8.6317
 133   2.0000      -0.312866        -8.5135
 134   2.0000      -0.305512        -8.3134
 135   2.0000      -0.297945        -8.1075
 136   2.0000      -0.287239        -7.8162
 137   2.0000      -0.282778        -7.6948
 138   2.0000      -0.280931        -7.6445
 139   2.0000      -0.278135        -7.5684
 140   2.0000      -0.271009        -7.3745
 141   2.0000      -0.263953        -7.1825
 142   2.0000      -0.262779        -7.1506
 143   2.0000      -0.246221        -6.7000
 144   2.0000      -0.244072        -6.6415
 145   2.0000      -0.236614        -6.4386
 146   2.0000      -0.233011        -6.3406
 147   2.0000      -0.219344        -5.9686
 148   0.0000      -0.087746        -2.3877
 149   0.0000      -0.057816        -1.5733
 150   0.0000      -0.036272        -0.9870
 151   0.0000      -0.027949        -0.7605
 152   0.0000      -0.010723        -0.2918

MULLIKEN ATOMIC CHARGES
-----------------------
   0 C :   -0.211465
   1 O :   -0.482801
   2 C :    0.152950
   3 C :    0.925772
   4 F :   -0.308605
   5 F :   -0.301934
   6 F :   -0.299583
   7 C :   -0.340407
   8 C :   -0.350457
   9 C :    0.138919
  10 C :   -0.211079
  11 C :    0.197496
  12 C :   -0.275076
  13 N :   -0.600732
  14 C :    0.332240
  15 N :   -0.359689
  16 C :   -0.046096
  17 C :    0.135058
  18 C :   -0.201309
  19 C :   -0.126547
  20 C :   -0.120888
  21 C :   -0.199776
  22 C :    0.122883
  23 C :    0.097351
  24 C :   -0.543454
  25 S :    1.205128
  26 O :   -0.529525
  27 O :   -0.541752
  28 C :   -0.137510
  29 C :   -0.149389
  30 C :   -0.146267
  31 C :    0.083974
  32 C :    0.529107
  33 O :   -0.443703
  34 O :   -0.622954
  35 C :   -0.141551
  36 C :   -0.142113
  37 C :   -0.172731
  38 C :   -0.161945
  39 C :    0.079998
  40 H :    0.144901
  41 H :    0.150060
  42 H :    0.148493
  43 H :    0.164123
  44 H :    0.155439
  45 H :    0.171833
  46 H :    0.148172
  47 H :    0.130844
  48 H :    0.160916
  49 H :    0.163129
  50 H :    0.157684
  51 H :    0.141752
  52 H :    0.135848
  53 H :    0.136270
  54 H :    0.135428
  55 H :    0.166989
  56 H :    0.166364
  57 H :    0.161124
  58 H :    0.187435
  59 H :    0.174124
  60 H :    0.435226
  61 H :    0.181968
  62 H :    0.185709
  63 H :    0.123176
  64 H :    0.141453
Sum of atomic charges:    0.0000000

LOEWDIN ATOMIC CHARGES
----------------------
   0 C :   -0.217736
   1 O :   -0.212772
   2 C :    0.039565
   3 C :    0.300771
   4 F :   -0.114314
   5 F :   -0.109641
   6 F :   -0.107830
   7 C :   -0.230672
   8 C :   -0.222300
   9 C :   -0.011299
  10 C :   -0.121646
  11 C :   -0.020993
  12 C :   -0.149197
  13 N :   -0.278737
  14 C :    0.037146
  15 N :   -0.106814
  16 C :   -0.052825
  17 C :   -0.027499
  18 C :   -0.109848
  19 C :   -0.126800
  20 C :   -0.118277
  21 C :   -0.125852
  22 C :   -0.007260
  23 C :   -0.014745
  24 C :   -0.361063
  25 S :    1.260860
  26 O :   -0.568162
  27 O :   -0.571617
  28 C :   -0.174836
  29 C :   -0.108602
  30 C :   -0.099305
  31 C :   -0.038019
  32 C :    0.180262
  33 O :   -0.260120
  34 O :   -0.333768
  35 C :   -0.085713
  36 C :   -0.101901
  37 C :   -0.133289
  38 C :   -0.110742
  39 C :   -0.028317
  40 H :    0.114289
  41 H :    0.122117
  42 H :    0.113750
  43 H :    0.138687
  44 H :    0.129284
  45 H :    0.141172
  46 H :    0.130425
  47 H :    0.133709
  48 H :    0.129611
  49 H :    0.137493
  50 H :    0.140093
  51 H :    0.138430
  52 H :    0.135400
  53 H :    0.135892
  54 H :    0.137000
  55 H :    0.139072
  56 H :    0.136348
  57 H :    0.136176
  58 H :    0.158909
  59 H :    0.155269
  60 H :    0.350713
  61 H :    0.160930
  62 H :    0.160135
  63 H :    0.129719
  64 H :    0.139285

  Mayer bond orders larger than 0.100000
B(  0-C ,  1-O ) :   0.9295 B(  0-C , 40-H ) :   0.9250 B(  0-C , 41-H ) :   0.9479
B(  0-C , 42-H ) :   0.9329 B(  1-O ,  2-C ) :   0.9081 B(  2-C ,  3-C ) :   0.8932
B(  2-C ,  7-C ) :   0.9461 B(  2-C , 39-C ) :   0.9622 B(  3-C ,  4-F ) :   0.9339
B(  3-C ,  5-F ) :   0.9516 B(  3-C ,  6-F ) :   0.9626 B(  7-C ,  8-C ) :   0.9861
B(  7-C , 43-H ) :   0.9331 B(  7-C , 44-H ) :   0.9313 B(  8-C ,  9-C ) :   0.9823
B(  8-C , 45-H ) :   0.9221 B(  8-C , 46-H ) :   0.9357 B(  9-C , 10-C ) :   1.3963
B(  9-C , 39-C ) :   1.4772 B( 10-C , 11-C ) :   1.4220 B( 10-C , 47-H ) :   0.9142
B( 11-C , 12-C ) :   0.9376 B( 11-C , 37-C ) :   1.4074 B( 12-C , 13-N ) :   0.9361
B( 12-C , 48-H ) :   0.9221 B( 12-C , 49-H ) :   0.9223 B( 13-N , 14-C ) :   0.8886
B( 13-N , 25-S ) :   0.8072 B( 14-C , 15-N ) :   1.2858 B( 14-C , 23-C ) :   1.4393
B( 15-N , 16-C ) :   1.4994 B( 16-C , 17-C ) :   1.2291 B( 16-C , 23-C ) :   0.1014
B( 16-C , 50-H ) :   0.9259 B( 17-C , 18-C ) :   1.2855 B( 17-C , 22-C ) :   1.2910
B( 18-C , 19-C ) :   1.5116 B( 18-C , 21-C ) :   0.1062 B( 18-C , 51-H ) :   0.9228
B( 19-C , 20-C ) :   1.3543 B( 19-C , 52-H ) :   0.9293 B( 20-C , 21-C ) :   1.5088
B( 20-C , 53-H ) :   0.9293 B( 21-C , 22-C ) :   1.2934 B( 21-C , 54-H ) :   0.9174
B( 22-C , 23-C ) :   1.2647 B( 23-C , 24-C ) :   0.9971 B( 24-C , 55-H ) :   0.9289
B( 24-C , 56-H ) :   0.9295 B( 24-C , 57-H ) :   0.9267 B( 25-S , 26-O ) :   1.6558
B( 25-S , 27-O ) :   1.6334 B( 25-S , 28-C ) :   0.8069 B( 28-C , 29-C ) :   1.3917
B( 28-C , 36-C ) :   1.3831 B( 29-C , 30-C ) :   1.4100 B( 29-C , 58-H ) :   0.9075
B( 30-C , 31-C ) :   1.3875 B( 30-C , 59-H ) :   0.9146 B( 31-C , 32-C ) :   1.0069
B( 31-C , 35-C ) :   1.3986 B( 32-C , 33-O ) :   1.8624 B( 32-C , 34-O ) :   1.0266
B( 34-O , 60-H ) :   0.7411 B( 35-C , 36-C ) :   1.4236 B( 35-C , 61-H ) :   0.9091
B( 36-C , 62-H ) :   0.9089 B( 37-C , 38-C ) :   1.4243 B( 37-C , 63-H ) :   0.9247
B( 38-C , 39-C ) :   1.4082 B( 38-C , 64-H ) :   0.9169

FINAL SINGLE POINT ENERGY     -2302.235861708532

DIPOLE MOMENT
-------------

Method             : SCF
Type of density    : Electron Density
Multiplicity       :   1
Irrep              :   0
Energy             : -2302.2358617085315018 Eh
Relativity type    :
Basis              : AO
                                X                 Y                 Z
Electronic contribution:      9.884892226       0.427138813     -14.846353542
Nuclear contribution   :     -9.984290276      -0.016253597      17.112475487
                        -----------------------------------------
Total Dipole Moment    :     -0.099398051       0.410885215       2.266121944
                        -----------------------------------------
Magnitude (a.u.)       :      2.305214805
Magnitude (Debye)      :      5.859390382

Rotational constants in cm-1:             0.003225             0.001756             0.001258
Rotational constants in MHz :            96.685349            52.651774            37.711673

                             ****ORCA TERMINATED NORMALLY****
TOTAL RUN TIME: 0 days 0 hours 8 minutes 38 seconds 814 msec
