                         Program Version 6.0.0  -   RELEASE  -
|  1> ! B3LYP 6-31G* SP
|  2>
|  3> * xyz 0 1
|  4> C 7.7329 0.1569 -1.1773
|  5> C 7.0559 -1.2085 -1.3181
|  6> C 6.1336 -1.5393 -0.1343
|  7> C 4.8489 -0.6977 -0.1364
|  8> C 3.9153 -1.1211 1.0040
|  9> C 2.6586 -0.2927 0.9931
| 10> C 2.6138 0.9318 1.6797
| 11> C 1.4604 1.7293 1.6381
| 12> O 1.4258 2.9432 2.3218
| 13> C 0.3436 1.2985 0.9019
| 14> C 0.3882 0.0773 0.2162
| 15> C 1.5424 -0.7095 0.2494
| 16> O -0.7232 -0.3369 -0.5244
| 17> C -2.0349 0.2192 -0.3429
| 18> C -2.7405 0.1742 -1.7048
| 19> C -2.7658 -0.6470 0.7207
| 20> C -4.2328 -0.2627 1.0114
| 21> C -5.1864 -0.8216 -0.0229
| 22> C -6.3764 -0.2539 -0.3372
| 23> C -6.8430 1.0385 0.2943
| 24> C -7.2756 -0.9102 -1.3547
| 25> C -1.9453 1.6637 0.1293
| 26> C -0.8669 2.1287 0.7671
| 27> H 6.9892 0.9780 -1.2536
| 28> H 8.4732 0.2864 -1.9944
| 29> H 8.2652 0.2279 -0.2037
| 30> H 7.8491 -1.9863 -1.3700
| 31> H 6.4854 -1.2457 -2.2731
| 32> H 6.6824 -1.3945 0.8235
| 33> H 5.8579 -2.6151 -0.2038
| 34> H 5.1043 0.3763 -0.0105
| 35> H 4.3236 -0.8250 -1.1089
| 36> H 4.4371 -0.9979 1.9800
| 37> H 3.6570 -2.1995 0.9012
| 38> H 3.4778 1.2697 2.2401
| 39> H 2.2202 3.2743 2.8566
| 40> H 1.5692 -1.6422 -0.3009
| 41> H -2.9070 -0.8782 -2.0203
| 42> H -2.1094 0.6696 -2.4734
| 43> H -3.7153 0.7056 -1.6749
| 44> H -2.7092 -1.7189 0.4288
| 45> H -2.2008 -0.5642 1.6758
| 46> H -4.5222 -0.6959 1.9947
| 47> H -4.3202 0.8391 1.1064
| 48> H -4.9142 -1.7694 -0.4890
| 49> H -6.8742 0.9321 1.4011
| 50> H -7.8650 1.3084 -0.0563
| 51> H -6.1560 1.8675 0.0111
| 52> H -6.8406 -1.8530 -1.7578
| 53> H -8.2556 -1.1496 -0.8846
| 54> H -7.4424 -0.2110 -2.2040
| 55> H -2.8086 2.3114 0.0327
| 56> H -0.8792 3.1400 1.1546
| 57> *
| 58>
| 59>                          ****END OF INPUT****

CARTESIAN COORDINATES (ANGSTROEM)
---------------------------------
  C      7.732900    0.156900   -1.177300
  C      7.055900   -1.208500   -1.318100
  C      6.133600   -1.539300   -0.134300
  C      4.848900   -0.697700   -0.136400
  C      3.915300   -1.121100    1.004000
  C      2.658600   -0.292700    0.993100
  C      2.613800    0.931800    1.679700
  C      1.460400    1.729300    1.638100
  O      1.425800    2.943200    2.321800
  C      0.343600    1.298500    0.901900
  C      0.388200    0.077300    0.216200
  C      1.542400   -0.709500    0.249400
  O     -0.723200   -0.336900   -0.524400
  C     -2.034900    0.219200   -0.342900
  C     -2.740500    0.174200   -1.704800
  C     -2.765800   -0.647000    0.720700
  C     -4.232800   -0.262700    1.011400
  C     -5.186400   -0.821600   -0.022900
  C     -6.376400   -0.253900   -0.337200
  C     -6.843000    1.038500    0.294300
  C     -7.275600   -0.910200   -1.354700
  C     -1.945300    1.663700    0.129300
  C     -0.866900    2.128700    0.767100
  H      6.989200    0.978000   -1.253600
  H      8.473200    0.286400   -1.994400
  H      8.265200    0.227900   -0.203700
  H      7.849100   -1.986300   -1.370000
  H      6.485400   -1.245700   -2.273100
  H      6.682400   -1.394500    0.823500
  H      5.857900   -2.615100   -0.203800
  H      5.104300    0.376300   -0.010500
  H      4.323600   -0.825000   -1.108900
  H      4.437100   -0.997900    1.980000
  H      3.657000   -2.199500    0.901200
  H      3.477800    1.269700    2.240100
  H      2.220200    3.274300    2.856600
  H      1.569200   -1.642200   -0.300900
  H     -2.907000   -0.878200   -2.020300
  H     -2.109400    0.669600   -2.473400
  H     -3.715300    0.705600   -1.674900
  H     -2.709200   -1.718900    0.428800
  H     -2.200800   -0.564200    1.675800
  H     -4.522200   -0.695900    1.994700
  H     -4.320200    0.839100    1.106400
  H     -4.914200   -1.769400   -0.489000
  H     -6.874200    0.932100    1.401100
  H     -7.865000    1.308400   -0.056300
  H     -6.156000    1.867500    0.011100
  H     -6.840600   -1.853000   -1.757800
  H     -8.255600   -1.149600   -0.884600
  H     -7.442400   -0.211000   -2.204000
  H     -2.808600    2.311400    0.032700
  H     -0.879200    3.140000    1.154600

 Total Charge           Charge          ....    0
 Multiplicity           Mult            ....    1
 Number of Electrons    NEL             ....  172
 Basis Dimension        Dim             ....  382

ORBITAL ENERGIES
----------------

  NO   OCC          E(Eh)            E(eV)
   0   2.0000     -19.164079      -521.4811
   1   2.0000     -19.153556      -521.1948
   2   2.0000     -10.241945      -278.6975
   3   2.0000     -10.239655      -278.6352
   4   2.0000     -10.235920      -278.5336
   5   2.0000     -10.184068      -277.1226
   6   2.0000     -10.175971      -276.9022
   7   2.0000     -10.175263      -276.8830
   8   2.0000     -10.174796      -276.8703
   9   2.0000     -10.172830      -276.8168
  10   2.0000     -10.172343      -276.8035
  11   2.0000     -10.172319      -276.8029
  12   2.0000     -10.170429      -276.7514
  13   2.0000     -10.169143      -276.7165
  14   2.0000     -10.168612      -276.7020
  15   2.0000     -10.168364      -276.6953
  16   2.0000     -10.167194      -276.6634
  17   2.0000     -10.166399      -276.6418
  18   2.0000     -10.165632      -276.6209
  19   2.0000     -10.163498      -276.5628
  20   2.0000     -10.163213      -276.5551
  21   2.0000     -10.161023      -276.4955
  22   2.0000     -10.159941      -276.4661
  23   2.0000      -1.038347       -28.2549
  24   2.0000      -1.027893       -27.9704
  25   2.0000      -0.845388       -23.0042
  26   2.0000      -0.812534       -22.1102
  27   2.0000      -0.802085       -21.8258
  28   2.0000      -0.794669       -21.6240
  29   2.0000      -0.776556       -21.1312
  30   2.0000      -0.747999       -20.3541
  31   2.0000      -0.734541       -19.9879
  32   2.0000      -0.718756       -19.5583
  33   2.0000      -0.697655       -18.9842
  34   2.0000      -0.682100       -18.5609
  35   2.0000      -0.667517       -18.1641
  36   2.0000      -0.663453       -18.0535
  37   2.0000      -0.620414       -16.8823
  38   2.0000      -0.612616       -16.6701
  39   2.0000      -0.606911       -16.5149
  40   2.0000      -0.585343       -15.9280
  41   2.0000      -0.577909       -15.7257
  42   2.0000      -0.556742       -15.1497
  43   2.0000      -0.528007       -14.3678
  44   2.0000      -0.510576       -13.8935
  45   2.0000      -0.507207       -13.8018
  46   2.0000      -0.493414       -13.4265
  47   2.0000      -0.484205       -13.1759
  48   2.0000      -0.460428       -12.5289
  49   2.0000      -0.452913       -12.3244
  50   2.0000      -0.446520       -12.1504
  51   2.0000      -0.441574       -12.0158
  52   2.0000      -0.440732       -11.9929
  53   2.0000      -0.427792       -11.6408
  54   2.0000      -0.425338       -11.5740
  55   2.0000      -0.422340       -11.4925
  56   2.0000      -0.413421       -11.2497
  57   2.0000      -0.409523       -11.1437
  58   2.0000      -0.400188       -10.8897
  59   2.0000      -0.395070       -10.7504
  60   2.0000      -0.388983       -10.5848
  61   2.0000      -0.384070       -10.4511
  62   2.0000      -0.380892       -10.3646
  63   2.0000      -0.380236       -10.3468
  64   2.0000      -0.375028       -10.2050
  65   2.0000      -0.368655       -10.0316
  66   2.0000      -0.366385        -9.9699
  67   2.0000      -0.361665        -9.8414
  68   2.0000      -0.359967        -9.7952
  69   2.0000      -0.356002        -9.6873
  70   2.0000      -0.349452        -9.5091
  71   2.0000      -0.344252        -9.3676
  72   2.0000      -0.333675        -9.0798
  73   2.0000      -0.331527        -9.0213
  74   2.0000      -0.327395        -8.9089
  75   2.0000      -0.326420        -8.8824
  76   2.0000      -0.321966        -8.7611
  77   2.0000      -0.312780        -8.5112
  78   2.0000      -0.310012        -8.4359
  79   2.0000      -0.304367        -8.2823
  80   2.0000      -0.296217        -8.0605
  81   2.0000      -0.280999        -7.6464
  82   2.0000      -0.271428        -7.3859
  83   2.0000      -0.216814        -5.8998
  84   2.0000      -0.204501        -5.5647
  85   2.0000      -0.191856        -5.2207
  86   0.0000      -0.014084        -0.3833
  87   0.0000       0.025565         0.6957
  88   0.0000       0.031834         0.8662
  89   0.0000       0.053922         1.4673
  90   0.0000       0.063000         1.7143

MULLIKEN ATOMIC CHARGES
-----------------------
   0 C :   -0.435094
   1 C :   -0.240187
   2 C :   -0.240249
   3 C :   -0.243348
   4 C :   -0.349615
   5 C :    0.185294
   6 C :   -0.265628
   7 C :    0.318833
   8 O :   -0.675987
   9 C :    0.041209
  10 C :    0.323139
  11 C :   -0.248115
  12 O :   -0.557541
  13 C :    0.318375
  14 C :   -0.461901
  15 C :   -0.271522
  16 C :   -0.302830
  17 C :   -0.147250
  18 C :    0.170690
  19 C :   -0.512666
  20 C :   -0.501031
  21 C :   -0.169450
  22 C :   -0.125649
  23 H :    0.143831
  24 H :    0.138831
  25 H :    0.135955
  26 H :    0.125186
  27 H :    0.128332
  28 H :    0.122031
  29 H :    0.123928
  30 H :    0.135891
  31 H :    0.136445
  32 H :    0.134063
  33 H :    0.138747
  34 H :    0.101720
  35 H :    0.415585
  36 H :    0.123043
  37 H :    0.143943
  38 H :    0.151496
  39 H :    0.153587
  40 H :    0.134776
  41 H :    0.135911
  42 H :    0.146323
  43 H :    0.139862
  44 H :    0.112956
  45 H :    0.159739
  46 H :    0.145894
  47 H :    0.156001
  48 H :    0.146568
  49 H :    0.145676
  50 H :    0.146295
  51 H :    0.124381
  52 H :    0.143529
Sum of atomic charges:    0.0000000

LOEWDIN ATOMIC CHARGES
----------------------
   0 C :   -0.360223
   1 C :   -0.231015
   2 C :   -0.228732
   3 C :   -0.222202
   4 C :   -0.218045
   5 C :    0.001191
   6 C :   -0.201626
   7 C :    0.091168
   8 O :   -0.349378
   9 C :   -0.084803
  10 C :    0.106199
  11 C :   -0.181075
  12 O :   -0.163587
  13 C :    0.081628
  14 C :   -0.352937
  15 C :   -0.226285
  16 C :   -0.233598
  17 C :   -0.162414
  18 C :   -0.045680
  19 C :   -0.357013
  20 C :   -0.349306
  21 C :   -0.152592
  22 C :   -0.121965
  23 H :    0.120754
  24 H :    0.122258
  25 H :    0.118937
  26 H :    0.115415
  27 H :    0.116238
  28 H :    0.113438
  29 H :    0.114874
  30 H :    0.119420
  31 H :    0.121112
  32 H :    0.121931
  33 H :    0.123916
  34 H :    0.122164
  35 H :    0.335690
  36 H :    0.135371
  37 H :    0.126317
  38 H :    0.130229
  39 H :    0.134283
  40 H :    0.121261
  41 H :    0.124729
  42 H :    0.131044
  43 H :    0.125646
  44 H :    0.121061
  45 H :    0.135013
  46 H :    0.126786
  47 H :    0.132762
  48 H :    0.126391
  49 H :    0.126241
  50 H :    0.126533
  51 H :    0.130422
  52 H :    0.142053

  Mayer bond orders larger than 0.100000
B(  0-C ,  1-C ) :   1.0184 B(  0-C , 23-H ) :   0.9495 B(  0-C , 24-H ) :   0.9528
B(  0-C , 25-H ) :   0.9519 B(  1-C ,  2-C ) :   1.0071 B(  1-C , 26-H ) :   0.9453
B(  1-C , 27-H ) :   0.9412 B(  2-C ,  3-C ) :   1.0019 B(  2-C , 28-H ) :   0.9383
B(  2-C , 29-H ) :   0.9418 B(  3-C ,  4-C ) :   0.9919 B(  3-C , 30-H ) :   0.9357
B(  3-C , 31-H ) :   0.9376 B(  4-C ,  5-C ) :   0.9747 B(  4-C , 32-H ) :   0.9338
B(  4-C , 33-H ) :   0.9333 B(  5-C ,  6-C ) :   1.4139 B(  5-C , 11-C ) :   1.4024
B(  6-C ,  7-C ) :   1.3443 B(  6-C , 34-H ) :   0.9206 B(  7-C ,  8-O ) :   0.9128
B(  7-C ,  9-C ) :   1.3392 B(  8-O , 35-H ) :   0.7675 B(  9-C , 10-C ) :   1.3244
B(  9-C , 22-C ) :   1.0876 B( 10-C , 11-C ) :   1.3930 B( 10-C , 12-O ) :   0.9078
B( 11-C , 36-H ) :   0.9161 B( 12-O , 13-C ) :   0.8213 B( 13-C , 14-C ) :   0.9941
B( 13-C , 15-C ) :   0.9815 B( 13-C , 21-C ) :   0.9959 B( 14-C , 37-H ) :   0.9426
B( 14-C , 38-H ) :   0.9410 B( 14-C , 39-H ) :   0.9303 B( 15-C , 16-C ) :   0.9788
B( 15-C , 40-H ) :   0.9266 B( 15-C , 41-H ) :   0.9320 B( 16-C , 17-C ) :   1.0117
B( 16-C , 42-H ) :   0.9273 B( 16-C , 43-H ) :   0.9217 B( 17-C , 18-C ) :   1.9028
B( 17-C , 44-H ) :   0.9209 B( 18-C , 19-C ) :   0.9993 B( 18-C , 20-C ) :   1.0089
B( 19-C , 45-H ) :   0.9386 B( 19-C , 46-H ) :   0.9482 B( 19-C , 47-H ) :   0.9353
B( 20-C , 48-H ) :   0.9477 B( 20-C , 49-H ) :   0.9365 B( 20-C , 50-H ) :   0.9373
B( 21-C , 22-C ) :   1.8221 B( 21-C , 51-H ) :   0.9207 B( 22-C , 52-H ) :   0.9204

FINAL SINGLE POINT ENERGY      -968.065822996817

DIPOLE MOMENT
-------------

Method             : SCF
Type of density    : Electron Density
Multiplicity       :   1
Irrep              :   0
Energy             :  -968.0658229968166779 Eh
Relativity type    :
Basis              : AO
                                X                 Y                 Z
Electronic contribution:     -1.209765277       8.019137719       9.414407014
Nuclear contribution   :      1.436168441      -7.742406753      -8.974545261
                        -----------------------------------------
Total Dipole Moment    :      0.226403164       0.276730967       0.439861753
                        -----------------------------------------
Magnitude (a.u.)       :      0.566848112
Magnitude (Debye)      :      1.440813397

Rotational constants in cm-1:             0.020182             0.002758             0.002566
Rotational constants in MHz :           605.031478            82.673117            76.934294

                             ****ORCA TERMINATED NORMALLY****
TOTAL RUN TIME: 0 days 0 hours 5 minutes 16 seconds 388 msec
