                         Program Version 6.0.0  -   RELEASE  -
|  1> ! B3LYP def2-TZVP SP
|  2>
|  3> * xyz 0 1
|  4> C -3.2196 1.2565 -2.5744
|  5> C -2.6172 -0.0544 -2.0654
|  6> C -2.7865 -1.1547 -3.1121
|  7> O -1.2342 0.1312 -1.8328
|  8> P -0.9239 0.2045 -0.1557
|  9> O -1.6768 1.3746 0.4432
| 10> O -1.4075 -1.2683 0.5695
| 11> C -1.6137 -1.0950 1.9583
| 12> C -1.0682 -2.3230 2.6855
| 13> C -3.1130 -0.9486 2.2331
| 14> C 0.8735 0.4423 0.0928
| 15> C 1.7046 -0.5013 -0.8017
| 16> C 1.5567 -1.9474 -0.4001
| 17> C 0.7078 -2.8010 -1.1202
| 18> C 0.5407 -4.1273 -0.7207
| 19> C 1.2250 -4.6191 0.3936
| 20> F 1.0314 -5.9087 0.7704
| 21> C 2.0959 -3.7842 1.1185
| 22> C 2.8058 -4.3200 2.3386
| 23> F 3.7232 -3.4113 2.8377
| 24> F 3.4798 -5.4836 2.0133
| 25> F 1.8760 -4.5969 3.3240
| 26> C 2.2459 -2.4424 0.7187
| 27> C 1.2203 1.8835 -0.1814
| 28> S 1.3586 2.5701 -1.7264
| 29> C 1.6141 4.1336 -1.1810
| 30> C 1.8206 5.2838 -1.9385
| 31> C 1.9999 6.4996 -1.2623
| 32> C 1.9664 6.5416 0.1445
| 33> C 1.7535 5.3681 0.8876
| 34> C 1.5786 4.1570 0.2063
| 35> C 1.3473 2.8962 0.7800
| 36> Br 1.1837 2.6047 2.6694
| 37> H -2.7012 1.5898 -3.4990
| 38> H -4.3016 1.1265 -2.7906
| 39> H -3.1103 2.0473 -1.8030
| 40> H -3.1979 -0.3768 -1.1678
| 41> H -2.3631 -2.1058 -2.7249
| 42> H -2.2562 -0.8854 -4.0508
| 43> H -3.8630 -1.3154 -3.3353
| 44> H -1.0813 -0.2134 2.3882
| 45> H -1.2743 -2.2542 3.7751
| 46> H -1.5282 -3.2518 2.2847
| 47> H 0.0300 -2.3795 2.5461
| 48> H -3.6633 -1.8425 1.8686
| 49> H -3.2960 -0.8281 3.3222
| 50> H -3.5125 -0.0537 1.7127
| 51> H 1.1083 0.2114 1.1526
| 52> H 1.4219 -0.3695 -1.8692
| 53> H 2.7795 -0.2244 -0.7238
| 54> H 0.1638 -2.4358 -1.9821
| 55> H -0.1268 -4.7749 -1.2743
| 56> H 2.8879 -1.7728 1.2775
| 57> H 1.8409 5.2426 -3.0198
| 58> H 2.1629 7.4096 -1.8249
| 59> H 2.1043 7.4846 0.6573
| 60> H 1.7275 5.4122 1.9684
| 61> *
| 62>
| 63>                          ****END OF INPUT****

CARTESIAN COORDINATES (ANGSTROEM)
---------------------------------
  C     -3.219600    1.256500   -2.574400
  C     -2.617200   -0.054400   -2.065400
  C     -2.786500   -1.154700   -3.112100
  O     -1.234200    0.131200   -1.832800
  P     -0.923900    0.204500   -0.155700
  O     -1.676800    1.374600    0.443200
  O     -1.407500   -1.268300    0.569500
  C     -1.613700   -1.095000    1.958300
  C     -1.068200   -2.323000    2.685500
  C     -3.113000   -0.948600    2.233100
  C      0.873500    0.442300    0.092800
  C      1.704600   -0.501300   -0.801700
  C      1.556700   -1.947400   -0.400100
  C      0.707800   -2.801000   -1.120200
  C      0.540700   -4.127300   -0.720700
  C      1.225000   -4.619100    0.393600
  F      1.031400   -5.908700    0.770400
  C      2.095900   -3.784200    1.118500
  C      2.805800   -4.320000    2.338600
  F      3.723200   -3.411300    2.837700
  F      3.479800   -5.483600    2.013300
  F      1.876000   -4.596900    3.324000
  C      2.245900   -2.442400    0.718700
  C      1.220300    1.883500   -0.181400
  S      1.358600    2.570100   -1.726400
  C      1.614100    4.133600   -1.181000
  C      1.820600    5.283800   -1.938500
  C      1.999900    6.499600   -1.262300
  C      1.966400    6.541600    0.144500
  C      1.753500    5.368100    0.887600
  C      1.578600    4.157000    0.206300
  C      1.347300    2.896200    0.780000
  Br     1.183700    2.604700    2.669400
  H     -2.701200    1.589800   -3.499000
  H     -4.301600    1.126500   -2.790600
  H     -3.110300    2.047300   -1.803000
  H     -3.197900   -0.376800   -1.167800
  H     -2.363100   -2.105800   -2.724900
  H     -2.256200   -0.885400   -4.050800
  H     -3.863000   -1.315400   -3.335300
  H     -1.081300   -0.213400    2.388200
  H     -1.274300   -2.254200    3.775100
  H     -1.528200   -3.251800    2.284700
  H      0.030000   -2.379500    2.546100
  H     -3.663300   -1.842500    1.868600
  H     -3.296000   -0.828100    3.322200
  H     -3.512500   -0.053700    1.712700
  H      1.108300    0.211400    1.152600
  H      1.421900   -0.369500   -1.869200
  H      2.779500   -0.224400   -0.723800
  H      0.163800   -2.435800   -1.982100
  H     -0.126800   -4.774900   -1.274300
  H      2.887900   -1.772800    1.277500
  H      1.840900    5.242600   -3.019800
  H      2.162900    7.409600   -1.824900
  H      2.104300    7.484600    0.657300
  H      1.727500    5.412200    1.968400

 Total Charge           Charge          ....    0
 Multiplicity           Mult            ....    1
 Number of Electrons    NEL             ....  288
 Basis Dimension        Dim             .... 1196

ORBITAL ENERGIES
----------------

  NO   OCC          E(Eh)            E(eV)
   0   2.0000    -482.869099    -13139.5362
   1   2.0000     -88.892630     -2418.8914
   2   2.0000     -77.186363     -2100.3477
   3   2.0000     -62.515919     -1701.1446
   4   2.0000     -56.331596     -1532.8607
   5   2.0000     -56.328922     -1532.7879
   6   2.0000     -56.328827     -1532.7853
   7   2.0000     -24.723736      -672.7671
   8   2.0000     -24.718384      -672.6214
   9   2.0000     -24.716201      -672.5620
  10   2.0000     -24.710090      -672.3957
  11   2.0000     -19.170146      -521.6462
  12   2.0000     -19.163922      -521.4768
  13   2.0000     -19.076923      -519.1095
  14   2.0000     -10.441904      -284.1387
  15   2.0000     -10.289697      -279.9969
  16   2.0000     -10.240060      -278.6462
  17   2.0000     -10.237611      -278.5796
  18   2.0000     -10.235996      -278.5356
  19   2.0000     -10.234513      -278.4953
  20   2.0000     -10.231971      -278.4261
  21   2.0000     -10.226194      -278.2689
  22   2.0000     -10.213572      -277.9254
  23   2.0000     -10.212972      -277.9091
  24   2.0000     -10.210920      -277.8533
  25   2.0000     -10.210671      -277.8465
  26   2.0000     -10.206142      -277.7233
  27   2.0000     -10.204941      -277.6906
  28   2.0000     -10.195040      -277.4211
  29   2.0000     -10.194298      -277.4009
  30   2.0000     -10.188096      -277.2322
  31   2.0000     -10.186397      -277.1860
  32   2.0000     -10.184803      -277.1426
  33   2.0000     -10.174451      -276.8609
  34   2.0000     -10.167275      -276.6656
  35   2.0000     -10.163543      -276.5641
  36   2.0000     -10.161491      -276.5082
  37   2.0000      -8.706397      -236.9131
  38   2.0000      -7.971014      -216.9023
  39   2.0000      -6.653467      -181.0501
  40   2.0000      -6.536036      -177.8546
  41   2.0000      -6.524827      -177.5496
  42   2.0000      -6.524570      -177.5426
  43   2.0000      -5.933194      -161.4504
  44   2.0000      -5.929655      -161.3541
  45   2.0000      -5.927442      -161.2939
  46   2.0000      -4.816404      -131.0610
  47   2.0000      -4.815460      -131.0353
  48   2.0000      -4.813314      -130.9769
  49   2.0000      -2.650597       -72.1264
  50   2.0000      -2.647479       -72.0416
  51   2.0000      -2.647272       -72.0359
  52   2.0000      -2.638039       -71.7847
  53   2.0000      -2.638032       -71.7845
  54   2.0000      -1.298342       -35.3297
  55   2.0000      -1.241077       -33.7714
  56   2.0000      -1.224983       -33.3335
  57   2.0000      -1.221458       -33.2376
  58   2.0000      -1.070884       -29.1402
  59   2.0000      -1.043123       -28.3848
  60   2.0000      -0.949768       -25.8445
  61   2.0000      -0.927142       -25.2288
  62   2.0000      -0.895540       -24.3689
  63   2.0000      -0.856251       -23.2998
  64   2.0000      -0.830325       -22.5943
  65   2.0000      -0.819796       -22.3078
  66   2.0000      -0.803105       -21.8536
  67   2.0000      -0.786334       -21.3972
  68   2.0000      -0.776603       -21.1324
  69   2.0000      -0.776435       -21.1279
  70   2.0000      -0.766789       -20.8654
  71   2.0000      -0.732678       -19.9372
  72   2.0000      -0.716923       -19.5085
  73   2.0000      -0.708732       -19.2856
  74   2.0000      -0.689901       -18.7731
  75   2.0000      -0.685945       -18.6655
  76   2.0000      -0.681053       -18.5324
  77   2.0000      -0.651587       -17.7306
  78   2.0000      -0.635522       -17.2934
  79   2.0000      -0.626988       -17.0612
  80   2.0000      -0.613416       -16.6919
  81   2.0000      -0.597938       -16.2707
  82   2.0000      -0.593302       -16.1446
  83   2.0000      -0.591188       -16.0870
  84   2.0000      -0.589535       -16.0421
  85   2.0000      -0.580383       -15.7930
  86   2.0000      -0.574020       -15.6199
  87   2.0000      -0.561094       -15.2681
  88   2.0000      -0.546478       -14.8704
  89   2.0000      -0.534702       -14.5500
  90   2.0000      -0.525011       -14.2863
  91   2.0000      -0.501801       -13.6547
  92   2.0000      -0.501321       -13.6416
  93   2.0000      -0.497595       -13.5403
  94   2.0000      -0.490639       -13.3510
  95   2.0000      -0.482225       -13.1220
  96   2.0000      -0.475482       -12.9385
  97   2.0000      -0.471393       -12.8273
  98   2.0000      -0.469923       -12.7873
  99   2.0000      -0.466635       -12.6978
 100   2.0000      -0.462114       -12.5748
 101   2.0000      -0.457715       -12.4551
 102   2.0000      -0.451848       -12.2954
 103   2.0000      -0.449710       -12.2372
 104   2.0000      -0.447879       -12.1874
 105   2.0000      -0.441140       -12.0040
 106   2.0000      -0.440626       -11.9900
 107   2.0000      -0.438143       -11.9225
 108   2.0000      -0.434996       -11.8369
 109   2.0000      -0.429315       -11.6823
 110   2.0000      -0.428502       -11.6601
 111   2.0000      -0.421006       -11.4562
 112   2.0000      -0.418447       -11.3865
 113   2.0000      -0.416081       -11.3221
 114   2.0000      -0.414458       -11.2780
 115   2.0000      -0.401675       -10.9301
 116   2.0000      -0.396884       -10.7998
 117   2.0000      -0.394428       -10.7329
 118   2.0000      -0.391657       -10.6575
 119   2.0000      -0.389803       -10.6071
 120   2.0000      -0.387746       -10.5511
 121   2.0000      -0.384092       -10.4517
 122   2.0000      -0.376942       -10.2571
 123   2.0000      -0.372305       -10.1309
 124   2.0000      -0.371126       -10.0989
 125   2.0000      -0.368624       -10.0308
 126   2.0000      -0.367481        -9.9997
 127   2.0000      -0.361365        -9.8332
 128   2.0000      -0.354919        -9.6578
 129   2.0000      -0.346530        -9.4296
 130   2.0000      -0.344672        -9.3790
 131   2.0000      -0.337431        -9.1820
 132   2.0000      -0.333800        -9.0832
 133   2.0000      -0.330333        -8.9888
 134   2.0000      -0.316019        -8.5993
 135   2.0000      -0.304615        -8.2890
 136   2.0000      -0.301250        -8.1974
 137   2.0000      -0.289575        -7.8797
 138   2.0000      -0.284438        -7.7400
 139   2.0000      -0.282371        -7.6837
 140   2.0000      -0.279958        -7.6180
 141   2.0000      -0.267287        -7.2732
 142   2.0000      -0.250533        -6.8173
 143   2.0000      -0.222696        -6.0599
 144   0.0000      -0.057097        -1.5537
 145   0.0000      -0.052379        -1.4253
 146   0.0000      -0.039690        -1.0800
 147   0.0000      -0.023715        -0.6453
 148   0.0000      -0.019386        -0.5275

MULLIKEN ATOMIC CHARGES
-----------------------
   0 C :   -0.342010
   1 C :    0.141298
   2 C :   -0.326591
   3 O :   -0.381619
   4 P :    0.798850
   5 O :   -0.552876
   6 O :   -0.367485
   7 C :    0.121759
   8 C :   -0.306270
   9 C :   -0.350933
  10 C :   -0.102370
  11 C :   -0.276877
  12 C :    0.256283
  13 C :   -0.146001
  14 C :   -0.207649
  15 C :    0.279852
  16 F :   -0.193562
  17 C :   -0.036578
  18 C :    0.528705
  19 F :   -0.186355
  20 F :   -0.177797
  21 F :   -0.178203
  22 C :   -0.347596
  23 C :    0.129589
  24 S :    0.021255
  25 C :   -0.014740
  26 C :   -0.183933
  27 C :   -0.113706
  28 C :   -0.094501
  29 C :   -0.200066
  30 C :    0.180062
  31 C :   -0.114173
  32 Br:   -0.070203
  33 H :    0.096447
  34 H :    0.098889
  35 H :    0.148378
  36 H :    0.079597
  37 H :    0.104774
  38 H :    0.105286
  39 H :    0.111244
  40 H :    0.085446
  41 H :    0.111975
  42 H :    0.102358
  43 H :    0.113810
  44 H :    0.096465
  45 H :    0.102731
  46 H :    0.141900
  47 H :    0.144354
  48 H :    0.146556
  49 H :    0.137088
  50 H :    0.151418
  51 H :    0.123360
  52 H :    0.146278
  53 H :    0.115282
  54 H :    0.113621
  55 H :    0.112706
  56 H :    0.124475
Sum of atomic charges:    0.0000000

LOEWDIN ATOMIC CHARGES
----------------------
   0 C :   -0.288925
   1 C :   -0.413874
   2 C :   -0.291047
   3 O :    0.055433
   4 P :    0.503456
   5 O :   -0.274705
   6 O :    0.055416
   7 C :   -0.415684
   8 C :   -0.285781
   9 C :   -0.292142
  10 C :   -0.319113
  11 C :   -0.209773
  12 C :   -0.146579
  13 C :   -0.088800
  14 C :   -0.101473
  15 C :   -0.201882
  16 F :    0.187601
  17 C :   -0.111399
  18 C :   -0.512108
  19 F :    0.156345
  20 F :    0.160553
  21 F :    0.160707
  22 C :   -0.065795
  23 C :   -0.372523
  24 S :    0.817229
  25 C :   -0.347668
  26 C :   -0.130447
  27 C :   -0.134834
  28 C :   -0.134406
  29 C :   -0.092129
  30 C :   -0.172517
  31 C :   -0.344656
  32 Br:    0.352392
  33 H :    0.121728
  34 H :    0.124206
  35 H :    0.131108
  36 H :    0.146340
  37 H :    0.118781
  38 H :    0.123359
  39 H :    0.127273
  40 H :    0.143566
  41 H :    0.128324
  42 H :    0.125367
  43 H :    0.122444
  44 H :    0.120781
  45 H :    0.125241
  46 H :    0.126877
  47 H :    0.171579
  48 H :    0.151947
  49 H :    0.156302
  50 H :    0.150667
  51 H :    0.153184
  52 H :    0.156945
  53 H :    0.144271
  54 H :    0.142363
  55 H :    0.141833
  56 H :    0.144645

  Mayer bond orders larger than 0.100000
B(  0-C ,  1-C ) :   0.9808 B(  0-C , 33-H ) :   0.9645 B(  0-C , 34-H ) :   0.9663
B(  0-C , 35-H ) :   0.9687 B(  1-C ,  2-C ) :   0.9556 B(  1-C ,  3-O ) :   0.8728
B(  1-C , 36-H ) :   0.9494 B(  2-C , 37-H ) :   0.9781 B(  2-C , 38-H ) :   0.9691
B(  2-C , 39-H ) :   0.9701 B(  3-O ,  4-P ) :   1.0523 B(  4-P ,  5-O ) :   1.8962
B(  4-P ,  6-O ) :   1.0053 B(  4-P , 10-C ) :   0.8692 B(  6-O ,  7-C ) :   0.8680
B(  7-C ,  8-C ) :   0.9510 B(  7-C ,  9-C ) :   0.9754 B(  7-C , 40-H ) :   0.9484
B(  8-C , 41-H ) :   0.9695 B(  8-C , 42-H ) :   0.9646 B(  8-C , 43-H ) :   0.9763
B(  9-C , 44-H ) :   0.9690 B(  9-C , 45-H ) :   0.9675 B(  9-C , 46-H ) :   0.9695
B( 10-C , 11-C ) :   0.9836 B( 10-C , 23-C ) :   0.9002 B( 10-C , 47-H ) :   0.9301
B( 11-C , 12-C ) :   0.8460 B( 11-C , 48-H ) :   0.9583 B( 11-C , 49-H ) :   0.9764
B( 12-C , 13-C ) :   1.3770 B( 12-C , 22-C ) :   1.3211 B( 13-C , 14-C ) :   1.3670
B( 13-C , 50-H ) :   0.9380 B( 14-C , 15-C ) :   1.4272 B( 14-C , 51-H ) :   0.9758
B( 15-C , 16-F ) :   1.0873 B( 15-C , 17-C ) :   1.3162 B( 17-C , 18-C ) :   1.0068
B( 17-C , 22-C ) :   1.3280 B( 18-C , 19-F ) :   1.1063 B( 18-C , 20-F ) :   1.1223
B( 18-C , 21-F ) :   1.1153 B( 22-C , 52-H ) :   0.9717 B( 23-C , 24-S ) :   1.1742
B( 23-C , 31-C ) :   1.4377 B( 24-S , 25-C ) :   1.2666 B( 24-S , 31-C ) :   0.1752
B( 25-C , 26-C ) :   1.2896 B( 25-C , 30-C ) :   1.2691 B( 26-C , 27-C ) :   1.4644
B( 26-C , 53-H ) :   0.9695 B( 27-C , 28-C ) :   1.3457 B( 27-C , 54-H ) :   0.9699
B( 28-C , 29-C ) :   1.4856 B( 28-C , 55-H ) :   0.9705 B( 29-C , 30-C ) :   1.2724
B( 29-C , 56-H ) :   0.9526 B( 30-C , 31-C ) :   1.1356 B( 31-C , 32-Br) :   1.1264

FINAL SINGLE POINT ENERGY     -4829.319221246573

DIPOLE MOMENT
-------------

Method             : SCF
Type of density    : Electron Density
Multiplicity       :   1
Irrep              :   0
Energy             : -4829.3192212465728517 Eh
Relativity type    :
Basis              : AO
                                X                 Y                 Z
Electronic contribution:     43.827288252       2.526642327      42.612192893
Nuclear contribution   :    -43.994206780      -1.935107030     -43.853866401
                        -----------------------------------------
Total Dipole Moment    :     -0.166918528       0.591535297      -1.241673508
                        -----------------------------------------
Magnitude (a.u.)       :      1.385470643
Magnitude (Debye)      :      3.521586509

Rotational constants in cm-1:             0.004801             0.002199             0.001893
Rotational constants in MHz :           143.926112            65.939106            56.757524

                             ****ORCA TERMINATED NORMALLY****
TOTAL RUN TIME: 0 days 0 hours 22 minutes 53 seconds 519 msec
