                         Program Version 6.0.0  -   RELEASE  -
|  1> ! B3LYP 6-31G* SP
|  2>
|  3> * xyz 0 1
|  4> N -5.6893 -1.6291 -1.6650
|  5> C -4.9960 -0.7368 -0.7353
|  6> C -5.1730 -1.2464 0.7086
|  7> C -4.4067 -0.3698 1.7087
|  8> C -2.9178 -0.2965 1.3490
|  9> C -2.7329 0.2177 -0.0914
| 10> N -1.3006 0.3288 -0.4467
| 11> C -0.6715 1.6627 -0.4941
| 12> C 0.5192 1.7315 0.4736
| 13> C 0.1878 2.1450 1.8980
| 14> C 0.8808 3.1250 0.9629
| 15> C -0.5028 -0.8473 -0.7287
| 16> O -0.7114 -1.9180 -0.0978
| 17> C 0.5738 -0.8202 -1.7417
| 18> C 0.3198 -0.2687 -3.0078
| 19> C 1.3288 -0.2144 -3.9700
| 20> C 2.5971 -0.7169 -3.6807
| 21> C 2.8605 -1.2802 -2.4300
| 22> C 1.8521 -1.3402 -1.4472
| 23> O 2.0806 -1.8989 -0.1765
| 24> C 3.3603 -2.1687 0.3963
| 25> C 4.0346 -0.8826 0.7879
| 26> C 3.4882 -0.0943 1.8146
| 27> C 4.0836 1.1218 2.1622
| 28> C 5.2302 1.5564 1.4918
| 29> C 5.7840 0.7743 0.4738
| 30> C 5.1897 -0.4416 0.1214
| 31> C -3.4997 -0.6649 -1.0975
| 32> H -6.7098 -1.6149 -1.4348
| 33> H -5.6075 -1.2285 -2.6284
| 34> H -5.4371 0.2838 -0.8145
| 35> H -4.8121 -2.2963 0.7852
| 36> H -6.2516 -1.2356 0.9768
| 37> H -4.5166 -0.7965 2.7290
| 38> H -4.8414 0.6540 1.7189
| 39> H -2.4072 0.3908 2.0564
| 40> H -2.4745 -1.3053 1.4742
| 41> H -3.2030 1.2258 -0.1374
| 42> H -1.4091 2.4620 -0.2632
| 43> H -0.3072 1.8738 -1.5190
| 44> H 1.3840 1.0494 0.3481
| 45> H -0.8743 2.3963 2.1030
| 46> H 0.8562 1.7089 2.6699
| 47> H 1.9593 3.2699 1.1846
| 48> H 0.2292 3.9548 0.6153
| 49> H -0.6632 0.1166 -3.2510
| 50> H 1.1261 0.2149 -4.9427
| 51> H 3.3772 -0.6766 -4.4302
| 52> H 3.8482 -1.6745 -2.2468
| 53> H 3.9819 -2.7803 -0.2913
| 54> H 3.2103 -2.7798 1.3115
| 55> H 2.5944 -0.4162 2.3343
| 56> H 3.6530 1.7295 2.9474
| 57> H 5.6896 2.4985 1.7609
| 58> H 6.6728 1.1115 -0.0437
| 59> H 5.6305 -1.0349 -0.6695
| 60> H -3.3852 -0.2345 -2.1165
| 61> H -3.0821 -1.6947 -1.1113
| 62> *
| 63>
| 64>                          ****END OF INPUT****

CARTESIAN COORDINATES (ANGSTROEM)
---------------------------------
  N     -5.689300   -1.629100   -1.665000
  C     -4.996000   -0.736800   -0.735300
  C     -5.173000   -1.246400    0.708600
  C     -4.406700   -0.369800    1.708700
  C     -2.917800   -0.296500    1.349000
  C     -2.732900    0.217700   -0.091400
  N     -1.300600    0.328800   -0.446700
  C     -0.671500    1.662700   -0.494100
  C      0.519200    1.731500    0.473600
  C      0.187800    2.145000    1.898000
  C      0.880800    3.125000    0.962900
  C     -0.502800   -0.847300   -0.728700
  O     -0.711400   -1.918000   -0.097800
  C      0.573800   -0.820200   -1.741700
  C      0.319800   -0.268700   -3.007800
  C      1.328800   -0.214400   -3.970000
  C      2.597100   -0.716900   -3.680700
  C      2.860500   -1.280200   -2.430000
  C      1.852100   -1.340200   -1.447200
  O      2.080600   -1.898900   -0.176500
  C      3.360300   -2.168700    0.396300
  C      4.034600   -0.882600    0.787900
  C      3.488200   -0.094300    1.814600
  C      4.083600    1.121800    2.162200
  C      5.230200    1.556400    1.491800
  C      5.784000    0.774300    0.473800
  C      5.189700   -0.441600    0.121400
  C     -3.499700   -0.664900   -1.097500
  H     -6.709800   -1.614900   -1.434800
  H     -5.607500   -1.228500   -2.628400
  H     -5.437100    0.283800   -0.814500
  H     -4.812100   -2.296300    0.785200
  H     -6.251600   -1.235600    0.976800
  H     -4.516600   -0.796500    2.729000
  H     -4.841400    0.654000    1.718900
  H     -2.407200    0.390800    2.056400
  H     -2.474500   -1.305300    1.474200
  H     -3.203000    1.225800   -0.137400
  H     -1.409100    2.462000   -0.263200
  H     -0.307200    1.873800   -1.519000
  H      1.384000    1.049400    0.348100
  H     -0.874300    2.396300    2.103000
  H      0.856200    1.708900    2.669900
  H      1.959300    3.269900    1.184600
  H      0.229200    3.954800    0.615300
  H     -0.663200    0.116600   -3.251000
  H      1.126100    0.214900   -4.942700
  H      3.377200   -0.676600   -4.430200
  H      3.848200   -1.674500   -2.246800
  H      3.981900   -2.780300   -0.291300
  H      3.210300   -2.779800    1.311500
  H      2.594400   -0.416200    2.334300
  H      3.653000    1.729500    2.947400
  H      5.689600    2.498500    1.760900
  H      6.672800    1.111500   -0.043700
  H      5.630500   -1.034900   -0.669500
  H     -3.385200   -0.234500   -2.116500
  H     -3.082100   -1.694700   -1.111300

 Total Charge           Charge          ....    0
 Multiplicity           Mult            ....    1
 Number of Electrons    NEL             ....  204
 Basis Dimension        Dim             ....  452

ORBITAL ENERGIES
----------------

  NO   OCC          E(Eh)            E(eV)
   0   2.0000     -19.161811      -521.4194
   1   2.0000     -19.096103      -519.6314
   2   2.0000     -14.330890      -389.9634
   3   2.0000     -14.295139      -388.9905
   4   2.0000     -10.273622      -279.5595
   5   2.0000     -10.253425      -279.0099
   6   2.0000     -10.240643      -278.6621
   7   2.0000     -10.210426      -277.8398
   8   2.0000     -10.208010      -277.7741
   9   2.0000     -10.194524      -277.4071
  10   2.0000     -10.193546      -277.3805
  11   2.0000     -10.192440      -277.3504
  12   2.0000     -10.188600      -277.2459
  13   2.0000     -10.188558      -277.2448
  14   2.0000     -10.187472      -277.2152
  15   2.0000     -10.187460      -277.2149
  16   2.0000     -10.187067      -277.2042
  17   2.0000     -10.186634      -277.1924
  18   2.0000     -10.186171      -277.1798
  19   2.0000     -10.183946      -277.1193
  20   2.0000     -10.178418      -276.9688
  21   2.0000     -10.178234      -276.9638
  22   2.0000     -10.174247      -276.8553
  23   2.0000     -10.174010      -276.8489
  24   2.0000     -10.161716      -276.5143
  25   2.0000     -10.160355      -276.4773
  26   2.0000     -10.160027      -276.4684
  27   2.0000     -10.151515      -276.2368
  28   2.0000      -1.041683       -28.3456
  29   2.0000      -0.994685       -27.0668
  30   2.0000      -0.901595       -24.5336
  31   2.0000      -0.870024       -23.6746
  32   2.0000      -0.857916       -23.3451
  33   2.0000      -0.850061       -23.1313
  34   2.0000      -0.840543       -22.8723
  35   2.0000      -0.792994       -21.5785
  36   2.0000      -0.776563       -21.1313
  37   2.0000      -0.757181       -20.6039
  38   2.0000      -0.747561       -20.3422
  39   2.0000      -0.739503       -20.1229
  40   2.0000      -0.726715       -19.7749
  41   2.0000      -0.700613       -19.0646
  42   2.0000      -0.685456       -18.6522
  43   2.0000      -0.675173       -18.3724
  44   2.0000      -0.632898       -17.2220
  45   2.0000      -0.611126       -16.6296
  46   2.0000      -0.609300       -16.5799
  47   2.0000      -0.597325       -16.2540
  48   2.0000      -0.582593       -15.8532
  49   2.0000      -0.580083       -15.7849
  50   2.0000      -0.576905       -15.6984
  51   2.0000      -0.564205       -15.3528
  52   2.0000      -0.542443       -14.7606
  53   2.0000      -0.538292       -14.6477
  54   2.0000      -0.520931       -14.1753
  55   2.0000      -0.507302       -13.8044
  56   2.0000      -0.494913       -13.4673
  57   2.0000      -0.484133       -13.1739
  58   2.0000      -0.477948       -13.0056
  59   2.0000      -0.470302       -12.7976
  60   2.0000      -0.464144       -12.6300
  61   2.0000      -0.458901       -12.4873
  62   2.0000      -0.453320       -12.3355
  63   2.0000      -0.449812       -12.2400
  64   2.0000      -0.448506       -12.2045
  65   2.0000      -0.440903       -11.9976
  66   2.0000      -0.436800       -11.8859
  67   2.0000      -0.433554       -11.7976
  68   2.0000      -0.425043       -11.5660
  69   2.0000      -0.423798       -11.5321
  70   2.0000      -0.422025       -11.4839
  71   2.0000      -0.417137       -11.3509
  72   2.0000      -0.408379       -11.1126
  73   2.0000      -0.390603       -10.6288
  74   2.0000      -0.386045       -10.5048
  75   2.0000      -0.384341       -10.4585
  76   2.0000      -0.368962       -10.0400
  77   2.0000      -0.366325        -9.9682
  78   2.0000      -0.364754        -9.9255
  79   2.0000      -0.363309        -9.8861
  80   2.0000      -0.360341        -9.8054
  81   2.0000      -0.357774        -9.7355
  82   2.0000      -0.352546        -9.5933
  83   2.0000      -0.350462        -9.5365
  84   2.0000      -0.346757        -9.4357
  85   2.0000      -0.343028        -9.3343
  86   2.0000      -0.331635        -9.0243
  87   2.0000      -0.324817        -8.8387
  88   2.0000      -0.313017        -8.5176
  89   2.0000      -0.310570        -8.4510
  90   2.0000      -0.306135        -8.3303
  91   2.0000      -0.299566        -8.1516
  92   2.0000      -0.292653        -7.9635
  93   2.0000      -0.275198        -7.4885
  94   2.0000      -0.269297        -7.3280
  95   2.0000      -0.255201        -6.9444
  96   2.0000      -0.251503        -6.8438
  97   2.0000      -0.247312        -6.7297
  98   2.0000      -0.227542        -6.1917
  99   2.0000      -0.221055        -6.0152
 100   2.0000      -0.217134        -5.9085
 101   2.0000      -0.205712        -5.5977
 102   0.0000      -0.028654        -0.7797
 103   0.0000      -0.011315        -0.3079
 104   0.0000      -0.005244        -0.1427
 105   0.0000       0.006168         0.1678
 106   0.0000       0.041826         1.1381

MULLIKEN ATOMIC CHARGES
-----------------------
   0 N :   -0.709300
   1 C :    0.040429
   2 C :   -0.250460
   3 C :   -0.267485
   4 C :   -0.255179
   5 C :    0.040915
   6 N :   -0.422855
   7 C :   -0.162335
   8 C :   -0.086793
   9 C :   -0.301365
  10 C :   -0.323604
  11 C :    0.457198
  12 O :   -0.453047
  13 C :    0.023582
  14 C :   -0.160157
  15 C :   -0.136913
  16 C :   -0.116337
  17 C :   -0.192135
  18 C :    0.354827
  19 O :   -0.499491
  20 C :   -0.111829
  21 C :    0.131027
  22 C :   -0.168651
  23 C :   -0.132600
  24 C :   -0.124322
  25 C :   -0.125798
  26 C :   -0.168745
  27 C :   -0.276922
  28 H :    0.284018
  29 H :    0.282114
  30 H :    0.088309
  31 H :    0.148546
  32 H :    0.113864
  33 H :    0.129101
  34 H :    0.112962
  35 H :    0.124196
  36 H :    0.174304
  37 H :    0.116550
  38 H :    0.137179
  39 H :    0.144318
  40 H :    0.169808
  41 H :    0.144575
  42 H :    0.141353
  43 H :    0.146964
  44 H :    0.139678
  45 H :    0.143551
  46 H :    0.126326
  47 H :    0.132361
  48 H :    0.130849
  49 H :    0.137271
  50 H :    0.168378
  51 H :    0.150480
  52 H :    0.134833
  53 H :    0.131182
  54 H :    0.130650
  55 H :    0.126255
  56 H :    0.110650
  57 H :    0.177721
Sum of atomic charges:   -0.0000000

LOEWDIN ATOMIC CHARGES
----------------------
   0 N :   -0.466795
   1 C :   -0.077797
   2 C :   -0.228219
   3 C :   -0.232305
   4 C :   -0.238203
   5 C :   -0.046485
   6 N :   -0.110536
   7 C :   -0.146035
   8 C :   -0.148185
   9 C :   -0.256245
  10 C :   -0.261259
  11 C :    0.149653
  12 O :   -0.258161
  13 C :   -0.065583
  14 C :   -0.111178
  15 C :   -0.148760
  16 C :   -0.114101
  17 C :   -0.166896
  18 C :    0.113615
  19 O :   -0.166903
  20 C :   -0.081526
  21 C :   -0.039991
  22 C :   -0.123623
  23 C :   -0.131600
  24 C :   -0.127321
  25 C :   -0.126990
  26 C :   -0.129986
  27 C :   -0.233981
  28 H :    0.218104
  29 H :    0.216921
  30 H :    0.086454
  31 H :    0.128188
  32 H :    0.112233
  33 H :    0.120105
  34 H :    0.106903
  35 H :    0.117045
  36 H :    0.140635
  37 H :    0.115317
  38 H :    0.124713
  39 H :    0.118978
  40 H :    0.142748
  41 H :    0.127910
  42 H :    0.127889
  43 H :    0.131919
  44 H :    0.126276
  45 H :    0.139222
  46 H :    0.131208
  47 H :    0.133813
  48 H :    0.134168
  49 H :    0.114441
  50 H :    0.139992
  51 H :    0.140516
  52 H :    0.132930
  53 H :    0.132761
  54 H :    0.132488
  55 H :    0.128919
  56 H :    0.109796
  57 H :    0.142807

  Mayer bond orders larger than 0.100000
B(  0-N ,  1-C ) :   0.9763 B(  0-N , 28-H ) :   0.8623 B(  0-N , 29-H ) :   0.8631
B(  1-C ,  2-C ) :   0.9976 B(  1-C , 27-C ) :   0.9843 B(  1-C , 30-H ) :   0.9271
B(  2-C ,  3-C ) :   1.0048 B(  2-C , 31-H ) :   0.9302 B(  2-C , 32-H ) :   0.9381
B(  3-C ,  4-C ) :   0.9948 B(  3-C , 33-H ) :   0.9416 B(  3-C , 34-H ) :   0.9388
B(  4-C ,  5-C ) :   0.9907 B(  4-C , 35-H ) :   0.9326 B(  4-C , 36-H ) :   0.9171
B(  5-C ,  6-N ) :   0.9239 B(  5-C , 27-C ) :   0.9918 B(  5-C , 37-H ) :   0.9240
B(  6-N ,  7-C ) :   0.9439 B(  6-N , 11-C ) :   1.0562 B(  7-C ,  8-C ) :   1.0101
B(  7-C , 38-H ) :   0.9308 B(  7-C , 39-H ) :   0.9170 B(  8-C ,  9-C ) :   0.9571
B(  8-C , 10-C ) :   0.9455 B(  8-C , 40-H ) :   0.9121 B(  9-C , 10-C ) :   0.9613
B(  9-C , 41-H ) :   0.9428 B(  9-C , 42-H ) :   0.9441 B( 10-C , 43-H ) :   0.9397
B( 10-C , 44-H ) :   0.9452 B( 11-C , 12-O ) :   1.7996 B( 11-C , 13-C ) :   0.9433
B( 13-C , 14-C ) :   1.4167 B( 13-C , 18-C ) :   1.3501 B( 14-C , 15-C ) :   1.4370
B( 14-C , 45-H ) :   0.9185 B( 15-C , 16-C ) :   1.4472 B( 15-C , 46-H ) :   0.9296
B( 16-C , 17-C ) :   1.4440 B( 16-C , 47-H ) :   0.9295 B( 17-C , 18-C ) :   1.3565
B( 17-C , 48-H ) :   0.9148 B( 18-C , 19-O ) :   0.9309 B( 19-O , 20-C ) :   0.9097
B( 20-C , 21-C ) :   0.9636 B( 20-C , 49-H ) :   0.9186 B( 20-C , 50-H ) :   0.9264
B( 21-C , 22-C ) :   1.4177 B( 21-C , 26-C ) :   1.4399 B( 22-C , 23-C ) :   1.4389
B( 22-C , 51-H ) :   0.9202 B( 23-C , 24-C ) :   1.4426 B( 23-C , 52-H ) :   0.9273
B( 24-C , 25-C ) :   1.4609 B( 24-C , 53-H ) :   0.9301 B( 25-C , 26-C ) :   1.4362
B( 25-C , 54-H ) :   0.9292 B( 26-C , 55-H ) :   0.9228 B( 27-C , 56-H ) :   0.9327
B( 27-C , 57-H ) :   0.9119

FINAL SINGLE POINT ENERGY     -1191.728895283267

DIPOLE MOMENT
-------------

Method             : SCF
Type of density    : Electron Density
Multiplicity       :   1
Irrep              :   0
Energy             : -1191.7288952832668656 Eh
Relativity type    :
Basis              : AO
                                X                 Y                 Z
Electronic contribution:     20.805427793      -8.895437908      -6.731704306
Nuclear contribution   :    -20.070547316      10.353135428       6.289524580
                        -----------------------------------------
Total Dipole Moment    :      0.734880477       1.457697519      -0.442179726
                        -----------------------------------------
Magnitude (a.u.)       :      1.691287759
Magnitude (Debye)      :      4.298911843

Rotational constants in cm-1:             0.009994             0.003586             0.003135
Rotational constants in MHz :           299.615263           107.502235            93.983436

                             ****ORCA TERMINATED NORMALLY****
TOTAL RUN TIME: 0 days 0 hours 7 minutes 54 seconds 568 msec
