                         Program Version 6.0.0  -   RELEASE  -
|  1> ! B3LYP 6-31G* SP
|  2>
|  3> * xyz 0 1
|  4> O 2.4941 0.4322 -1.8516
|  5> C 1.9148 0.1263 -0.7737
|  6> N 2.6845 -0.1982 0.3973
|  7> C 4.1206 -0.2549 0.4274
|  8> C 4.8569 -0.7969 -0.6399
|  9> C 6.2518 -0.8650 -0.5741
| 10> C 6.9365 -0.3892 0.5571
| 11> C 8.4369 -0.5085 0.6479
| 12> F 8.9592 0.4934 1.4476
| 13> F 8.7638 -1.7362 1.1927
| 14> F 9.0120 -0.4042 -0.6069
| 15> C 6.1946 0.1041 1.6437
| 16> C 4.8000 0.1706 1.5773
| 17> N 0.4777 0.1091 -0.7253
| 18> C -0.2287 0.8707 0.3115
| 19> C -1.5165 0.1463 0.7183
| 20> C -2.4080 -0.2186 -0.4977
| 21> C -3.0424 1.0309 -1.1740
| 22> C -4.0549 1.7356 -0.2585
| 23> C -4.9987 0.7610 0.3955
| 24> C -6.2031 1.2164 0.9539
| 25> C -7.0737 0.3174 1.5779
| 26> F -8.2392 0.7614 2.1097
| 27> C -6.7433 -1.0387 1.6543
| 28> C -5.5391 -1.4975 1.1133
| 29> C -4.6598 -0.6024 0.4948
| 30> O -3.4573 -1.0787 -0.0405
| 31> C -1.5652 -1.0178 -1.5186
| 32> C -0.2738 -0.2927 -1.9191
| 33> H 2.1797 -0.3546 1.2978
| 34> H 4.3563 -1.1994 -1.5102
| 35> H 6.7947 -1.3005 -1.4036
| 36> H 6.6926 0.4347 2.5466
| 37> H 4.2460 0.5600 2.4224
| 38> H 0.4009 1.0049 1.2150
| 39> H -0.4612 1.8868 -0.0706
| 40> H -2.0737 0.7647 1.4520
| 41> H -1.2325 -0.7907 1.2469
| 42> H -3.5799 0.7094 -2.0937
| 43> H -2.2717 1.7637 -1.4888
| 44> H -3.5213 2.3099 0.5279
| 45> H -4.6334 2.4648 -0.8668
| 46> H -6.4668 2.2657 0.9024
| 47> H -7.4183 -1.7346 2.1357
| 48> H -5.2855 -2.5479 1.1794
| 49> H -1.2897 -1.9990 -1.0716
| 50> H -2.1652 -1.2321 -2.4298
| 51> H -0.5043 0.6029 -2.5342
| 52> H 0.3337 -0.9849 -2.5430
| 53> *
| 54>
| 55>                          ****END OF INPUT****

CARTESIAN COORDINATES (ANGSTROEM)
---------------------------------
  O      2.494100    0.432200   -1.851600
  C      1.914800    0.126300   -0.773700
  N      2.684500   -0.198200    0.397300
  C      4.120600   -0.254900    0.427400
  C      4.856900   -0.796900   -0.639900
  C      6.251800   -0.865000   -0.574100
  C      6.936500   -0.389200    0.557100
  C      8.436900   -0.508500    0.647900
  F      8.959200    0.493400    1.447600
  F      8.763800   -1.736200    1.192700
  F      9.012000   -0.404200   -0.606900
  C      6.194600    0.104100    1.643700
  C      4.800000    0.170600    1.577300
  N      0.477700    0.109100   -0.725300
  C     -0.228700    0.870700    0.311500
  C     -1.516500    0.146300    0.718300
  C     -2.408000   -0.218600   -0.497700
  C     -3.042400    1.030900   -1.174000
  C     -4.054900    1.735600   -0.258500
  C     -4.998700    0.761000    0.395500
  C     -6.203100    1.216400    0.953900
  C     -7.073700    0.317400    1.577900
  F     -8.239200    0.761400    2.109700
  C     -6.743300   -1.038700    1.654300
  C     -5.539100   -1.497500    1.113300
  C     -4.659800   -0.602400    0.494800
  O     -3.457300   -1.078700   -0.040500
  C     -1.565200   -1.017800   -1.518600
  C     -0.273800   -0.292700   -1.919100
  H      2.179700   -0.354600    1.297800
  H      4.356300   -1.199400   -1.510200
  H      6.794700   -1.300500   -1.403600
  H      6.692600    0.434700    2.546600
  H      4.246000    0.560000    2.422400
  H      0.400900    1.004900    1.215000
  H     -0.461200    1.886800   -0.070600
  H     -2.073700    0.764700    1.452000
  H     -1.232500   -0.790700    1.246900
  H     -3.579900    0.709400   -2.093700
  H     -2.271700    1.763700   -1.488800
  H     -3.521300    2.309900    0.527900
  H     -4.633400    2.464800   -0.866800
  H     -6.466800    2.265700    0.902400
  H     -7.418300   -1.734600    2.135700
  H     -5.285500   -2.547900    1.179400
  H     -1.289700   -1.999000   -1.071600
  H     -2.165200   -1.232100   -2.429800
  H     -0.504300    0.602900   -2.534200
  H      0.333700   -0.984900   -2.543000

 Total Charge           Charge          ....    0
 Multiplicity           Mult            ....    1
 Number of Electrons    NEL             ....  212
 Basis Dimension        Dim             ....  446

ORBITAL ENERGIES
----------------

  NO   OCC          E(Eh)            E(eV)
   0   2.0000     -24.713456      -672.4873
   1   2.0000     -24.712878      -672.4716
   2   2.0000     -24.709453      -672.3784
   3   2.0000     -24.694042      -671.9591
   4   2.0000     -19.167299      -521.5687
   5   2.0000     -19.113191      -520.0964
   6   2.0000     -14.379446      -391.2846
   7   2.0000     -14.354520      -390.6063
   8   2.0000     -10.427897      -283.7575
   9   2.0000     -10.324957      -280.9564
  10   2.0000     -10.262767      -279.2641
  11   2.0000     -10.259278      -279.1692
  12   2.0000     -10.246993      -278.8349
  13   2.0000     -10.244649      -278.7711
  14   2.0000     -10.235128      -278.5120
  15   2.0000     -10.224750      -278.2296
  16   2.0000     -10.206123      -277.7227
  17   2.0000     -10.201086      -277.5857
  18   2.0000     -10.198120      -277.5050
  19   2.0000     -10.197720      -277.4941
  20   2.0000     -10.197614      -277.4912
  21   2.0000     -10.197053      -277.4759
  22   2.0000     -10.194244      -277.3995
  23   2.0000     -10.194190      -277.3980
  24   2.0000     -10.191822      -277.3336
  25   2.0000     -10.191120      -277.3145
  26   2.0000     -10.190122      -277.2873
  27   2.0000     -10.189689      -277.2755
  28   2.0000     -10.189382      -277.2672
  29   2.0000      -1.272945       -34.6386
  30   2.0000      -1.207222       -32.8502
  31   2.0000      -1.198577       -32.6149
  32   2.0000      -1.197271       -32.5794
  33   2.0000      -1.053966       -28.6799
  34   2.0000      -1.027787       -27.9675
  35   2.0000      -0.930934       -25.3320
  36   2.0000      -0.925631       -25.1877
  37   2.0000      -0.860228       -23.4080
  38   2.0000      -0.858723       -23.3671
  39   2.0000      -0.823665       -22.4131
  40   2.0000      -0.788671       -21.4608
  41   2.0000      -0.775804       -21.1107
  42   2.0000      -0.771784       -21.0013
  43   2.0000      -0.757251       -20.6058
  44   2.0000      -0.745554       -20.2876
  45   2.0000      -0.730108       -19.8673
  46   2.0000      -0.692181       -18.8352
  47   2.0000      -0.664231       -18.0747
  48   2.0000      -0.652161       -17.7462
  49   2.0000      -0.645339       -17.5606
  50   2.0000      -0.629852       -17.1391
  51   2.0000      -0.622305       -16.9338
  52   2.0000      -0.616667       -16.7804
  53   2.0000      -0.598300       -16.2806
  54   2.0000      -0.574681       -15.6379
  55   2.0000      -0.563971       -15.3464
  56   2.0000      -0.563003       -15.3201
  57   2.0000      -0.555774       -15.1234
  58   2.0000      -0.549628       -14.9561
  59   2.0000      -0.543139       -14.7796
  60   2.0000      -0.529572       -14.4104
  61   2.0000      -0.522916       -14.2293
  62   2.0000      -0.509889       -13.8748
  63   2.0000      -0.502818       -13.6824
  64   2.0000      -0.476082       -12.9548
  65   2.0000      -0.468277       -12.7425
  66   2.0000      -0.464824       -12.6485
  67   2.0000      -0.461147       -12.5485
  68   2.0000      -0.459849       -12.5131
  69   2.0000      -0.453898       -12.3512
  70   2.0000      -0.450476       -12.2581
  71   2.0000      -0.444752       -12.1023
  72   2.0000      -0.443601       -12.0710
  73   2.0000      -0.442567       -12.0429
  74   2.0000      -0.439727       -11.9656
  75   2.0000      -0.433857       -11.8059
  76   2.0000      -0.426845       -11.6150
  77   2.0000      -0.419254       -11.4085
  78   2.0000      -0.415825       -11.3152
  79   2.0000      -0.415589       -11.3088
  80   2.0000      -0.412567       -11.2265
  81   2.0000      -0.407486       -11.0883
  82   2.0000      -0.405044       -11.0218
  83   2.0000      -0.400300       -10.8927
  84   2.0000      -0.399271       -10.8647
  85   2.0000      -0.391834       -10.6623
  86   2.0000      -0.387755       -10.5514
  87   2.0000      -0.380559       -10.3555
  88   2.0000      -0.376999       -10.2587
  89   2.0000      -0.371222       -10.1015
  90   2.0000      -0.365901        -9.9567
  91   2.0000      -0.360282        -9.8038
  92   2.0000      -0.359203        -9.7744
  93   2.0000      -0.358225        -9.7478
  94   2.0000      -0.355592        -9.6762
  95   2.0000      -0.337033        -9.1711
  96   2.0000      -0.335026        -9.1165
  97   2.0000      -0.304417        -8.2836
  98   2.0000      -0.301307        -8.1990
  99   2.0000      -0.297576        -8.0974
 100   2.0000      -0.270902        -7.3716
 101   2.0000      -0.258409        -7.0317
 102   2.0000      -0.251118        -6.8333
 103   2.0000      -0.233971        -6.3667
 104   2.0000      -0.227845        -6.2000
 105   2.0000      -0.214672        -5.8415
 106   0.0000      -0.028298        -0.7700
 107   0.0000      -0.012184        -0.3316
 108   0.0000      -0.011364        -0.3092
 109   0.0000       0.013686         0.3724
 110   0.0000       0.022880         0.6226

MULLIKEN ATOMIC CHARGES
-----------------------
   0 O :   -0.474505
   1 C :    0.662911
   2 N :   -0.706612
   3 C :    0.340965
   4 C :   -0.127356
   5 C :   -0.173198
   6 C :   -0.014074
   7 C :    0.891925
   8 F :   -0.307166
   9 F :   -0.298364
  10 F :   -0.305857
  11 C :   -0.164360
  12 C :   -0.180452
  13 N :   -0.436443
  14 C :   -0.148675
  15 C :   -0.285860
  16 C :    0.338572
  17 C :   -0.308246
  18 C :   -0.350932
  19 C :    0.119475
  20 C :   -0.270337
  21 C :    0.406056
  22 F :   -0.323866
  23 C :   -0.207489
  24 C :   -0.176178
  25 C :    0.315391
  26 O :   -0.555212
  27 C :   -0.293363
  28 C :   -0.127237
  29 H :    0.331437
  30 H :    0.162122
  31 H :    0.155405
  32 H :    0.151881
  33 H :    0.130137
  34 H :    0.141804
  35 H :    0.148154
  36 H :    0.144155
  37 H :    0.147250
  38 H :    0.150570
  39 H :    0.145965
  40 H :    0.153809
  41 H :    0.155511
  42 H :    0.137895
  43 H :    0.144337
  44 H :    0.143709
  45 H :    0.150220
  46 H :    0.147110
  47 H :    0.146263
  48 H :    0.172756
Sum of atomic charges:    0.0000000

LOEWDIN ATOMIC CHARGES
----------------------
   0 O :   -0.294681
   1 C :    0.165478
   2 N :   -0.220165
   3 C :    0.047273
   4 C :   -0.119724
   5 C :   -0.109328
   6 C :   -0.078372
   7 C :    0.308985
   8 F :   -0.115264
   9 F :   -0.115994
  10 F :   -0.114142
  11 C :   -0.111319
  12 C :   -0.146365
  13 N :   -0.142516
  14 C :   -0.150663
  15 C :   -0.238819
  16 C :    0.075758
  17 C :   -0.235063
  18 C :   -0.224193
  19 C :   -0.049938
  20 C :   -0.157226
  21 C :    0.101313
  22 F :   -0.109387
  23 C :   -0.155445
  24 C :   -0.142135
  25 C :    0.072379
  26 O :   -0.174897
  27 C :   -0.227682
  28 C :   -0.141346
  29 H :    0.256182
  30 H :    0.152258
  31 H :    0.145518
  32 H :    0.143880
  33 H :    0.133442
  34 H :    0.125677
  35 H :    0.114226
  36 H :    0.128501
  37 H :    0.129621
  38 H :    0.129927
  39 H :    0.127826
  40 H :    0.128659
  41 H :    0.135852
  42 H :    0.140978
  43 H :    0.144138
  44 H :    0.143532
  45 H :    0.131134
  46 H :    0.131774
  47 H :    0.115504
  48 H :    0.144849

  Mayer bond orders larger than 0.100000
B(  0-O ,  1-C ) :   1.8157 B(  1-C ,  2-N ) :   1.0140 B(  1-C , 13-N ) :   1.0329
B(  2-N ,  3-C ) :   0.8738 B(  2-N , 29-H ) :   0.8217 B(  3-C ,  4-C ) :   1.4194
B(  3-C , 12-C ) :   1.4032 B(  4-C ,  5-C ) :   1.4322 B(  4-C , 30-H ) :   0.9101
B(  5-C ,  6-C ) :   1.3988 B(  5-C , 31-H ) :   0.9197 B(  6-C ,  7-C ) :   0.9825
B(  6-C , 11-C ) :   1.4119 B(  7-C ,  8-F ) :   0.9466 B(  7-C ,  9-F ) :   0.9847
B(  7-C , 10-F ) :   0.9481 B( 11-C , 12-C ) :   1.4378 B( 11-C , 32-H ) :   0.9194
B( 12-C , 33-H ) :   0.9247 B( 13-N , 14-C ) :   0.9576 B( 13-N , 28-C ) :   0.9413
B( 14-C , 15-C ) :   0.9764 B( 14-C , 34-H ) :   0.9322 B( 14-C , 35-H ) :   0.9179
B( 15-C , 16-C ) :   0.9834 B( 15-C , 36-H ) :   0.9231 B( 15-C , 37-H ) :   0.9287
B( 16-C , 17-C ) :   0.9726 B( 16-C , 26-O ) :   0.8359 B( 16-C , 27-C ) :   0.9955
B( 17-C , 18-C ) :   0.9967 B( 17-C , 38-H ) :   0.9305 B( 17-C , 39-H ) :   0.9225
B( 18-C , 19-C ) :   0.9796 B( 18-C , 40-H ) :   0.9216 B( 18-C , 41-H ) :   0.9320
B( 19-C , 20-C ) :   1.3843 B( 19-C , 25-C ) :   1.3721 B( 20-C , 21-C ) :   1.3873
B( 20-C , 42-H ) :   0.9196 B( 21-C , 22-F ) :   0.9046 B( 21-C , 23-C ) :   1.3847
B( 23-C , 24-C ) :   1.4274 B( 23-C , 43-H ) :   0.9217 B( 24-C , 25-C ) :   1.3938
B( 24-C , 44-H ) :   0.9188 B( 25-C , 26-O ) :   0.9036 B( 27-C , 28-C ) :   0.9730
B( 27-C , 45-H ) :   0.9269 B( 27-C , 46-H ) :   0.9263 B( 28-C , 47-H ) :   0.9219
B( 28-C , 48-H ) :   0.9299

FINAL SINGLE POINT ENERGY     -1470.789311781646

DIPOLE MOMENT
-------------

Method             : SCF
Type of density    : Electron Density
Multiplicity       :   1
Irrep              :   0
Energy             : -1470.7893117816456652 Eh
Relativity type    :
Basis              : AO
                                X                 Y                 Z
Electronic contribution:     42.177992946      -4.622093492       9.185641198
Nuclear contribution   :    -43.386832975       4.670134911      -8.562624828
                        -----------------------------------------
Total Dipole Moment    :     -1.208840029       0.048041419       0.623016370
                        -----------------------------------------
Magnitude (a.u.)       :      1.360790796
Magnitude (Debye)      :      3.458855325

Rotational constants in cm-1:             0.020657             0.001321             0.001295
Rotational constants in MHz :           619.292746            39.591269            38.823820

                             ****ORCA TERMINATED NORMALLY****
TOTAL RUN TIME: 0 days 0 hours 6 minutes 31 seconds 692 msec
