                         Program Version 6.0.0  -   RELEASE  -
|  1> ! B3LYP 6-31G* SP
|  2>
|  3> * xyz 0 1
|  4> N -4.9582 1.0295 -1.0714
|  5> C -5.1581 -0.4132 -0.9594
|  6> C -4.5363 -0.9527 0.3321
|  7> C -3.0370 -0.8811 0.2976
|  8> C -2.1816 -1.7943 -0.3101
|  9> N -0.8981 -1.3832 -0.2012
| 10> C -0.9348 -0.2124 0.4607
| 11> C 0.1481 0.6034 0.7960
| 12> O 1.4465 0.2074 0.4455
| 13> C 2.6198 0.9607 0.7353
| 14> C 3.8176 0.2261 0.2094
| 15> C 4.2509 0.4318 -1.1108
| 16> C 5.3436 -0.2827 -1.6124
| 17> C 6.0017 -1.2145 -0.8048
| 18> C 5.5650 -1.4370 0.5042
| 19> C 4.4728 -0.7246 1.0095
| 20> C -0.1335 1.8092 1.4831
| 21> C -1.4637 2.1575 1.8038
| 22> C -2.5291 1.3130 1.4488
| 23> C -2.2254 0.1290 0.7780
| 24> H -5.5493 1.3717 -1.8632
| 25> H -3.9661 1.2034 -1.3530
| 26> H -6.2493 -0.6268 -0.9372
| 27> H -4.7263 -0.9328 -1.8445
| 28> H -4.8392 -2.0142 0.4602
| 29> H -4.9288 -0.3885 1.2050
| 30> H -2.4840 -2.7036 -0.8130
| 31> H -0.0537 -1.8741 -0.5708
| 32> H 2.7138 1.1025 1.8343
| 33> H 2.5503 1.9632 0.2591
| 34> H 3.7432 1.1433 -1.7504
| 35> H 5.6775 -0.1169 -2.6285
| 36> H 6.8462 -1.7677 -1.1949
| 37> H 6.0704 -2.1646 1.1261
| 38> H 4.1380 -0.9140 2.0219
| 39> H 0.6618 2.4831 1.7706
| 40> H -1.6652 3.0837 2.3262
| 41> H -3.5497 1.5802 1.6890
| 42> *
| 43>
| 44>                          ****END OF INPUT****

CARTESIAN COORDINATES (ANGSTROEM)
---------------------------------
  N     -4.958200    1.029500   -1.071400
  C     -5.158100   -0.413200   -0.959400
  C     -4.536300   -0.952700    0.332100
  C     -3.037000   -0.881100    0.297600
  C     -2.181600   -1.794300   -0.310100
  N     -0.898100   -1.383200   -0.201200
  C     -0.934800   -0.212400    0.460700
  C      0.148100    0.603400    0.796000
  O      1.446500    0.207400    0.445500
  C      2.619800    0.960700    0.735300
  C      3.817600    0.226100    0.209400
  C      4.250900    0.431800   -1.110800
  C      5.343600   -0.282700   -1.612400
  C      6.001700   -1.214500   -0.804800
  C      5.565000   -1.437000    0.504200
  C      4.472800   -0.724600    1.009500
  C     -0.133500    1.809200    1.483100
  C     -1.463700    2.157500    1.803800
  C     -2.529100    1.313000    1.448800
  C     -2.225400    0.129000    0.778000
  H     -5.549300    1.371700   -1.863200
  H     -3.966100    1.203400   -1.353000
  H     -6.249300   -0.626800   -0.937200
  H     -4.726300   -0.932800   -1.844500
  H     -4.839200   -2.014200    0.460200
  H     -4.928800   -0.388500    1.205000
  H     -2.484000   -2.703600   -0.813000
  H     -0.053700   -1.874100   -0.570800
  H      2.713800    1.102500    1.834300
  H      2.550300    1.963200    0.259100
  H      3.743200    1.143300   -1.750400
  H      5.677500   -0.116900   -2.628500
  H      6.846200   -1.767700   -1.194900
  H      6.070400   -2.164600    1.126100
  H      4.138000   -0.914000    2.021900
  H      0.661800    2.483100    1.770600
  H     -1.665200    3.083700    2.326200
  H     -3.549700    1.580200    1.689000

 Total Charge           Charge          ....    0
 Multiplicity           Mult            ....    1
 Number of Electrons    NEL             ....  142
 Basis Dimension        Dim             ....  316

ORBITAL ENERGIES
----------------

  NO   OCC          E(Eh)            E(eV)
   0   2.0000     -19.158877      -521.3396
   1   2.0000     -14.365175      -390.8963
   2   2.0000     -14.294411      -388.9707
   3   2.0000     -10.236040      -278.5368
   4   2.0000     -10.229260      -278.3523
   5   2.0000     -10.193283      -277.3733
   6   2.0000     -10.192059      -277.3400
   7   2.0000     -10.190923      -277.3091
   8   2.0000     -10.189084      -277.2591
   9   2.0000     -10.185899      -277.1724
  10   2.0000     -10.185790      -277.1695
  11   2.0000     -10.185674      -277.1663
  12   2.0000     -10.184987      -277.1476
  13   2.0000     -10.184850      -277.1439
  14   2.0000     -10.165859      -276.6271
  15   2.0000     -10.160553      -276.4827
  16   2.0000     -10.159495      -276.4539
  17   2.0000     -10.152798      -276.2717
  18   2.0000     -10.152021      -276.2505
  19   2.0000     -10.151505      -276.2365
  20   2.0000      -1.038839       -28.2682
  21   2.0000      -0.981621       -26.7113
  22   2.0000      -0.863328       -23.4924
  23   2.0000      -0.854553       -23.2536
  24   2.0000      -0.824140       -22.4260
  25   2.0000      -0.788212       -21.4483
  26   2.0000      -0.766609       -20.8605
  27   2.0000      -0.744971       -20.2717
  28   2.0000      -0.723513       -19.6878
  29   2.0000      -0.719790       -19.5865
  30   2.0000      -0.687696       -18.7132
  31   2.0000      -0.674620       -18.3573
  32   2.0000      -0.609319       -16.5804
  33   2.0000      -0.606850       -16.5132
  34   2.0000      -0.600417       -16.3382
  35   2.0000      -0.589385       -16.0380
  36   2.0000      -0.573029       -15.5929
  37   2.0000      -0.541801       -14.7432
  38   2.0000      -0.530706       -14.4412
  39   2.0000      -0.512663       -13.9503
  40   2.0000      -0.490168       -13.3381
  41   2.0000      -0.474738       -12.9183
  42   2.0000      -0.473394       -12.8817
  43   2.0000      -0.466049       -12.6818
  44   2.0000      -0.464118       -12.6293
  45   2.0000      -0.452390       -12.3101
  46   2.0000      -0.434394       -11.8205
  47   2.0000      -0.430434       -11.7127
  48   2.0000      -0.429165       -11.6782
  49   2.0000      -0.421804       -11.4779
  50   2.0000      -0.413316       -11.2469
  51   2.0000      -0.411111       -11.1869
  52   2.0000      -0.395377       -10.7587
  53   2.0000      -0.390494       -10.6259
  54   2.0000      -0.365625        -9.9492
  55   2.0000      -0.361573        -9.8389
  56   2.0000      -0.359894        -9.7932
  57   2.0000      -0.349508        -9.5106
  58   2.0000      -0.348030        -9.4704
  59   2.0000      -0.346782        -9.4364
  60   2.0000      -0.331969        -9.0333
  61   2.0000      -0.328706        -8.9445
  62   2.0000      -0.320860        -8.7310
  63   2.0000      -0.308421        -8.3926
  64   2.0000      -0.299170        -8.1408
  65   2.0000      -0.251110        -6.8330
  66   2.0000      -0.249394        -6.7864
  67   2.0000      -0.240501        -6.5444
  68   2.0000      -0.220239        -5.9930
  69   2.0000      -0.204211        -5.5569
  70   2.0000      -0.173413        -4.7188
  71   0.0000      -0.010065        -0.2739
  72   0.0000      -0.002640        -0.0718
  73   0.0000       0.012874         0.3503
  74   0.0000       0.044430         1.2090
  75   0.0000       0.079048         2.1510

MULLIKEN ATOMIC CHARGES
-----------------------
   0 N :   -0.704962
   1 C :   -0.124139
   2 C :   -0.316392
   3 C :    0.033562
   4 C :   -0.022786
   5 N :   -0.627468
   6 C :    0.239303
   7 C :    0.325446
   8 O :   -0.536491
   9 C :   -0.096364
  10 C :    0.133089
  11 C :   -0.158926
  12 C :   -0.130331
  13 C :   -0.121630
  14 C :   -0.130402
  15 C :   -0.158702
  16 C :   -0.235437
  17 C :   -0.145688
  18 C :   -0.203992
  19 C :    0.109249
  20 H :    0.287060
  21 H :    0.300465
  22 H :    0.125739
  23 H :    0.107640
  24 H :    0.127161
  25 H :    0.149188
  26 H :    0.133276
  27 H :    0.343277
  28 H :    0.136032
  29 H :    0.135227
  30 H :    0.132072
  31 H :    0.130431
  32 H :    0.130063
  33 H :    0.130868
  34 H :    0.133144
  35 H :    0.121447
  36 H :    0.116092
  37 H :    0.133879
Sum of atomic charges:   -0.0000000

LOEWDIN ATOMIC CHARGES
----------------------
   0 N :   -0.478521
   1 C :   -0.168046
   2 C :   -0.224235
   3 C :   -0.077783
   4 C :   -0.120665
   5 N :   -0.107284
   6 C :   -0.015197
   7 C :    0.067811
   8 O :   -0.198823
   9 C :   -0.078738
  10 C :   -0.031863
  11 C :   -0.121824
  12 C :   -0.129077
  13 C :   -0.125749
  14 C :   -0.128852
  15 C :   -0.121404
  16 C :   -0.199068
  17 C :   -0.143072
  18 C :   -0.150097
  19 C :   -0.043920
  20 H :    0.219765
  21 H :    0.226716
  22 H :    0.112161
  23 H :    0.092867
  24 H :    0.123117
  25 H :    0.132354
  26 H :    0.129076
  27 H :    0.272817
  28 H :    0.115631
  29 H :    0.115220
  30 H :    0.133722
  31 H :    0.132232
  32 H :    0.132235
  33 H :    0.132433
  34 H :    0.134204
  35 H :    0.129371
  36 H :    0.126496
  37 H :    0.135990

  Mayer bond orders larger than 0.100000
B(  0-N ,  1-C ) :   1.0098 B(  0-N , 20-H ) :   0.8684 B(  0-N , 21-H ) :   0.8538
B(  1-C ,  2-C ) :   0.9858 B(  1-C , 22-H ) :   0.9398 B(  1-C , 23-H ) :   0.9348
B(  2-C ,  3-C ) :   1.0097 B(  2-C , 24-H ) :   0.9343 B(  2-C , 25-H ) :   0.9243
B(  3-C ,  4-C ) :   1.5242 B(  3-C , 19-C ) :   1.3068 B(  4-C ,  5-N ) :   1.0968
B(  4-C , 26-H ) :   0.9304 B(  5-N ,  6-C ) :   1.0099 B(  5-N , 27-H ) :   0.8294
B(  6-C ,  7-C ) :   1.2793 B(  6-C , 19-C ) :   1.3220 B(  7-C ,  8-O ) :   0.8985
B(  7-C , 16-C ) :   1.4027 B(  8-O ,  9-C ) :   0.9008 B(  9-C , 10-C ) :   0.9898
B(  9-C , 28-H ) :   0.9126 B(  9-C , 29-H ) :   0.9127 B( 10-C , 11-C ) :   1.4363
B( 10-C , 15-C ) :   1.4361 B( 11-C , 12-C ) :   1.4405 B( 11-C , 30-H ) :   0.9250
B( 12-C , 13-C ) :   1.4531 B( 12-C , 31-H ) :   0.9295 B( 13-C , 14-C ) :   1.4529
B( 13-C , 32-H ) :   0.9302 B( 14-C , 15-C ) :   1.4407 B( 14-C , 33-H ) :   0.9294
B( 15-C , 34-H ) :   0.9248 B( 16-C , 17-C ) :   1.3551 B( 16-C , 35-H ) :   0.9217
B( 17-C , 18-C ) :   1.4810 B( 17-C , 36-H ) :   0.9328 B( 18-C , 19-C ) :   1.3373
B( 18-C , 37-H ) :   0.9157

FINAL SINGLE POINT ENERGY      -842.805672729874

DIPOLE MOMENT
-------------

Method             : SCF
Type of density    : Electron Density
Multiplicity       :   1
Irrep              :   0
Energy             :  -842.8056727298735495 Eh
Relativity type    :
Basis              : AO
                                X                 Y                 Z
Electronic contribution:      9.698200138      -1.315057304       2.574770936
Nuclear contribution   :     -8.818255769       0.693998300      -3.411147680
                        -----------------------------------------
Total Dipole Moment    :      0.879944370      -0.621059004      -0.836376744
                        -----------------------------------------
Magnitude (a.u.)       :      1.363650409
Magnitude (Debye)      :      3.466123882

Rotational constants in cm-1:             0.028855             0.004594             0.004308
Rotational constants in MHz :           865.056405           137.715932           129.148203

                             ****ORCA TERMINATED NORMALLY****
TOTAL RUN TIME: 0 days 0 hours 3 minutes 56 seconds 641 msec
