                         Program Version 6.0.0  -   RELEASE  -
|  1> ! B3LYP 6-31G* SP
|  2>
|  3> * xyz 0 1
|  4> C -2.4565 -0.7276 -1.3998
|  5> C -1.9555 -1.0370 -0.0189
|  6> C -0.6610 -0.7564 0.4306
|  7> N 0.3670 -0.1281 -0.3416
|  8> C 0.8405 1.2073 0.0201
|  9> C -0.2489 2.2153 -0.2222
| 10> C -0.4417 2.7495 -1.5036
| 11> C -1.5017 3.6254 -1.7520
| 12> C -2.3937 3.9768 -0.7216
| 13> C -3.5531 4.9107 -0.9725
| 14> F -3.5604 5.3822 -2.2740
| 15> F -4.7411 4.2419 -0.7402
| 16> F -3.4692 5.9929 -0.1154
| 17> C -2.2050 3.4270 0.5601
| 18> F -3.0568 3.7300 1.5728
| 19> C -1.1432 2.5513 0.8046
| 20> S 1.1395 -1.0077 -1.6224
| 21> O 0.4630 -2.3353 -1.8229
| 22> O 1.0372 -0.2188 -2.8978
| 23> C 2.8221 -1.2841 -1.1906
| 24> C 3.1269 -2.0495 -0.0593
| 25> C 4.4581 -2.2642 0.3088
| 26> C 5.5052 -1.7111 -0.4504
| 27> C 6.9163 -1.9327 -0.0650
| 28> O 7.2004 -2.6342 0.9435
| 29> O 7.9455 -1.3670 -0.8137
| 30> C 5.1916 -0.9401 -1.5836
| 31> C 3.8592 -0.7276 -1.9498
| 32> S -0.4950 -1.1877 2.0551
| 33> C -2.0638 -1.7702 2.1969
| 34> C -2.6696 -2.3232 3.3226
| 35> C -4.0032 -2.7450 3.2198
| 36> C -4.7010 -2.6064 2.0052
| 37> C -4.0718 -2.0443 0.8817
| 38> C -2.7390 -1.6254 0.9895
| 39> H -3.4193 -0.1786 -1.3365
| 40> H -2.6081 -1.6737 -1.9598
| 41> H -1.7393 -0.0902 -1.9564
| 42> H 1.1554 1.2175 1.0863
| 43> H 1.7365 1.4765 -0.5809
| 44> H 0.2240 2.4794 -2.3142
| 45> H -1.6236 4.0186 -2.7528
| 46> H -1.0252 2.1240 1.7929
| 47> H 2.3325 -2.4778 0.5393
| 48> H 4.6666 -2.8607 1.1883
| 49> H 8.9151 -1.5121 -0.5584
| 50> H 5.9749 -0.4994 -2.1874
| 51> H 3.6409 -0.1269 -2.8230
| 52> H -2.1266 -2.4253 4.2533
| 53> H -4.4982 -3.1787 4.0789
| 54> H -5.7298 -2.9351 1.9362
| 55> H -4.6175 -1.9443 -0.0474
| 56> *
| 57>
| 58>                          ****END OF INPUT****

CARTESIAN COORDINATES (ANGSTROEM)
---------------------------------
  C     -2.456500   -0.727600   -1.399800
  C     -1.955500   -1.037000   -0.018900
  C     -0.661000   -0.756400    0.430600
  N      0.367000   -0.128100   -0.341600
  C      0.840500    1.207300    0.020100
  C     -0.248900    2.215300   -0.222200
  C     -0.441700    2.749500   -1.503600
  C     -1.501700    3.625400   -1.752000
  C     -2.393700    3.976800   -0.721600
  C     -3.553100    4.910700   -0.972500
  F     -3.560400    5.382200   -2.274000
  F     -4.741100    4.241900   -0.740200
  F     -3.469200    5.992900   -0.115400
  C     -2.205000    3.427000    0.560100
  F     -3.056800    3.730000    1.572800
  C     -1.143200    2.551300    0.804600
  S      1.139500   -1.007700   -1.622400
  O      0.463000   -2.335300   -1.822900
  O      1.037200   -0.218800   -2.897800
  C      2.822100   -1.284100   -1.190600
  C      3.126900   -2.049500   -0.059300
  C      4.458100   -2.264200    0.308800
  C      5.505200   -1.711100   -0.450400
  C      6.916300   -1.932700   -0.065000
  O      7.200400   -2.634200    0.943500
  O      7.945500   -1.367000   -0.813700
  C      5.191600   -0.940100   -1.583600
  C      3.859200   -0.727600   -1.949800
  S     -0.495000   -1.187700    2.055100
  C     -2.063800   -1.770200    2.196900
  C     -2.669600   -2.323200    3.322600
  C     -4.003200   -2.745000    3.219800
  C     -4.701000   -2.606400    2.005200
  C     -4.071800   -2.044300    0.881700
  C     -2.739000   -1.625400    0.989500
  H     -3.419300   -0.178600   -1.336500
  H     -2.608100   -1.673700   -1.959800
  H     -1.739300   -0.090200   -1.956400
  H      1.155400    1.217500    1.086300
  H      1.736500    1.476500   -0.580900
  H      0.224000    2.479400   -2.314200
  H     -1.623600    4.018600   -2.752800
  H     -1.025200    2.124000    1.792900
  H      2.332500   -2.477800    0.539300
  H      4.666600   -2.860700    1.188300
  H      8.915100   -1.512100   -0.558400
  H      5.974900   -0.499400   -2.187400
  H      3.640900   -0.126900   -2.823000
  H     -2.126600   -2.425300    4.253300
  H     -4.498200   -3.178700    4.078900
  H     -5.729800   -2.935100    1.936200
  H     -4.617500   -1.944300   -0.047400

 Total Charge           Charge          ....    0
 Multiplicity           Mult            ....    1
 Number of Electrons    NEL             ....  268
 Basis Dimension        Dim             ....  532

ORBITAL ENERGIES
----------------

  NO   OCC          E(Eh)            E(eV)
   0   2.0000     -89.107472     -2424.7376
   1   2.0000     -88.890875     -2418.8437
   2   2.0000     -24.722380      -672.7302
   3   2.0000     -24.714360      -672.5119
   4   2.0000     -24.714295      -672.5102
   5   2.0000     -24.713911      -672.4997
   6   2.0000     -19.201533      -522.5003
   7   2.0000     -19.143687      -520.9262
   8   2.0000     -19.138271      -520.7788
   9   2.0000     -19.136177      -520.7219
  10   2.0000     -14.392565      -391.6416
  11   2.0000     -10.437473      -284.0181
  12   2.0000     -10.341212      -281.3987
  13   2.0000     -10.291951      -280.0582
  14   2.0000     -10.251947      -278.9697
  15   2.0000     -10.250320      -278.9254
  16   2.0000     -10.249099      -278.8922
  17   2.0000     -10.239101      -278.6201
  18   2.0000     -10.228524      -278.3323
  19   2.0000     -10.227229      -278.2970
  20   2.0000     -10.224848      -278.2323
  21   2.0000     -10.224473      -278.2220
  22   2.0000     -10.222551      -278.1698
  23   2.0000     -10.218500      -278.0595
  24   2.0000     -10.215445      -277.9764
  25   2.0000     -10.211732      -277.8754
  26   2.0000     -10.207094      -277.7492
  27   2.0000     -10.200041      -277.5572
  28   2.0000     -10.199707      -277.5481
  29   2.0000     -10.196650      -277.4649
  30   2.0000     -10.191872      -277.3349
  31   2.0000     -10.190318      -277.2926
  32   2.0000     -10.189723      -277.2765
  33   2.0000     -10.187916      -277.2273
  34   2.0000     -10.174870      -276.8723
  35   2.0000      -8.143496      -221.5958
  36   2.0000      -7.968946      -216.8460
  37   2.0000      -6.108587      -166.2231
  38   2.0000      -6.106464      -166.1653
  39   2.0000      -6.106062      -166.1544
  40   2.0000      -5.932058      -161.4195
  41   2.0000      -5.928401      -161.3200
  42   2.0000      -5.925220      -161.2334
  43   2.0000      -1.278609       -34.7927
  44   2.0000      -1.226455       -33.3735
  45   2.0000      -1.204699       -32.7815
  46   2.0000      -1.200823       -32.6761
  47   2.0000      -1.094720       -29.7889
  48   2.0000      -1.086189       -29.5567
  49   2.0000      -1.000568       -27.2268
  50   2.0000      -0.973517       -26.4908
  51   2.0000      -0.962739       -26.1975
  52   2.0000      -0.907652       -24.6985
  53   2.0000      -0.897947       -24.4344
  54   2.0000      -0.880734       -23.9660
  55   2.0000      -0.832527       -22.6542
  56   2.0000      -0.816469       -22.2173
  57   2.0000      -0.804713       -21.8974
  58   2.0000      -0.790813       -21.5191
  59   2.0000      -0.783920       -21.3315
  60   2.0000      -0.765534       -20.8312
  61   2.0000      -0.745472       -20.2853
  62   2.0000      -0.737568       -20.0702
  63   2.0000      -0.733301       -19.9541
  64   2.0000      -0.708674       -19.2840
  65   2.0000      -0.681022       -18.5316
  66   2.0000      -0.671434       -18.2707
  67   2.0000      -0.657234       -17.8842
  68   2.0000      -0.646019       -17.5791
  69   2.0000      -0.637062       -17.3353
  70   2.0000      -0.624176       -16.9847
  71   2.0000      -0.616495       -16.7757
  72   2.0000      -0.600615       -16.3436
  73   2.0000      -0.585501       -15.9323
  74   2.0000      -0.574483       -15.6325
  75   2.0000      -0.569782       -15.5046
  76   2.0000      -0.568904       -15.4807
  77   2.0000      -0.568131       -15.4596
  78   2.0000      -0.553589       -15.0639
  79   2.0000      -0.539877       -14.6908
  80   2.0000      -0.531347       -14.4587
  81   2.0000      -0.510107       -13.8807
  82   2.0000      -0.500816       -13.6279
  83   2.0000      -0.496687       -13.5155
  84   2.0000      -0.493418       -13.4266
  85   2.0000      -0.488617       -13.2959
  86   2.0000      -0.485804       -13.2194
  87   2.0000      -0.477837       -13.0026
  88   2.0000      -0.475261       -12.9325
  89   2.0000      -0.471238       -12.8230
  90   2.0000      -0.466750       -12.7009
  91   2.0000      -0.460222       -12.5233
  92   2.0000      -0.455728       -12.4010
  93   2.0000      -0.448398       -12.2015
  94   2.0000      -0.446546       -12.1511
  95   2.0000      -0.445867       -12.1327
  96   2.0000      -0.443849       -12.0778
  97   2.0000      -0.443481       -12.0677
  98   2.0000      -0.432396       -11.7661
  99   2.0000      -0.428676       -11.6649
 100   2.0000      -0.425096       -11.5675
 101   2.0000      -0.424442       -11.5497
 102   2.0000      -0.418347       -11.3838
 103   2.0000      -0.415660       -11.3107
 104   2.0000      -0.409391       -11.1401
 105   2.0000      -0.408122       -11.1056
 106   2.0000      -0.399683       -10.8759
 107   2.0000      -0.395790       -10.7700
 108   2.0000      -0.394581       -10.7371
 109   2.0000      -0.393217       -10.7000
 110   2.0000      -0.391812       -10.6617
 111   2.0000      -0.384309       -10.4576
 112   2.0000      -0.378327       -10.2948
 113   2.0000      -0.374827       -10.1996
 114   2.0000      -0.369520       -10.0552
 115   2.0000      -0.363054        -9.8792
 116   2.0000      -0.356803        -9.7091
 117   2.0000      -0.355152        -9.6642
 118   2.0000      -0.343692        -9.3523
 119   2.0000      -0.339929        -9.2499
 120   2.0000      -0.332124        -9.0376
 121   2.0000      -0.327322        -8.9069
 122   2.0000      -0.314917        -8.5693
 123   2.0000      -0.310628        -8.4526
 124   2.0000      -0.290647        -7.9089
 125   2.0000      -0.287624        -7.8266
 126   2.0000      -0.286949        -7.8083
 127   2.0000      -0.280719        -7.6388
 128   2.0000      -0.279897        -7.6164
 129   2.0000      -0.275239        -7.4896
 130   2.0000      -0.265506        -7.2248
 131   2.0000      -0.258644        -7.0381
 132   2.0000      -0.238469        -6.4891
 133   2.0000      -0.212863        -5.7923
 134   0.0000      -0.090769        -2.4699
 135   0.0000      -0.041672        -1.1339
 136   0.0000      -0.040354        -1.0981
 137   0.0000      -0.037976        -1.0334
 138   0.0000      -0.018304        -0.4981

MULLIKEN ATOMIC CHARGES
-----------------------
   0 C :   -0.530362
   1 C :    0.196089
   2 C :   -0.061086
   3 N :   -0.601255
   4 C :   -0.257092
   5 C :    0.194184
   6 C :   -0.173552
   7 C :   -0.154085
   8 C :   -0.115692
   9 C :    0.920237
  10 F :   -0.305307
  11 F :   -0.298004
  12 F :   -0.298920
  13 C :    0.387468
  14 F :   -0.299939
  15 C :   -0.251237
  16 S :    1.220126
  17 O :   -0.531319
  18 O :   -0.551101
  19 C :   -0.127760
  20 C :   -0.150537
  21 C :   -0.139934
  22 C :    0.082650
  23 C :    0.529670
  24 O :   -0.442186
  25 O :   -0.623501
  26 C :   -0.144662
  27 C :   -0.150519
  28 S :    0.199679
  29 C :   -0.117127
  30 C :   -0.175022
  31 C :   -0.113799
  32 C :   -0.144065
  33 C :   -0.172670
  34 C :    0.114414
  35 H :    0.154315
  36 H :    0.180414
  37 H :    0.185036
  38 H :    0.172581
  39 H :    0.178960
  40 H :    0.166197
  41 H :    0.166030
  42 H :    0.162491
  43 H :    0.188810
  44 H :    0.183908
  45 H :    0.435794
  46 H :    0.175731
  47 H :    0.187927
  48 H :    0.140652
  49 H :    0.134955
  50 H :    0.133687
  51 H :    0.138728
Sum of atomic charges:   -0.0000000

LOEWDIN ATOMIC CHARGES
----------------------
   0 C :   -0.355897
   1 C :   -0.018377
   2 C :   -0.169824
   3 N :   -0.280484
   4 C :   -0.145815
   5 C :   -0.012923
   6 C :   -0.129169
   7 C :   -0.106127
   8 C :   -0.096770
   9 C :    0.314202
  10 F :   -0.110659
  11 F :   -0.111543
  12 F :   -0.111574
  13 C :    0.135557
  14 F :   -0.092170
  15 C :   -0.152942
  16 S :    1.261016
  17 O :   -0.558660
  18 O :   -0.577710
  19 C :   -0.177899
  20 C :   -0.103504
  21 C :   -0.084145
  22 C :   -0.037758
  23 C :    0.180084
  24 O :   -0.258388
  25 O :   -0.334149
  26 C :   -0.097836
  27 C :   -0.107031
  28 S :    0.350361
  29 C :   -0.161937
  30 C :   -0.133096
  31 C :   -0.125455
  32 C :   -0.131424
  33 C :   -0.118246
  34 C :   -0.041516
  35 H :    0.133770
  36 H :    0.148669
  37 H :    0.148361
  38 H :    0.133910
  39 H :    0.146559
  40 H :    0.149441
  41 H :    0.150915
  42 H :    0.151645
  43 H :    0.159790
  44 H :    0.162054
  45 H :    0.350948
  46 H :    0.156161
  47 H :    0.161610
  48 H :    0.138807
  49 H :    0.135837
  50 H :    0.134384
  51 H :    0.138944

  Mayer bond orders larger than 0.100000
B(  0-C ,  1-C ) :   1.0277 B(  0-C , 35-H ) :   0.9278 B(  0-C , 36-H ) :   0.9226
B(  0-C , 37-H ) :   0.9222 B(  1-C ,  2-C ) :   1.5050 B(  1-C , 34-C ) :   1.2426
B(  2-C ,  3-N ) :   0.9144 B(  2-C , 28-S ) :   1.0472 B(  3-N ,  4-C ) :   0.9276
B(  3-N , 16-S ) :   0.7828 B(  4-C ,  5-C ) :   0.9483 B(  4-C , 38-H ) :   0.9212
B(  4-C , 39-H ) :   0.9183 B(  5-C ,  6-C ) :   1.4313 B(  5-C , 15-C ) :   1.4071
B(  6-C ,  7-C ) :   1.4285 B(  6-C , 40-H ) :   0.9113 B(  7-C ,  8-C ) :   1.4058
B(  7-C , 41-H ) :   0.9172 B(  8-C ,  9-C ) :   0.9661 B(  8-C , 13-C ) :   1.3296
B(  9-C , 10-F ) :   0.9473 B(  9-C , 11-F ) :   0.9742 B(  9-C , 12-F ) :   0.9698
B( 13-C , 14-F ) :   0.9515 B( 13-C , 15-C ) :   1.3759 B( 15-C , 42-H ) :   0.9074
B( 16-S , 17-O ) :   1.6598 B( 16-S , 18-O ) :   1.6126 B( 16-S , 19-C ) :   0.8115
B( 19-C , 20-C ) :   1.3727 B( 19-C , 27-C ) :   1.4013 B( 20-C , 21-C ) :   1.4356
B( 20-C , 43-H ) :   0.9070 B( 21-C , 22-C ) :   1.3971 B( 21-C , 44-H ) :   0.9086
B( 22-C , 23-C ) :   1.0072 B( 22-C , 26-C ) :   1.3890 B( 23-C , 24-O ) :   1.8637
B( 23-C , 25-O ) :   1.0263 B( 25-O , 45-H ) :   0.7408 B( 26-C , 27-C ) :   1.4090
B( 26-C , 46-H ) :   0.9140 B( 27-C , 47-H ) :   0.9083 B( 28-S , 29-C ) :   1.0535
B( 29-C , 30-C ) :   1.3397 B( 29-C , 34-C ) :   1.3160 B( 30-C , 31-C ) :   1.4873
B( 30-C , 48-H ) :   0.9249 B( 31-C , 32-C ) :   1.3880 B( 31-C , 49-H ) :   0.9303
B( 32-C , 33-C ) :   1.4757 B( 32-C , 50-H ) :   0.9298 B( 33-C , 34-C ) :   1.3398
B( 33-C , 51-H ) :   0.9182

FINAL SINGLE POINT ENERGY     -2475.052414398904

DIPOLE MOMENT
-------------

Method             : SCF
Type of density    : Electron Density
Multiplicity       :   1
Irrep              :   0
Energy             : -2475.0524143989041477 Eh
Relativity type    :
Basis              : AO
                                X                 Y                 Z
Electronic contribution:    -14.463912847      29.839574818      -0.614140565
Nuclear contribution   :     16.023603998     -29.741778969       1.255636231
                        -----------------------------------------
Total Dipole Moment    :      1.559691152       0.097795849       0.641495666
                        -----------------------------------------
Magnitude (a.u.)       :      1.689294884
Magnitude (Debye)      :      4.293846358

Rotational constants in cm-1:             0.004595             0.001950             0.001560
Rotational constants in MHz :           137.762985            58.461781            46.774144

                             ****ORCA TERMINATED NORMALLY****
TOTAL RUN TIME: 0 days 0 hours 10 minutes 52 seconds 673 msec
