                         Program Version 6.0.0  -   RELEASE  -
|  1> ! B3LYP 6-31G* SP
|  2>
|  3> * xyz 0 1
|  4> N -5.3789 -1.2097 -0.1543
|  5> C -3.9804 -1.5826 0.0888
|  6> C -3.3825 -2.2615 -1.1717
|  7> C -2.6356 -1.2663 -2.0624
|  8> C -1.4059 -0.7081 -1.3321
|  9> C -1.6861 -0.3954 0.1639
| 10> N -0.9482 0.7959 0.6457
| 11> C -0.1640 0.6359 1.8448
| 12> O -0.6987 0.1275 2.8673
| 13> C 1.2480 1.0818 1.9082
| 14> C 1.7486 1.6067 3.1121
| 15> C 3.0749 2.0342 3.2017
| 16> C 3.9192 1.9301 2.0961
| 17> C 3.4440 1.3898 0.8993
| 18> C 2.1079 0.9525 0.7932
| 19> O 1.6103 0.3781 -0.3903
| 20> C 2.4000 -0.0661 -1.4930
| 21> C 3.2152 -1.2693 -1.1009
| 22> C 4.6005 -1.3058 -1.3388
| 23> C 5.3489 -2.4270 -0.9619
| 24> C 4.7204 -3.5196 -0.3531
| 25> C 3.3397 -3.4967 -0.1277
| 26> C 2.5881 -2.3786 -0.5034
| 27> C -0.9972 2.1677 0.0720
| 28> C -1.7399 3.1363 0.9943
| 29> C -2.7495 3.4213 -0.1074
| 30> C -2.0069 2.4782 -1.0429
| 31> C -3.1821 -0.3282 0.5445
| 32> H -5.7759 -0.8162 0.7311
| 33> H -5.9368 -2.0722 -0.3646
| 34> H -3.9539 -2.3337 0.9159
| 35> H -2.6721 -3.0602 -0.8572
| 36> H -4.1790 -2.7590 -1.7671
| 37> H -3.3197 -0.4380 -2.3504
| 38> H -2.3092 -1.7747 -2.9963
| 39> H -1.0129 0.1681 -1.8865
| 40> H -0.5956 -1.4685 -1.3874
| 41> H -1.3009 -1.2877 0.7130
| 42> H 1.1076 1.7021 3.9806
| 43> H 3.4482 2.4486 4.1299
| 44> H 4.9448 2.2688 2.1675
| 45> H 4.1241 1.3211 0.0623
| 46> H 3.0304 0.7670 -1.8733
| 47> H 1.7175 -0.3603 -2.3190
| 48> H 5.1002 -0.4668 -1.8116
| 49> H 6.4172 -2.4495 -1.1424
| 50> H 5.3023 -4.3851 -0.0596
| 51> H 2.8526 -4.3454 0.3414
| 52> H 1.5194 -2.3717 -0.3208
| 53> H 0.0173 2.5425 -0.1916
| 54> H -1.1279 4.0283 1.2526
| 55> H -2.2107 2.6478 1.8766
| 56> H -3.7652 3.0517 0.1515
| 57> H -2.7249 4.4756 -0.4524
| 58> H -1.5308 3.0326 -1.8805
| 59> H -2.6537 1.6663 -1.4107
| 60> H -3.2646 -0.2352 1.6513
| 61> H -3.6574 0.5822 0.1298
| 62> *
| 63>
| 64>                          ****END OF INPUT****

CARTESIAN COORDINATES (ANGSTROEM)
---------------------------------
  N     -5.378900   -1.209700   -0.154300
  C     -3.980400   -1.582600    0.088800
  C     -3.382500   -2.261500   -1.171700
  C     -2.635600   -1.266300   -2.062400
  C     -1.405900   -0.708100   -1.332100
  C     -1.686100   -0.395400    0.163900
  N     -0.948200    0.795900    0.645700
  C     -0.164000    0.635900    1.844800
  O     -0.698700    0.127500    2.867300
  C      1.248000    1.081800    1.908200
  C      1.748600    1.606700    3.112100
  C      3.074900    2.034200    3.201700
  C      3.919200    1.930100    2.096100
  C      3.444000    1.389800    0.899300
  C      2.107900    0.952500    0.793200
  O      1.610300    0.378100   -0.390300
  C      2.400000   -0.066100   -1.493000
  C      3.215200   -1.269300   -1.100900
  C      4.600500   -1.305800   -1.338800
  C      5.348900   -2.427000   -0.961900
  C      4.720400   -3.519600   -0.353100
  C      3.339700   -3.496700   -0.127700
  C      2.588100   -2.378600   -0.503400
  C     -0.997200    2.167700    0.072000
  C     -1.739900    3.136300    0.994300
  C     -2.749500    3.421300   -0.107400
  C     -2.006900    2.478200   -1.042900
  C     -3.182100   -0.328200    0.544500
  H     -5.775900   -0.816200    0.731100
  H     -5.936800   -2.072200   -0.364600
  H     -3.953900   -2.333700    0.915900
  H     -2.672100   -3.060200   -0.857200
  H     -4.179000   -2.759000   -1.767100
  H     -3.319700   -0.438000   -2.350400
  H     -2.309200   -1.774700   -2.996300
  H     -1.012900    0.168100   -1.886500
  H     -0.595600   -1.468500   -1.387400
  H     -1.300900   -1.287700    0.713000
  H      1.107600    1.702100    3.980600
  H      3.448200    2.448600    4.129900
  H      4.944800    2.268800    2.167500
  H      4.124100    1.321100    0.062300
  H      3.030400    0.767000   -1.873300
  H      1.717500   -0.360300   -2.319000
  H      5.100200   -0.466800   -1.811600
  H      6.417200   -2.449500   -1.142400
  H      5.302300   -4.385100   -0.059600
  H      2.852600   -4.345400    0.341400
  H      1.519400   -2.371700   -0.320800
  H      0.017300    2.542500   -0.191600
  H     -1.127900    4.028300    1.252600
  H     -2.210700    2.647800    1.876600
  H     -3.765200    3.051700    0.151500
  H     -2.724900    4.475600   -0.452400
  H     -1.530800    3.032600   -1.880500
  H     -2.653700    1.666300   -1.410700
  H     -3.264600   -0.235200    1.651300
  H     -3.657400    0.582200    0.129800

 Total Charge           Charge          ....    0
 Multiplicity           Mult            ....    1
 Number of Electrons    NEL             ....  204
 Basis Dimension        Dim             ....  452

ORBITAL ENERGIES
----------------

  NO   OCC          E(Eh)            E(eV)
   0   2.0000     -19.167371      -521.5707
   1   2.0000     -19.102533      -519.8064
   2   2.0000     -14.316108      -389.5611
   3   2.0000     -14.297260      -389.0482
   4   2.0000     -10.271113      -279.4912
   5   2.0000     -10.253979      -279.0249
   6   2.0000     -10.245484      -278.7938
   7   2.0000     -10.207066      -277.7484
   8   2.0000     -10.203620      -277.6546
   9   2.0000     -10.195618      -277.4369
  10   2.0000     -10.192997      -277.3656
  11   2.0000     -10.190266      -277.2912
  12   2.0000     -10.187962      -277.2285
  13   2.0000     -10.186967      -277.2015
  14   2.0000     -10.185271      -277.1553
  15   2.0000     -10.185185      -277.1530
  16   2.0000     -10.184519      -277.1348
  17   2.0000     -10.183837      -277.1163
  18   2.0000     -10.183639      -277.1109
  19   2.0000     -10.183625      -277.1105
  20   2.0000     -10.176913      -276.9279
  21   2.0000     -10.167289      -276.6660
  22   2.0000     -10.165935      -276.6292
  23   2.0000     -10.165525      -276.6180
  24   2.0000     -10.165346      -276.6131
  25   2.0000     -10.161008      -276.4951
  26   2.0000     -10.157546      -276.4009
  27   2.0000     -10.155952      -276.3575
  28   2.0000      -1.047631       -28.5075
  29   2.0000      -0.997433       -27.1415
  30   2.0000      -0.897138       -24.4124
  31   2.0000      -0.868596       -23.6357
  32   2.0000      -0.855385       -23.2762
  33   2.0000      -0.847774       -23.0691
  34   2.0000      -0.827507       -22.5176
  35   2.0000      -0.790195       -21.5023
  36   2.0000      -0.775920       -21.1139
  37   2.0000      -0.753893       -20.5145
  38   2.0000      -0.744285       -20.2530
  39   2.0000      -0.738283       -20.0897
  40   2.0000      -0.720500       -19.6058
  41   2.0000      -0.701701       -19.0943
  42   2.0000      -0.683451       -18.5977
  43   2.0000      -0.651567       -17.7301
  44   2.0000      -0.646245       -17.5852
  45   2.0000      -0.630713       -17.1626
  46   2.0000      -0.608448       -16.5567
  47   2.0000      -0.603863       -16.4319
  48   2.0000      -0.601915       -16.3789
  49   2.0000      -0.582488       -15.8503
  50   2.0000      -0.577824       -15.7234
  51   2.0000      -0.549502       -14.9527
  52   2.0000      -0.530392       -14.4327
  53   2.0000      -0.519896       -14.1471
  54   2.0000      -0.512588       -13.9482
  55   2.0000      -0.510599       -13.8941
  56   2.0000      -0.497150       -13.5281
  57   2.0000      -0.480688       -13.0802
  58   2.0000      -0.476530       -12.9670
  59   2.0000      -0.474009       -12.8984
  60   2.0000      -0.469311       -12.7706
  61   2.0000      -0.466432       -12.6923
  62   2.0000      -0.458883       -12.4868
  63   2.0000      -0.453731       -12.3466
  64   2.0000      -0.448807       -12.2127
  65   2.0000      -0.437821       -11.9137
  66   2.0000      -0.434663       -11.8278
  67   2.0000      -0.429668       -11.6919
  68   2.0000      -0.423525       -11.5247
  69   2.0000      -0.418967       -11.4007
  70   2.0000      -0.416338       -11.3291
  71   2.0000      -0.405731       -11.0405
  72   2.0000      -0.399393       -10.8680
  73   2.0000      -0.390918       -10.6374
  74   2.0000      -0.385713       -10.4958
  75   2.0000      -0.379172       -10.3178
  76   2.0000      -0.374414       -10.1883
  77   2.0000      -0.366972        -9.9858
  78   2.0000      -0.361385        -9.8338
  79   2.0000      -0.358764        -9.7625
  80   2.0000      -0.357682        -9.7330
  81   2.0000      -0.354401        -9.6438
  82   2.0000      -0.349876        -9.5206
  83   2.0000      -0.346615        -9.4319
  84   2.0000      -0.344875        -9.3845
  85   2.0000      -0.341256        -9.2861
  86   2.0000      -0.332900        -9.0587
  87   2.0000      -0.320292        -8.7156
  88   2.0000      -0.315401        -8.5825
  89   2.0000      -0.311555        -8.4779
  90   2.0000      -0.303943        -8.2707
  91   2.0000      -0.298350        -8.1185
  92   2.0000      -0.295875        -8.0512
  93   2.0000      -0.290868        -7.9149
  94   2.0000      -0.286810        -7.8045
  95   2.0000      -0.253414        -6.8957
  96   2.0000      -0.249727        -6.7954
  97   2.0000      -0.244238        -6.6461
  98   2.0000      -0.231274        -6.2933
  99   2.0000      -0.221508        -6.0275
 100   2.0000      -0.219737        -5.9793
 101   2.0000      -0.190580        -5.1860
 102   0.0000      -0.035566        -0.9678
 103   0.0000      -0.008867        -0.2413
 104   0.0000      -0.002585        -0.0703
 105   0.0000       0.008385         0.2282
 106   0.0000       0.044730         1.2172

MULLIKEN ATOMIC CHARGES
-----------------------
   0 N :   -0.720809
   1 C :    0.050302
   2 C :   -0.261552
   3 C :   -0.265932
   4 C :   -0.283261
   5 C :    0.049219
   6 N :   -0.432653
   7 C :    0.439354
   8 O :   -0.464567
   9 C :    0.037470
  10 C :   -0.150241
  11 C :   -0.137642
  12 C :   -0.115628
  13 C :   -0.192719
  14 C :    0.334327
  15 O :   -0.513079
  16 C :   -0.110366
  17 C :    0.122184
  18 C :   -0.175515
  19 C :   -0.125625
  20 C :   -0.123991
  21 C :   -0.124765
  22 C :   -0.161723
  23 C :    0.037297
  24 C :   -0.268229
  25 C :   -0.276645
  26 C :   -0.295139
  27 C :   -0.295941
  28 H :    0.287554
  29 H :    0.283826
  30 H :    0.102136
  31 H :    0.121852
  32 H :    0.126680
  33 H :    0.149060
  34 H :    0.123552
  35 H :    0.148529
  36 H :    0.128877
  37 H :    0.145090
  38 H :    0.157243
  39 H :    0.128729
  40 H :    0.133399
  41 H :    0.133614
  42 H :    0.137537
  43 H :    0.168816
  44 H :    0.122824
  45 H :    0.129138
  46 H :    0.130141
  47 H :    0.133733
  48 H :    0.147334
  49 H :    0.135663
  50 H :    0.127561
  51 H :    0.158052
  52 H :    0.141514
  53 H :    0.131216
  54 H :    0.133928
  55 H :    0.160653
  56 H :    0.156025
  57 H :    0.141596
Sum of atomic charges:    0.0000000

LOEWDIN ATOMIC CHARGES
----------------------
   0 N :   -0.473224
   1 C :   -0.074571
   2 C :   -0.230574
   3 C :   -0.231419
   4 C :   -0.234896
   5 C :   -0.042971
   6 N :   -0.115953
   7 C :    0.150075
   8 O :   -0.268114
   9 C :   -0.073716
  10 C :   -0.089298
  11 C :   -0.148346
  12 C :   -0.110833
  13 C :   -0.168794
  14 C :    0.103752
  15 O :   -0.175278
  16 C :   -0.083996
  17 C :   -0.041107
  18 C :   -0.135892
  19 C :   -0.127484
  20 C :   -0.127603
  21 C :   -0.123598
  22 C :   -0.122040
  23 C :   -0.051122
  24 C :   -0.240631
  25 C :   -0.233657
  26 C :   -0.239169
  27 C :   -0.245715
  28 H :    0.219671
  29 H :    0.216417
  30 H :    0.092394
  31 H :    0.113619
  32 H :    0.119831
  33 H :    0.121471
  34 H :    0.117576
  35 H :    0.126209
  36 H :    0.113443
  37 H :    0.131564
  38 H :    0.149328
  39 H :    0.132275
  40 H :    0.134217
  41 H :    0.135845
  42 H :    0.114372
  43 H :    0.139015
  44 H :    0.127778
  45 H :    0.131664
  46 H :    0.132238
  47 H :    0.133708
  48 H :    0.137298
  49 H :    0.117048
  50 H :    0.117411
  51 H :    0.132744
  52 H :    0.121262
  53 H :    0.118026
  54 H :    0.123131
  55 H :    0.131424
  56 H :    0.133830
  57 H :    0.121366

  Mayer bond orders larger than 0.100000
B(  0-N ,  1-C ) :   0.9701 B(  0-N , 28-H ) :   0.8630 B(  0-N , 29-H ) :   0.8618
B(  1-C ,  2-C ) :   0.9845 B(  1-C , 27-C ) :   0.9726 B(  1-C , 30-H ) :   0.9364
B(  2-C ,  3-C ) :   1.0136 B(  2-C , 31-H ) :   0.9393 B(  2-C , 32-H ) :   0.9403
B(  3-C ,  4-C ) :   0.9958 B(  3-C , 33-H ) :   0.9307 B(  3-C , 34-H ) :   0.9422
B(  4-C ,  5-C ) :   0.9733 B(  4-C , 35-H ) :   0.9331 B(  4-C , 36-H ) :   0.9375
B(  5-C ,  6-N ) :   0.9385 B(  5-C , 27-C ) :   0.9948 B(  5-C , 37-H ) :   0.9257
B(  6-N ,  7-C ) :   1.0525 B(  6-N , 23-C ) :   0.9396 B(  7-C ,  8-O ) :   1.8139
B(  7-C ,  9-C ) :   0.9582 B(  9-C , 10-C ) :   1.4087 B(  9-C , 14-C ) :   1.3433
B( 10-C , 11-C ) :   1.4378 B( 10-C , 38-H ) :   0.9160 B( 11-C , 12-C ) :   1.4371
B( 11-C , 39-H ) :   0.9301 B( 12-C , 13-C ) :   1.4479 B( 12-C , 40-H ) :   0.9296
B( 13-C , 14-C ) :   1.3591 B( 13-C , 41-H ) :   0.9150 B( 14-C , 15-O ) :   0.9054
B( 15-O , 16-C ) :   0.9060 B( 16-C , 17-C ) :   0.9649 B( 16-C , 42-H ) :   0.9205
B( 16-C , 43-H ) :   0.9212 B( 17-C , 18-C ) :   1.4358 B( 17-C , 22-C ) :   1.4245
B( 18-C , 19-C ) :   1.4361 B( 18-C , 44-H ) :   0.9240 B( 19-C , 20-C ) :   1.4606
B( 19-C , 45-H ) :   0.9295 B( 20-C , 21-C ) :   1.4444 B( 20-C , 46-H ) :   0.9302
B( 21-C , 22-C ) :   1.4482 B( 21-C , 47-H ) :   0.9293 B( 22-C , 48-H ) :   0.9167
B( 23-C , 24-C ) :   0.9866 B( 23-C , 26-C ) :   1.0014 B( 23-C , 49-H ) :   0.9172
B( 24-C , 25-C ) :   1.0073 B( 24-C , 50-H ) :   0.9444 B( 24-C , 51-H ) :   0.9376
B( 25-C , 26-C ) :   1.0058 B( 25-C , 52-H ) :   0.9446 B( 25-C , 53-H ) :   0.9499
B( 26-C , 54-H ) :   0.9441 B( 26-C , 55-H ) :   0.9243 B( 27-C , 56-H ) :   0.9272
B( 27-C , 57-H ) :   0.9201

FINAL SINGLE POINT ENERGY     -1191.712995096370

DIPOLE MOMENT
-------------

Method             : SCF
Type of density    : Electron Density
Multiplicity       :   1
Irrep              :   0
Energy             : -1191.7129950963699230 Eh
Relativity type    :
Basis              : AO
                                X                 Y                 Z
Electronic contribution:     22.096893741      -0.085262204      10.507411417
Nuclear contribution   :    -21.161793770       0.054879509     -11.400161141
                        -----------------------------------------
Total Dipole Moment    :      0.935099971      -0.030382695      -0.892749723
                        -----------------------------------------
Magnitude (a.u.)       :      1.293188746
Magnitude (Debye)      :      3.287024568

Rotational constants in cm-1:             0.008005             0.004271             0.003329
Rotational constants in MHz :           239.992266           128.044698            99.815441

                             ****ORCA TERMINATED NORMALLY****
TOTAL RUN TIME: 0 days 0 hours 9 minutes 18 seconds 629 msec
