                         Program Version 6.0.0  -   RELEASE  -
|  1> ! B3LYP 6-31G* SP
|  2>
|  3> * xyz 0 1
|  4> O 7.3964 -2.2356 -0.9693
|  5> C 6.8892 -1.8339 0.1163
|  6> O 7.7240 -1.3580 1.1294
|  7> C 5.4231 -1.8628 0.3128
|  8> C 4.5722 -2.3542 -0.6933
|  9> C 3.1874 -2.3732 -0.5024
| 10> C 2.6322 -1.9026 0.6937
| 11> S 0.8831 -1.8960 0.9055
| 12> O 0.3508 -3.2629 0.5703
| 13> O 0.5361 -1.5947 2.3373
| 14> N 0.1632 -0.6934 -0.1321
| 15> C -0.3068 -1.1038 -1.4634
| 16> C -1.7914 -1.3064 -1.4843
| 17> C -2.5354 -2.0146 -0.5377
| 18> C -3.8874 -2.1199 -0.8911
| 19> C -4.8919 -2.7418 -0.1418
| 20> F -4.6140 -3.3020 1.0667
| 21> C -6.2005 -2.7789 -0.6609
| 22> C -6.4918 -2.1996 -1.9156
| 23> F -7.7571 -2.2526 -2.4109
| 24> C -5.4782 -1.5690 -2.6569
| 25> C -4.1904 -1.5392 -2.1178
| 26> S -2.7979 -0.8737 -2.7801
| 27> C 0.5409 0.6807 0.0702
| 28> N 1.8638 0.9959 0.0388
| 29> C 2.3178 2.2693 0.1238
| 30> C 1.4136 3.3320 0.1846
| 31> C 1.8793 4.6566 0.2061
| 32> C 0.9735 5.7184 0.2237
| 33> C -0.3992 5.4671 0.2084
| 34> C -0.8757 4.1526 0.1934
| 35> C 0.0217 3.0603 0.2079
| 36> C -0.4238 1.7088 0.2297
| 37> C -1.8922 1.3659 0.3976
| 38> C -2.2283 0.4387 1.5644
| 39> C -2.5358 1.9136 1.6710
| 40> C 3.4741 -1.4103 1.6987
| 41> C 4.8590 -1.3914 1.5109
| 42> H 8.7282 -1.3246 1.0032
| 43> H 4.9759 -2.7225 -1.6285
| 44> H 2.5480 -2.7516 -1.2896
| 45> H -0.0221 -0.3417 -2.2265
| 46> H 0.1797 -2.0565 -1.7691
| 47> H -2.1219 -2.4245 0.3749
| 48> H -6.9889 -3.2588 -0.0943
| 49> H -5.6919 -1.1216 -3.6229
| 50> H 3.3859 2.4495 0.0998
| 51> H 2.9426 4.8693 0.1992
| 52> H 1.3368 6.7389 0.2353
| 53> H -1.0976 6.2940 0.2032
| 54> H -1.9469 4.0060 0.1506
| 55> H -2.5630 1.3207 -0.4860
| 56> H -1.3899 0.1329 2.2243
| 57> H -3.1461 -0.1752 1.4458
| 58> H -1.8657 2.4527 2.3769
| 59> H -3.6153 2.1571 1.5738
| 60> H 3.0616 -1.0314 2.6243
| 61> H 5.4868 -1.0021 2.3018
| 62> *
| 63>
| 64>                          ****END OF INPUT****

CARTESIAN COORDINATES (ANGSTROEM)
---------------------------------
  O      7.396400   -2.235600   -0.969300
  C      6.889200   -1.833900    0.116300
  O      7.724000   -1.358000    1.129400
  C      5.423100   -1.862800    0.312800
  C      4.572200   -2.354200   -0.693300
  C      3.187400   -2.373200   -0.502400
  C      2.632200   -1.902600    0.693700
  S      0.883100   -1.896000    0.905500
  O      0.350800   -3.262900    0.570300
  O      0.536100   -1.594700    2.337300
  N      0.163200   -0.693400   -0.132100
  C     -0.306800   -1.103800   -1.463400
  C     -1.791400   -1.306400   -1.484300
  C     -2.535400   -2.014600   -0.537700
  C     -3.887400   -2.119900   -0.891100
  C     -4.891900   -2.741800   -0.141800
  F     -4.614000   -3.302000    1.066700
  C     -6.200500   -2.778900   -0.660900
  C     -6.491800   -2.199600   -1.915600
  F     -7.757100   -2.252600   -2.410900
  C     -5.478200   -1.569000   -2.656900
  C     -4.190400   -1.539200   -2.117800
  S     -2.797900   -0.873700   -2.780100
  C      0.540900    0.680700    0.070200
  N      1.863800    0.995900    0.038800
  C      2.317800    2.269300    0.123800
  C      1.413600    3.332000    0.184600
  C      1.879300    4.656600    0.206100
  C      0.973500    5.718400    0.223700
  C     -0.399200    5.467100    0.208400
  C     -0.875700    4.152600    0.193400
  C      0.021700    3.060300    0.207900
  C     -0.423800    1.708800    0.229700
  C     -1.892200    1.365900    0.397600
  C     -2.228300    0.438700    1.564400
  C     -2.535800    1.913600    1.671000
  C      3.474100   -1.410300    1.698700
  C      4.859000   -1.391400    1.510900
  H      8.728200   -1.324600    1.003200
  H      4.975900   -2.722500   -1.628500
  H      2.548000   -2.751600   -1.289600
  H     -0.022100   -0.341700   -2.226500
  H      0.179700   -2.056500   -1.769100
  H     -2.121900   -2.424500    0.374900
  H     -6.988900   -3.258800   -0.094300
  H     -5.691900   -1.121600   -3.622900
  H      3.385900    2.449500    0.099800
  H      2.942600    4.869300    0.199200
  H      1.336800    6.738900    0.235300
  H     -1.097600    6.294000    0.203200
  H     -1.946900    4.006000    0.150600
  H     -2.563000    1.320700   -0.486000
  H     -1.389900    0.132900    2.224300
  H     -3.146100   -0.175200    1.445800
  H     -1.865700    2.452700    2.376900
  H     -3.615300    2.157100    1.573800
  H      3.061600   -1.031400    2.624300
  H      5.486800   -1.002100    2.301800

 Total Charge           Charge          ....    0
 Multiplicity           Mult            ....    1
 Number of Electrons    NEL             ....  284
 Basis Dimension        Dim             ....  580

ORBITAL ENERGIES
----------------

  NO   OCC          E(Eh)            E(eV)
   0   2.0000     -89.101487     -2424.5747
   1   2.0000     -88.893646     -2418.9191
   2   2.0000     -24.706395      -672.2952
   3   2.0000     -24.703124      -672.2062
   4   2.0000     -19.194386      -522.3058
   5   2.0000     -19.135893      -520.7141
   6   2.0000     -19.133843      -520.6583
   7   2.0000     -19.131096      -520.5836
   8   2.0000     -14.382539      -391.3688
   9   2.0000     -14.339385      -390.1945
  10   2.0000     -10.333381      -281.1856
  11   2.0000     -10.279913      -279.7307
  12   2.0000     -10.279426      -279.7174
  13   2.0000     -10.268317      -279.4151
  14   2.0000     -10.251600      -278.9602
  15   2.0000     -10.238540      -278.6048
  16   2.0000     -10.233340      -278.4633
  17   2.0000     -10.227482      -278.3039
  18   2.0000     -10.222250      -278.1616
  19   2.0000     -10.217738      -278.0388
  20   2.0000     -10.217645      -278.0363
  21   2.0000     -10.214825      -277.9595
  22   2.0000     -10.213910      -277.9346
  23   2.0000     -10.213660      -277.9278
  24   2.0000     -10.212257      -277.8896
  25   2.0000     -10.212133      -277.8863
  26   2.0000     -10.205683      -277.7107
  27   2.0000     -10.202267      -277.6178
  28   2.0000     -10.201357      -277.5930
  29   2.0000     -10.200085      -277.5584
  30   2.0000     -10.199065      -277.5307
  31   2.0000     -10.197938      -277.5000
  32   2.0000     -10.196207      -277.4529
  33   2.0000     -10.195800      -277.4418
  34   2.0000     -10.194832      -277.4155
  35   2.0000     -10.181946      -277.0648
  36   2.0000     -10.178619      -276.9743
  37   2.0000     -10.173783      -276.8427
  38   2.0000      -8.137472      -221.4319
  39   2.0000      -7.971068      -216.9038
  40   2.0000      -6.102492      -166.0573
  41   2.0000      -6.100571      -166.0050
  42   2.0000      -6.099969      -165.9886
  43   2.0000      -5.934361      -161.4822
  44   2.0000      -5.930434      -161.3753
  45   2.0000      -5.927366      -161.2918
  46   2.0000      -1.216111       -33.0920
  47   2.0000      -1.214340       -33.0439
  48   2.0000      -1.088917       -29.6309
  49   2.0000      -1.077187       -29.3118
  50   2.0000      -0.992043       -26.9949
  51   2.0000      -0.971442       -26.4343
  52   2.0000      -0.968100       -26.3433
  53   2.0000      -0.923734       -25.1361
  54   2.0000      -0.911884       -24.8136
  55   2.0000      -0.885671       -24.1003
  56   2.0000      -0.870465       -23.6865
  57   2.0000      -0.853505       -23.2250
  58   2.0000      -0.841684       -22.9034
  59   2.0000      -0.804283       -21.8857
  60   2.0000      -0.791010       -21.5245
  61   2.0000      -0.783326       -21.3154
  62   2.0000      -0.777995       -21.1703
  63   2.0000      -0.772035       -21.0081
  64   2.0000      -0.764944       -20.8152
  65   2.0000      -0.739474       -20.1221
  66   2.0000      -0.726711       -19.7748
  67   2.0000      -0.707502       -19.2521
  68   2.0000      -0.690561       -18.7911
  69   2.0000      -0.664817       -18.0906
  70   2.0000      -0.654544       -17.8110
  71   2.0000      -0.637641       -17.3511
  72   2.0000      -0.628357       -17.0985
  73   2.0000      -0.626726       -17.0541
  74   2.0000      -0.616550       -16.7772
  75   2.0000      -0.604807       -16.4576
  76   2.0000      -0.596098       -16.2206
  77   2.0000      -0.579701       -15.7745
  78   2.0000      -0.572133       -15.5685
  79   2.0000      -0.571238       -15.5442
  80   2.0000      -0.563602       -15.3364
  81   2.0000      -0.542415       -14.7599
  82   2.0000      -0.537728       -14.6323
  83   2.0000      -0.533011       -14.5040
  84   2.0000      -0.524655       -14.2766
  85   2.0000      -0.517847       -14.0913
  86   2.0000      -0.507349       -13.8057
  87   2.0000      -0.499130       -13.5820
  88   2.0000      -0.493189       -13.4203
  89   2.0000      -0.490513       -13.3475
  90   2.0000      -0.486958       -13.2508
  91   2.0000      -0.483652       -13.1608
  92   2.0000      -0.477328       -12.9888
  93   2.0000      -0.469783       -12.7834
  94   2.0000      -0.466182       -12.6854
  95   2.0000      -0.458851       -12.4860
  96   2.0000      -0.458262       -12.4699
  97   2.0000      -0.452255       -12.3065
  98   2.0000      -0.450918       -12.2701
  99   2.0000      -0.446442       -12.1483
 100   2.0000      -0.443828       -12.0772
 101   2.0000      -0.439262       -11.9529
 102   2.0000      -0.438516       -11.9326
 103   2.0000      -0.435441       -11.8489
 104   2.0000      -0.431197       -11.7335
 105   2.0000      -0.427202       -11.6248
 106   2.0000      -0.421996       -11.4831
 107   2.0000      -0.420093       -11.4313
 108   2.0000      -0.414452       -11.2778
 109   2.0000      -0.412508       -11.2249
 110   2.0000      -0.397633       -10.8201
 111   2.0000      -0.390464       -10.6251
 112   2.0000      -0.388981       -10.5847
 113   2.0000      -0.385982       -10.5031
 114   2.0000      -0.383299       -10.4301
 115   2.0000      -0.374499       -10.1906
 116   2.0000      -0.368388       -10.0244
 117   2.0000      -0.366650        -9.9770
 118   2.0000      -0.364760        -9.9256
 119   2.0000      -0.363231        -9.8840
 120   2.0000      -0.356400        -9.6981
 121   2.0000      -0.354520        -9.6470
 122   2.0000      -0.344155        -9.3649
 123   2.0000      -0.331798        -9.0287
 124   2.0000      -0.322709        -8.7814
 125   2.0000      -0.319027        -8.6812
 126   2.0000      -0.314063        -8.5461
 127   2.0000      -0.307978        -8.3805
 128   2.0000      -0.299174        -8.1410
 129   2.0000      -0.291972        -7.9450
 130   2.0000      -0.286390        -7.7931
 131   2.0000      -0.282913        -7.6985
 132   2.0000      -0.281718        -7.6659
 133   2.0000      -0.275215        -7.4890
 134   2.0000      -0.273369        -7.4388
 135   2.0000      -0.272167        -7.4060
 136   2.0000      -0.270224        -7.3532
 137   2.0000      -0.261697        -7.1211
 138   2.0000      -0.251940        -6.8556
 139   2.0000      -0.241796        -6.5796
 140   2.0000      -0.227304        -6.1853
 141   2.0000      -0.207752        -5.6532
 142   0.0000      -0.079319        -2.1584
 143   0.0000      -0.067747        -1.8435
 144   0.0000      -0.036313        -0.9881
 145   0.0000      -0.030779        -0.8375
 146   0.0000      -0.024724        -0.6728

MULLIKEN ATOMIC CHARGES
-----------------------
   0 O :   -0.447844
   1 C :    0.527396
   2 O :   -0.625659
   3 C :    0.083274
   4 C :   -0.140014
   5 C :   -0.141063
   6 C :   -0.086708
   7 S :    1.225400
   8 O :   -0.553726
   9 O :   -0.544528
  10 N :   -0.580715
  11 C :   -0.207601
  12 C :   -0.140691
  13 C :   -0.134571
  14 C :    0.060783
  15 C :    0.371780
  16 F :   -0.304253
  17 C :   -0.310668
  18 C :    0.437261
  19 F :   -0.317489
  20 C :   -0.264284
  21 C :   -0.104265
  22 S :    0.220952
  23 C :    0.314178
  24 N :   -0.402455
  25 C :   -0.046952
  26 C :    0.134267
  27 C :   -0.203945
  28 C :   -0.125706
  29 C :   -0.123069
  30 C :   -0.185545
  31 C :    0.114220
  32 C :    0.042891
  33 C :   -0.189231
  34 C :   -0.305640
  35 C :   -0.316309
  36 C :   -0.131267
  37 C :   -0.150169
  38 H :    0.432852
  39 H :    0.177300
  40 H :    0.164616
  41 H :    0.172243
  42 H :    0.201144
  43 H :    0.198116
  44 H :    0.159453
  45 H :    0.152722
  46 H :    0.154380
  47 H :    0.138963
  48 H :    0.137353
  49 H :    0.140165
  50 H :    0.154586
  51 H :    0.170400
  52 H :    0.193089
  53 H :    0.151218
  54 H :    0.155677
  55 H :    0.143796
  56 H :    0.184165
  57 H :    0.169725
Sum of atomic charges:   -0.0000000

LOEWDIN ATOMIC CHARGES
----------------------
   0 O :   -0.264491
   1 C :    0.182667
   2 O :   -0.337770
   3 C :   -0.041131
   4 C :   -0.085548
   5 C :   -0.103526
   6 C :   -0.157885
   7 S :    1.267755
   8 O :   -0.568736
   9 O :   -0.568546
  10 N :   -0.267363
  11 C :   -0.144344
  12 C :   -0.193873
  13 C :   -0.140888
  14 C :   -0.076093
  15 C :    0.133539
  16 F :   -0.094409
  17 C :   -0.195499
  18 C :    0.123017
  19 F :   -0.102604
  20 C :   -0.175964
  21 C :   -0.162630
  22 S :    0.371654
  23 C :    0.032500
  24 N :   -0.140515
  25 C :   -0.056691
  26 C :   -0.031204
  27 C :   -0.114059
  28 C :   -0.125212
  29 C :   -0.117246
  30 C :   -0.115627
  31 C :   -0.002460
  32 C :   -0.008382
  33 C :   -0.146756
  34 C :   -0.242634
  35 C :   -0.257819
  36 C :   -0.094336
  37 C :   -0.099679
  38 H :    0.348711
  39 H :    0.158891
  40 H :    0.149118
  41 H :    0.141806
  42 H :    0.154193
  43 H :    0.163569
  44 H :    0.154014
  45 H :    0.148679
  46 H :    0.137991
  47 H :    0.136953
  48 H :    0.135999
  49 H :    0.137706
  50 H :    0.147020
  51 H :    0.142514
  52 H :    0.152397
  53 H :    0.135707
  54 H :    0.134475
  55 H :    0.129161
  56 H :    0.160536
  57 H :    0.153349

  Mayer bond orders larger than 0.100000
B(  0-O ,  1-C ) :   1.8587 B(  1-C ,  2-O ) :   1.0205 B(  1-C ,  3-C ) :   1.0105
B(  2-O , 38-H ) :   0.7427 B(  3-C ,  4-C ) :   1.4003 B(  3-C , 37-C ) :   1.3836
B(  4-C ,  5-C ) :   1.4353 B(  4-C , 39-H ) :   0.9099 B(  5-C ,  6-C ) :   1.3790
B(  5-C , 40-H ) :   0.9146 B(  6-C ,  7-S ) :   0.8078 B(  6-C , 36-C ) :   1.4068
B(  7-S ,  8-O ) :   1.6030 B(  7-S ,  9-O ) :   1.6273 B(  7-S , 10-N ) :   0.7896
B( 10-N , 11-C ) :   0.9388 B( 10-N , 23-C ) :   0.9012 B( 11-C , 12-C ) :   0.9679
B( 11-C , 41-H ) :   0.9222 B( 11-C , 42-H ) :   0.9016 B( 12-C , 13-C ) :   1.5920
B( 12-C , 22-S ) :   1.0804 B( 13-C , 14-C ) :   1.2201 B( 13-C , 43-H ) :   0.8975
B( 14-C , 15-C ) :   1.2493 B( 14-C , 21-C ) :   1.3340 B( 15-C , 16-F ) :   0.9500
B( 15-C , 17-C ) :   1.4042 B( 17-C , 18-C ) :   1.3128 B( 17-C , 44-H ) :   0.9117
B( 18-C , 19-F ) :   0.9049 B( 18-C , 20-C ) :   1.4277 B( 20-C , 21-C ) :   1.3094
B( 20-C , 45-H ) :   0.9180 B( 21-C , 22-S ) :   1.0577 B( 23-C , 24-N ) :   1.2832
B( 23-C , 32-C ) :   1.4231 B( 24-N , 25-C ) :   1.4851 B( 25-C , 26-C ) :   1.2450
B( 25-C , 32-C ) :   0.1006 B( 25-C , 46-H ) :   0.9253 B( 26-C , 27-C ) :   1.2795
B( 26-C , 31-C ) :   1.2828 B( 27-C , 28-C ) :   1.5168 B( 27-C , 30-C ) :   0.1059
B( 27-C , 47-H ) :   0.9235 B( 28-C , 29-C ) :   1.3482 B( 28-C , 48-H ) :   0.9291
B( 29-C , 30-C ) :   1.5057 B( 29-C , 49-H ) :   0.9288 B( 30-C , 31-C ) :   1.3002
B( 30-C , 50-H ) :   0.9100 B( 31-C , 32-C ) :   1.2537 B( 32-C , 33-C ) :   1.0280
B( 33-C , 34-C ) :   0.9345 B( 33-C , 35-C ) :   0.9264 B( 33-C , 51-H ) :   0.9078
B( 34-C , 35-C ) :   0.9520 B( 34-C , 52-H ) :   0.9235 B( 34-C , 53-H ) :   0.9387
B( 35-C , 54-H ) :   0.9418 B( 35-C , 55-H ) :   0.9433 B( 36-C , 37-C ) :   1.4142
B( 36-C , 56-H ) :   0.9092 B( 37-C , 57-H ) :   0.9155

FINAL SINGLE POINT ENERGY     -2484.231502326036

DIPOLE MOMENT
-------------

Method             : SCF
Type of density    : Electron Density
Multiplicity       :   1
Irrep              :   0
Energy             : -2484.2315023260357520 Eh
Relativity type    :
Basis              : AO
                                X                 Y                 Z
Electronic contribution:    -15.249987423     -22.016344941      -7.608881419
Nuclear contribution   :     16.318972263      24.605381723       7.135846186
                        -----------------------------------------
Total Dipole Moment    :      1.068984840       2.589036782      -0.473035234
                        -----------------------------------------
Magnitude (a.u.)       :      2.840704557
Magnitude (Debye)      :      7.220497162

Rotational constants in cm-1:             0.004275             0.001816             0.001439
Rotational constants in MHz :           128.151525            54.445044            43.134963

                             ****ORCA TERMINATED NORMALLY****
TOTAL RUN TIME: 0 days 0 hours 11 minutes 35 seconds 810 msec
