                         Program Version 6.0.0  -   RELEASE  -
|  1> ! B3LYP 6-31G* SP
|  2>
|  3> * xyz -1 1
|  4> C -1.0558 -1.8502 -1.9032
|  5> C -1.9707 -1.1863 -0.8973
|  6> C -1.4401 -0.3619 0.1239
|  7> N -0.0405 -0.0567 0.1861
|  8> C 0.5462 0.8698 -0.7867
|  9> C 0.5114 2.2772 -0.2571
| 10> C 1.6630 2.8584 0.3003
| 11> C 1.6135 4.1522 0.8276
| 12> C 0.4160 4.8729 0.8038
| 13> C -0.7343 4.3003 0.2534
| 14> C -0.6894 3.0061 -0.2733
| 15> S 0.8319 -0.4567 1.6344
| 16> O 0.7436 0.6924 2.6002
| 17> O 0.2260 -1.6764 2.2713
| 18> C 2.5116 -0.8107 1.2430
| 19> C 3.5525 -0.0557 1.7989
| 20> C 4.8806 -0.3338 1.4633
| 21> C 5.1868 -1.3738 0.5684
| 22> C 6.5933 -1.6651 0.2141
| 23> O 6.8741 -2.6166 -0.5631
| 24> O 7.6259 -0.8928 0.7349
| 25> C 4.1365 -2.1301 0.0170
| 26> C 2.8096 -1.8489 0.3535
| 27> N -2.2620 0.1648 1.0698
| 28> C -3.6008 -0.0411 1.0683
| 29> C -4.1919 -0.8071 0.0609
| 30> C -5.5817 -1.0012 0.0435
| 31> C -6.1712 -1.7598 -0.9679
| 32> C -5.3813 -2.3267 -1.9678
| 33> C -3.9959 -2.1439 -1.9614
| 34> C -3.3756 -1.3859 -0.9434
| 35> H -1.2034 -1.3906 -2.9025
| 36> H -1.2758 -2.9368 -1.9569
| 37> H 0.0149 -1.7642 -1.6310
| 38> H -0.0129 0.8286 -1.7470
| 39> H 1.5877 0.5608 -1.0182
| 40> H 2.5964 2.3109 0.3292
| 41> H 2.5029 4.5953 1.2568
| 42> H 0.3791 5.8741 1.2129
| 43> H -1.6618 4.8582 0.2377
| 44> H -1.5892 2.5711 -0.6911
| 45> H 3.3402 0.7523 2.4864
| 46> H 5.6662 0.2661 1.9041
| 47> H 4.3394 -2.9367 -0.6761
| 48> H 2.0130 -2.4376 -0.0833
| 49> H -4.2032 0.4073 1.8488
| 50> H -6.2111 -0.5643 0.8101
| 51> H -7.2436 -1.9054 -0.9787
| 52> H -5.8445 -2.9095 -2.7536
| 53> H -3.4255 -2.5923 -2.7632
| 54> *
| 55>
| 56>                          ****END OF INPUT****

CARTESIAN COORDINATES (ANGSTROEM)
---------------------------------
  C     -1.055800   -1.850200   -1.903200
  C     -1.970700   -1.186300   -0.897300
  C     -1.440100   -0.361900    0.123900
  N     -0.040500   -0.056700    0.186100
  C      0.546200    0.869800   -0.786700
  C      0.511400    2.277200   -0.257100
  C      1.663000    2.858400    0.300300
  C      1.613500    4.152200    0.827600
  C      0.416000    4.872900    0.803800
  C     -0.734300    4.300300    0.253400
  C     -0.689400    3.006100   -0.273300
  S      0.831900   -0.456700    1.634400
  O      0.743600    0.692400    2.600200
  O      0.226000   -1.676400    2.271300
  C      2.511600   -0.810700    1.243000
  C      3.552500   -0.055700    1.798900
  C      4.880600   -0.333800    1.463300
  C      5.186800   -1.373800    0.568400
  C      6.593300   -1.665100    0.214100
  O      6.874100   -2.616600   -0.563100
  O      7.625900   -0.892800    0.734900
  C      4.136500   -2.130100    0.017000
  C      2.809600   -1.848900    0.353500
  N     -2.262000    0.164800    1.069800
  C     -3.600800   -0.041100    1.068300
  C     -4.191900   -0.807100    0.060900
  C     -5.581700   -1.001200    0.043500
  C     -6.171200   -1.759800   -0.967900
  C     -5.381300   -2.326700   -1.967800
  C     -3.995900   -2.143900   -1.961400
  C     -3.375600   -1.385900   -0.943400
  H     -1.203400   -1.390600   -2.902500
  H     -1.275800   -2.936800   -1.956900
  H      0.014900   -1.764200   -1.631000
  H     -0.012900    0.828600   -1.747000
  H      1.587700    0.560800   -1.018200
  H      2.596400    2.310900    0.329200
  H      2.502900    4.595300    1.256800
  H      0.379100    5.874100    1.212900
  H     -1.661800    4.858200    0.237700
  H     -1.589200    2.571100   -0.691100
  H      3.340200    0.752300    2.486400
  H      5.666200    0.266100    1.904100
  H      4.339400   -2.936700   -0.676100
  H      2.013000   -2.437600   -0.083300
  H     -4.203200    0.407300    1.848800
  H     -6.211100   -0.564300    0.810100
  H     -7.243600   -1.905400   -0.978700
  H     -5.844500   -2.909500   -2.753600
  H     -3.425500   -2.592300   -2.763200

 Total Charge           Charge          ....   -1
 Multiplicity           Mult            ....    1
 Number of Electrons    NEL             ....  226
 Basis Dimension        Dim             ....  476

ORBITAL ENERGIES
----------------

  NO   OCC          E(Eh)            E(eV)
   0   2.0000     -88.994164     -2421.6543
   1   2.0000     -19.021443      -517.5998
   2   2.0000     -19.016168      -517.4562
   3   2.0000     -18.907759      -514.5063
   4   2.0000     -18.887010      -513.9417
   5   2.0000     -14.281900      -388.6303
   6   2.0000     -14.258279      -387.9875
   7   2.0000     -10.189213      -277.2626
   8   2.0000     -10.156274      -276.3663
   9   2.0000     -10.152803      -276.2718
  10   2.0000     -10.142747      -275.9982
  11   2.0000     -10.140245      -275.9301
  12   2.0000     -10.138928      -275.8942
  13   2.0000     -10.137974      -275.8683
  14   2.0000     -10.136476      -275.8275
  15   2.0000     -10.135679      -275.8059
  16   2.0000     -10.135602      -275.8038
  17   2.0000     -10.120017      -275.3797
  18   2.0000     -10.117532      -275.3120
  19   2.0000     -10.110746      -275.1274
  20   2.0000     -10.107317      -275.0341
  21   2.0000     -10.106317      -275.0069
  22   2.0000     -10.105632      -274.9882
  23   2.0000     -10.104274      -274.9513
  24   2.0000     -10.101850      -274.8853
  25   2.0000     -10.096997      -274.7533
  26   2.0000     -10.093033      -274.6454
  27   2.0000     -10.092991      -274.6442
  28   2.0000     -10.077267      -274.2164
  29   2.0000     -10.075736      -274.1747
  30   2.0000     -10.073948      -274.1261
  31   2.0000      -8.029905      -218.5048
  32   2.0000      -5.995532      -163.1467
  33   2.0000      -5.992643      -163.0681
  34   2.0000      -5.992195      -163.0559
  35   2.0000      -0.979444       -26.6520
  36   2.0000      -0.884274       -24.0623
  37   2.0000      -0.856841       -23.3158
  38   2.0000      -0.836923       -22.7738
  39   2.0000      -0.816897       -22.2289
  40   2.0000      -0.800939       -21.7946
  41   2.0000      -0.771733       -20.9999
  42   2.0000      -0.757950       -20.6249
  43   2.0000      -0.741764       -20.1844
  44   2.0000      -0.713771       -19.4227
  45   2.0000      -0.697939       -18.9919
  46   2.0000      -0.691098       -18.8057
  47   2.0000      -0.678613       -18.4660
  48   2.0000      -0.665108       -18.0985
  49   2.0000      -0.663325       -18.0500
  50   2.0000      -0.645231       -17.5576
  51   2.0000      -0.634496       -17.2655
  52   2.0000      -0.609619       -16.5886
  53   2.0000      -0.586159       -15.9502
  54   2.0000      -0.581129       -15.8133
  55   2.0000      -0.544920       -14.8280
  56   2.0000      -0.532651       -14.4942
  57   2.0000      -0.527906       -14.3651
  58   2.0000      -0.512547       -13.9471
  59   2.0000      -0.503474       -13.7002
  60   2.0000      -0.494939       -13.4680
  61   2.0000      -0.468648       -12.7526
  62   2.0000      -0.454123       -12.3573
  63   2.0000      -0.443533       -12.0691
  64   2.0000      -0.434502       -11.8234
  65   2.0000      -0.428812       -11.6686
  66   2.0000      -0.416267       -11.3272
  67   2.0000      -0.411000       -11.1839
  68   2.0000      -0.392726       -10.6866
  69   2.0000      -0.387843       -10.5538
  70   2.0000      -0.383157       -10.4262
  71   2.0000      -0.375118       -10.2075
  72   2.0000      -0.370709       -10.0875
  73   2.0000      -0.365749        -9.9525
  74   2.0000      -0.364800        -9.9267
  75   2.0000      -0.353137        -9.6094
  76   2.0000      -0.347121        -9.4456
  77   2.0000      -0.343168        -9.3381
  78   2.0000      -0.338839        -9.2203
  79   2.0000      -0.337071        -9.1722
  80   2.0000      -0.332785        -9.0556
  81   2.0000      -0.323283        -8.7970
  82   2.0000      -0.321341        -8.7441
  83   2.0000      -0.317637        -8.6433
  84   2.0000      -0.315758        -8.5922
  85   2.0000      -0.306310        -8.3351
  86   2.0000      -0.292025        -7.9464
  87   2.0000      -0.290215        -7.8971
  88   2.0000      -0.287320        -7.8184
  89   2.0000      -0.281136        -7.6501
  90   2.0000      -0.277504        -7.5513
  91   2.0000      -0.269592        -7.3360
  92   2.0000      -0.262437        -7.1413
  93   2.0000      -0.245966        -6.6931
  94   2.0000      -0.232194        -6.3183
  95   2.0000      -0.229550        -6.2464
  96   2.0000      -0.223498        -6.0817
  97   2.0000      -0.211748        -5.7620
  98   2.0000      -0.209848        -5.7102
  99   2.0000      -0.199528        -5.4294
 100   2.0000      -0.191480        -5.2104
 101   2.0000      -0.186719        -5.0809
 102   2.0000      -0.178985        -4.8704
 103   2.0000      -0.174173        -4.7395
 104   2.0000      -0.169818        -4.6210
 105   2.0000      -0.165118        -4.4931
 106   2.0000      -0.157493        -4.2856
 107   2.0000      -0.151965        -4.1352
 108   2.0000      -0.147326        -4.0089
 109   2.0000      -0.130621        -3.5544
 110   2.0000      -0.061841        -1.6828
 111   2.0000      -0.040052        -1.0899
 112   2.0000      -0.023468        -0.6386
 113   0.0000       0.002895         0.0788
 114   0.0000       0.036542         0.9944
 115   0.0000       0.062660         1.7051
 116   0.0000       0.073406         1.9975
 117   0.0000       0.077482         2.1084

MULLIKEN ATOMIC CHARGES
-----------------------
   0 C :   -0.546660
   1 C :    0.094013
   2 C :    0.335097
   3 N :   -0.609081
   4 C :   -0.276632
   5 C :    0.183953
   6 C :   -0.155037
   7 C :   -0.126607
   8 C :   -0.122794
   9 C :   -0.127768
  10 C :   -0.148878
  11 S :    1.202011
  12 O :   -0.550328
  13 O :   -0.554201
  14 C :   -0.161018
  15 C :   -0.155075
  16 C :   -0.152835
  17 C :    0.105976
  18 C :    0.411464
  19 O :   -0.551902
  20 O :   -0.656196
  21 C :   -0.157493
  22 C :   -0.155334
  23 N :   -0.354467
  24 C :   -0.054070
  25 C :    0.135991
  26 C :   -0.202848
  27 C :   -0.130711
  28 C :   -0.123311
  29 C :   -0.200020
  30 C :    0.121686
  31 H :    0.149979
  32 H :    0.160529
  33 H :    0.193013
  34 H :    0.156653
  35 H :    0.180132
  36 H :    0.146777
  37 H :    0.122406
  38 H :    0.109170
  39 H :    0.108792
  40 H :    0.114646
  41 H :    0.158644
  42 H :    0.154202
  43 H :    0.145622
  44 H :    0.136508
  45 H :    0.144108
  46 H :    0.128666
  47 H :    0.119259
  48 H :    0.122406
  49 H :    0.131564
Sum of atomic charges:   -1.0000000

LOEWDIN ATOMIC CHARGES
----------------------
   0 C :   -0.361026
   1 C :   -0.021238
   2 C :    0.049443
   3 N :   -0.285163
   4 C :   -0.152123
   5 C :   -0.027526
   6 C :   -0.119793
   7 C :   -0.125896
   8 C :   -0.134848
   9 C :   -0.132932
  10 C :   -0.123820
  11 S :    1.261187
  12 O :   -0.584180
  13 O :   -0.588951
  14 C :   -0.214922
  15 C :   -0.124440
  16 C :   -0.108834
  17 C :   -0.002367
  18 C :    0.071591
  19 O :   -0.377426
  20 O :   -0.504500
  21 C :   -0.113823
  22 C :   -0.128412
  23 N :   -0.104211
  24 C :   -0.062066
  25 C :   -0.032486
  26 C :   -0.114422
  27 C :   -0.138628
  28 C :   -0.126890
  29 C :   -0.127309
  30 C :   -0.007105
  31 H :    0.130692
  32 H :    0.136060
  33 H :    0.147182
  34 H :    0.133687
  35 H :    0.140285
  36 H :    0.139523
  37 H :    0.128968
  38 H :    0.122766
  39 H :    0.122549
  40 H :    0.126051
  41 H :    0.146607
  42 H :    0.151363
  43 H :    0.145957
  44 H :    0.132891
  45 H :    0.133629
  46 H :    0.132349
  47 H :    0.127635
  48 H :    0.129393
  49 H :    0.135528

  Mayer bond orders larger than 0.100000
B(  0-C ,  1-C ) :   0.9953 B(  0-C , 31-H ) :   0.9289 B(  0-C , 32-H ) :   0.9305
B(  0-C , 33-H ) :   0.9234 B(  1-C ,  2-C ) :   1.4311 B(  1-C , 24-C ) :   0.1047
B(  1-C , 30-C ) :   1.2686 B(  2-C ,  3-N ) :   0.9207 B(  2-C , 23-N ) :   1.2795
B(  3-N ,  4-C ) :   0.9388 B(  3-N , 11-S ) :   0.7614 B(  4-C ,  5-C ) :   0.9443
B(  4-C , 34-H ) :   0.9250 B(  4-C , 35-H ) :   0.9177 B(  5-C ,  6-C ) :   1.4392
B(  5-C , 10-C ) :   1.4301 B(  6-C ,  7-C ) :   1.4437 B(  6-C , 36-H ) :   0.9109
B(  7-C ,  8-C ) :   1.4571 B(  7-C , 37-H ) :   0.9303 B(  8-C ,  9-C ) :   1.4497
B(  8-C , 38-H ) :   0.9328 B(  9-C , 10-C ) :   1.4502 B(  9-C , 39-H ) :   0.9322
B( 10-C , 40-H ) :   0.9240 B( 11-S , 12-O ) :   1.6370 B( 11-S , 13-O ) :   1.6552
B( 11-S , 14-C ) :   0.8375 B( 14-C , 15-C ) :   1.3743 B( 14-C , 22-C ) :   1.3549
B( 15-C , 16-C ) :   1.3946 B( 15-C , 41-H ) :   0.9159 B( 16-C , 17-C ) :   1.4023
B( 16-C , 42-H ) :   0.9012 B( 17-C , 18-C ) :   0.9273 B( 17-C , 21-C ) :   1.3858
B( 18-C , 19-O ) :   1.7059 B( 18-C , 20-O ) :   1.5497 B( 19-O , 20-O ) :   0.1490
B( 21-C , 22-C ) :   1.4198 B( 21-C , 43-H ) :   0.9076 B( 22-C , 44-H ) :   0.9201
B( 23-N , 24-C ) :   1.5013 B( 24-C , 25-C ) :   1.2266 B( 24-C , 45-H ) :   0.9287
B( 25-C , 26-C ) :   1.2853 B( 25-C , 30-C ) :   1.2888 B( 26-C , 27-C ) :   1.5130
B( 26-C , 29-C ) :   0.1064 B( 26-C , 46-H ) :   0.9245 B( 27-C , 28-C ) :   1.3521
B( 27-C , 47-H ) :   0.9318 B( 28-C , 29-C ) :   1.5115 B( 28-C , 48-H ) :   0.9314
B( 29-C , 30-C ) :   1.2912 B( 29-C , 49-H ) :   0.9171

FINAL SINGLE POINT ENERGY     -1733.666102355818

DIPOLE MOMENT
-------------

Method             : SCF
Type of density    : Electron Density
Multiplicity       :   1
Irrep              :   0
Energy             : -1733.6661023558181114 Eh
Relativity type    :
Basis              : AO
                                X                 Y                 Z
Electronic contribution:      7.050354586      -3.947379792      10.006342918
Nuclear contribution   :    -17.122890885       6.059469681     -12.176718681
                        -----------------------------------------
Total Dipole Moment    :    -10.072536298       2.112089889      -2.170375764
                        -----------------------------------------
Magnitude (a.u.)       :     10.517958078
Magnitude (Debye)      :     26.734524807

Rotational constants in cm-1:             0.007475             0.002711             0.002238
Rotational constants in MHz :           224.085204            81.259908            67.089761

                             ****ORCA TERMINATED NORMALLY****
TOTAL RUN TIME: 0 days 0 hours 6 minutes 8 seconds 567 msec
