                         Program Version 6.0.0  -   RELEASE  -
|  1> ! B3LYP 6-31G* SP
|  2>
|  3> * xyz 0 1
|  4> C -1.5902 -2.2982 1.3795
|  5> C -1.9555 -1.8465 -0.0337
|  6> N -1.5641 -0.4423 -0.2638
|  7> C -0.1877 -0.0473 -0.0947
|  8> O 0.0792 1.0167 0.5276
|  9> C 0.9181 -0.8628 -0.6459
| 10> C 0.7833 -1.4383 -1.9206
| 11> C 1.8205 -2.1929 -2.4704
| 12> C 3.0041 -2.3781 -1.7568
| 13> C 3.1564 -1.8072 -0.4917
| 14> C 2.1175 -1.0427 0.0775
| 15> O 2.2337 -0.4664 1.3553
| 16> C 3.4179 -0.4506 2.1536
| 17> C 4.4661 0.4446 1.5416
| 18> C 4.1154 1.7371 1.1153
| 19> C 5.0778 2.5830 0.5571
| 20> C 6.4001 2.1515 0.4315
| 21> C 6.7638 0.8752 0.8696
| 22> C 5.8056 0.0238 1.4298
| 23> F 6.1866 -1.2056 1.8608
| 24> C -2.5636 0.5886 -0.6097
| 25> C -3.2914 0.2445 -1.9225
| 26> C -4.2229 1.3899 -2.3687
| 27> C -4.7797 2.2238 -1.1945
| 28> C -4.9268 1.3969 0.0977
| 29> N -5.8887 0.3089 -0.1042
| 30> C -3.5559 0.8323 0.5564
| 31> H -2.0467 -1.6204 2.1311
| 32> H -1.9679 -3.3286 1.5496
| 33> H -0.4883 -2.3025 1.5153
| 34> H -3.0495 -1.9807 -0.1609
| 35> H -1.4590 -2.5083 -0.7724
| 36> H -0.1216 -1.2899 -2.4978
| 37> H 1.7077 -2.6321 -3.4533
| 38> H 3.8069 -2.9645 -2.1855
| 39> H 4.0841 -1.9738 0.0361
| 40> H 3.1604 -0.0487 3.1554
| 41> H 3.7819 -1.4892 2.3034
| 42> H 3.0958 2.0883 1.2130
| 43> H 4.7988 3.5748 0.2248
| 44> H 7.1445 2.8079 -0.0001
| 45> H 7.7918 0.5475 0.7795
| 46> H -2.0377 1.5533 -0.7992
| 47> H -3.8989 -0.6756 -1.7939
| 48> H -2.5464 0.0431 -2.7226
| 49> H -5.0686 0.9572 -2.9465
| 50> H -3.6701 2.0679 -3.0549
| 51> H -5.7602 2.6622 -1.4813
| 52> H -4.0913 3.0744 -0.9942
| 53> H -5.3147 2.0684 0.8973
| 54> H -6.8055 0.7261 -0.3868
| 55> H -6.0600 -0.1539 0.8180
| 56> H -3.0867 1.5565 1.2584
| 57> H -3.7183 -0.0969 1.1418
| 58> *
| 59>
| 60>                          ****END OF INPUT****

CARTESIAN COORDINATES (ANGSTROEM)
---------------------------------
  C     -1.590200   -2.298200    1.379500
  C     -1.955500   -1.846500   -0.033700
  N     -1.564100   -0.442300   -0.263800
  C     -0.187700   -0.047300   -0.094700
  O      0.079200    1.016700    0.527600
  C      0.918100   -0.862800   -0.645900
  C      0.783300   -1.438300   -1.920600
  C      1.820500   -2.192900   -2.470400
  C      3.004100   -2.378100   -1.756800
  C      3.156400   -1.807200   -0.491700
  C      2.117500   -1.042700    0.077500
  O      2.233700   -0.466400    1.355300
  C      3.417900   -0.450600    2.153600
  C      4.466100    0.444600    1.541600
  C      4.115400    1.737100    1.115300
  C      5.077800    2.583000    0.557100
  C      6.400100    2.151500    0.431500
  C      6.763800    0.875200    0.869600
  C      5.805600    0.023800    1.429800
  F      6.186600   -1.205600    1.860800
  C     -2.563600    0.588600   -0.609700
  C     -3.291400    0.244500   -1.922500
  C     -4.222900    1.389900   -2.368700
  C     -4.779700    2.223800   -1.194500
  C     -4.926800    1.396900    0.097700
  N     -5.888700    0.308900   -0.104200
  C     -3.555900    0.832300    0.556400
  H     -2.046700   -1.620400    2.131100
  H     -1.967900   -3.328600    1.549600
  H     -0.488300   -2.302500    1.515300
  H     -3.049500   -1.980700   -0.160900
  H     -1.459000   -2.508300   -0.772400
  H     -0.121600   -1.289900   -2.497800
  H      1.707700   -2.632100   -3.453300
  H      3.806900   -2.964500   -2.185500
  H      4.084100   -1.973800    0.036100
  H      3.160400   -0.048700    3.155400
  H      3.781900   -1.489200    2.303400
  H      3.095800    2.088300    1.213000
  H      4.798800    3.574800    0.224800
  H      7.144500    2.807900   -0.000100
  H      7.791800    0.547500    0.779500
  H     -2.037700    1.553300   -0.799200
  H     -3.898900   -0.675600   -1.793900
  H     -2.546400    0.043100   -2.722600
  H     -5.068600    0.957200   -2.946500
  H     -3.670100    2.067900   -3.054900
  H     -5.760200    2.662200   -1.481300
  H     -4.091300    3.074400   -0.994200
  H     -5.314700    2.068400    0.897300
  H     -6.805500    0.726100   -0.386800
  H     -6.060000   -0.153900    0.818000
  H     -3.086700    1.556500    1.258400
  H     -3.718300   -0.096900    1.141800

 Total Charge           Charge          ....    0
 Multiplicity           Mult            ....    1
 Number of Electrons    NEL             ....  198
 Basis Dimension        Dim             ....  432

ORBITAL ENERGIES
----------------

  NO   OCC          E(Eh)            E(eV)
   0   2.0000     -24.703470      -672.2156
   1   2.0000     -19.160106      -521.3730
   2   2.0000     -19.097525      -519.6701
   3   2.0000     -14.326562      -389.8456
   4   2.0000     -14.303361      -389.2142
   5   2.0000     -10.271297      -279.4962
   6   2.0000     -10.267491      -279.3926
   7   2.0000     -10.251984      -278.9707
   8   2.0000     -10.240622      -278.6615
   9   2.0000     -10.205141      -277.6960
  10   2.0000     -10.204822      -277.6873
  11   2.0000     -10.199616      -277.5457
  12   2.0000     -10.194280      -277.4005
  13   2.0000     -10.190382      -277.2944
  14   2.0000     -10.187202      -277.2078
  15   2.0000     -10.186946      -277.2009
  16   2.0000     -10.186494      -277.1886
  17   2.0000     -10.186273      -277.1826
  18   2.0000     -10.183282      -277.1012
  19   2.0000     -10.181220      -277.0451
  20   2.0000     -10.180147      -277.0159
  21   2.0000     -10.176806      -276.9250
  22   2.0000     -10.169816      -276.7348
  23   2.0000     -10.166139      -276.6347
  24   2.0000     -10.164074      -276.5785
  25   2.0000     -10.162943      -276.5477
  26   2.0000     -10.160791      -276.4892
  27   2.0000      -1.215798       -33.0835
  28   2.0000      -1.040331       -28.3089
  29   2.0000      -0.993713       -27.0403
  30   2.0000      -0.899238       -24.4695
  31   2.0000      -0.875995       -23.8370
  32   2.0000      -0.856485       -23.3061
  33   2.0000      -0.848524       -23.0895
  34   2.0000      -0.792407       -21.5625
  35   2.0000      -0.776416       -21.1274
  36   2.0000      -0.755619       -20.5614
  37   2.0000      -0.742236       -20.1973
  38   2.0000      -0.742073       -20.1928
  39   2.0000      -0.738611       -20.0986
  40   2.0000      -0.715544       -19.4709
  41   2.0000      -0.703661       -19.1476
  42   2.0000      -0.682523       -18.5724
  43   2.0000      -0.633616       -17.2416
  44   2.0000      -0.617149       -16.7935
  45   2.0000      -0.615513       -16.7490
  46   2.0000      -0.607276       -16.5248
  47   2.0000      -0.598217       -16.2783
  48   2.0000      -0.591393       -16.0926
  49   2.0000      -0.578542       -15.7429
  50   2.0000      -0.542282       -14.7562
  51   2.0000      -0.535103       -14.5609
  52   2.0000      -0.516629       -14.0582
  53   2.0000      -0.510010       -13.8781
  54   2.0000      -0.495317       -13.4783
  55   2.0000      -0.489264       -13.3136
  56   2.0000      -0.482851       -13.1390
  57   2.0000      -0.481610       -13.1053
  58   2.0000      -0.472963       -12.8700
  59   2.0000      -0.470696       -12.8083
  60   2.0000      -0.467179       -12.7126
  61   2.0000      -0.457433       -12.4474
  62   2.0000      -0.450092       -12.2476
  63   2.0000      -0.443508       -12.0685
  64   2.0000      -0.439162       -11.9502
  65   2.0000      -0.433261       -11.7896
  66   2.0000      -0.428725       -11.6662
  67   2.0000      -0.424274       -11.5451
  68   2.0000      -0.420903       -11.4533
  69   2.0000      -0.416800       -11.3417
  70   2.0000      -0.400323       -10.8933
  71   2.0000      -0.394349       -10.7308
  72   2.0000      -0.389645       -10.6028
  73   2.0000      -0.383605       -10.4384
  74   2.0000      -0.379824       -10.3355
  75   2.0000      -0.371568       -10.1109
  76   2.0000      -0.364860        -9.9284
  77   2.0000      -0.363413        -9.8890
  78   2.0000      -0.361450        -9.8356
  79   2.0000      -0.358841        -9.7646
  80   2.0000      -0.358166        -9.7462
  81   2.0000      -0.352978        -9.6050
  82   2.0000      -0.348772        -9.4906
  83   2.0000      -0.347058        -9.4439
  84   2.0000      -0.342542        -9.3211
  85   2.0000      -0.334704        -9.1078
  86   2.0000      -0.327794        -8.9197
  87   2.0000      -0.310575        -8.4512
  88   2.0000      -0.309481        -8.4214
  89   2.0000      -0.305902        -8.3240
  90   2.0000      -0.299394        -8.1469
  91   2.0000      -0.293057        -7.9745
  92   2.0000      -0.251092        -6.8326
  93   2.0000      -0.246432        -6.7058
  94   2.0000      -0.238855        -6.4996
  95   2.0000      -0.231190        -6.2910
  96   2.0000      -0.225717        -6.1421
  97   2.0000      -0.217970        -5.9313
  98   2.0000      -0.201702        -5.4886
  99   0.0000      -0.030604        -0.8328
 100   0.0000      -0.009144        -0.2488
 101   0.0000       0.005391         0.1467
 102   0.0000       0.008433         0.2295
 103   0.0000       0.047945         1.3046

MULLIKEN ATOMIC CHARGES
-----------------------
   0 C :   -0.441824
   1 C :   -0.143131
   2 N :   -0.419306
   3 C :    0.440434
   4 O :   -0.456982
   5 C :    0.021585
   6 C :   -0.165861
   7 C :   -0.139069
   8 C :   -0.116239
   9 C :   -0.201989
  10 C :    0.350367
  11 O :   -0.502541
  12 C :   -0.100526
  13 C :    0.021792
  14 C :   -0.153291
  15 C :   -0.133199
  16 C :   -0.112652
  17 C :   -0.205971
  18 C :    0.360939
  19 F :   -0.322438
  20 C :    0.037950
  21 C :   -0.260244
  22 C :   -0.252394
  23 C :   -0.272256
  24 C :    0.032903
  25 N :   -0.713281
  26 C :   -0.270077
  27 H :    0.154765
  28 H :    0.133705
  29 H :    0.159173
  30 H :    0.158179
  31 H :    0.143058
  32 H :    0.148166
  33 H :    0.126256
  34 H :    0.134704
  35 H :    0.146597
  36 H :    0.175153
  37 H :    0.150987
  38 H :    0.177235
  39 H :    0.134694
  40 H :    0.135517
  41 H :    0.140565
  42 H :    0.151296
  43 H :    0.151381
  44 H :    0.123700
  45 H :    0.135584
  46 H :    0.126817
  47 H :    0.122489
  48 H :    0.136365
  49 H :    0.099422
  50 H :    0.286101
  51 H :    0.287854
  52 H :    0.148888
  53 H :    0.128652
Sum of atomic charges:    0.0000000

LOEWDIN ATOMIC CHARGES
----------------------
   0 C :   -0.367809
   1 C :   -0.160433
   2 N :   -0.116826
   3 C :    0.143790
   4 O :   -0.265175
   5 C :   -0.071844
   6 C :   -0.111166
   7 C :   -0.150620
   8 C :   -0.111862
   9 C :   -0.168871
  10 C :    0.114793
  11 O :   -0.168100
  12 C :   -0.082546
  13 C :   -0.072086
  14 C :   -0.108818
  15 C :   -0.134489
  16 C :   -0.121355
  17 C :   -0.158735
  18 C :    0.107719
  19 F :   -0.107355
  20 C :   -0.047446
  21 C :   -0.237269
  22 C :   -0.228780
  23 C :   -0.232039
  24 C :   -0.078636
  25 N :   -0.472867
  26 C :   -0.232998
  27 H :    0.127313
  28 H :    0.121774
  29 H :    0.130676
  30 H :    0.130889
  31 H :    0.119183
  32 H :    0.140450
  33 H :    0.131054
  34 H :    0.134913
  35 H :    0.140954
  36 H :    0.143943
  37 H :    0.121695
  38 H :    0.154619
  39 H :    0.134681
  40 H :    0.135338
  41 H :    0.141277
  42 H :    0.133683
  43 H :    0.126125
  44 H :    0.115132
  45 H :    0.122543
  46 H :    0.116440
  47 H :    0.116495
  48 H :    0.121496
  49 H :    0.093672
  50 H :    0.218385
  51 H :    0.218908
  52 H :    0.130210
  53 H :    0.119974

  Mayer bond orders larger than 0.100000
B(  0-C ,  1-C ) :   1.0071 B(  0-C , 27-H ) :   0.9459 B(  0-C , 28-H ) :   0.9449
B(  0-C , 29-H ) :   0.9429 B(  1-C ,  2-N ) :   0.9449 B(  1-C , 30-H ) :   0.9310
B(  1-C , 31-H ) :   0.9254 B(  2-N ,  3-C ) :   1.0594 B(  2-N , 20-C ) :   0.9349
B(  3-C ,  4-O ) :   1.8231 B(  3-C ,  5-C ) :   0.9453 B(  5-C ,  6-C ) :   1.4118
B(  5-C , 10-C ) :   1.3417 B(  6-C ,  7-C ) :   1.4377 B(  6-C , 32-H ) :   0.9161
B(  7-C ,  8-C ) :   1.4453 B(  7-C , 33-H ) :   0.9299 B(  8-C ,  9-C ) :   1.4446
B(  8-C , 34-H ) :   0.9293 B(  9-C , 10-C ) :   1.3584 B(  9-C , 35-H ) :   0.9103
B( 10-C , 11-O ) :   0.9318 B( 11-O , 12-C ) :   0.9106 B( 12-C , 13-C ) :   0.9565
B( 12-C , 36-H ) :   0.9228 B( 12-C , 37-H ) :   0.9167 B( 13-C , 14-C ) :   1.4189
B( 13-C , 18-C ) :   1.3618 B( 14-C , 15-C ) :   1.4478 B( 14-C , 38-H ) :   0.9108
B( 15-C , 16-C ) :   1.4455 B( 15-C , 39-H ) :   0.9294 B( 16-C , 17-C ) :   1.4413
B( 16-C , 40-H ) :   0.9302 B( 17-C , 18-C ) :   1.3878 B( 17-C , 41-H ) :   0.9202
B( 18-C , 19-F ) :   0.8989 B( 20-C , 21-C ) :   1.0019 B( 20-C , 26-C ) :   0.9844
B( 20-C , 42-H ) :   0.9203 B( 21-C , 22-C ) :   0.9945 B( 21-C , 43-H ) :   0.9258
B( 21-C , 44-H ) :   0.9372 B( 22-C , 23-C ) :   0.9972 B( 22-C , 45-H ) :   0.9459
B( 22-C , 46-H ) :   0.9466 B( 23-C , 24-C ) :   1.0065 B( 23-C , 47-H ) :   0.9408
B( 23-C , 48-H ) :   0.9409 B( 24-C , 25-N ) :   0.9678 B( 24-C , 26-C ) :   0.9682
B( 24-C , 49-H ) :   0.9371 B( 25-N , 50-H ) :   0.8625 B( 25-N , 51-H ) :   0.8628
B( 26-C , 52-H ) :   0.9352 B( 26-C , 53-H ) :   0.9326

FINAL SINGLE POINT ENERGY     -1213.602376057308

DIPOLE MOMENT
-------------

Method             : SCF
Type of density    : Electron Density
Multiplicity       :   1
Irrep              :   0
Energy             : -1213.6023760573082200 Eh
Relativity type    :
Basis              : AO
                                X                 Y                 Z
Electronic contribution:     44.172072091      -2.861744021       8.257581050
Nuclear contribution   :    -44.530150592       2.655221407      -8.490194211
                        -----------------------------------------
Total Dipole Moment    :     -0.358078501      -0.206522613      -0.232613161
                        -----------------------------------------
Magnitude (a.u.)       :      0.474321289
Magnitude (Debye)      :      1.205628904

Rotational constants in cm-1:             0.013174             0.002756             0.002613
Rotational constants in MHz :           394.959579            82.625974            78.325094

                             ****ORCA TERMINATED NORMALLY****
TOTAL RUN TIME: 0 days 0 hours 4 minutes 33 seconds 272 msec
