                         Program Version 6.0.0  -   RELEASE  -
|  1> ! B3LYP 6-31G* SP
|  2>
|  3> * xyz 0 1
|  4> C -2.5743 -3.1966 -1.0168
|  5> N -3.1012 -1.8725 -0.6313
|  6> C -2.7026 -0.7597 -1.3188
|  7> O -1.9016 -0.8962 -2.2817
|  8> C -3.1884 0.5221 -0.9633
|  9> C -2.7697 1.7382 -1.6072
| 10> C -1.7227 1.8166 -2.7062
| 11> C -0.3404 1.5990 -2.1596
| 12> O 0.4061 0.7355 -2.6951
| 13> N 0.1426 2.4076 -1.0756
| 14> C 1.3524 2.1309 -0.3602
| 15> N 2.1186 1.0377 -0.5628
| 16> C 3.1955 1.0086 0.2708
| 17> C 4.1916 -0.0876 0.2047
| 18> C 4.4241 -0.7246 -1.0238
| 19> C 5.3424 -1.7683 -1.1179
| 20> C 6.0508 -2.1902 0.0078
| 21> F 6.9076 -3.2348 -0.1210
| 22> C 5.8556 -1.5549 1.2515
| 23> C 6.5785 -2.0384 2.4920
| 24> F 6.8476 -0.9817 3.3438
| 25> F 5.7839 -2.9574 3.1517
| 26> F 7.7859 -2.6348 2.1736
| 27> C 4.8931 -0.5258 1.3485
| 28> F 4.5944 -0.0023 2.5655
| 29> C 3.2882 2.1022 1.1374
| 30> S 1.9723 3.1115 0.8532
| 31> C -3.3107 2.9614 -1.1798
| 32> C -4.2404 3.0142 -0.1560
| 33> C -4.6531 1.8508 0.4748
| 34> C -4.1426 0.5867 0.0937
| 35> N -4.5613 -0.5662 0.7257
| 36> C -5.5686 -0.5064 1.8082
| 37> C -4.0428 -1.7818 0.3561
| 38> O -4.4403 -2.8370 0.9290
| 39> H -2.5365 -3.8883 -0.1483
| 40> H -3.2169 -3.6377 -1.8073
| 41> H -1.5309 -3.1249 -1.3916
| 42> H -1.7321 2.8147 -3.1954
| 43> H -1.9578 1.1076 -3.5264
| 44> H -0.4242 3.2311 -0.7738
| 45> H 3.8942 -0.4132 -1.9161
| 46> H 5.5017 -2.2577 -2.0701
| 47> H 4.0789 2.2984 1.8482
| 48> H -3.0034 3.8939 -1.6382
| 49> H -4.6427 3.9697 0.1567
| 50> H -5.3771 1.9645 1.2681
| 51> H -5.8361 -1.5011 2.2194
| 52> H -5.1771 0.0959 2.6555
| 53> H -6.5103 -0.0585 1.4252
| 54> *
| 55>
| 56>                          ****END OF INPUT****

CARTESIAN COORDINATES (ANGSTROEM)
---------------------------------
  C     -2.574300   -3.196600   -1.016800
  N     -3.101200   -1.872500   -0.631300
  C     -2.702600   -0.759700   -1.318800
  O     -1.901600   -0.896200   -2.281700
  C     -3.188400    0.522100   -0.963300
  C     -2.769700    1.738200   -1.607200
  C     -1.722700    1.816600   -2.706200
  C     -0.340400    1.599000   -2.159600
  O      0.406100    0.735500   -2.695100
  N      0.142600    2.407600   -1.075600
  C      1.352400    2.130900   -0.360200
  N      2.118600    1.037700   -0.562800
  C      3.195500    1.008600    0.270800
  C      4.191600   -0.087600    0.204700
  C      4.424100   -0.724600   -1.023800
  C      5.342400   -1.768300   -1.117900
  C      6.050800   -2.190200    0.007800
  F      6.907600   -3.234800   -0.121000
  C      5.855600   -1.554900    1.251500
  C      6.578500   -2.038400    2.492000
  F      6.847600   -0.981700    3.343800
  F      5.783900   -2.957400    3.151700
  F      7.785900   -2.634800    2.173600
  C      4.893100   -0.525800    1.348500
  F      4.594400   -0.002300    2.565500
  C      3.288200    2.102200    1.137400
  S      1.972300    3.111500    0.853200
  C     -3.310700    2.961400   -1.179800
  C     -4.240400    3.014200   -0.156000
  C     -4.653100    1.850800    0.474800
  C     -4.142600    0.586700    0.093700
  N     -4.561300   -0.566200    0.725700
  C     -5.568600   -0.506400    1.808200
  C     -4.042800   -1.781800    0.356100
  O     -4.440300   -2.837000    0.929000
  H     -2.536500   -3.888300   -0.148300
  H     -3.216900   -3.637700   -1.807300
  H     -1.530900   -3.124900   -1.391600
  H     -1.732100    2.814700   -3.195400
  H     -1.957800    1.107600   -3.526400
  H     -0.424200    3.231100   -0.773800
  H      3.894200   -0.413200   -1.916100
  H      5.501700   -2.257700   -2.070100
  H      4.078900    2.298400    1.848200
  H     -3.003400    3.893900   -1.638200
  H     -4.642700    3.969700    0.156700
  H     -5.377100    1.964500    1.268100
  H     -5.836100   -1.501100    2.219400
  H     -5.177100    0.095900    2.655500
  H     -6.510300   -0.058500    1.425200

 Total Charge           Charge          ....    0
 Multiplicity           Mult            ....    1
 Number of Electrons    NEL             ....  260
 Basis Dimension        Dim             ....  524

ORBITAL ENERGIES
----------------

  NO   OCC          E(Eh)            E(eV)
   0   2.0000     -88.908155     -2419.3139
   1   2.0000     -24.719765      -672.6590
   2   2.0000     -24.712810      -672.4698
   3   2.0000     -24.712599      -672.4640
   4   2.0000     -24.711446      -672.4326
   5   2.0000     -24.711381      -672.4309
   6   2.0000     -19.111716      -520.0562
   7   2.0000     -19.111046      -520.0380
   8   2.0000     -19.110725      -520.0293
   9   2.0000     -14.406836      -392.0299
  10   2.0000     -14.396411      -391.7463
  11   2.0000     -14.392312      -391.6347
  12   2.0000     -14.326322      -389.8391
  13   2.0000     -10.436924      -284.0031
  14   2.0000     -10.327418      -281.0233
  15   2.0000     -10.298475      -280.2358
  16   2.0000     -10.296732      -280.1883
  17   2.0000     -10.293545      -280.1016
  18   2.0000     -10.292567      -280.0750
  19   2.0000     -10.290799      -280.0269
  20   2.0000     -10.265838      -279.3477
  21   2.0000     -10.237336      -278.5721
  22   2.0000     -10.231863      -278.4231
  23   2.0000     -10.229104      -278.3481
  24   2.0000     -10.225372      -278.2465
  25   2.0000     -10.219482      -278.0862
  26   2.0000     -10.216082      -277.9937
  27   2.0000     -10.214354      -277.9467
  28   2.0000     -10.213603      -277.9263
  29   2.0000     -10.210037      -277.8292
  30   2.0000     -10.208459      -277.7863
  31   2.0000     -10.204927      -277.6902
  32   2.0000     -10.204435      -277.6768
  33   2.0000     -10.203403      -277.6487
  34   2.0000     -10.198798      -277.5234
  35   2.0000      -7.985977      -217.3095
  36   2.0000      -5.949040      -161.8816
  37   2.0000      -5.944946      -161.7702
  38   2.0000      -5.942790      -161.7115
  39   2.0000      -1.274772       -34.6883
  40   2.0000      -1.232079       -33.5266
  41   2.0000      -1.224354       -33.3164
  42   2.0000      -1.198585       -32.6152
  43   2.0000      -1.197228       -32.5782
  44   2.0000      -1.070013       -29.1165
  45   2.0000      -1.023076       -27.8393
  46   2.0000      -1.015335       -27.6287
  47   2.0000      -0.974277       -26.5114
  48   2.0000      -0.974044       -26.5051
  49   2.0000      -0.939754       -25.5720
  50   2.0000      -0.914937       -24.8967
  51   2.0000      -0.880686       -23.9647
  52   2.0000      -0.877325       -23.8732
  53   2.0000      -0.815933       -22.2027
  54   2.0000      -0.804989       -21.9049
  55   2.0000      -0.797505       -21.7012
  56   2.0000      -0.792957       -21.5775
  57   2.0000      -0.775993       -21.1158
  58   2.0000      -0.749937       -20.4068
  59   2.0000      -0.736193       -20.0328
  60   2.0000      -0.722611       -19.6632
  61   2.0000      -0.709317       -19.3015
  62   2.0000      -0.696210       -18.9448
  63   2.0000      -0.659769       -17.9532
  64   2.0000      -0.657997       -17.9050
  65   2.0000      -0.644195       -17.5294
  66   2.0000      -0.636333       -17.3155
  67   2.0000      -0.619345       -16.8532
  68   2.0000      -0.608406       -16.5556
  69   2.0000      -0.603858       -16.4318
  70   2.0000      -0.579105       -15.7582
  71   2.0000      -0.572339       -15.5741
  72   2.0000      -0.566284       -15.4094
  73   2.0000      -0.565607       -15.3910
  74   2.0000      -0.555242       -15.1089
  75   2.0000      -0.551632       -15.0107
  76   2.0000      -0.534303       -14.5391
  77   2.0000      -0.529256       -14.4018
  78   2.0000      -0.521788       -14.1986
  79   2.0000      -0.514668       -14.0048
  80   2.0000      -0.505442       -13.7538
  81   2.0000      -0.494593       -13.4586
  82   2.0000      -0.493421       -13.4267
  83   2.0000      -0.487311       -13.2604
  84   2.0000      -0.481037       -13.0897
  85   2.0000      -0.476323       -12.9614
  86   2.0000      -0.466164       -12.6850
  87   2.0000      -0.463476       -12.6118
  88   2.0000      -0.462841       -12.5945
  89   2.0000      -0.460974       -12.5437
  90   2.0000      -0.454920       -12.3790
  91   2.0000      -0.452078       -12.3017
  92   2.0000      -0.443085       -12.0570
  93   2.0000      -0.440003       -11.9731
  94   2.0000      -0.433543       -11.7973
  95   2.0000      -0.433085       -11.7848
  96   2.0000      -0.432007       -11.7555
  97   2.0000      -0.423439       -11.5224
  98   2.0000      -0.417693       -11.3660
  99   2.0000      -0.414560       -11.2808
 100   2.0000      -0.411492       -11.1973
 101   2.0000      -0.405974       -11.0471
 102   2.0000      -0.403234       -10.9725
 103   2.0000      -0.402934       -10.9644
 104   2.0000      -0.401215       -10.9176
 105   2.0000      -0.396312       -10.7842
 106   2.0000      -0.393657       -10.7120
 107   2.0000      -0.388066       -10.5598
 108   2.0000      -0.387384       -10.5412
 109   2.0000      -0.379483       -10.3263
 110   2.0000      -0.377969       -10.2851
 111   2.0000      -0.374105       -10.1799
 112   2.0000      -0.370148       -10.0722
 113   2.0000      -0.366645        -9.9769
 114   2.0000      -0.361445        -9.8354
 115   2.0000      -0.356646        -9.7048
 116   2.0000      -0.353240        -9.6121
 117   2.0000      -0.322063        -8.7638
 118   2.0000      -0.305488        -8.3128
 119   2.0000      -0.293958        -7.9990
 120   2.0000      -0.280052        -7.6206
 121   2.0000      -0.273710        -7.4480
 122   2.0000      -0.271582        -7.3901
 123   2.0000      -0.267111        -7.2685
 124   2.0000      -0.264615        -7.2005
 125   2.0000      -0.253967        -6.9108
 126   2.0000      -0.246788        -6.7154
 127   2.0000      -0.238007        -6.4765
 128   2.0000      -0.228760        -6.2249
 129   2.0000      -0.213625        -5.8130
 130   0.0000      -0.063684        -1.7329
 131   0.0000      -0.038572        -1.0496
 132   0.0000      -0.033895        -0.9223
 133   0.0000      -0.027825        -0.7572
 134   0.0000      -0.015709        -0.4275

MULLIKEN ATOMIC CHARGES
-----------------------
   0 C :   -0.316002
   1 N :   -0.463159
   2 C :    0.500299
   3 O :   -0.472180
   4 C :    0.009538
   5 C :    0.099806
   6 C :   -0.423030
   7 C :    0.582774
   8 O :   -0.412841
   9 N :   -0.664451
  10 C :    0.254139
  11 N :   -0.368905
  12 C :    0.212726
  13 C :    0.018834
  14 C :   -0.132783
  15 C :   -0.214475
  16 C :    0.405920
  17 F :   -0.299056
  18 C :   -0.217590
  19 C :    0.927906
  20 F :   -0.301439
  21 F :   -0.293871
  22 F :   -0.298551
  23 C :    0.348164
  24 F :   -0.295910
  25 C :   -0.382065
  26 S :    0.246522
  27 C :   -0.214715
  28 C :   -0.104496
  29 C :   -0.198063
  30 C :    0.321175
  31 N :   -0.512004
  32 C :   -0.336586
  33 C :    0.672571
  34 O :   -0.508619
  35 H :    0.195151
  36 H :    0.176887
  37 H :    0.203281
  38 H :    0.159586
  39 H :    0.221982
  40 H :    0.339877
  41 H :    0.193720
  42 H :    0.159354
  43 H :    0.191577
  44 H :    0.130909
  45 H :    0.144487
  46 H :    0.143793
  47 H :    0.226197
  48 H :    0.172139
  49 H :    0.171476
Sum of atomic charges:   -0.0000000

LOEWDIN ATOMIC CHARGES
----------------------
   0 C :   -0.258517
   1 N :   -0.019863
   2 C :    0.110508
   3 O :   -0.266490
   4 C :   -0.071308
   5 C :    0.029176
   6 C :   -0.238108
   7 C :    0.154719
   8 O :   -0.224114
   9 N :   -0.212327
  10 C :   -0.079902
  11 N :   -0.153046
  12 C :   -0.006574
  13 C :   -0.048403
  14 C :   -0.081377
  15 C :   -0.158637
  16 C :    0.137199
  17 F :   -0.088990
  18 C :   -0.127281
  19 C :    0.316942
  20 F :   -0.111306
  21 F :   -0.111354
  22 F :   -0.107577
  23 C :    0.141596
  24 F :   -0.085077
  25 C :   -0.340697
  26 S :    0.385159
  27 C :   -0.163848
  28 C :   -0.101809
  29 C :   -0.164518
  30 C :    0.055737
  31 N :   -0.027522
  32 C :   -0.265386
  33 C :    0.137418
  34 O :   -0.317396
  35 H :    0.152606
  36 H :    0.140504
  37 H :    0.156481
  38 H :    0.138481
  39 H :    0.175795
  40 H :    0.262863
  41 H :    0.165733
  42 H :    0.151795
  43 H :    0.165811
  44 H :    0.131732
  45 H :    0.140270
  46 H :    0.141558
  47 H :    0.169123
  48 H :    0.135177
  49 H :    0.135042

  Mayer bond orders larger than 0.100000
B(  0-C ,  1-N ) :   0.9157 B(  0-C , 35-H ) :   0.9256 B(  0-C , 36-H ) :   0.9408
B(  0-C , 37-H ) :   0.9222 B(  1-N ,  2-C ) :   0.9922 B(  1-N , 33-C ) :   1.0456
B(  2-C ,  3-O ) :   1.7699 B(  2-C ,  4-C ) :   1.0517 B(  4-C ,  5-C ) :   1.3666
B(  4-C , 30-C ) :   1.2888 B(  5-C ,  6-C ) :   0.9769 B(  5-C , 27-C ) :   1.4206
B(  6-C ,  7-C ) :   0.9558 B(  6-C , 38-H ) :   0.9132 B(  6-C , 39-H ) :   0.8939
B(  7-C ,  8-O ) :   1.8969 B(  7-C ,  9-N ) :   0.9661 B(  9-N , 10-C ) :   0.9576
B(  9-N , 40-H ) :   0.8145 B( 10-C , 11-N ) :   1.5152 B( 10-C , 25-C ) :   0.1091
B( 10-C , 26-S ) :   1.1377 B( 11-N , 12-C ) :   1.2710 B( 12-C , 13-C ) :   1.0124
B( 12-C , 25-C ) :   1.5239 B( 13-C , 14-C ) :   1.3998 B( 13-C , 23-C ) :   1.3339
B( 14-C , 15-C ) :   1.4156 B( 14-C , 41-H ) :   0.9064 B( 15-C , 16-C ) :   1.3842
B( 15-C , 42-H ) :   0.9174 B( 16-C , 17-F ) :   0.9500 B( 16-C , 18-C ) :   1.3251
B( 18-C , 19-C ) :   0.9458 B( 18-C , 23-C ) :   1.3097 B( 19-C , 20-F ) :   0.9555
B( 19-C , 21-F ) :   0.9969 B( 19-C , 22-F ) :   0.9586 B( 23-C , 24-F ) :   0.9508
B( 25-C , 26-S ) :   1.1165 B( 25-C , 43-H ) :   0.9004 B( 27-C , 28-C ) :   1.4025
B( 27-C , 44-H ) :   0.9244 B( 28-C , 29-C ) :   1.4746 B( 28-C , 45-H ) :   0.9257
B( 29-C , 30-C ) :   1.3397 B( 29-C , 46-H ) :   0.9139 B( 30-C , 31-N ) :   0.9757
B( 31-N , 32-C ) :   0.9342 B( 31-N , 33-C ) :   1.0382 B( 32-C , 47-H ) :   0.9131
B( 32-C , 48-H ) :   0.9321 B( 32-C , 49-H ) :   0.9319 B( 33-C , 34-O ) :   1.7862

FINAL SINGLE POINT ENERGY     -2188.445732177217

DIPOLE MOMENT
-------------

Method             : SCF
Type of density    : Electron Density
Multiplicity       :   1
Irrep              :   0
Energy             : -2188.4457321772169962 Eh
Relativity type    :
Basis              : AO
                                X                 Y                 Z
Electronic contribution:     64.092357275     -11.755692792      18.761658234
Nuclear contribution   :    -66.510986766      14.395206333     -18.624525858
                        -----------------------------------------
Total Dipole Moment    :     -2.418629491       2.639513541       0.137132376
                        -----------------------------------------
Magnitude (a.u.)       :      3.582681347
Magnitude (Debye)      :      9.106452282

Rotational constants in cm-1:             0.005914             0.001567             0.001451
Rotational constants in MHz :           177.284698            46.982843            43.488867

                             ****ORCA TERMINATED NORMALLY****
TOTAL RUN TIME: 0 days 0 hours 9 minutes 3 seconds 255 msec
