                         Program Version 6.0.0  -   RELEASE  -
|  1> ! B3LYP 6-31G* SP
|  2>
|  3> * xyz 0 1
|  4> C 1.9560 0.0532 2.6149
|  5> O 2.5117 -1.1625 2.1220
|  6> C 2.4843 -1.5575 0.7754
|  7> C 2.9965 -2.8150 0.4396
|  8> C 2.9758 -3.2561 -0.8846
|  9> C 2.4348 -2.4463 -1.8857
| 10> C 1.9138 -1.1816 -1.5748
| 11> N 1.3347 -0.3839 -2.6247
| 12> S 0.5224 1.1265 -2.3529
| 13> O -0.0937 1.6007 -3.6386
| 14> O 1.5675 2.1180 -1.9257
| 15> C -0.7721 0.9219 -1.1321
| 16> C -1.5951 -0.2334 -1.1673
| 17> C -1.5688 -1.2180 -2.3097
| 18> C -2.4445 -0.5139 -0.0913
| 19> C -2.5217 0.3370 1.0131
| 20> C -3.4105 -0.0436 2.1682
| 21> C -1.7997 1.5470 1.0111
| 22> N -1.8941 2.4359 2.1356
| 23> O -3.0030 2.8773 2.5012
| 24> O -0.7579 2.8195 2.8095
| 25> C -0.9618 1.8690 -0.0860
| 26> C -0.3049 3.2291 -0.1357
| 27> C 1.9572 -0.7358 -0.2389
| 28> H 2.0851 0.0906 3.7158
| 29> H 0.8706 0.0996 2.3822
| 30> H 2.4797 0.9233 2.1658
| 31> H 3.4091 -3.4541 1.2099
| 32> H 3.3731 -4.2313 -1.1348
| 33> H 2.4160 -2.8081 -2.9057
| 34> H 1.3640 -0.7373 -3.6074
| 35> H -2.5454 -1.7390 -2.4042
| 36> H -0.7863 -1.9832 -2.1301
| 37> H -1.3888 -0.7095 -3.2782
| 38> H -3.0388 -1.4209 -0.1047
| 39> H -4.3638 0.5213 2.1060
| 40> H -3.6423 -1.1301 2.1597
| 41> H -2.9095 0.1802 3.1333
| 42> H -0.8832 3.9856 0.4337
| 43> H -0.2744 3.6130 -1.1761
| 44> H 0.7200 3.1694 0.2864
| 45> H 1.5877 0.2435 0.0166
| 46> *
| 47>
| 48>                          ****END OF INPUT****

CARTESIAN COORDINATES (ANGSTROEM)
---------------------------------
  C      1.956000    0.053200    2.614900
  O      2.511700   -1.162500    2.122000
  C      2.484300   -1.557500    0.775400
  C      2.996500   -2.815000    0.439600
  C      2.975800   -3.256100   -0.884600
  C      2.434800   -2.446300   -1.885700
  C      1.913800   -1.181600   -1.574800
  N      1.334700   -0.383900   -2.624700
  S      0.522400    1.126500   -2.352900
  O     -0.093700    1.600700   -3.638600
  O      1.567500    2.118000   -1.925700
  C     -0.772100    0.921900   -1.132100
  C     -1.595100   -0.233400   -1.167300
  C     -1.568800   -1.218000   -2.309700
  C     -2.444500   -0.513900   -0.091300
  C     -2.521700    0.337000    1.013100
  C     -3.410500   -0.043600    2.168200
  C     -1.799700    1.547000    1.011100
  N     -1.894100    2.435900    2.135600
  O     -3.003000    2.877300    2.501200
  O     -0.757900    2.819500    2.809500
  C     -0.961800    1.869000   -0.086000
  C     -0.304900    3.229100   -0.135700
  C      1.957200   -0.735800   -0.238900
  H      2.085100    0.090600    3.715800
  H      0.870600    0.099600    2.382200
  H      2.479700    0.923300    2.165800
  H      3.409100   -3.454100    1.209900
  H      3.373100   -4.231300   -1.134800
  H      2.416000   -2.808100   -2.905700
  H      1.364000   -0.737300   -3.607400
  H     -2.545400   -1.739000   -2.404200
  H     -0.786300   -1.983200   -2.130100
  H     -1.388800   -0.709500   -3.278200
  H     -3.038800   -1.420900   -0.104700
  H     -4.363800    0.521300    2.106000
  H     -3.642300   -1.130100    2.159700
  H     -2.909500    0.180200    3.133300
  H     -0.883200    3.985600    0.433700
  H     -0.274400    3.613000   -1.176100
  H      0.720000    3.169400    0.286400
  H      1.587700    0.243500    0.016600

 Total Charge           Charge          ....    0
 Multiplicity           Mult            ....    1
 Number of Electrons    NEL             ....  184
 Basis Dimension        Dim             ....  376

ORBITAL ENERGIES
----------------

  NO   OCC          E(Eh)            E(eV)
   0   2.0000     -89.116088     -2424.9720
   1   2.0000     -19.208933      -522.7016
   2   2.0000     -19.182406      -521.9798
   3   2.0000     -19.169030      -521.6158
   4   2.0000     -19.138548      -520.7864
   5   2.0000     -19.136000      -520.7170
   6   2.0000     -14.572004      -396.5244
   7   2.0000     -14.389405      -391.5556
   8   2.0000     -10.268511      -279.4204
   9   2.0000     -10.256405      -279.0910
  10   2.0000     -10.256198      -279.0853
  11   2.0000     -10.252826      -278.9936
  12   2.0000     -10.251739      -278.9640
  13   2.0000     -10.246316      -278.8164
  14   2.0000     -10.245609      -278.7972
  15   2.0000     -10.235453      -278.5208
  16   2.0000     -10.218170      -278.0505
  17   2.0000     -10.205204      -277.6977
  18   2.0000     -10.202977      -277.6371
  19   2.0000     -10.195944      -277.4457
  20   2.0000     -10.190415      -277.2953
  21   2.0000     -10.190194      -277.2893
  22   2.0000     -10.188088      -277.2320
  23   2.0000     -10.182528      -277.0807
  24   2.0000      -8.150802      -221.7946
  25   2.0000      -6.116302      -166.4330
  26   2.0000      -6.113793      -166.3648
  27   2.0000      -6.113252      -166.3500
  28   2.0000      -1.192867       -32.4596
  29   2.0000      -1.095933       -29.8219
  30   2.0000      -1.045891       -28.4601
  31   2.0000      -1.000650       -27.2291
  32   2.0000      -0.975005       -26.5312
  33   2.0000      -0.938928       -25.5495
  34   2.0000      -0.915183       -24.9034
  35   2.0000      -0.851605       -23.1734
  36   2.0000      -0.845786       -23.0150
  37   2.0000      -0.824681       -22.4407
  38   2.0000      -0.772433       -21.0190
  39   2.0000      -0.761885       -20.7319
  40   2.0000      -0.753059       -20.4918
  41   2.0000      -0.736784       -20.0489
  42   2.0000      -0.724399       -19.7119
  43   2.0000      -0.695681       -18.9304
  44   2.0000      -0.679666       -18.4946
  45   2.0000      -0.661009       -17.9870
  46   2.0000      -0.623408       -16.9638
  47   2.0000      -0.610772       -16.6200
  48   2.0000      -0.607588       -16.5333
  49   2.0000      -0.592558       -16.1243
  50   2.0000      -0.562065       -15.2946
  51   2.0000      -0.545723       -14.8499
  52   2.0000      -0.544450       -14.8152
  53   2.0000      -0.520293       -14.1579
  54   2.0000      -0.513773       -13.9805
  55   2.0000      -0.498855       -13.5745
  56   2.0000      -0.489748       -13.3267
  57   2.0000      -0.485808       -13.2195
  58   2.0000      -0.479791       -13.0558
  59   2.0000      -0.471722       -12.8362
  60   2.0000      -0.470525       -12.8036
  61   2.0000      -0.461050       -12.5458
  62   2.0000      -0.458203       -12.4683
  63   2.0000      -0.447945       -12.1892
  64   2.0000      -0.445801       -12.1309
  65   2.0000      -0.442171       -12.0321
  66   2.0000      -0.437485       -11.9046
  67   2.0000      -0.431126       -11.7315
  68   2.0000      -0.422499       -11.4968
  69   2.0000      -0.420433       -11.4406
  70   2.0000      -0.416027       -11.3207
  71   2.0000      -0.397388       -10.8135
  72   2.0000      -0.387127       -10.5343
  73   2.0000      -0.384650       -10.4669
  74   2.0000      -0.381654       -10.3853
  75   2.0000      -0.381445       -10.3796
  76   2.0000      -0.374455       -10.1895
  77   2.0000      -0.367769       -10.0075
  78   2.0000      -0.350631        -9.5412
  79   2.0000      -0.331787        -9.0284
  80   2.0000      -0.323991        -8.8162
  81   2.0000      -0.321069        -8.7367
  82   2.0000      -0.315954        -8.5975
  83   2.0000      -0.309485        -8.4215
  84   2.0000      -0.304364        -8.2822
  85   2.0000      -0.299164        -8.1407
  86   2.0000      -0.295071        -8.0293
  87   2.0000      -0.285595        -7.7714
  88   2.0000      -0.271897        -7.3987
  89   2.0000      -0.270141        -7.3509
  90   2.0000      -0.240344        -6.5401
  91   2.0000      -0.219135        -5.9630
  92   0.0000      -0.116825        -3.1790
  93   0.0000      -0.070149        -1.9088
  94   0.0000      -0.040572        -1.1040
  95   0.0000      -0.009710        -0.2642
  96   0.0000      -0.000378        -0.0103

MULLIKEN ATOMIC CHARGES
-----------------------
   0 C :   -0.202922
   1 O :   -0.513051
   2 C :    0.376348
   3 C :   -0.179772
   4 C :   -0.121102
   5 C :   -0.201096
   6 C :    0.360087
   7 N :   -0.818279
   8 S :    1.258422
   9 O :   -0.537393
  10 O :   -0.539720
  11 C :   -0.269751
  12 C :    0.182027
  13 C :   -0.556463
  14 C :   -0.217212
  15 C :    0.178489
  16 C :   -0.529128
  17 C :    0.211246
  18 N :    0.240898
  19 O :   -0.314219
  20 O :   -0.377535
  21 C :    0.135105
  22 C :   -0.509746
  23 C :   -0.278370
  24 H :    0.173226
  25 H :    0.145575
  26 H :    0.159064
  27 H :    0.138259
  28 H :    0.139357
  29 H :    0.121287
  30 H :    0.371903
  31 H :    0.166130
  32 H :    0.190674
  33 H :    0.193754
  34 H :    0.148478
  35 H :    0.198302
  36 H :    0.163782
  37 H :    0.179082
  38 H :    0.166771
  39 H :    0.197668
  40 H :    0.206856
  41 H :    0.162968
Sum of atomic charges:    0.0000000

LOEWDIN ATOMIC CHARGES
----------------------
   0 C :   -0.200624
   1 O :   -0.190946
   2 C :    0.101878
   3 C :   -0.162445
   4 C :   -0.112179
   5 C :   -0.180305
   6 C :    0.037022
   7 N :   -0.406733
   8 S :    1.261833
   9 O :   -0.571657
  10 O :   -0.555744
  11 C :   -0.201619
  12 C :    0.028802
  13 C :   -0.366879
  14 C :   -0.136303
  15 C :    0.022869
  16 C :   -0.355627
  17 C :   -0.023406
  18 N :    0.289097
  19 O :   -0.173571
  20 O :   -0.284512
  21 C :    0.040525
  22 C :   -0.357918
  23 C :   -0.204554
  24 H :    0.138395
  25 H :    0.116021
  26 H :    0.122336
  27 H :    0.141636
  28 H :    0.138837
  29 H :    0.128973
  30 H :    0.283908
  31 H :    0.139075
  32 H :    0.153344
  33 H :    0.150038
  34 H :    0.145290
  35 H :    0.157671
  36 H :    0.137296
  37 H :    0.146058
  38 H :    0.138697
  39 H :    0.154905
  40 H :    0.164018
  41 H :    0.146497

  Mayer bond orders larger than 0.100000
B(  0-C ,  1-O ) :   0.9067 B(  0-C , 24-H ) :   0.9440 B(  0-C , 25-H ) :   0.9267
B(  0-C , 26-H ) :   0.9293 B(  1-O ,  2-C ) :   0.9253 B(  2-C ,  3-C ) :   1.3922
B(  2-C , 23-C ) :   1.3672 B(  3-C ,  4-C ) :   1.4594 B(  3-C , 27-H ) :   0.9190
B(  4-C ,  5-C ) :   1.4420 B(  4-C , 28-H ) :   0.9276 B(  5-C ,  6-C ) :   1.3954
B(  5-C , 29-H ) :   0.9234 B(  6-C ,  7-N ) :   0.8635 B(  6-C , 23-C ) :   1.3943
B(  7-N ,  8-S ) :   0.8000 B(  7-N , 30-H ) :   0.7994 B(  8-S ,  9-O ) :   1.6555
B(  8-S , 10-O ) :   1.6014 B(  8-S , 11-C ) :   0.8035 B( 11-C , 12-C ) :   1.3380
B( 11-C , 21-C ) :   1.3538 B( 12-C , 13-C ) :   0.9999 B( 12-C , 14-C ) :   1.4170
B( 13-C , 31-H ) :   0.9354 B( 13-C , 32-H ) :   0.9136 B( 13-C , 33-H ) :   0.9138
B( 14-C , 15-C ) :   1.4307 B( 14-C , 34-H ) :   0.9133 B( 15-C , 16-C ) :   0.9969
B( 15-C , 17-C ) :   1.3593 B( 16-C , 35-H ) :   0.9185 B( 16-C , 36-H ) :   0.9376
B( 16-C , 37-H ) :   0.9319 B( 17-C , 18-N ) :   0.7126 B( 17-C , 21-C ) :   1.3700
B( 18-N , 19-O ) :   1.5171 B( 18-N , 20-O ) :   1.4131 B( 19-O , 20-O ) :   0.3276
B( 21-C , 22-C ) :   1.0286 B( 22-C , 38-H ) :   0.9243 B( 22-C , 39-H ) :   0.9128
B( 22-C , 40-H ) :   0.9104 B( 23-C , 41-H ) :   0.8812

FINAL SINGLE POINT ENERGY     -1503.413554300460

DIPOLE MOMENT
-------------

Method             : SCF
Type of density    : Electron Density
Multiplicity       :   1
Irrep              :   0
Energy             : -1503.4135543004604187 Eh
Relativity type    :
Basis              : AO
                                X                 Y                 Z
Electronic contribution:      1.728700408       8.370660016      -4.379809128
Nuclear contribution   :     -2.755818451     -10.701364462       4.260492819
                        -----------------------------------------
Total Dipole Moment    :     -1.027118044      -2.330704446      -0.119316309
                        -----------------------------------------
Magnitude (a.u.)       :      2.549782554
Magnitude (Debye)      :      6.481032196

Rotational constants in cm-1:             0.009841             0.006177             0.005128
Rotational constants in MHz :           295.037398           185.183256           153.727733

                             ****ORCA TERMINATED NORMALLY****
TOTAL RUN TIME: 0 days 0 hours 7 minutes 6 seconds 775 msec
