                         Program Version 6.0.0  -   RELEASE  -
|  1> ! B3LYP 6-31G* SP
|  2>
|  3> * xyz 0 1
|  4> N 0.3021 -1.5532 -3.5568
|  5> C 0.4809 -1.1641 -2.1959
|  6> O 1.6489 -1.0572 -1.7380
|  7> C -0.7185 -0.9027 -1.3102
|  8> C -1.0910 -2.0769 -0.4164
|  9> C -2.4145 -2.1746 0.0514
| 10> C -2.7892 -3.1977 0.9275
| 11> C -1.8459 -4.1298 1.3564
| 12> C -0.5273 -4.0431 0.9091
| 13> C -0.1463 -3.0218 0.0333
| 14> N -0.5663 0.3569 -0.5472
| 15> C -0.0097 0.4070 0.8197
| 16> C 1.4933 0.4117 0.8021
| 17> C 2.1871 1.5054 0.2593
| 18> C 3.5817 1.5283 0.2728
| 19> C 4.2970 0.4636 0.8297
| 20> C 3.6214 -0.6447 1.3678
| 21> C 4.3919 -1.7449 2.0526
| 22> F 4.5596 -1.4108 3.3825
| 23> F 5.6360 -1.9132 1.4682
| 24> F 3.7138 -2.9479 1.9698
| 25> C 2.2155 -0.6533 1.3669
| 26> C -0.8690 1.5943 -1.2254
| 27> O -0.4213 1.7891 -2.3906
| 28> C -1.7265 2.6259 -0.5993
| 29> C -2.6928 2.2657 0.3578
| 30> C -3.5119 3.2413 0.9333
| 31> C -3.3785 4.5797 0.5575
| 32> C -2.4300 4.9469 -0.4006
| 33> C -1.6066 3.9773 -0.9798
| 34> H -0.6504 -1.6286 -3.9728
| 35> H 1.1335 -1.7290 -4.1628
| 36> H -1.5848 -0.7686 -1.9975
| 37> H -3.1549 -1.4483 -0.2542
| 38> H -3.8089 -3.2602 1.2824
| 39> H -2.1355 -4.9139 2.0419
| 40> H 0.2034 -4.7640 1.2484
| 41> H 0.8858 -2.9746 -0.2765
| 42> H -0.3984 -0.4308 1.4323
| 43> H -0.3429 1.3256 1.3467
| 44> H 1.6494 2.3478 -0.1613
| 45> H 4.1105 2.3800 -0.1354
| 46> H 5.3782 0.5145 0.8537
| 47> H 1.6823 -1.4837 1.8158
| 48> H -2.8394 1.2292 0.6317
| 49> H -4.2747 2.9541 1.6531
| 50> H -4.0218 5.3302 0.9975
| 51> H -2.3399 5.9815 -0.7034
| 52> H -0.8754 4.2814 -1.7184
| 53> *
| 54>
| 55>                          ****END OF INPUT****

CARTESIAN COORDINATES (ANGSTROEM)
---------------------------------
  N      0.302100   -1.553200   -3.556800
  C      0.480900   -1.164100   -2.195900
  O      1.648900   -1.057200   -1.738000
  C     -0.718500   -0.902700   -1.310200
  C     -1.091000   -2.076900   -0.416400
  C     -2.414500   -2.174600    0.051400
  C     -2.789200   -3.197700    0.927500
  C     -1.845900   -4.129800    1.356400
  C     -0.527300   -4.043100    0.909100
  C     -0.146300   -3.021800    0.033300
  N     -0.566300    0.356900   -0.547200
  C     -0.009700    0.407000    0.819700
  C      1.493300    0.411700    0.802100
  C      2.187100    1.505400    0.259300
  C      3.581700    1.528300    0.272800
  C      4.297000    0.463600    0.829700
  C      3.621400   -0.644700    1.367800
  C      4.391900   -1.744900    2.052600
  F      4.559600   -1.410800    3.382500
  F      5.636000   -1.913200    1.468200
  F      3.713800   -2.947900    1.969800
  C      2.215500   -0.653300    1.366900
  C     -0.869000    1.594300   -1.225400
  O     -0.421300    1.789100   -2.390600
  C     -1.726500    2.625900   -0.599300
  C     -2.692800    2.265700    0.357800
  C     -3.511900    3.241300    0.933300
  C     -3.378500    4.579700    0.557500
  C     -2.430000    4.946900   -0.400600
  C     -1.606600    3.977300   -0.979800
  H     -0.650400   -1.628600   -3.972800
  H      1.133500   -1.729000   -4.162800
  H     -1.584800   -0.768600   -1.997500
  H     -3.154900   -1.448300   -0.254200
  H     -3.808900   -3.260200    1.282400
  H     -2.135500   -4.913900    2.041900
  H      0.203400   -4.764000    1.248400
  H      0.885800   -2.974600   -0.276500
  H     -0.398400   -0.430800    1.432300
  H     -0.342900    1.325600    1.346700
  H      1.649400    2.347800   -0.161300
  H      4.110500    2.380000   -0.135400
  H      5.378200    0.514500    0.853700
  H      1.682300   -1.483700    1.815800
  H     -2.839400    1.229200    0.631700
  H     -4.274700    2.954100    1.653100
  H     -4.021800    5.330200    0.997500
  H     -2.339900    5.981500   -0.703400
  H     -0.875400    4.281400   -1.718400

 Total Charge           Charge          ....    0
 Multiplicity           Mult            ....    1
 Number of Electrons    NEL             ....  214
 Basis Dimension        Dim             ....  458

ORBITAL ENERGIES
----------------

  NO   OCC          E(Eh)            E(eV)
   0   2.0000     -24.705627      -672.2743
   1   2.0000     -24.703778      -672.2240
   2   2.0000     -24.701467      -672.1611
   3   2.0000     -19.120855      -520.3049
   4   2.0000     -19.100354      -519.7470
   5   2.0000     -14.351572      -390.5261
   6   2.0000     -14.348084      -390.4312
   7   2.0000     -10.418438      -283.5001
   8   2.0000     -10.291332      -280.0414
   9   2.0000     -10.283480      -279.8277
  10   2.0000     -10.242425      -278.7106
  11   2.0000     -10.218628      -278.0630
  12   2.0000     -10.205178      -277.6970
  13   2.0000     -10.204554      -277.6800
  14   2.0000     -10.198315      -277.5103
  15   2.0000     -10.196994      -277.4743
  16   2.0000     -10.195821      -277.4424
  17   2.0000     -10.195104      -277.4229
  18   2.0000     -10.193545      -277.3805
  19   2.0000     -10.193267      -277.3729
  20   2.0000     -10.192889      -277.3626
  21   2.0000     -10.190664      -277.3021
  22   2.0000     -10.188892      -277.2538
  23   2.0000     -10.187531      -277.2168
  24   2.0000     -10.186431      -277.1869
  25   2.0000     -10.184618      -277.1375
  26   2.0000     -10.181335      -277.0482
  27   2.0000     -10.181074      -277.0411
  28   2.0000     -10.177593      -276.9464
  29   2.0000     -10.176808      -276.9250
  30   2.0000      -1.264859       -34.4186
  31   2.0000      -1.190453       -32.3939
  32   2.0000      -1.189126       -32.3578
  33   2.0000      -1.017787       -27.6954
  34   2.0000      -1.000918       -27.2364
  35   2.0000      -0.920322       -25.0432
  36   2.0000      -0.872230       -23.7346
  37   2.0000      -0.862955       -23.4822
  38   2.0000      -0.858266       -23.3546
  39   2.0000      -0.850138       -23.1334
  40   2.0000      -0.787970       -21.4417
  41   2.0000      -0.772329       -21.0161
  42   2.0000      -0.761045       -20.7091
  43   2.0000      -0.754335       -20.5265
  44   2.0000      -0.751318       -20.4444
  45   2.0000      -0.749470       -20.3941
  46   2.0000      -0.711232       -19.3536
  47   2.0000      -0.680054       -18.5052
  48   2.0000      -0.675074       -18.3697
  49   2.0000      -0.634908       -17.2767
  50   2.0000      -0.613894       -16.7049
  51   2.0000      -0.613470       -16.6934
  52   2.0000      -0.605287       -16.4707
  53   2.0000      -0.603086       -16.4108
  54   2.0000      -0.590284       -16.0625
  55   2.0000      -0.576808       -15.6957
  56   2.0000      -0.555797       -15.1240
  57   2.0000      -0.551618       -15.0103
  58   2.0000      -0.550816       -14.9885
  59   2.0000      -0.536548       -14.6002
  60   2.0000      -0.522735       -14.2243
  61   2.0000      -0.521452       -14.1894
  62   2.0000      -0.508860       -13.8468
  63   2.0000      -0.493463       -13.4278
  64   2.0000      -0.488277       -13.2867
  65   2.0000      -0.482638       -13.1332
  66   2.0000      -0.475039       -12.9265
  67   2.0000      -0.462348       -12.5811
  68   2.0000      -0.458317       -12.4714
  69   2.0000      -0.449547       -12.2328
  70   2.0000      -0.443790       -12.0761
  71   2.0000      -0.441233       -12.0066
  72   2.0000      -0.438259       -11.9256
  73   2.0000      -0.433254       -11.7894
  74   2.0000      -0.431608       -11.7446
  75   2.0000      -0.430045       -11.7021
  76   2.0000      -0.426040       -11.5931
  77   2.0000      -0.422172       -11.4879
  78   2.0000      -0.417565       -11.3625
  79   2.0000      -0.406855       -11.0711
  80   2.0000      -0.405127       -11.0241
  81   2.0000      -0.396336       -10.7849
  82   2.0000      -0.392726       -10.6866
  83   2.0000      -0.385130       -10.4799
  84   2.0000      -0.383665       -10.4400
  85   2.0000      -0.381182       -10.3725
  86   2.0000      -0.377259       -10.2657
  87   2.0000      -0.368400       -10.0247
  88   2.0000      -0.366732        -9.9793
  89   2.0000      -0.362629        -9.8676
  90   2.0000      -0.354376        -9.6431
  91   2.0000      -0.352780        -9.5996
  92   2.0000      -0.349694        -9.5157
  93   2.0000      -0.344984        -9.3875
  94   2.0000      -0.343228        -9.3397
  95   2.0000      -0.338223        -9.2035
  96   2.0000      -0.334244        -9.0953
  97   2.0000      -0.266747        -7.2586
  98   2.0000      -0.261080        -7.1043
  99   2.0000      -0.259790        -7.0692
 100   2.0000      -0.256935        -6.9916
 101   2.0000      -0.253185        -6.8895
 102   2.0000      -0.251142        -6.8339
 103   2.0000      -0.245838        -6.6896
 104   2.0000      -0.242701        -6.6042
 105   2.0000      -0.235856        -6.4180
 106   2.0000      -0.216608        -5.8942
 107   0.0000      -0.054135        -1.4731
 108   0.0000      -0.018114        -0.4929
 109   0.0000      -0.012653        -0.3443
 110   0.0000      -0.011261        -0.3064
 111   0.0000      -0.006402        -0.1742

MULLIKEN ATOMIC CHARGES
-----------------------
   0 N :   -0.766148
   1 C :    0.605319
   2 O :   -0.481656
   3 C :   -0.112762
   4 C :    0.096927
   5 C :   -0.167107
   6 C :   -0.128460
   7 C :   -0.119582
   8 C :   -0.132937
   9 C :   -0.169955
  10 N :   -0.406238
  11 C :   -0.284822
  12 C :    0.217296
  13 C :   -0.146428
  14 C :   -0.123956
  15 C :   -0.159775
  16 C :   -0.006086
  17 C :    0.888594
  18 F :   -0.299795
  19 F :   -0.308224
  20 F :   -0.309502
  21 C :   -0.205805
  22 C :    0.447431
  23 O :   -0.455248
  24 C :    0.083711
  25 C :   -0.167664
  26 C :   -0.132858
  27 C :   -0.114729
  28 C :   -0.132313
  29 C :   -0.147489
  30 H :    0.331106
  31 H :    0.350896
  32 H :    0.142487
  33 H :    0.130431
  34 H :    0.132260
  35 H :    0.133181
  36 H :    0.141488
  37 H :    0.176089
  38 H :    0.164089
  39 H :    0.169812
  40 H :    0.133684
  41 H :    0.132631
  42 H :    0.142143
  43 H :    0.141075
  44 H :    0.147374
  45 H :    0.135488
  46 H :    0.137216
  47 H :    0.139073
  48 H :    0.159743
Sum of atomic charges:    0.0000000

LOEWDIN ATOMIC CHARGES
----------------------
   0 N :   -0.394965
   1 C :    0.142332
   2 O :   -0.285567
   3 C :   -0.056872
   4 C :   -0.026563
   5 C :   -0.130284
   6 C :   -0.129482
   7 C :   -0.123953
   8 C :   -0.126762
   9 C :   -0.127033
  10 N :   -0.104900
  11 C :   -0.152200
  12 C :   -0.015679
  13 C :   -0.106757
  14 C :   -0.120913
  15 C :   -0.115725
  16 C :   -0.068308
  17 C :    0.308512
  18 F :   -0.116826
  19 F :   -0.115831
  20 F :   -0.116773
  21 C :   -0.113104
  22 C :    0.142179
  23 O :   -0.256895
  24 C :   -0.055306
  25 C :   -0.117804
  26 C :   -0.130172
  27 C :   -0.113324
  28 C :   -0.127691
  29 C :   -0.095249
  30 H :    0.249691
  31 H :    0.265291
  32 H :    0.134053
  33 H :    0.131058
  34 H :    0.133382
  35 H :    0.133721
  36 H :    0.137533
  37 H :    0.153631
  38 H :    0.133540
  39 H :    0.140793
  40 H :    0.134681
  41 H :    0.134261
  42 H :    0.138847
  43 H :    0.137242
  44 H :    0.138738
  45 H :    0.134305
  46 H :    0.135496
  47 H :    0.136571
  48 H :    0.149084

  Mayer bond orders larger than 0.100000
B(  0-N ,  1-C ) :   1.0756 B(  0-N , 30-H ) :   0.8318 B(  0-N , 31-H ) :   0.8236
B(  1-C ,  2-O ) :   1.8092 B(  1-C ,  3-C ) :   0.8887 B(  3-C ,  4-C ) :   0.9660
B(  3-C , 10-N ) :   0.9755 B(  3-C , 32-H ) :   0.9078 B(  4-C ,  5-C ) :   1.4125
B(  4-C ,  9-C ) :   1.4382 B(  5-C ,  6-C ) :   1.4427 B(  5-C , 33-H ) :   0.9237
B(  6-C ,  7-C ) :   1.4510 B(  6-C , 34-H ) :   0.9291 B(  7-C ,  8-C ) :   1.4539
B(  7-C , 35-H ) :   0.9297 B(  8-C ,  9-C ) :   1.4224 B(  8-C , 36-H ) :   0.9283
B(  9-C , 37-H ) :   0.8979 B( 10-N , 11-C ) :   0.9625 B( 10-N , 22-C ) :   1.0079
B( 11-C , 12-C ) :   0.9387 B( 11-C , 38-H ) :   0.9163 B( 11-C , 39-H ) :   0.9173
B( 12-C , 13-C ) :   1.4164 B( 12-C , 21-C ) :   1.4258 B( 13-C , 14-C ) :   1.4528
B( 13-C , 40-H ) :   0.9197 B( 14-C , 15-C ) :   1.4309 B( 14-C , 41-H ) :   0.9291
B( 15-C , 16-C ) :   1.4194 B( 15-C , 42-H ) :   0.9220 B( 16-C , 17-C ) :   0.9802
B( 16-C , 21-C ) :   1.3939 B( 17-C , 18-F ) :   0.9844 B( 17-C , 19-F ) :   0.9451
B( 17-C , 20-F ) :   0.9427 B( 21-C , 43-H ) :   0.9090 B( 22-C , 23-O ) :   1.8176
B( 22-C , 24-C ) :   0.9869 B( 24-C , 25-C ) :   1.3881 B( 24-C , 29-C ) :   1.3952
B( 25-C , 26-C ) :   1.4343 B( 25-C , 44-H ) :   0.9152 B( 26-C , 27-C ) :   1.4514
B( 26-C , 45-H ) :   0.9291 B( 27-C , 28-C ) :   1.4387 B( 27-C , 46-H ) :   0.9293
B( 28-C , 29-C ) :   1.4381 B( 28-C , 47-H ) :   0.9291 B( 29-C , 48-H ) :   0.9156

FINAL SINGLE POINT ENERGY     -1446.539221472640

DIPOLE MOMENT
-------------

Method             : SCF
Type of density    : Electron Density
Multiplicity       :   1
Irrep              :   0
Energy             : -1446.5392214726400653 Eh
Relativity type    :
Basis              : AO
                                X                 Y                 Z
Electronic contribution:     29.636370329     -11.044708988       9.173490109
Nuclear contribution   :    -31.847849179      11.344135959      -9.229971066
                        -----------------------------------------
Total Dipole Moment    :     -2.211478850       0.299426971      -0.056480957
                        -----------------------------------------
Magnitude (a.u.)       :      2.232372127
Magnitude (Debye)      :      5.674239008

Rotational constants in cm-1:             0.006634             0.003610             0.002974
Rotational constants in MHz :           198.885326           108.214183            89.165570

                             ****ORCA TERMINATED NORMALLY****
TOTAL RUN TIME: 0 days 0 hours 8 minutes 26 seconds 311 msec
