                         Program Version 6.0.0  -   RELEASE  -
|  1> ! B3LYP 6-31G* SP
|  2>
|  3> * xyz 0 1
|  4> C -1.1955 0.8409 3.1839
|  5> C -2.0991 -0.1365 2.4385
|  6> N -1.4630 -0.6237 1.2016
|  7> C -0.5294 -1.7138 1.3099
|  8> O -0.8974 -2.8721 0.9696
|  9> C 0.8514 -1.5106 1.8078
| 10> C 1.4724 -2.5458 2.5288
| 11> C 2.7815 -2.4052 2.9897
| 12> C 3.4907 -1.2345 2.7293
| 13> C 2.8959 -0.2011 2.0040
| 14> C 1.5741 -0.3273 1.5297
| 15> O 0.9610 0.6897 0.7793
| 16> C 1.6224 1.8287 0.2280
| 17> C 2.4902 1.4171 -0.9289
| 18> C 1.9244 0.7367 -2.0183
| 19> C 2.7229 0.3433 -3.0955
| 20> C 4.0906 0.6270 -3.0945
| 21> C 4.6637 1.3112 -2.0146
| 22> C 6.0711 1.6127 -2.0176
| 23> N 7.2023 1.8571 -2.0195
| 24> C 3.8642 1.7068 -0.9347
| 25> C -2.0605 -0.3619 -0.1233
| 26> C -2.1640 1.1563 -0.4266
| 27> C -3.2683 1.4942 -1.4469
| 28> C -3.4958 0.3447 -2.4343
| 29> C -3.9760 -0.9430 -1.7171
| 30> N -3.5877 -2.1187 -2.5005
| 31> C -3.4272 -1.0594 -0.2702
| 32> H -1.7470 1.2694 4.0471
| 33> H -0.2960 0.3222 3.5732
| 34> H -0.8868 1.6710 2.5148
| 35> H -3.0585 0.3779 2.2163
| 36> H -2.3411 -0.9956 3.1032
| 37> H 0.9389 -3.4635 2.7445
| 38> H 3.2470 -3.2068 3.5495
| 39> H 4.5061 -1.1275 3.0882
| 40> H 3.4772 0.6901 1.8201
| 41> H 0.8558 2.5376 -0.1456
| 42> H 2.1903 2.3677 1.0149
| 43> H 0.8663 0.5080 -2.0318
| 44> H 2.2817 -0.1847 -3.9303
| 45> H 4.6998 0.3171 -3.9346
| 46> H 4.3102 2.2377 -0.1017
| 47> H -1.3901 -0.7950 -0.9026
| 48> H -1.1900 1.4994 -0.8322
| 49> H -2.3544 1.7470 0.4920
| 50> H -2.9882 2.4137 -2.0037
| 51> H -4.2193 1.7036 -0.9115
| 52> H -4.2498 0.6504 -3.1909
| 53> H -2.5428 0.1510 -2.9742
| 54> H -5.0882 -0.9095 -1.6552
| 55> H -4.0543 -2.9589 -2.0879
| 56> H -3.9817 -2.0191 -3.4648
| 57> H -4.1574 -0.5886 0.4235
| 58> H -3.3428 -2.1270 0.0295
| 59> *
| 60>
| 61>                          ****END OF INPUT****

CARTESIAN COORDINATES (ANGSTROEM)
---------------------------------
  C     -1.195500    0.840900    3.183900
  C     -2.099100   -0.136500    2.438500
  N     -1.463000   -0.623700    1.201600
  C     -0.529400   -1.713800    1.309900
  O     -0.897400   -2.872100    0.969600
  C      0.851400   -1.510600    1.807800
  C      1.472400   -2.545800    2.528800
  C      2.781500   -2.405200    2.989700
  C      3.490700   -1.234500    2.729300
  C      2.895900   -0.201100    2.004000
  C      1.574100   -0.327300    1.529700
  O      0.961000    0.689700    0.779300
  C      1.622400    1.828700    0.228000
  C      2.490200    1.417100   -0.928900
  C      1.924400    0.736700   -2.018300
  C      2.722900    0.343300   -3.095500
  C      4.090600    0.627000   -3.094500
  C      4.663700    1.311200   -2.014600
  C      6.071100    1.612700   -2.017600
  N      7.202300    1.857100   -2.019500
  C      3.864200    1.706800   -0.934700
  C     -2.060500   -0.361900   -0.123300
  C     -2.164000    1.156300   -0.426600
  C     -3.268300    1.494200   -1.446900
  C     -3.495800    0.344700   -2.434300
  C     -3.976000   -0.943000   -1.717100
  N     -3.587700   -2.118700   -2.500500
  C     -3.427200   -1.059400   -0.270200
  H     -1.747000    1.269400    4.047100
  H     -0.296000    0.322200    3.573200
  H     -0.886800    1.671000    2.514800
  H     -3.058500    0.377900    2.216300
  H     -2.341100   -0.995600    3.103200
  H      0.938900   -3.463500    2.744500
  H      3.247000   -3.206800    3.549500
  H      4.506100   -1.127500    3.088200
  H      3.477200    0.690100    1.820100
  H      0.855800    2.537600   -0.145600
  H      2.190300    2.367700    1.014900
  H      0.866300    0.508000   -2.031800
  H      2.281700   -0.184700   -3.930300
  H      4.699800    0.317100   -3.934600
  H      4.310200    2.237700   -0.101700
  H     -1.390100   -0.795000   -0.902600
  H     -1.190000    1.499400   -0.832200
  H     -2.354400    1.747000    0.492000
  H     -2.988200    2.413700   -2.003700
  H     -4.219300    1.703600   -0.911500
  H     -4.249800    0.650400   -3.190900
  H     -2.542800    0.151000   -2.974200
  H     -5.088200   -0.909500   -1.655200
  H     -4.054300   -2.958900   -2.087900
  H     -3.981700   -2.019100   -3.464800
  H     -4.157400   -0.588600    0.423500
  H     -3.342800   -2.127000    0.029500

 Total Charge           Charge          ....    0
 Multiplicity           Mult            ....    1
 Number of Electrons    NEL             ....  202
 Basis Dimension        Dim             ....  446

ORBITAL ENERGIES
----------------

  NO   OCC          E(Eh)            E(eV)
   0   2.0000     -19.178122      -521.8632
   1   2.0000     -19.116937      -520.1983
   2   2.0000     -14.333694      -390.0396
   3   2.0000     -14.311276      -389.4296
   4   2.0000     -14.299032      -389.0965
   5   2.0000     -10.282761      -279.8081
   6   2.0000     -10.263607      -279.2870
   7   2.0000     -10.258861      -279.1578
   8   2.0000     -10.237072      -278.5649
   9   2.0000     -10.223208      -278.1876
  10   2.0000     -10.215887      -277.9884
  11   2.0000     -10.215438      -277.9762
  12   2.0000     -10.213035      -277.9108
  13   2.0000     -10.208552      -277.7888
  14   2.0000     -10.207901      -277.7711
  15   2.0000     -10.207236      -277.7530
  16   2.0000     -10.206685      -277.7380
  17   2.0000     -10.198712      -277.5211
  18   2.0000     -10.198665      -277.5198
  19   2.0000     -10.195291      -277.4280
  20   2.0000     -10.192961      -277.3646
  21   2.0000     -10.191737      -277.3313
  22   2.0000     -10.183660      -277.1115
  23   2.0000     -10.175232      -276.8821
  24   2.0000     -10.172674      -276.8125
  25   2.0000     -10.171370      -276.7771
  26   2.0000     -10.161522      -276.5091
  27   2.0000     -10.159474      -276.4533
  28   2.0000      -1.058707       -28.8089
  29   2.0000      -1.008639       -27.4465
  30   2.0000      -0.908169       -24.7125
  31   2.0000      -0.897683       -24.4272
  32   2.0000      -0.880489       -23.9593
  33   2.0000      -0.872034       -23.7293
  34   2.0000      -0.858845       -23.3704
  35   2.0000      -0.801885       -21.8204
  36   2.0000      -0.798940       -21.7403
  37   2.0000      -0.780315       -21.2335
  38   2.0000      -0.764728       -20.8093
  39   2.0000      -0.751510       -20.4496
  40   2.0000      -0.745376       -20.2827
  41   2.0000      -0.713846       -19.4247
  42   2.0000      -0.705979       -19.2107
  43   2.0000      -0.700667       -19.0661
  44   2.0000      -0.656026       -17.8514
  45   2.0000      -0.642223       -17.4758
  46   2.0000      -0.626570       -17.0498
  47   2.0000      -0.620435       -16.8829
  48   2.0000      -0.601789       -16.3755
  49   2.0000      -0.600063       -16.3286
  50   2.0000      -0.587178       -15.9779
  51   2.0000      -0.562568       -15.3082
  52   2.0000      -0.544583       -14.8188
  53   2.0000      -0.527392       -14.3511
  54   2.0000      -0.513519       -13.9736
  55   2.0000      -0.508592       -13.8395
  56   2.0000      -0.504543       -13.7293
  57   2.0000      -0.496867       -13.5204
  58   2.0000      -0.479904       -13.0588
  59   2.0000      -0.476763       -12.9734
  60   2.0000      -0.475316       -12.9340
  61   2.0000      -0.466322       -12.6893
  62   2.0000      -0.462715       -12.5911
  63   2.0000      -0.457867       -12.4592
  64   2.0000      -0.452769       -12.3205
  65   2.0000      -0.443768       -12.0755
  66   2.0000      -0.442758       -12.0481
  67   2.0000      -0.431525       -11.7424
  68   2.0000      -0.429091       -11.6761
  69   2.0000      -0.416909       -11.3447
  70   2.0000      -0.409997       -11.1566
  71   2.0000      -0.403774       -10.9872
  72   2.0000      -0.400464       -10.8972
  73   2.0000      -0.391430       -10.6513
  74   2.0000      -0.388952       -10.5839
  75   2.0000      -0.380561       -10.3556
  76   2.0000      -0.377315       -10.2673
  77   2.0000      -0.373845       -10.1728
  78   2.0000      -0.372400       -10.1335
  79   2.0000      -0.365087        -9.9345
  80   2.0000      -0.364270        -9.9123
  81   2.0000      -0.358983        -9.7684
  82   2.0000      -0.356399        -9.6981
  83   2.0000      -0.351902        -9.5757
  84   2.0000      -0.345654        -9.4057
  85   2.0000      -0.343959        -9.3596
  86   2.0000      -0.339826        -9.2471
  87   2.0000      -0.338208        -9.2031
  88   2.0000      -0.333202        -9.0669
  89   2.0000      -0.323933        -8.8147
  90   2.0000      -0.322246        -8.7688
  91   2.0000      -0.309236        -8.4147
  92   2.0000      -0.303458        -8.2575
  93   2.0000      -0.299433        -8.1480
  94   2.0000      -0.273743        -7.4489
  95   2.0000      -0.265574        -7.2266
  96   2.0000      -0.259508        -7.0616
  97   2.0000      -0.244001        -6.6396
  98   2.0000      -0.230236        -6.2650
  99   2.0000      -0.223489        -6.0814
 100   2.0000      -0.191007        -5.1976
 101   0.0000      -0.053421        -1.4537
 102   0.0000      -0.047953        -1.3049
 103   0.0000      -0.028326        -0.7708
 104   0.0000      -0.000462        -0.0126
 105   0.0000       0.033539         0.9127

MULLIKEN ATOMIC CHARGES
-----------------------
   0 C :   -0.429442
   1 C :   -0.138627
   2 N :   -0.412099
   3 C :    0.415159
   4 O :   -0.431047
   5 C :    0.050007
   6 C :   -0.149971
   7 C :   -0.136507
   8 C :   -0.114244
   9 C :   -0.195399
  10 C :    0.338767
  11 O :   -0.506623
  12 C :   -0.116643
  13 C :    0.125689
  14 C :   -0.148675
  15 C :   -0.129103
  16 C :   -0.133508
  17 C :    0.122647
  18 C :    0.081035
  19 N :   -0.304865
  20 C :   -0.187527
  21 C :    0.039644
  22 C :   -0.273780
  23 C :   -0.264509
  24 C :   -0.271507
  25 C :    0.046721
  26 N :   -0.711316
  27 C :   -0.269644
  28 H :    0.125552
  29 H :    0.148239
  30 H :    0.151543
  31 H :    0.146345
  32 H :    0.140667
  33 H :    0.160155
  34 H :    0.133536
  35 H :    0.140140
  36 H :    0.132918
  37 H :    0.173158
  38 H :    0.146712
  39 H :    0.162948
  40 H :    0.152067
  41 H :    0.159540
  42 H :    0.151937
  43 H :    0.153029
  44 H :    0.129806
  45 H :    0.133271
  46 H :    0.128214
  47 H :    0.129370
  48 H :    0.125000
  49 H :    0.135182
  50 H :    0.095241
  51 H :    0.290209
  52 H :    0.282780
  53 H :    0.115581
  54 H :    0.162223
Sum of atomic charges:    0.0000000

LOEWDIN ATOMIC CHARGES
----------------------
   0 C :   -0.369496
   1 C :   -0.149249
   2 N :   -0.144800
   3 C :    0.158869
   4 O :   -0.241575
   5 C :   -0.074329
   6 C :   -0.087703
   7 C :   -0.146396
   8 C :   -0.106564
   9 C :   -0.171401
  10 C :    0.107280
  11 O :   -0.169101
  12 C :   -0.084525
  13 C :   -0.034641
  14 C :   -0.102597
  15 C :   -0.117452
  16 C :   -0.097616
  17 C :   -0.052750
  18 C :   -0.007572
  19 N :   -0.095312
  20 C :   -0.105656
  21 C :   -0.044829
  22 C :   -0.232571
  23 C :   -0.231174
  24 C :   -0.234496
  25 C :   -0.076480
  26 N :   -0.469079
  27 C :   -0.239863
  28 H :    0.116056
  29 H :    0.126312
  30 H :    0.125255
  31 H :    0.124480
  32 H :    0.116079
  33 H :    0.150609
  34 H :    0.134628
  35 H :    0.137384
  36 H :    0.135055
  37 H :    0.140333
  38 H :    0.119132
  39 H :    0.145189
  40 H :    0.143513
  41 H :    0.148452
  42 H :    0.143024
  43 H :    0.130897
  44 H :    0.114418
  45 H :    0.121643
  46 H :    0.119918
  47 H :    0.115025
  48 H :    0.117656
  49 H :    0.118939
  50 H :    0.090543
  51 H :    0.220745
  52 H :    0.216974
  53 H :    0.111063
  54 H :    0.137755

  Mayer bond orders larger than 0.100000
B(  0-C ,  1-C ) :   1.0052 B(  0-C , 28-H ) :   0.9435 B(  0-C , 29-H ) :   0.9454
B(  0-C , 30-H ) :   0.9451 B(  1-C ,  2-N ) :   0.9534 B(  1-C , 31-H ) :   0.9348
B(  1-C , 32-H ) :   0.9340 B(  2-N ,  3-C ) :   1.0130 B(  2-N , 21-C ) :   0.9420
B(  3-C ,  4-O ) :   1.8619 B(  3-C ,  5-C ) :   0.9646 B(  5-C ,  6-C ) :   1.3994
B(  5-C , 10-C ) :   1.3378 B(  6-C ,  7-C ) :   1.4405 B(  6-C , 33-H ) :   0.9155
B(  7-C ,  8-C ) :   1.4364 B(  7-C , 34-H ) :   0.9292 B(  8-C ,  9-C ) :   1.4490
B(  8-C , 35-H ) :   0.9281 B(  9-C , 10-C ) :   1.3569 B(  9-C , 36-H ) :   0.9148
B( 10-C , 11-O ) :   0.9073 B( 11-O , 12-C ) :   0.9092 B( 12-C , 13-C ) :   0.9609
B( 12-C , 37-H ) :   0.9181 B( 12-C , 38-H ) :   0.9185 B( 13-C , 14-C ) :   1.4180
B( 13-C , 20-C ) :   1.4231 B( 14-C , 15-C ) :   1.4401 B( 14-C , 39-H ) :   0.9137
B( 15-C , 16-C ) :   1.4323 B( 15-C , 40-H ) :   0.9253 B( 16-C , 17-C ) :   1.4105
B( 16-C , 41-H ) :   0.9225 B( 17-C , 18-C ) :   0.9783 B( 17-C , 20-C ) :   1.3881
B( 18-C , 19-N ) :   3.0227 B( 20-C , 42-H ) :   0.9160 B( 21-C , 22-C ) :   0.9860
B( 21-C , 27-C ) :   0.9965 B( 21-C , 43-H ) :   0.9202 B( 22-C , 23-C ) :   0.9882
B( 22-C , 44-H ) :   0.9364 B( 22-C , 45-H ) :   0.9354 B( 23-C , 24-C ) :   1.0140
B( 23-C , 46-H ) :   0.9443 B( 23-C , 47-H ) :   0.9421 B( 24-C , 25-C ) :   0.9905
B( 24-C , 48-H ) :   0.9411 B( 24-C , 49-H ) :   0.9316 B( 25-C , 26-N ) :   0.9821
B( 25-C , 27-C ) :   0.9705 B( 25-C , 50-H ) :   0.9336 B( 26-N , 51-H ) :   0.8608
B( 26-N , 52-H ) :   0.8638 B( 27-C , 53-H ) :   0.9322 B( 27-C , 54-H ) :   0.9252

FINAL SINGLE POINT ENERGY     -1206.579966456843

DIPOLE MOMENT
-------------

Method             : SCF
Type of density    : Electron Density
Multiplicity       :   1
Irrep              :   0
Energy             : -1206.5799664568432945 Eh
Relativity type    :
Basis              : AO
                                X                 Y                 Z
Electronic contribution:     33.222764378      -3.417816025      -1.301633629
Nuclear contribution   :    -34.714269452       4.169109740       1.459418084
                        -----------------------------------------
Total Dipole Moment    :     -1.491505074       0.751293715       0.157784455
                        -----------------------------------------
Magnitude (a.u.)       :      1.677475951
Magnitude (Debye)      :      4.263805017

Rotational constants in cm-1:             0.007829             0.003960             0.003127
Rotational constants in MHz :           234.717460           118.731321            93.732380

                             ****ORCA TERMINATED NORMALLY****
TOTAL RUN TIME: 0 days 0 hours 5 minutes 30 seconds 454 msec
