                         Program Version 6.0.0  -   RELEASE  -
|  1> ! B3LYP 6-31G* SP
|  2>
|  3> * xyz 0 1
|  4> C -5.8277 0.6204 0.4598
|  5> C -5.0219 -0.6012 0.0489
|  6> O -3.6337 -0.2873 0.0775
|  7> C -2.6422 -1.2110 -0.2674
|  8> O -2.9590 -2.3921 -0.5798
|  9> C -1.2157 -0.8263 -0.2072
| 10> C -0.2790 -1.7765 0.2329
| 11> C 1.0668 -1.4373 0.3820
| 12> C 1.5102 -0.1370 0.0952
| 13> C 2.9399 0.2287 0.2658
| 14> C 3.2989 1.4771 0.8088
| 15> C 4.6450 1.8192 0.9690
| 16> C 5.6463 0.9226 0.5896
| 17> C 5.3037 -0.3191 0.0490
| 18> F 6.2768 -1.1867 -0.3234
| 19> C 3.9586 -0.6667 -0.1126
| 20> C 0.5808 0.8107 -0.3647
| 21> C -0.7671 0.4745 -0.5399
| 22> O -1.6142 1.4450 -1.0797
| 23> H -5.6287 1.4590 -0.2408
| 24> H -6.9115 0.3800 0.4370
| 25> H -5.5480 0.9307 1.4889
| 26> H -5.3166 -0.9065 -0.9786
| 27> H -5.2330 -1.4351 0.7530
| 28> H -0.5945 -2.7798 0.4931
| 29> H 1.7560 -2.1866 0.7508
| 30> H 2.5393 2.1809 1.1253
| 31> H 4.9119 2.7795 1.3911
| 32> H 6.6874 1.1911 0.7149
| 33> H 3.7146 -1.6269 -0.5495
| 34> H 0.9077 1.8090 -0.6290
| 35> H -2.5509 1.2478 -1.4043
| 36> *
| 37>
| 38>                          ****END OF INPUT****

CARTESIAN COORDINATES (ANGSTROEM)
---------------------------------
  C     -5.827700    0.620400    0.459800
  C     -5.021900   -0.601200    0.048900
  O     -3.633700   -0.287300    0.077500
  C     -2.642200   -1.211000   -0.267400
  O     -2.959000   -2.392100   -0.579800
  C     -1.215700   -0.826300   -0.207200
  C     -0.279000   -1.776500    0.232900
  C      1.066800   -1.437300    0.382000
  C      1.510200   -0.137000    0.095200
  C      2.939900    0.228700    0.265800
  C      3.298900    1.477100    0.808800
  C      4.645000    1.819200    0.969000
  C      5.646300    0.922600    0.589600
  C      5.303700   -0.319100    0.049000
  F      6.276800   -1.186700   -0.323400
  C      3.958600   -0.666700   -0.112600
  C      0.580800    0.810700   -0.364700
  C     -0.767100    0.474500   -0.539900
  O     -1.614200    1.445000   -1.079700
  H     -5.628700    1.459000   -0.240800
  H     -6.911500    0.380000    0.437000
  H     -5.548000    0.930700    1.488900
  H     -5.316600   -0.906500   -0.978600
  H     -5.233000   -1.435100    0.753000
  H     -0.594500   -2.779800    0.493100
  H      1.756000   -2.186600    0.750800
  H      2.539300    2.180900    1.125300
  H      4.911900    2.779500    1.391100
  H      6.687400    1.191100    0.714900
  H      3.714600   -1.626900   -0.549500
  H      0.907700    1.809000   -0.629000
  H     -2.550900    1.247800   -1.404300

 Total Charge           Charge          ....    0
 Multiplicity           Mult            ....    1
 Number of Electrons    NEL             ....  136
 Basis Dimension        Dim             ....  292

ORBITAL ENERGIES
----------------

  NO   OCC          E(Eh)            E(eV)
   0   2.0000     -24.700205      -672.1267
   1   2.0000     -19.187849      -522.1279
   2   2.0000     -19.171316      -521.6780
   3   2.0000     -19.127257      -520.4791
   4   2.0000     -10.320751      -280.8419
   5   2.0000     -10.272003      -279.5154
   6   2.0000     -10.265329      -279.3338
   7   2.0000     -10.244392      -278.7641
   8   2.0000     -10.208276      -277.7813
   9   2.0000     -10.206521      -277.7336
  10   2.0000     -10.206503      -277.7331
  11   2.0000     -10.197232      -277.4808
  12   2.0000     -10.194682      -277.4114
  13   2.0000     -10.192815      -277.3606
  14   2.0000     -10.191636      -277.3285
  15   2.0000     -10.189124      -277.2602
  16   2.0000     -10.188742      -277.2498
  17   2.0000     -10.186592      -277.1913
  18   2.0000     -10.185332      -277.1570
  19   2.0000      -1.213122       -33.0107
  20   2.0000      -1.082359       -29.4525
  21   2.0000      -1.035381       -28.1741
  22   2.0000      -0.991943       -26.9921
  23   2.0000      -0.874025       -23.7834
  24   2.0000      -0.852238       -23.1906
  25   2.0000      -0.793217       -21.5845
  26   2.0000      -0.772799       -21.0289
  27   2.0000      -0.754744       -20.5376
  28   2.0000      -0.746084       -20.3020
  29   2.0000      -0.736003       -20.0277
  30   2.0000      -0.670067       -18.2334
  31   2.0000      -0.634927       -17.2772
  32   2.0000      -0.624837       -17.0027
  33   2.0000      -0.608046       -16.5458
  34   2.0000      -0.598664       -16.2905
  35   2.0000      -0.574274       -15.6268
  36   2.0000      -0.555072       -15.1043
  37   2.0000      -0.528774       -14.3887
  38   2.0000      -0.511785       -13.9264
  39   2.0000      -0.497878       -13.5480
  40   2.0000      -0.495269       -13.4770
  41   2.0000      -0.487969       -13.2783
  42   2.0000      -0.474216       -12.9041
  43   2.0000      -0.456522       -12.4226
  44   2.0000      -0.452274       -12.3070
  45   2.0000      -0.451918       -12.2973
  46   2.0000      -0.439512       -11.9597
  47   2.0000      -0.437648       -11.9090
  48   2.0000      -0.418516       -11.3884
  49   2.0000      -0.409657       -11.1473
  50   2.0000      -0.401247       -10.9185
  51   2.0000      -0.399915       -10.8822
  52   2.0000      -0.394838       -10.7441
  53   2.0000      -0.383557       -10.4371
  54   2.0000      -0.382433       -10.4065
  55   2.0000      -0.369614       -10.0577
  56   2.0000      -0.360933        -9.8215
  57   2.0000      -0.359723        -9.7886
  58   2.0000      -0.351288        -9.5590
  59   2.0000      -0.343658        -9.3514
  60   2.0000      -0.335790        -9.1373
  61   2.0000      -0.326111        -8.8739
  62   2.0000      -0.294203        -8.0057
  63   2.0000      -0.280279        -7.6268
  64   2.0000      -0.262800        -7.1512
  65   2.0000      -0.249471        -6.7885
  66   2.0000      -0.237970        -6.4755
  67   2.0000      -0.226967        -6.1761
  68   0.0000      -0.054304        -1.4777
  69   0.0000      -0.008370        -0.2278
  70   0.0000      -0.001666        -0.0453
  71   0.0000      -0.001091        -0.0297
  72   0.0000       0.042206         1.1485

MULLIKEN ATOMIC CHARGES
-----------------------
   0 C :   -0.453761
   1 C :   -0.012565
   2 O :   -0.481907
   3 C :    0.494467
   4 O :   -0.458117
   5 C :    0.039690
   6 C :   -0.154573
   7 C :   -0.180862
   8 C :    0.100671
   9 C :    0.087785
  10 C :   -0.172038
  11 C :   -0.120008
  12 C :   -0.203433
  13 C :    0.410693
  14 F :   -0.317770
  15 C :   -0.253687
  16 C :   -0.217589
  17 C :    0.341644
  18 O :   -0.671784
  19 H :    0.149792
  20 H :    0.155527
  21 H :    0.163494
  22 H :    0.149174
  23 H :    0.156099
  24 H :    0.162709
  25 H :    0.138413
  26 H :    0.139718
  27 H :    0.141223
  28 H :    0.144731
  29 H :    0.149689
  30 H :    0.148617
  31 H :    0.423959
Sum of atomic charges:    0.0000000

LOEWDIN ATOMIC CHARGES
----------------------
   0 C :   -0.365354
   1 C :   -0.090281
   2 O :   -0.182686
   3 C :    0.178830
   4 O :   -0.263058
   5 C :   -0.090791
   6 C :   -0.085582
   7 C :   -0.148571
   8 C :    0.007792
   9 C :   -0.005717
  10 C :   -0.135137
  11 C :   -0.117915
  12 C :   -0.157027
  13 C :    0.118533
  14 F :   -0.103271
  15 C :   -0.155208
  16 C :   -0.150052
  17 C :    0.107529
  18 O :   -0.344839
  19 H :    0.127393
  20 H :    0.136029
  21 H :    0.134328
  22 H :    0.121445
  23 H :    0.125762
  24 H :    0.151214
  25 H :    0.137936
  26 H :    0.137529
  27 H :    0.138031
  28 H :    0.143433
  29 H :    0.146219
  30 H :    0.146885
  31 H :    0.336599

  Mayer bond orders larger than 0.100000
B(  0-C ,  1-C ) :   1.0191 B(  0-C , 19-H ) :   0.9482 B(  0-C , 20-H ) :   0.9417
B(  0-C , 21-H ) :   0.9462 B(  1-C ,  2-O ) :   0.8547 B(  1-C , 22-H ) :   0.9314
B(  1-C , 23-H ) :   0.9295 B(  2-O ,  3-C ) :   0.9894 B(  3-C ,  4-O ) :   1.8180
B(  3-C ,  5-C ) :   0.9880 B(  5-C ,  6-C ) :   1.3924 B(  5-C , 17-C ) :   1.2913
B(  6-C ,  7-C ) :   1.4327 B(  6-C , 24-H ) :   0.9152 B(  7-C ,  8-C ) :   1.3853
B(  7-C , 25-H ) :   0.9206 B(  8-C ,  9-C ) :   1.0105 B(  8-C , 16-C ) :   1.4068
B(  9-C , 10-C ) :   1.4100 B(  9-C , 15-C ) :   1.3780 B( 10-C , 11-C ) :   1.4372
B( 10-C , 26-H ) :   0.9205 B( 11-C , 12-C ) :   1.4303 B( 11-C , 27-H ) :   0.9288
B( 12-C , 13-C ) :   1.3928 B( 12-C , 28-H ) :   0.9209 B( 13-C , 14-F ) :   0.9115
B( 13-C , 15-C ) :   1.3804 B( 15-C , 29-H ) :   0.9123 B( 16-C , 17-C ) :   1.3701
B( 16-C , 30-H ) :   0.9102 B( 17-C , 18-O ) :   0.9549 B( 18-O , 31-H ) :   0.7394

FINAL SINGLE POINT ENERGY      -904.410423897618

DIPOLE MOMENT
-------------

Method             : SCF
Type of density    : Electron Density
Multiplicity       :   1
Irrep              :   0
Energy             :  -904.4104238976178749 Eh
Relativity type    :
Basis              : AO
                                X                 Y                 Z
Electronic contribution:     21.792839597      -5.088240074      -3.049237075
Nuclear contribution   :    -22.379518789       5.966195028       3.383478062
                        -----------------------------------------
Total Dipole Moment    :     -0.586679192       0.877954954       0.334240987
                        -----------------------------------------
Magnitude (a.u.)       :      1.107571403
Magnitude (Debye)      :      2.815222777

Rotational constants in cm-1:             0.038995             0.004570             0.004222
Rotational constants in MHz :          1169.030087           136.992553           126.559292

                             ****ORCA TERMINATED NORMALLY****
TOTAL RUN TIME: 0 days 0 hours 1 minutes 58 seconds 81 msec
