                         Program Version 6.0.0  -   RELEASE  -
|  1> ! B3LYP 6-31G* SP
|  2>
|  3> * xyz 0 1
|  4> C 3.9526 -2.0313 -2.6169
|  5> O 3.1063 -1.9026 -1.4812
|  6> C 3.5708 -1.4711 -0.2335
|  7> N 4.8897 -1.1787 -0.0494
|  8> C 5.3763 -0.7791 1.1553
|  9> C 4.5209 -0.6670 2.2523
| 10> C 3.1657 -0.9594 2.0945
| 11> C 2.6759 -1.3484 0.8417
| 12> C 1.2447 -1.6471 0.6709
| 13> O 0.8056 -2.7417 1.1168
| 14> N 0.3513 -0.7161 0.0128
| 15> C -0.8234 -1.2957 -0.6950
| 16> C -1.1092 -0.6886 -2.0903
| 17> C -2.6152 -0.3663 -2.1419
| 18> C -3.0826 -0.5924 -0.7531
| 19> C -4.3660 -0.3526 -0.2550
| 20> F -5.3322 0.1689 -1.0509
| 21> C -4.6400 -0.6602 1.0860
| 22> C -3.6380 -1.2164 1.9023
| 23> Cl -3.9853 -1.6010 3.5772
| 24> C -2.3577 -1.4578 1.3797
| 25> C -2.0959 -1.1107 0.0500
| 26> C 0.6053 0.7415 0.2052
| 27> C 1.5224 1.3134 -0.8539
| 28> N 2.0649 2.6243 -0.6919
| 29> O 1.8346 0.6407 -1.8720
| 30> C -0.6616 1.5588 0.4213
| 31> C -1.2394 2.3477 -0.5955
| 32> C -2.4207 3.0566 -0.3579
| 33> C -3.0335 2.9998 0.8951
| 34> C -2.4600 2.2430 1.9179
| 35> C -1.2789 1.5330 1.6863
| 36> H 4.7553 -2.7707 -2.4113
| 37> H 4.4022 -1.0474 -2.8687
| 38> H 3.3517 -2.3830 -3.4804
| 39> H 6.4290 -0.5546 1.2626
| 40> H 4.9045 -0.3554 3.2152
| 41> H 2.4966 -0.8695 2.9416
| 42> H -0.6846 -2.3908 -0.8408
| 43> H -0.5363 0.2321 -2.2821
| 44> H -0.8451 -1.4155 -2.8894
| 45> H -3.1420 -1.0594 -2.8325
| 46> H -2.7930 0.6865 -2.4496
| 47> H -5.6271 -0.4736 1.4889
| 48> H -1.5827 -1.8845 2.0018
| 49> H 1.1770 0.8652 1.1519
| 50> H 1.8320 3.1966 0.1498
| 51> H 2.7032 3.0238 -1.4151
| 52> H -0.7858 2.4189 -1.5743
| 53> H -2.8625 3.6497 -1.1480
| 54> H -3.9507 3.5453 1.0744
| 55> H -2.9345 2.2000 2.8896
| 56> H -0.8548 0.9427 2.4894
| 57> *
| 58>
| 59>                          ****END OF INPUT****

CARTESIAN COORDINATES (ANGSTROEM)
---------------------------------
  C      3.952600   -2.031300   -2.616900
  O      3.106300   -1.902600   -1.481200
  C      3.570800   -1.471100   -0.233500
  N      4.889700   -1.178700   -0.049400
  C      5.376300   -0.779100    1.155300
  C      4.520900   -0.667000    2.252300
  C      3.165700   -0.959400    2.094500
  C      2.675900   -1.348400    0.841700
  C      1.244700   -1.647100    0.670900
  O      0.805600   -2.741700    1.116800
  N      0.351300   -0.716100    0.012800
  C     -0.823400   -1.295700   -0.695000
  C     -1.109200   -0.688600   -2.090300
  C     -2.615200   -0.366300   -2.141900
  C     -3.082600   -0.592400   -0.753100
  C     -4.366000   -0.352600   -0.255000
  F     -5.332200    0.168900   -1.050900
  C     -4.640000   -0.660200    1.086000
  C     -3.638000   -1.216400    1.902300
  Cl    -3.985300   -1.601000    3.577200
  C     -2.357700   -1.457800    1.379700
  C     -2.095900   -1.110700    0.050000
  C      0.605300    0.741500    0.205200
  C      1.522400    1.313400   -0.853900
  N      2.064900    2.624300   -0.691900
  O      1.834600    0.640700   -1.872000
  C     -0.661600    1.558800    0.421300
  C     -1.239400    2.347700   -0.595500
  C     -2.420700    3.056600   -0.357900
  C     -3.033500    2.999800    0.895100
  C     -2.460000    2.243000    1.917900
  C     -1.278900    1.533000    1.686300
  H      4.755300   -2.770700   -2.411300
  H      4.402200   -1.047400   -2.868700
  H      3.351700   -2.383000   -3.480400
  H      6.429000   -0.554600    1.262600
  H      4.904500   -0.355400    3.215200
  H      2.496600   -0.869500    2.941600
  H     -0.684600   -2.390800   -0.840800
  H     -0.536300    0.232100   -2.282100
  H     -0.845100   -1.415500   -2.889400
  H     -3.142000   -1.059400   -2.832500
  H     -2.793000    0.686500   -2.449600
  H     -5.627100   -0.473600    1.488900
  H     -1.582700   -1.884500    2.001800
  H      1.177000    0.865200    1.151900
  H      1.832000    3.196600    0.149800
  H      2.703200    3.023800   -1.415100
  H     -0.785800    2.418900   -1.574300
  H     -2.862500    3.649700   -1.148000
  H     -3.950700    3.545300    1.074400
  H     -2.934500    2.200000    2.889600
  H     -0.854800    0.942700    2.489400

 Total Charge           Charge          ....    0
 Multiplicity           Mult            ....    1
 Number of Electrons    NEL             ....  236
 Basis Dimension        Dim             ....  494

ORBITAL ENERGIES
----------------

  NO   OCC          E(Eh)            E(eV)
   0   2.0000    -101.523111     -2762.5843
   1   2.0000     -24.699832      -672.1166
   2   2.0000     -19.166527      -521.5477
   3   2.0000     -19.118732      -520.2471
   4   2.0000     -19.116890      -520.1970
   5   2.0000     -14.361292      -390.7906
   6   2.0000     -14.356843      -390.6696
   7   2.0000     -14.328347      -389.8942
   8   2.0000     -10.297465      -280.2083
   9   2.0000     -10.291252      -280.0392
  10   2.0000     -10.285483      -279.8822
  11   2.0000     -10.266717      -279.3716
  12   2.0000     -10.250981      -278.9434
  13   2.0000     -10.241771      -278.6928
  14   2.0000     -10.225185      -278.2414
  15   2.0000     -10.221605      -278.1440
  16   2.0000     -10.221371      -278.1376
  17   2.0000     -10.208632      -277.7910
  18   2.0000     -10.208504      -277.7875
  19   2.0000     -10.205677      -277.7106
  20   2.0000     -10.194380      -277.4032
  21   2.0000     -10.194170      -277.3975
  22   2.0000     -10.191742      -277.3314
  23   2.0000     -10.191305      -277.3195
  24   2.0000     -10.191044      -277.3124
  25   2.0000     -10.190798      -277.3057
  26   2.0000     -10.189503      -277.2705
  27   2.0000     -10.183333      -277.1026
  28   2.0000     -10.182345      -277.0757
  29   2.0000     -10.181027      -277.0398
  30   2.0000     -10.177760      -276.9509
  31   2.0000     -10.171568      -276.7824
  32   2.0000      -9.454880      -257.2804
  33   2.0000      -7.217874      -196.4083
  34   2.0000      -7.208528      -196.1540
  35   2.0000      -7.208214      -196.1455
  36   2.0000      -1.212039       -32.9812
  37   2.0000      -1.047631       -28.5075
  38   2.0000      -1.019442       -27.7404
  39   2.0000      -1.012841       -27.5608
  40   2.0000      -0.925222       -25.1766
  41   2.0000      -0.922326       -25.0978
  42   2.0000      -0.887124       -24.1399
  43   2.0000      -0.883839       -24.0505
  44   2.0000      -0.860624       -23.4188
  45   2.0000      -0.852449       -23.1963
  46   2.0000      -0.810101       -22.0440
  47   2.0000      -0.796344       -21.6696
  48   2.0000      -0.780511       -21.2388
  49   2.0000      -0.772052       -21.0086
  50   2.0000      -0.754169       -20.5220
  51   2.0000      -0.750033       -20.4094
  52   2.0000      -0.719173       -19.5697
  53   2.0000      -0.706289       -19.2191
  54   2.0000      -0.695060       -18.9136
  55   2.0000      -0.685676       -18.6582
  56   2.0000      -0.652802       -17.7637
  57   2.0000      -0.619839       -16.8667
  58   2.0000      -0.614950       -16.7336
  59   2.0000      -0.611292       -16.6341
  60   2.0000      -0.606803       -16.5119
  61   2.0000      -0.587844       -15.9961
  62   2.0000      -0.583427       -15.8759
  63   2.0000      -0.578431       -15.7399
  64   2.0000      -0.550540       -14.9810
  65   2.0000      -0.535038       -14.5591
  66   2.0000      -0.529619       -14.4117
  67   2.0000      -0.527719       -14.3600
  68   2.0000      -0.515405       -14.0249
  69   2.0000      -0.509920       -13.8756
  70   2.0000      -0.501779       -13.6541
  71   2.0000      -0.496700       -13.5159
  72   2.0000      -0.487312       -13.2604
  73   2.0000      -0.478573       -13.0226
  74   2.0000      -0.473932       -12.8964
  75   2.0000      -0.469192       -12.7674
  76   2.0000      -0.467155       -12.7119
  77   2.0000      -0.453982       -12.3535
  78   2.0000      -0.451816       -12.2945
  79   2.0000      -0.446774       -12.1573
  80   2.0000      -0.440234       -11.9794
  81   2.0000      -0.434833       -11.8324
  82   2.0000      -0.431011       -11.7284
  83   2.0000      -0.428068       -11.6483
  84   2.0000      -0.427292       -11.6272
  85   2.0000      -0.417372       -11.3573
  86   2.0000      -0.411714       -11.2033
  87   2.0000      -0.405821       -11.0429
  88   2.0000      -0.401301       -10.9200
  89   2.0000      -0.396237       -10.7822
  90   2.0000      -0.394642       -10.7387
  91   2.0000      -0.390586       -10.6284
  92   2.0000      -0.384911       -10.4740
  93   2.0000      -0.376180       -10.2364
  94   2.0000      -0.365791        -9.9537
  95   2.0000      -0.364273        -9.9124
  96   2.0000      -0.360795        -9.8177
  97   2.0000      -0.356785        -9.7086
  98   2.0000      -0.352871        -9.6021
  99   2.0000      -0.347589        -9.4584
 100   2.0000      -0.345006        -9.3881
 101   2.0000      -0.340182        -9.2568
 102   2.0000      -0.338465        -9.2101
 103   2.0000      -0.322125        -8.7655
 104   2.0000      -0.316314        -8.6073
 105   2.0000      -0.306186        -8.3317
 106   2.0000      -0.305699        -8.3185
 107   2.0000      -0.289410        -7.8752
 108   2.0000      -0.271921        -7.3993
 109   2.0000      -0.266309        -7.2466
 110   2.0000      -0.262261        -7.1365
 111   2.0000      -0.256834        -6.9888
 112   2.0000      -0.253445        -6.8966
 113   2.0000      -0.245203        -6.6723
 114   2.0000      -0.235459        -6.4072
 115   2.0000      -0.230588        -6.2746
 116   2.0000      -0.227221        -6.1830
 117   2.0000      -0.223994        -6.0952
 118   0.0000      -0.032394        -0.8815
 119   0.0000      -0.025492        -0.6937
 120   0.0000      -0.018223        -0.4959
 121   0.0000      -0.011652        -0.3171
 122   0.0000       0.001788         0.0486

MULLIKEN ATOMIC CHARGES
-----------------------
   0 C :   -0.183513
   1 O :   -0.477302
   2 C :    0.499780
   3 N :   -0.435949
   4 C :    0.025693
   5 C :   -0.153839
   6 C :   -0.119651
   7 C :    0.013341
   8 C :    0.447110
   9 O :   -0.457862
  10 N :   -0.391539
  11 C :   -0.047266
  12 C :   -0.304769
  13 C :   -0.342643
  14 C :    0.030777
  15 C :    0.370274
  16 F :   -0.313667
  17 C :   -0.219130
  18 C :   -0.057667
  19 Cl:   -0.025384
  20 C :   -0.196782
  21 C :    0.142068
  22 C :   -0.156182
  23 C :    0.569148
  24 N :   -0.763898
  25 O :   -0.464754
  26 C :    0.122364
  27 C :   -0.173366
  28 C :   -0.133298
  29 C :   -0.119653
  30 C :   -0.121531
  31 C :   -0.158428
  32 H :    0.152155
  33 H :    0.161068
  34 H :    0.160260
  35 H :    0.151332
  36 H :    0.132787
  37 H :    0.151642
  38 H :    0.192098
  39 H :    0.169993
  40 H :    0.148461
  41 H :    0.156530
  42 H :    0.150196
  43 H :    0.152865
  44 H :    0.167974
  45 H :    0.165546
  46 H :    0.334855
  47 H :    0.352750
  48 H :    0.147701
  49 H :    0.135976
  50 H :    0.135597
  51 H :    0.142116
  52 H :    0.135614
Sum of atomic charges:    0.0000000

LOEWDIN ATOMIC CHARGES
----------------------
   0 C :   -0.193703
   1 O :   -0.165626
   2 C :    0.138908
   3 N :   -0.160351
   4 C :   -0.058559
   5 C :   -0.167375
   6 C :   -0.093483
   7 C :   -0.071692
   8 C :    0.153742
   9 O :   -0.261715
  10 N :   -0.086135
  11 C :   -0.036738
  12 C :   -0.228693
  13 C :   -0.223634
  14 C :   -0.046747
  15 C :    0.118685
  16 F :   -0.101670
  17 C :   -0.168948
  18 C :   -0.088093
  19 Cl:    0.031487
  20 C :   -0.140121
  21 C :   -0.015199
  22 C :   -0.070040
  23 C :    0.128418
  24 N :   -0.401991
  25 O :   -0.275559
  26 C :   -0.035092
  27 C :   -0.131723
  28 C :   -0.130341
  29 C :   -0.120785
  30 C :   -0.121332
  31 C :   -0.114344
  32 H :    0.121412
  33 H :    0.126921
  34 H :    0.131330
  35 H :    0.136100
  36 H :    0.135728
  37 H :    0.143211
  38 H :    0.158898
  39 H :    0.138339
  40 H :    0.130322
  41 H :    0.133699
  42 H :    0.130169
  43 H :    0.148917
  44 H :    0.152411
  45 H :    0.150371
  46 H :    0.252536
  47 H :    0.266486
  48 H :    0.138626
  49 H :    0.134935
  50 H :    0.135125
  51 H :    0.138099
  52 H :    0.134816

  Mayer bond orders larger than 0.100000
B(  0-C ,  1-O ) :   0.8933 B(  0-C , 32-H ) :   0.9358 B(  0-C , 33-H ) :   0.9345
B(  0-C , 34-H ) :   0.9453 B(  1-O ,  2-C ) :   0.9973 B(  2-C ,  3-N ) :   1.3358
B(  2-C ,  7-C ) :   1.3404 B(  3-N ,  4-C ) :   1.4108 B(  4-C ,  5-C ) :   1.4338
B(  4-C , 35-H ) :   0.9297 B(  5-C ,  6-C ) :   1.4231 B(  5-C , 36-H ) :   0.9250
B(  6-C ,  7-C ) :   1.4434 B(  6-C , 37-H ) :   0.9232 B(  7-C ,  8-C ) :   0.9006
B(  8-C ,  9-O ) :   1.8075 B(  8-C , 10-N ) :   1.0588 B( 10-N , 11-C ) :   0.9250
B( 10-N , 22-C ) :   0.9664 B( 11-C , 12-C ) :   0.9745 B( 11-C , 21-C ) :   0.9565
B( 11-C , 38-H ) :   0.9077 B( 12-C , 13-C ) :   0.9699 B( 12-C , 39-H ) :   0.9203
B( 12-C , 40-H ) :   0.9470 B( 13-C , 14-C ) :   0.9775 B( 13-C , 41-H ) :   0.9302
B( 13-C , 42-H ) :   0.9308 B( 14-C , 15-C ) :   1.3139 B( 14-C , 21-C ) :   1.4622
B( 15-C , 16-F ) :   0.9400 B( 15-C , 17-C ) :   1.3887 B( 17-C , 18-C ) :   1.3740
B( 17-C , 43-H ) :   0.9164 B( 18-C , 19-Cl) :   1.0057 B( 18-C , 20-C ) :   1.3945
B( 20-C , 21-C ) :   1.4120 B( 20-C , 44-H ) :   0.9028 B( 22-C , 23-C ) :   0.8836
B( 22-C , 26-C ) :   0.9651 B( 22-C , 45-H ) :   0.8984 B( 23-C , 24-N ) :   1.0709
B( 23-C , 25-O ) :   1.8297 B( 24-N , 46-H ) :   0.8284 B( 24-N , 47-H ) :   0.8223
B( 26-C , 27-C ) :   1.4335 B( 26-C , 31-C ) :   1.4056 B( 27-C , 28-C ) :   1.4280
B( 27-C , 48-H ) :   0.9131 B( 28-C , 29-C ) :   1.4548 B( 28-C , 49-H ) :   0.9284
B( 29-C , 30-C ) :   1.4455 B( 29-C , 50-H ) :   0.9289 B( 30-C , 31-C ) :   1.4479
B( 30-C , 51-H ) :   0.9265 B( 31-C , 52-H ) :   0.9231

FINAL SINGLE POINT ENERGY     -1876.218649503193

DIPOLE MOMENT
-------------

Method             : SCF
Type of density    : Electron Density
Multiplicity       :   1
Irrep              :   0
Energy             : -1876.2186495031926370 Eh
Relativity type    :
Basis              : AO
                                X                 Y                 Z
Electronic contribution:    -20.673320829      -9.168724300      13.962618858
Nuclear contribution   :     21.433630101      11.466642389     -13.942971642
                        -----------------------------------------
Total Dipole Moment    :      0.760309272       2.297918089       0.019647216
                        -----------------------------------------
Magnitude (a.u.)       :      2.420513117
Magnitude (Debye)      :      6.152455399

Rotational constants in cm-1:             0.007592             0.003133             0.002906
Rotational constants in MHz :           227.613904            93.938905            87.114855

                             ****ORCA TERMINATED NORMALLY****
TOTAL RUN TIME: 0 days 0 hours 11 minutes 18 seconds 630 msec
