                         Program Version 6.0.0  -   RELEASE  -
|  1> ! B3LYP 6-31G* SP
|  2>
|  3> * xyz 0 1
|  4> C -5.6992 -0.1342 2.1571
|  5> N -5.3369 -0.2545 0.7348
|  6> C -4.6325 0.7568 0.1224
|  7> O -4.3171 1.8049 0.7491
|  8> C -4.2681 0.5981 -1.2079
|  9> C -3.5624 1.3820 -2.1013
| 10> C -2.8842 2.6965 -1.8555
| 11> C -1.5696 2.4770 -1.1690
| 12> O -0.6259 1.9363 -1.8071
| 13> N -1.3925 2.8730 0.1994
| 14> C -0.2670 2.4850 0.9961
| 15> N 0.6854 1.6185 0.5908
| 16> C 1.6257 1.4012 1.5531
| 17> C 2.7607 0.4689 1.3279
| 18> C 3.8856 0.4608 2.1733
| 19> C 4.9428 -0.4256 1.9465
| 20> F 6.0146 -0.3964 2.7791
| 21> C 4.8981 -1.3242 0.8656
| 22> C 6.0427 -2.2762 0.6050
| 23> C 6.9350 -1.8222 -0.5638
| 24> C 7.7486 -0.5569 -0.2646
| 25> F 6.9149 0.5399 -0.1467
| 26> F 8.6300 -0.3281 -1.3051
| 27> F 8.4728 -0.7115 0.9043
| 28> C 3.7799 -1.3134 0.0142
| 29> F 3.7054 -2.1688 -1.0374
| 30> C 2.7258 -0.4248 0.2431
| 31> C 1.4045 2.1034 2.7437
| 32> S -0.0026 3.0091 2.5673
| 33> C -3.5029 0.6301 -3.2705
| 34> O -4.1370 -0.5157 -3.1033
| 35> C -4.5946 -0.5408 -1.8731
| 36> N -5.2876 -1.5516 -1.2848
| 37> C -5.5745 -2.7859 -2.0260
| 38> C -5.6343 -1.4156 0.0413
| 39> O -6.2233 -2.3657 0.6303
| 40> H -6.6370 -0.6859 2.3823
| 41> H -5.8849 0.9245 2.4371
| 42> H -4.8781 -0.5390 2.7852
| 43> H -2.7080 3.2124 -2.8237
| 44> H -3.5436 3.3512 -1.2484
| 45> H -2.1291 3.4579 0.6525
| 46> H 3.9649 1.1485 3.0033
| 47> H 6.6594 -2.4218 1.5179
| 48> H 5.6242 -3.2766 0.3600
| 49> H 6.3175 -1.6566 -1.4733
| 50> H 7.6449 -2.6463 -0.7942
| 51> H 1.8753 -0.4456 -0.4270
| 52> H 2.0007 2.0621 3.6437
| 53> H -3.0071 0.9217 -4.1871
| 54> H -5.5845 -2.6045 -3.1219
| 55> H -4.8008 -3.5477 -1.7934
| 56> H -6.5743 -3.1837 -1.7510
| 57> *
| 58>
| 59>                          ****END OF INPUT****

CARTESIAN COORDINATES (ANGSTROEM)
---------------------------------
  C     -5.699200   -0.134200    2.157100
  N     -5.336900   -0.254500    0.734800
  C     -4.632500    0.756800    0.122400
  O     -4.317100    1.804900    0.749100
  C     -4.268100    0.598100   -1.207900
  C     -3.562400    1.382000   -2.101300
  C     -2.884200    2.696500   -1.855500
  C     -1.569600    2.477000   -1.169000
  O     -0.625900    1.936300   -1.807100
  N     -1.392500    2.873000    0.199400
  C     -0.267000    2.485000    0.996100
  N      0.685400    1.618500    0.590800
  C      1.625700    1.401200    1.553100
  C      2.760700    0.468900    1.327900
  C      3.885600    0.460800    2.173300
  C      4.942800   -0.425600    1.946500
  F      6.014600   -0.396400    2.779100
  C      4.898100   -1.324200    0.865600
  C      6.042700   -2.276200    0.605000
  C      6.935000   -1.822200   -0.563800
  C      7.748600   -0.556900   -0.264600
  F      6.914900    0.539900   -0.146700
  F      8.630000   -0.328100   -1.305100
  F      8.472800   -0.711500    0.904300
  C      3.779900   -1.313400    0.014200
  F      3.705400   -2.168800   -1.037400
  C      2.725800   -0.424800    0.243100
  C      1.404500    2.103400    2.743700
  S     -0.002600    3.009100    2.567300
  C     -3.502900    0.630100   -3.270500
  O     -4.137000   -0.515700   -3.103300
  C     -4.594600   -0.540800   -1.873100
  N     -5.287600   -1.551600   -1.284800
  C     -5.574500   -2.785900   -2.026000
  C     -5.634300   -1.415600    0.041300
  O     -6.223300   -2.365700    0.630300
  H     -6.637000   -0.685900    2.382300
  H     -5.884900    0.924500    2.437100
  H     -4.878100   -0.539000    2.785200
  H     -2.708000    3.212400   -2.823700
  H     -3.543600    3.351200   -1.248400
  H     -2.129100    3.457900    0.652500
  H      3.964900    1.148500    3.003300
  H      6.659400   -2.421800    1.517900
  H      5.624200   -3.276600    0.360000
  H      6.317500   -1.656600   -1.473300
  H      7.644900   -2.646300   -0.794200
  H      1.875300   -0.445600   -0.427000
  H      2.000700    2.062100    3.643700
  H     -3.007100    0.921700   -4.187100
  H     -5.584500   -2.604500   -3.121900
  H     -4.800800   -3.547700   -1.793400
  H     -6.574300   -3.183700   -1.751000

 Total Charge           Charge          ....    0
 Multiplicity           Mult            ....    1
 Number of Electrons    NEL             ....  270
 Basis Dimension        Dim             ....  542

ORBITAL ENERGIES
----------------

  NO   OCC          E(Eh)            E(eV)
   0   2.0000     -88.904302     -2419.2091
   1   2.0000     -24.709494      -672.3795
   2   2.0000     -24.708558      -672.3540
   3   2.0000     -24.706751      -672.3049
   4   2.0000     -24.704545      -672.2448
   5   2.0000     -24.701947      -672.1741
   6   2.0000     -19.255339      -523.9644
   7   2.0000     -19.119890      -520.2786
   8   2.0000     -19.115585      -520.1615
   9   2.0000     -19.114827      -520.1409
  10   2.0000     -14.419278      -392.3685
  11   2.0000     -14.402613      -391.9150
  12   2.0000     -14.387337      -391.4994
  13   2.0000     -14.322166      -389.7259
  14   2.0000     -10.422653      -283.6148
  15   2.0000     -10.337065      -281.2858
  16   2.0000     -10.305580      -280.4291
  17   2.0000     -10.300005      -280.2774
  18   2.0000     -10.297018      -280.1961
  19   2.0000     -10.286217      -279.9022
  20   2.0000     -10.271329      -279.4971
  21   2.0000     -10.269949      -279.4595
  22   2.0000     -10.247141      -278.8389
  23   2.0000     -10.243178      -278.7311
  24   2.0000     -10.224755      -278.2297
  25   2.0000     -10.224103      -278.2120
  26   2.0000     -10.209532      -277.8155
  27   2.0000     -10.207968      -277.7729
  28   2.0000     -10.207281      -277.7542
  29   2.0000     -10.205946      -277.7179
  30   2.0000     -10.203289      -277.6456
  31   2.0000     -10.200284      -277.5638
  32   2.0000     -10.197202      -277.4800
  33   2.0000     -10.192539      -277.3531
  34   2.0000     -10.187643      -277.2199
  35   2.0000     -10.181302      -277.0473
  36   2.0000      -7.981990      -217.2010
  37   2.0000      -5.945059      -161.7733
  38   2.0000      -5.940949      -161.6615
  39   2.0000      -5.938820      -161.6035
  40   2.0000      -1.268989       -34.5309
  41   2.0000      -1.216402       -33.1000
  42   2.0000      -1.213909       -33.0321
  43   2.0000      -1.195171       -32.5223
  44   2.0000      -1.193391       -32.4738
  45   2.0000      -1.183982       -32.2178
  46   2.0000      -1.074001       -29.2251
  47   2.0000      -1.026146       -27.9228
  48   2.0000      -1.017904       -27.6986
  49   2.0000      -0.981517       -26.7084
  50   2.0000      -0.971496       -26.4357
  51   2.0000      -0.945262       -25.7219
  52   2.0000      -0.909903       -24.7597
  53   2.0000      -0.864767       -23.5315
  54   2.0000      -0.857581       -23.3360
  55   2.0000      -0.815622       -22.1942
  56   2.0000      -0.807253       -21.9665
  57   2.0000      -0.797172       -21.6922
  58   2.0000      -0.771680       -20.9985
  59   2.0000      -0.760864       -20.7042
  60   2.0000      -0.748276       -20.3616
  61   2.0000      -0.744898       -20.2697
  62   2.0000      -0.727470       -19.7955
  63   2.0000      -0.721280       -19.6270
  64   2.0000      -0.684923       -18.6377
  65   2.0000      -0.670706       -18.2508
  66   2.0000      -0.650103       -17.6902
  67   2.0000      -0.640078       -17.4174
  68   2.0000      -0.627307       -17.0699
  69   2.0000      -0.620917       -16.8960
  70   2.0000      -0.614686       -16.7265
  71   2.0000      -0.604001       -16.4357
  72   2.0000      -0.590221       -16.0607
  73   2.0000      -0.581103       -15.8126
  74   2.0000      -0.562670       -15.3110
  75   2.0000      -0.560531       -15.2528
  76   2.0000      -0.558278       -15.1915
  77   2.0000      -0.548794       -14.9334
  78   2.0000      -0.532484       -14.4896
  79   2.0000      -0.530236       -14.4285
  80   2.0000      -0.527290       -14.3483
  81   2.0000      -0.514780       -14.0079
  82   2.0000      -0.510816       -13.9000
  83   2.0000      -0.504551       -13.7295
  84   2.0000      -0.493028       -13.4160
  85   2.0000      -0.491612       -13.3774
  86   2.0000      -0.488264       -13.2863
  87   2.0000      -0.483010       -13.1434
  88   2.0000      -0.477013       -12.9802
  89   2.0000      -0.468097       -12.7376
  90   2.0000      -0.463861       -12.6223
  91   2.0000      -0.461393       -12.5551
  92   2.0000      -0.455640       -12.3986
  93   2.0000      -0.451709       -12.2916
  94   2.0000      -0.447487       -12.1767
  95   2.0000      -0.443528       -12.0690
  96   2.0000      -0.438490       -11.9319
  97   2.0000      -0.437225       -11.8975
  98   2.0000      -0.433144       -11.7864
  99   2.0000      -0.431685       -11.7467
 100   2.0000      -0.427096       -11.6219
 101   2.0000      -0.424915       -11.5625
 102   2.0000      -0.422869       -11.5069
 103   2.0000      -0.414084       -11.2678
 104   2.0000      -0.410734       -11.1766
 105   2.0000      -0.408489       -11.1156
 106   2.0000      -0.405738       -11.0407
 107   2.0000      -0.400067       -10.8864
 108   2.0000      -0.399540       -10.8720
 109   2.0000      -0.392957       -10.6929
 110   2.0000      -0.391563       -10.6550
 111   2.0000      -0.388561       -10.5733
 112   2.0000      -0.388056       -10.5595
 113   2.0000      -0.381969       -10.3939
 114   2.0000      -0.379226       -10.3193
 115   2.0000      -0.374121       -10.1804
 116   2.0000      -0.367820       -10.0089
 117   2.0000      -0.364095        -9.9075
 118   2.0000      -0.362227        -9.8567
 119   2.0000      -0.347965        -9.4686
 120   2.0000      -0.344133        -9.3643
 121   2.0000      -0.338590        -9.2135
 122   2.0000      -0.332670        -9.0524
 123   2.0000      -0.304720        -8.2919
 124   2.0000      -0.290172        -7.8960
 125   2.0000      -0.286955        -7.8084
 126   2.0000      -0.282621        -7.6905
 127   2.0000      -0.276947        -7.5361
 128   2.0000      -0.271877        -7.3981
 129   2.0000      -0.256366        -6.9761
 130   2.0000      -0.246322        -6.7028
 131   2.0000      -0.238815        -6.4985
 132   2.0000      -0.234142        -6.3713
 133   2.0000      -0.217116        -5.9080
 134   2.0000      -0.207912        -5.6576
 135   0.0000      -0.037556        -1.0219
 136   0.0000      -0.026440        -0.7195
 137   0.0000      -0.023121        -0.6291
 138   0.0000      -0.006757        -0.1839
 139   0.0000       0.004777         0.1300

MULLIKEN ATOMIC CHARGES
-----------------------
   0 C :   -0.315674
   1 N :   -0.483807
   2 C :    0.516429
   3 O :   -0.525453
   4 C :    0.030346
   5 C :    0.059153
   6 C :   -0.429487
   7 C :    0.572355
   8 O :   -0.435666
   9 N :   -0.648762
  10 C :    0.257922
  11 N :   -0.378277
  12 C :    0.216383
  13 C :    0.151145
  14 C :   -0.275854
  15 C :    0.386021
  16 F :   -0.314512
  17 C :   -0.019840
  18 C :   -0.360514
  19 C :   -0.378173
  20 C :    0.930152
  21 F :   -0.298030
  22 F :   -0.308720
  23 F :   -0.303760
  24 C :    0.384881
  25 F :   -0.317387
  26 C :   -0.265891
  27 C :   -0.394868
  28 S :    0.257172
  29 C :    0.009617
  30 O :   -0.383699
  31 C :    0.496447
  32 N :   -0.498432
  33 C :   -0.329951
  34 C :    0.679561
  35 O :   -0.502095
  36 H :    0.195228
  37 H :    0.193622
  38 H :    0.180439
  39 H :    0.178674
  40 H :    0.170818
  41 H :    0.358946
  42 H :    0.137126
  43 H :    0.173695
  44 H :    0.163929
  45 H :    0.181428
  46 H :    0.167254
  47 H :    0.180861
  48 H :    0.183170
  49 H :    0.177810
  50 H :    0.183780
  51 H :    0.189095
  52 H :    0.205393
Sum of atomic charges:    0.0000000

LOEWDIN ATOMIC CHARGES
----------------------
   0 C :   -0.259923
   1 N :   -0.027602
   2 C :    0.114499
   3 O :   -0.317836
   4 C :   -0.113576
   5 C :   -0.025221
   6 C :   -0.236621
   7 C :    0.156937
   8 O :   -0.250454
   9 N :   -0.198696
  10 C :   -0.078125
  11 N :   -0.154369
  12 C :   -0.001957
  13 C :   -0.004991
  14 C :   -0.161834
  15 C :    0.120830
  16 F :   -0.098355
  17 C :   -0.080924
  18 C :   -0.224749
  19 C :   -0.257740
  20 C :    0.305428
  21 F :   -0.113388
  22 F :   -0.119447
  23 F :   -0.118102
  24 C :    0.117765
  25 F :   -0.101615
  26 C :   -0.147830
  27 C :   -0.346998
  28 S :    0.393818
  29 C :   -0.078369
  30 O :   -0.000831
  31 C :    0.099328
  32 N :   -0.022283
  33 C :   -0.260247
  34 C :    0.145018
  35 O :   -0.311037
  36 H :    0.152597
  37 H :    0.151983
  38 H :    0.141574
  39 H :    0.154561
  40 H :    0.144253
  41 H :    0.274165
  42 H :    0.141063
  43 H :    0.141105
  44 H :    0.140257
  45 H :    0.148733
  46 H :    0.144121
  47 H :    0.162753
  48 H :    0.160867
  49 H :    0.153705
  50 H :    0.145631
  51 H :    0.144093
  52 H :    0.158038

  Mayer bond orders larger than 0.100000
B(  0-C ,  1-N ) :   0.9177 B(  0-C , 36-H ) :   0.9264 B(  0-C , 37-H ) :   0.9246
B(  0-C , 38-H ) :   0.9399 B(  1-N ,  2-C ) :   0.9742 B(  1-N , 34-C ) :   1.0400
B(  2-C ,  3-O ) :   1.7498 B(  2-C ,  4-C ) :   1.0904 B(  4-C ,  5-C ) :   1.3103
B(  4-C , 31-C ) :   1.3607 B(  5-C ,  6-C ) :   1.0098 B(  5-C , 29-C ) :   1.5770
B(  6-C ,  7-C ) :   0.9401 B(  6-C , 39-H ) :   0.9158 B(  6-C , 40-H ) :   0.9084
B(  7-C ,  8-O ) :   1.8934 B(  7-C ,  9-N ) :   0.9988 B(  9-N , 10-C ) :   0.9575
B(  9-N , 41-H ) :   0.8071 B( 10-C , 11-N ) :   1.5066 B( 10-C , 27-C ) :   0.1064
B( 10-C , 28-S ) :   1.1408 B( 11-N , 12-C ) :   1.2700 B( 12-C , 13-C ) :   1.0560
B( 12-C , 27-C ) :   1.5123 B( 13-C , 14-C ) :   1.3684 B( 13-C , 26-C ) :   1.3743
B( 14-C , 15-C ) :   1.3838 B( 14-C , 42-H ) :   0.9113 B( 15-C , 16-F ) :   0.9080
B( 15-C , 17-C ) :   1.3461 B( 17-C , 18-C ) :   0.9680 B( 17-C , 24-C ) :   1.3436
B( 18-C , 19-C ) :   0.9772 B( 18-C , 43-H ) :   0.9230 B( 18-C , 44-H ) :   0.9252
B( 19-C , 20-C ) :   0.9827 B( 19-C , 45-H ) :   0.9173 B( 19-C , 46-H ) :   0.9219
B( 20-C , 21-F ) :   0.9675 B( 20-C , 22-F ) :   0.9594 B( 20-C , 23-F ) :   0.9622
B( 24-C , 25-F ) :   0.9084 B( 24-C , 26-C ) :   1.3597 B( 26-C , 47-H ) :   0.8999
B( 27-C , 28-S ) :   1.1169 B( 27-C , 48-H ) :   0.9016 B( 29-C , 30-O ) :   0.9979
B( 29-C , 49-H ) :   0.9246 B( 30-O , 31-C ) :   1.0772 B( 31-C , 32-N ) :   0.9890
B( 32-N , 33-C ) :   0.9242 B( 32-N , 34-C ) :   1.0431 B( 33-C , 50-H ) :   0.9305
B( 33-C , 51-H ) :   0.9343 B( 33-C , 52-H ) :   0.9258 B( 34-C , 35-O ) :   1.7968

FINAL SINGLE POINT ENERGY     -2264.827054264190

DIPOLE MOMENT
-------------

Method             : SCF
Type of density    : Electron Density
Multiplicity       :   1
Irrep              :   0
Energy             : -2264.8270542641898828 Eh
Relativity type    :
Basis              : AO
                                X                 Y                 Z
Electronic contribution:     46.498645340       5.060723626       2.791890536
Nuclear contribution   :    -48.517967949      -5.212481082      -3.233760218
                        -----------------------------------------
Total Dipole Moment    :     -2.019322609      -0.151757456      -0.441869682
                        -----------------------------------------
Magnitude (a.u.)       :      2.072665660
Magnitude (Debye)      :      5.268297429

Rotational constants in cm-1:             0.006031             0.001265             0.001197
Rotational constants in MHz :           180.804206            37.931329            35.890904

                             ****ORCA TERMINATED NORMALLY****
TOTAL RUN TIME: 0 days 0 hours 9 minutes 56 seconds 279 msec
