                         Program Version 6.0.0  -   RELEASE  -
|  1> ! B3LYP 6-31G* SP
|  2>
|  3> * xyz 0 1
|  4> C -5.1002 0.8895 -1.7370
|  5> C -4.3967 1.8989 -0.8373
|  6> O -3.0308 1.5360 -0.6455
|  7> C -2.6195 0.5008 0.2019
|  8> O -3.4623 -0.1374 0.8899
|  9> C -1.1913 0.1669 0.2893
| 10> S 0.0327 0.9375 -0.5684
| 11> C 1.2593 -0.0157 0.0918
| 12> C 2.7034 0.0952 -0.2170
| 13> C 3.1775 1.0549 -1.1316
| 14> C 4.5439 1.1490 -1.4142
| 15> C 5.4502 0.2894 -0.7898
| 16> C 4.9921 -0.6666 0.1192
| 17> C 3.6270 -0.7652 0.4057
| 18> N 0.7504 -0.9191 0.9616
| 19> C -0.6036 -0.8229 1.0746
| 20> O -1.3440 -1.6571 1.9166
| 21> C -0.7394 -2.6661 2.7158
| 22> H -5.1207 -0.1105 -1.2559
| 23> H -4.5697 0.8149 -2.7098
| 24> H -6.1448 1.2178 -1.9209
| 25> H -4.9191 1.9747 0.1411
| 26> H -4.4321 2.8959 -1.3247
| 27> H 2.4978 1.7335 -1.6298
| 28> H 4.9002 1.8896 -2.1186
| 29> H 6.5072 0.3642 -1.0102
| 30> H 5.6953 -1.3324 0.6027
| 31> H 3.2956 -1.5143 1.1139
| 32> H -1.5258 -3.1930 3.2941
| 33> H -0.0172 -2.2078 3.4243
| 34> H -0.2153 -3.4006 2.0682
| 35> *
| 36>
| 37>                          ****END OF INPUT****

CARTESIAN COORDINATES (ANGSTROEM)
---------------------------------
  C     -5.100200    0.889500   -1.737000
  C     -4.396700    1.898900   -0.837300
  O     -3.030800    1.536000   -0.645500
  C     -2.619500    0.500800    0.201900
  O     -3.462300   -0.137400    0.889900
  C     -1.191300    0.166900    0.289300
  S      0.032700    0.937500   -0.568400
  C      1.259300   -0.015700    0.091800
  C      2.703400    0.095200   -0.217000
  C      3.177500    1.054900   -1.131600
  C      4.543900    1.149000   -1.414200
  C      5.450200    0.289400   -0.789800
  C      4.992100   -0.666600    0.119200
  C      3.627000   -0.765200    0.405700
  N      0.750400   -0.919100    0.961600
  C     -0.603600   -0.822900    1.074600
  O     -1.344000   -1.657100    1.916600
  C     -0.739400   -2.666100    2.715800
  H     -5.120700   -0.110500   -1.255900
  H     -4.569700    0.814900   -2.709800
  H     -6.144800    1.217800   -1.920900
  H     -4.919100    1.974700    0.141100
  H     -4.432100    2.895900   -1.324700
  H      2.497800    1.733500   -1.629800
  H      4.900200    1.889600   -2.118600
  H      6.507200    0.364200   -1.010200
  H      5.695300   -1.332400    0.602700
  H      3.295600   -1.514300    1.113900
  H     -1.525800   -3.193000    3.294100
  H     -0.017200   -2.207800    3.424300
  H     -0.215300   -3.400600    2.068200

 Total Charge           Charge          ....    0
 Multiplicity           Mult            ....    1
 Number of Electrons    NEL             ....  138
 Basis Dimension        Dim             ....  282

ORBITAL ENERGIES
----------------

  NO   OCC          E(Eh)            E(eV)
   0   2.0000     -88.905334     -2419.2371
   1   2.0000     -19.172330      -521.7056
   2   2.0000     -19.171892      -521.6937
   3   2.0000     -19.115037      -520.1466
   4   2.0000     -14.338442      -390.1688
   5   2.0000     -10.316450      -280.7249
   6   2.0000     -10.288934      -279.9761
   7   2.0000     -10.264967      -279.3239
   8   2.0000     -10.234098      -278.4840
   9   2.0000     -10.229549      -278.3602
  10   2.0000     -10.221915      -278.1525
  11   2.0000     -10.215272      -277.9717
  12   2.0000     -10.199425      -277.5405
  13   2.0000     -10.194739      -277.4129
  14   2.0000     -10.194478      -277.4058
  15   2.0000     -10.194158      -277.3971
  16   2.0000     -10.192869      -277.3621
  17   2.0000     -10.167457      -276.6706
  18   2.0000      -7.982383      -217.2117
  19   2.0000      -5.945301      -161.7799
  20   2.0000      -5.941265      -161.6700
  21   2.0000      -5.939519      -161.6225
  22   2.0000      -1.067837       -29.0573
  23   2.0000      -1.053802       -28.6754
  24   2.0000      -0.979375       -26.6501
  25   2.0000      -0.967493       -26.3268
  26   2.0000      -0.864858       -23.5340
  27   2.0000      -0.822034       -22.3687
  28   2.0000      -0.789270       -21.4771
  29   2.0000      -0.757577       -20.6147
  30   2.0000      -0.753630       -20.5073
  31   2.0000      -0.740990       -20.1633
  32   2.0000      -0.690697       -18.7948
  33   2.0000      -0.660194       -17.9648
  34   2.0000      -0.630828       -17.1657
  35   2.0000      -0.617104       -16.7923
  36   2.0000      -0.592604       -16.1256
  37   2.0000      -0.567201       -15.4343
  38   2.0000      -0.548124       -14.9152
  39   2.0000      -0.521785       -14.1985
  40   2.0000      -0.513284       -13.9672
  41   2.0000      -0.492149       -13.3921
  42   2.0000      -0.476045       -12.9538
  43   2.0000      -0.466329       -12.6895
  44   2.0000      -0.462686       -12.5903
  45   2.0000      -0.448367       -12.2007
  46   2.0000      -0.443246       -12.0613
  47   2.0000      -0.438620       -11.9355
  48   2.0000      -0.434083       -11.8120
  49   2.0000      -0.428532       -11.6609
  50   2.0000      -0.423993       -11.5374
  51   2.0000      -0.417610       -11.3637
  52   2.0000      -0.389268       -10.5925
  53   2.0000      -0.379263       -10.3203
  54   2.0000      -0.375246       -10.2110
  55   2.0000      -0.366540        -9.9741
  56   2.0000      -0.361692        -9.8422
  57   2.0000      -0.357068        -9.7163
  58   2.0000      -0.354690        -9.6516
  59   2.0000      -0.327868        -8.9217
  60   2.0000      -0.327698        -8.9171
  61   2.0000      -0.323105        -8.7921
  62   2.0000      -0.292142        -7.9496
  63   2.0000      -0.280780        -7.6404
  64   2.0000      -0.278116        -7.5679
  65   2.0000      -0.263824        -7.1790
  66   2.0000      -0.258278        -7.0281
  67   2.0000      -0.250884        -6.8269
  68   2.0000      -0.216932        -5.9030
  69   0.0000      -0.069886        -1.9017
  70   0.0000      -0.011617        -0.3161
  71   0.0000      -0.005219        -0.1420
  72   0.0000       0.030012         0.8167
  73   0.0000       0.041734         1.1356

MULLIKEN ATOMIC CHARGES
-----------------------
   0 C :   -0.459672
   1 C :   -0.016212
   2 O :   -0.487908
   3 C :    0.586544
   4 O :   -0.455296
   5 C :   -0.278154
   6 S :    0.296474
   7 C :   -0.015179
   8 C :    0.139861
   9 C :   -0.187357
  10 C :   -0.132755
  11 C :   -0.116567
  12 C :   -0.127995
  13 C :   -0.152112
  14 N :   -0.433589
  15 C :    0.521623
  16 O :   -0.464480
  17 C :   -0.193342
  18 H :    0.180518
  19 H :    0.149607
  20 H :    0.140799
  21 H :    0.156911
  22 H :    0.149237
  23 H :    0.150306
  24 H :    0.137777
  25 H :    0.135771
  26 H :    0.137913
  27 H :    0.160846
  28 H :    0.168456
  29 H :    0.154092
  30 H :    0.153884
Sum of atomic charges:    0.0000000

LOEWDIN ATOMIC CHARGES
----------------------
   0 C :   -0.375156
   1 C :   -0.090261
   2 O :   -0.182750
   3 C :    0.179293
   4 O :   -0.261663
   5 C :   -0.271939
   6 S :    0.422801
   7 C :   -0.106012
   8 C :   -0.031196
   9 C :   -0.120230
  10 C :   -0.125381
  11 C :   -0.118597
  12 C :   -0.124994
  13 C :   -0.103053
  14 N :   -0.183002
  15 C :    0.121152
  16 O :   -0.158440
  17 C :   -0.195472
  18 H :    0.141254
  19 H :    0.126881
  20 H :    0.128259
  21 H :    0.125750
  22 H :    0.126422
  23 H :    0.140902
  24 H :    0.136167
  25 H :    0.135033
  26 H :    0.136269
  27 H :    0.149063
  28 H :    0.134970
  29 H :    0.122031
  30 H :    0.121899

  Mayer bond orders larger than 0.100000
B(  0-C ,  1-C ) :   1.0119 B(  0-C , 18-H ) :   0.9393 B(  0-C , 19-H ) :   0.9485
B(  0-C , 20-H ) :   0.9427 B(  1-C ,  2-O ) :   0.8673 B(  1-C , 21-H ) :   0.9249
B(  1-C , 22-H ) :   0.9404 B(  2-O ,  3-C ) :   0.9867 B(  3-C ,  4-O ) :   1.8147
B(  3-C ,  5-C ) :   1.0333 B(  5-C ,  6-S ) :   1.0648 B(  5-C ,  7-C ) :   0.1149
B(  5-C , 15-C ) :   1.4045 B(  6-S ,  7-C ) :   1.1711 B(  7-C ,  8-C ) :   1.0204
B(  7-C , 14-N ) :   1.4272 B(  8-C ,  9-C ) :   1.3898 B(  8-C , 13-C ) :   1.4052
B(  9-C , 10-C ) :   1.4512 B(  9-C , 23-H ) :   0.9161 B( 10-C , 11-C ) :   1.4449
B( 10-C , 24-H ) :   0.9285 B( 11-C , 12-C ) :   1.4423 B( 11-C , 25-H ) :   0.9292
B( 12-C , 13-C ) :   1.4377 B( 12-C , 26-H ) :   0.9289 B( 13-C , 27-H ) :   0.9124
B( 14-N , 15-C ) :   1.2749 B( 15-C , 16-O ) :   1.0159 B( 16-O , 17-C ) :   0.8998
B( 17-C , 28-H ) :   0.9434 B( 17-C , 29-H ) :   0.9358 B( 17-C , 30-H ) :   0.9358

FINAL SINGLE POINT ENERGY     -1181.277714660361

DIPOLE MOMENT
-------------

Method             : SCF
Type of density    : Electron Density
Multiplicity       :   1
Irrep              :   0
Energy             : -1181.2777146603611982 Eh
Relativity type    :
Basis              : AO
                                X                 Y                 Z
Electronic contribution:      5.801822172       2.255461954       1.370837781
Nuclear contribution   :     -4.627737007      -2.032645385      -1.826855173
                        -----------------------------------------
Total Dipole Moment    :      1.174085165       0.222816569      -0.456017393
                        -----------------------------------------
Magnitude (a.u.)       :      1.279091498
Magnitude (Debye)      :      3.251192212

Rotational constants in cm-1:             0.024015             0.006458             0.005180
Rotational constants in MHz :           719.942686           193.613312           155.277938

                             ****ORCA TERMINATED NORMALLY****
TOTAL RUN TIME: 0 days 0 hours 3 minutes 6 seconds 560 msec
