                         Program Version 6.0.0  -   RELEASE  -
|  1> ! B3LYP 6-31G* SP
|  2>
|  3> * xyz 0 1
|  4> O 7.2265 -1.0698 0.6980
|  5> C 6.5021 -0.0565 0.9018
|  6> O 6.9805 0.9744 1.7106
|  7> C 5.1579 0.0414 0.2895
|  8> C 4.3270 1.1418 0.5719
|  9> C 3.0552 1.2348 -0.0025
| 10> C 2.5965 0.2336 -0.8699
| 11> S 0.9798 0.3524 -1.5600
| 12> O 0.8029 1.7388 -2.1149
| 13> O 0.8064 -0.6392 -2.6773
| 14> N -0.1968 0.0397 -0.3175
| 15> C -0.0623 -1.1797 0.4912
| 16> C -1.2894 -2.0433 0.3534
| 17> C -2.1919 -2.1799 1.4230
| 18> C -3.3532 -2.9448 1.2695
| 19> C -3.6142 -3.5923 0.0569
| 20> C -2.7138 -3.4747 -1.0056
| 21> C -1.5583 -2.6967 -0.8620
| 22> C -1.2976 0.9493 -0.1284
| 23> C -1.7791 1.2483 1.1554
| 24> C -2.8554 2.1239 1.3011
| 25> C -3.4645 2.6894 0.1713
| 26> C -4.5903 3.6810 0.3185
| 27> F -5.4228 3.6419 -0.7863
| 28> F -5.3467 3.3949 1.4426
| 29> F -4.0647 4.9531 0.4415
| 30> C -2.9320 2.3896 -1.0922
| 31> N -1.8833 1.5332 -1.2097
| 32> C 3.4174 -0.8658 -1.1548
| 33> C 4.6895 -0.9624 -0.5800
| 34> H 7.8996 0.9193 2.1318
| 35> H 4.6560 1.9287 1.2409
| 36> H 2.4253 2.0851 0.2331
| 37> H 0.8202 -1.7694 0.1613
| 38> H 0.1267 -0.9097 1.5518
| 39> H -2.0060 -1.6824 2.3679
| 40> H -4.0532 -3.0321 2.0899
| 41> H -4.5148 -4.1819 -0.0606
| 42> H -2.9163 -3.9756 -1.9455
| 43> H -0.8763 -2.5989 -1.6987
| 44> H -1.3159 0.8307 2.0388
| 45> H -3.2034 2.3685 2.2970
| 46> H -3.3454 2.8379 -1.9857
| 47> H 3.0730 -1.6539 -1.8145
| 48> H 5.3052 -1.8228 -0.8160
| 49> *
| 50>
| 51>                          ****END OF INPUT****

CARTESIAN COORDINATES (ANGSTROEM)
---------------------------------
  O      7.226500   -1.069800    0.698000
  C      6.502100   -0.056500    0.901800
  O      6.980500    0.974400    1.710600
  C      5.157900    0.041400    0.289500
  C      4.327000    1.141800    0.571900
  C      3.055200    1.234800   -0.002500
  C      2.596500    0.233600   -0.869900
  S      0.979800    0.352400   -1.560000
  O      0.802900    1.738800   -2.114900
  O      0.806400   -0.639200   -2.677300
  N     -0.196800    0.039700   -0.317500
  C     -0.062300   -1.179700    0.491200
  C     -1.289400   -2.043300    0.353400
  C     -2.191900   -2.179900    1.423000
  C     -3.353200   -2.944800    1.269500
  C     -3.614200   -3.592300    0.056900
  C     -2.713800   -3.474700   -1.005600
  C     -1.558300   -2.696700   -0.862000
  C     -1.297600    0.949300   -0.128400
  C     -1.779100    1.248300    1.155400
  C     -2.855400    2.123900    1.301100
  C     -3.464500    2.689400    0.171300
  C     -4.590300    3.681000    0.318500
  F     -5.422800    3.641900   -0.786300
  F     -5.346700    3.394900    1.442600
  F     -4.064700    4.953100    0.441500
  C     -2.932000    2.389600   -1.092200
  N     -1.883300    1.533200   -1.209700
  C      3.417400   -0.865800   -1.154800
  C      4.689500   -0.962400   -0.580000
  H      7.899600    0.919300    2.131800
  H      4.656000    1.928700    1.240900
  H      2.425300    2.085100    0.233100
  H      0.820200   -1.769400    0.161300
  H      0.126700   -0.909700    1.551800
  H     -2.006000   -1.682400    2.367900
  H     -4.053200   -3.032100    2.089900
  H     -4.514800   -4.181900   -0.060600
  H     -2.916300   -3.975600   -1.945500
  H     -0.876300   -2.598900   -1.698700
  H     -1.315900    0.830700    2.038800
  H     -3.203400    2.368500    2.297000
  H     -3.345400    2.837900   -1.985700
  H      3.073000   -1.653900   -1.814500
  H      5.305200   -1.822800   -0.816000

 Total Charge           Charge          ....    0
 Multiplicity           Mult            ....    1
 Number of Electrons    NEL             ....  224
 Basis Dimension        Dim             ....  454

ORBITAL ENERGIES
----------------

  NO   OCC          E(Eh)            E(eV)
   0   2.0000     -89.104528     -2424.6575
   1   2.0000     -24.723178      -672.7519
   2   2.0000     -24.722495      -672.7333
   3   2.0000     -24.718900      -672.6355
   4   2.0000     -19.202216      -522.5189
   5   2.0000     -19.144802      -520.9565
   6   2.0000     -19.130167      -520.5583
   7   2.0000     -19.126620      -520.4618
   8   2.0000     -14.389583      -391.5605
   9   2.0000     -14.339529      -390.1984
  10   2.0000     -10.438968      -284.0588
  11   2.0000     -10.342260      -281.4272
  12   2.0000     -10.285517      -279.8832
  13   2.0000     -10.251707      -278.9631
  14   2.0000     -10.248740      -278.8824
  15   2.0000     -10.240559      -278.6598
  16   2.0000     -10.239506      -278.6311
  17   2.0000     -10.229619      -278.3621
  18   2.0000     -10.228628      -278.3351
  19   2.0000     -10.225908      -278.2611
  20   2.0000     -10.225628      -278.2535
  21   2.0000     -10.222445      -278.1669
  22   2.0000     -10.219231      -278.0794
  23   2.0000     -10.213285      -277.9176
  24   2.0000     -10.200099      -277.5588
  25   2.0000     -10.191974      -277.3377
  26   2.0000     -10.188166      -277.2341
  27   2.0000     -10.187035      -277.2033
  28   2.0000     -10.186243      -277.1818
  29   2.0000     -10.185272      -277.1553
  30   2.0000      -8.140192      -221.5059
  31   2.0000      -6.105426      -166.1371
  32   2.0000      -6.103059      -166.0727
  33   2.0000      -6.102799      -166.0656
  34   2.0000      -1.282562       -34.9003
  35   2.0000      -1.208203       -32.8769
  36   2.0000      -1.206630       -32.8341
  37   2.0000      -1.087433       -29.5906
  38   2.0000      -1.086114       -29.5547
  39   2.0000      -1.000948       -27.2372
  40   2.0000      -0.973313       -26.4852
  41   2.0000      -0.964568       -26.2472
  42   2.0000      -0.924832       -25.1660
  43   2.0000      -0.897753       -24.4291
  44   2.0000      -0.855963       -23.2919
  45   2.0000      -0.827396       -22.5146
  46   2.0000      -0.814938       -22.1756
  47   2.0000      -0.792433       -21.5632
  48   2.0000      -0.784495       -21.3472
  49   2.0000      -0.773615       -21.0511
  50   2.0000      -0.746874       -20.3235
  51   2.0000      -0.724468       -19.7138
  52   2.0000      -0.711693       -19.3661
  53   2.0000      -0.688438       -18.7333
  54   2.0000      -0.663249       -18.0479
  55   2.0000      -0.652200       -17.7473
  56   2.0000      -0.642782       -17.4910
  57   2.0000      -0.625675       -17.0255
  58   2.0000      -0.609824       -16.5941
  59   2.0000      -0.604897       -16.4601
  60   2.0000      -0.591350       -16.0915
  61   2.0000      -0.574790       -15.6408
  62   2.0000      -0.573359       -15.6019
  63   2.0000      -0.565436       -15.3863
  64   2.0000      -0.564031       -15.3481
  65   2.0000      -0.544845       -14.8260
  66   2.0000      -0.530876       -14.4459
  67   2.0000      -0.512456       -13.9446
  68   2.0000      -0.500510       -13.6196
  69   2.0000      -0.499610       -13.5951
  70   2.0000      -0.484271       -13.1777
  71   2.0000      -0.479040       -13.0354
  72   2.0000      -0.477924       -13.0050
  73   2.0000      -0.468303       -12.7432
  74   2.0000      -0.464430       -12.6378
  75   2.0000      -0.461326       -12.5533
  76   2.0000      -0.455955       -12.4072
  77   2.0000      -0.453494       -12.3402
  78   2.0000      -0.449846       -12.2409
  79   2.0000      -0.448375       -12.2009
  80   2.0000      -0.443566       -12.0700
  81   2.0000      -0.434584       -11.8256
  82   2.0000      -0.426928       -11.6173
  83   2.0000      -0.424649       -11.5553
  84   2.0000      -0.423926       -11.5356
  85   2.0000      -0.419589       -11.4176
  86   2.0000      -0.418720       -11.3940
  87   2.0000      -0.413369       -11.2483
  88   2.0000      -0.409950       -11.1553
  89   2.0000      -0.404669       -11.0116
  90   2.0000      -0.400471       -10.8974
  91   2.0000      -0.397748       -10.8233
  92   2.0000      -0.391777       -10.6608
  93   2.0000      -0.378001       -10.2859
  94   2.0000      -0.375854       -10.2275
  95   2.0000      -0.364816        -9.9272
  96   2.0000      -0.355317        -9.6687
  97   2.0000      -0.345940        -9.4135
  98   2.0000      -0.331419        -9.0184
  99   2.0000      -0.327499        -8.9117
 100   2.0000      -0.320902        -8.7322
 101   2.0000      -0.313343        -8.5265
 102   2.0000      -0.295669        -8.0455
 103   2.0000      -0.293144        -7.9769
 104   2.0000      -0.289319        -7.8728
 105   2.0000      -0.284176        -7.7328
 106   2.0000      -0.280994        -7.6462
 107   2.0000      -0.273018        -7.4292
 108   2.0000      -0.255058        -6.9405
 109   2.0000      -0.253589        -6.9005
 110   2.0000      -0.252349        -6.8668
 111   2.0000      -0.241246        -6.5647
 112   0.0000      -0.092559        -2.5187
 113   0.0000      -0.044408        -1.2084
 114   0.0000      -0.039564        -1.0766
 115   0.0000      -0.035182        -0.9573
 116   0.0000      -0.014713        -0.4004

MULLIKEN ATOMIC CHARGES
-----------------------
   0 O :   -0.441901
   1 C :    0.530204
   2 O :   -0.623810
   3 C :    0.082691
   4 C :   -0.146931
   5 C :   -0.141137
   6 C :   -0.133973
   7 S :    1.211923
   8 O :   -0.524786
   9 O :   -0.532838
  10 N :   -0.606724
  11 C :   -0.260542
  12 C :    0.159860
  13 C :   -0.172193
  14 C :   -0.126729
  15 C :   -0.122035
  16 C :   -0.126841
  17 C :   -0.168000
  18 C :    0.443010
  19 C :   -0.154496
  20 C :   -0.129037
  21 C :   -0.041051
  22 C :    0.897377
  23 F :   -0.303008
  24 F :   -0.306285
  25 F :   -0.294159
  26 C :    0.001025
  27 N :   -0.365643
  28 C :   -0.147198
  29 C :   -0.138502
  30 H :    0.435892
  31 H :    0.176026
  32 H :    0.181449
  33 H :    0.183291
  34 H :    0.157451
  35 H :    0.118529
  36 H :    0.130545
  37 H :    0.132641
  38 H :    0.138184
  39 H :    0.168994
  40 H :    0.138991
  41 H :    0.163755
  42 H :    0.179286
  43 H :    0.192148
  44 H :    0.184547
Sum of atomic charges:   -0.0000000

LOEWDIN ATOMIC CHARGES
----------------------
   0 O :   -0.258212
   1 C :    0.181665
   2 O :   -0.335238
   3 C :   -0.036661
   4 C :   -0.098545
   5 C :   -0.100163
   6 C :   -0.176215
   7 S :    1.265083
   8 O :   -0.552979
   9 O :   -0.570373
  10 N :   -0.273196
  11 C :   -0.149106
  12 C :   -0.039472
  13 C :   -0.134293
  14 C :   -0.128739
  15 C :   -0.124356
  16 C :   -0.122206
  17 C :   -0.117722
  18 C :    0.083690
  19 C :   -0.148071
  20 C :   -0.087320
  21 C :   -0.091539
  22 C :    0.309790
  23 F :   -0.110763
  24 F :   -0.114640
  25 F :   -0.111978
  26 C :   -0.040405
  27 N :   -0.107077
  28 C :   -0.105897
  29 C :   -0.084708
  30 H :    0.350812
  31 H :    0.156157
  32 H :    0.157787
  33 H :    0.149807
  34 H :    0.124465
  35 H :    0.126157
  36 H :    0.132614
  37 H :    0.133500
  38 H :    0.136002
  39 H :    0.148679
  40 H :    0.137873
  41 H :    0.149313
  42 H :    0.150704
  43 H :    0.163566
  44 H :    0.162209

  Mayer bond orders larger than 0.100000
B(  0-O ,  1-C ) :   1.8634 B(  1-C ,  2-O ) :   1.0254 B(  1-C ,  3-C ) :   1.0067
B(  2-O , 30-H ) :   0.7408 B(  3-C ,  4-C ) :   1.3797 B(  3-C , 29-C ) :   1.4049
B(  4-C ,  5-C ) :   1.4275 B(  4-C , 31-H ) :   0.9140 B(  5-C ,  6-C ) :   1.3867
B(  5-C , 32-H ) :   0.9121 B(  6-C ,  7-S ) :   0.8107 B(  6-C , 28-C ) :   1.3856
B(  7-S ,  8-O ) :   1.6441 B(  7-S ,  9-O ) :   1.6430 B(  7-S , 10-N ) :   0.7762
B( 10-N , 11-C ) :   0.9206 B( 10-N , 18-C ) :   0.9198 B( 11-C , 12-C ) :   0.9531
B( 11-C , 33-H ) :   0.9163 B( 11-C , 34-H ) :   0.9217 B( 12-C , 13-C ) :   1.4352
B( 12-C , 17-C ) :   1.4282 B( 13-C , 14-C ) :   1.4398 B( 13-C , 35-H ) :   0.9238
B( 14-C , 15-C ) :   1.4597 B( 14-C , 36-H ) :   0.9290 B( 15-C , 16-C ) :   1.4451
B( 15-C , 37-H ) :   0.9297 B( 16-C , 17-C ) :   1.4466 B( 16-C , 38-H ) :   0.9287
B( 17-C , 39-H ) :   0.9078 B( 18-C , 19-C ) :   1.3747 B( 18-C , 27-N ) :   1.3881
B( 19-C , 20-C ) :   1.4482 B( 19-C , 40-H ) :   0.9143 B( 20-C , 21-C ) :   1.4026
B( 20-C , 41-H ) :   0.9174 B( 21-C , 22-C ) :   0.9781 B( 21-C , 26-C ) :   1.3564
B( 22-C , 23-F ) :   0.9496 B( 22-C , 24-F ) :   0.9463 B( 22-C , 25-F ) :   0.9884
B( 26-C , 27-N ) :   1.4228 B( 26-C , 42-H ) :   0.9195 B( 28-C , 29-C ) :   1.4129
B( 28-C , 43-H ) :   0.9069 B( 29-C , 44-H ) :   0.9087

FINAL SINGLE POINT ENERGY     -1878.306571882254

DIPOLE MOMENT
-------------

Method             : SCF
Type of density    : Electron Density
Multiplicity       :   1
Irrep              :   0
Energy             : -1878.3065718822542749 Eh
Relativity type    :
Basis              : AO
                                X                 Y                 Z
Electronic contribution:    -16.371732122      26.113695822      -3.255738420
Nuclear contribution   :     17.129121000     -26.683493340       5.755889603
                        -----------------------------------------
Total Dipole Moment    :      0.757388878      -0.569797518       2.500151183
                        -----------------------------------------
Magnitude (a.u.)       :      2.673773188
Magnitude (Debye)      :      6.796191342

Rotational constants in cm-1:             0.006854             0.002419             0.002045
Rotational constants in MHz :           205.482403            72.514128            61.301094

                             ****ORCA TERMINATED NORMALLY****
TOTAL RUN TIME: 0 days 0 hours 5 minutes 25 seconds 258 msec
