                         Program Version 6.0.0  -   RELEASE  -
|  1> ! B3LYP 6-31G* SP
|  2>
|  3> * xyz 0 1
|  4> C -3.6312 1.7001 -0.3142
|  5> C -3.1701 1.3859 1.0916
|  6> C -2.0296 0.5754 1.3122
|  7> N -1.2246 0.1035 0.2236
|  8> C -0.4149 1.0370 -0.5657
|  9> C 1.0409 0.9236 -0.1973
| 10> C 1.9915 0.5536 -1.1606
| 11> C 3.3429 0.4498 -0.8175
| 12> C 3.7634 0.7062 0.5008
| 13> O 5.1026 0.5980 0.9073
| 14> C 6.1938 0.2027 0.0712
| 15> C 7.5104 0.4274 0.7929
| 16> C 8.4768 -0.5738 0.1820
| 17> C 7.6258 -1.7389 -0.3165
| 18> C 6.1673 -1.2944 -0.2297
| 19> C 2.8138 1.0867 1.4556
| 20> C 1.4648 1.2042 1.1103
| 21> S -1.1810 -1.5982 -0.1211
| 22> O -1.6412 -2.3812 1.0769
| 23> O 0.2246 -2.0216 -0.4437
| 24> C -2.2494 -1.9349 -1.4759
| 25> C -3.6330 -1.9872 -1.2738
| 26> C -4.4912 -2.2564 -2.3436
| 27> C -3.9748 -2.4739 -3.6340
| 28> C -4.8761 -2.7728 -4.7682
| 29> O -6.1251 -2.8110 -4.5983
| 30> O -4.3522 -3.0189 -6.0354
| 31> C -2.5852 -2.4038 -3.8319
| 32> C -1.7293 -2.1326 -2.7604
| 33> N -1.6746 0.2301 2.5780
| 34> C -2.3550 0.6581 3.6681
| 35> C -3.4553 1.5060 3.5203
| 36> C -4.1409 1.9782 4.6501
| 37> C -5.2278 2.8406 4.5022
| 38> C -5.6375 3.2376 3.2298
| 39> C -4.9684 2.7693 2.0954
| 40> C -3.8696 1.8894 2.2200
| 41> H -4.7207 1.5089 -0.4118
| 42> H -3.4148 2.7636 -0.5496
| 43> H -3.1408 1.0622 -1.0773
| 44> H -0.5730 0.8299 -1.6471
| 45> H -0.7425 2.0843 -0.3886
| 46> H 1.6875 0.3404 -2.1775
| 47> H 4.0473 0.1745 -1.5874
| 48> H 6.2002 0.7930 -0.8723
| 49> H 7.8731 1.4704 0.6656
| 50> H 7.3919 0.2109 1.8784
| 51> H 9.0071 -0.1001 -0.6753
| 52> H 9.2267 -0.9114 0.9297
| 53> H 7.7912 -2.6393 0.3156
| 54> H 7.8954 -1.9839 -1.3678
| 55> H 5.6368 -1.5082 -1.1810
| 56> H 5.6593 -1.8408 0.5968
| 57> H 3.1240 1.2927 2.4723
| 58> H 0.7511 1.5073 1.8655
| 59> H -4.0472 -1.8189 -0.2873
| 60> H -5.5576 -2.2970 -2.1599
| 61> H -4.9604 -3.2296 -6.8175
| 62> H -2.1575 -2.5588 -4.8143
| 63> H -0.6628 -2.0800 -2.9345
| 64> H -2.0222 0.3487 4.6515
| 65> H -3.8321 1.6846 5.6464
| 66> H -5.7503 3.2065 5.3762
| 67> H -6.4773 3.9127 3.1211
| 68> H -5.3127 3.1136 1.1299
| 69> *
| 70>
| 71>                          ****END OF INPUT****

CARTESIAN COORDINATES (ANGSTROEM)
---------------------------------
  C     -3.631200    1.700100   -0.314200
  C     -3.170100    1.385900    1.091600
  C     -2.029600    0.575400    1.312200
  N     -1.224600    0.103500    0.223600
  C     -0.414900    1.037000   -0.565700
  C      1.040900    0.923600   -0.197300
  C      1.991500    0.553600   -1.160600
  C      3.342900    0.449800   -0.817500
  C      3.763400    0.706200    0.500800
  O      5.102600    0.598000    0.907300
  C      6.193800    0.202700    0.071200
  C      7.510400    0.427400    0.792900
  C      8.476800   -0.573800    0.182000
  C      7.625800   -1.738900   -0.316500
  C      6.167300   -1.294400   -0.229700
  C      2.813800    1.086700    1.455600
  C      1.464800    1.204200    1.110300
  S     -1.181000   -1.598200   -0.121100
  O     -1.641200   -2.381200    1.076900
  O      0.224600   -2.021600   -0.443700
  C     -2.249400   -1.934900   -1.475900
  C     -3.633000   -1.987200   -1.273800
  C     -4.491200   -2.256400   -2.343600
  C     -3.974800   -2.473900   -3.634000
  C     -4.876100   -2.772800   -4.768200
  O     -6.125100   -2.811000   -4.598300
  O     -4.352200   -3.018900   -6.035400
  C     -2.585200   -2.403800   -3.831900
  C     -1.729300   -2.132600   -2.760400
  N     -1.674600    0.230100    2.578000
  C     -2.355000    0.658100    3.668100
  C     -3.455300    1.506000    3.520300
  C     -4.140900    1.978200    4.650100
  C     -5.227800    2.840600    4.502200
  C     -5.637500    3.237600    3.229800
  C     -4.968400    2.769300    2.095400
  C     -3.869600    1.889400    2.220000
  H     -4.720700    1.508900   -0.411800
  H     -3.414800    2.763600   -0.549600
  H     -3.140800    1.062200   -1.077300
  H     -0.573000    0.829900   -1.647100
  H     -0.742500    2.084300   -0.388600
  H      1.687500    0.340400   -2.177500
  H      4.047300    0.174500   -1.587400
  H      6.200200    0.793000   -0.872300
  H      7.873100    1.470400    0.665600
  H      7.391900    0.210900    1.878400
  H      9.007100   -0.100100   -0.675300
  H      9.226700   -0.911400    0.929700
  H      7.791200   -2.639300    0.315600
  H      7.895400   -1.983900   -1.367800
  H      5.636800   -1.508200   -1.181000
  H      5.659300   -1.840800    0.596800
  H      3.124000    1.292700    2.472300
  H      0.751100    1.507300    1.865500
  H     -4.047200   -1.818900   -0.287300
  H     -5.557600   -2.297000   -2.159900
  H     -4.960400   -3.229600   -6.817500
  H     -2.157500   -2.558800   -4.814300
  H     -0.662800   -2.080000   -2.934500
  H     -2.022200    0.348700    4.651500
  H     -3.832100    1.684600    5.646400
  H     -5.750300    3.206500    5.376200
  H     -6.477300    3.912700    3.121100
  H     -5.312700    3.113600    1.129900

 Total Charge           Charge          ....    0
 Multiplicity           Mult            ....    1
 Number of Electrons    NEL             ....  272
 Basis Dimension        Dim             ....  578

ORBITAL ENERGIES
----------------

  NO   OCC          E(Eh)            E(eV)
   0   2.0000     -89.091462     -2424.3019
   1   2.0000     -19.196470      -522.3625
   2   2.0000     -19.147831      -521.0390
   3   2.0000     -19.138103      -520.7743
   4   2.0000     -19.118080      -520.2294
   5   2.0000     -19.117549      -520.2150
   6   2.0000     -14.366268      -390.9260
   7   2.0000     -14.325491      -389.8164
   8   2.0000     -10.335545      -281.2445
   9   2.0000     -10.258918      -279.1593
  10   2.0000     -10.240082      -278.6468
  11   2.0000     -10.231294      -278.4077
  12   2.0000     -10.231243      -278.4063
  13   2.0000     -10.229758      -278.3659
  14   2.0000     -10.226118      -278.2668
  15   2.0000     -10.221397      -278.1384
  16   2.0000     -10.219484      -278.0863
  17   2.0000     -10.218577      -278.0616
  18   2.0000     -10.217109      -278.0217
  19   2.0000     -10.216798      -278.0132
  20   2.0000     -10.209570      -277.8165
  21   2.0000     -10.206594      -277.7355
  22   2.0000     -10.198544      -277.5165
  23   2.0000     -10.197969      -277.5008
  24   2.0000     -10.196853      -277.4705
  25   2.0000     -10.196245      -277.4539
  26   2.0000     -10.194883      -277.4169
  27   2.0000     -10.190963      -277.3102
  28   2.0000     -10.171845      -276.7900
  29   2.0000     -10.171424      -276.7785
  30   2.0000     -10.168852      -276.7085
  31   2.0000     -10.168018      -276.6858
  32   2.0000     -10.166580      -276.6467
  33   2.0000     -10.166353      -276.6405
  34   2.0000     -10.166151      -276.6350
  35   2.0000     -10.165147      -276.6077
  36   2.0000     -10.162355      -276.5317
  37   2.0000      -8.126895      -221.1441
  38   2.0000      -6.091991      -165.7715
  39   2.0000      -6.089866      -165.7137
  40   2.0000      -6.089626      -165.7072
  41   2.0000      -1.080906       -29.4130
  42   2.0000      -1.075968       -29.2786
  43   2.0000      -1.027537       -27.9607
  44   2.0000      -0.995220       -27.0813
  45   2.0000      -0.958333       -26.0776
  46   2.0000      -0.953267       -25.9397
  47   2.0000      -0.910408       -24.7735
  48   2.0000      -0.889557       -24.2061
  49   2.0000      -0.863467       -23.4961
  50   2.0000      -0.840812       -22.8797
  51   2.0000      -0.825578       -22.4651
  52   2.0000      -0.809001       -22.0140
  53   2.0000      -0.804709       -21.8972
  54   2.0000      -0.776166       -21.1206
  55   2.0000      -0.775849       -21.1119
  56   2.0000      -0.757477       -20.6120
  57   2.0000      -0.742159       -20.1952
  58   2.0000      -0.731423       -19.9030
  59   2.0000      -0.714201       -19.4344
  60   2.0000      -0.709808       -19.3149
  61   2.0000      -0.704435       -19.1687
  62   2.0000      -0.691533       -18.8176
  63   2.0000      -0.667364       -18.1599
  64   2.0000      -0.651778       -17.7358
  65   2.0000      -0.643699       -17.5159
  66   2.0000      -0.637515       -17.3477
  67   2.0000      -0.617180       -16.7943
  68   2.0000      -0.602921       -16.4063
  69   2.0000      -0.596503       -16.2317
  70   2.0000      -0.592420       -16.1206
  71   2.0000      -0.581410       -15.8210
  72   2.0000      -0.559588       -15.2272
  73   2.0000      -0.553610       -15.0645
  74   2.0000      -0.551207       -14.9991
  75   2.0000      -0.541458       -14.7338
  76   2.0000      -0.529407       -14.4059
  77   2.0000      -0.520851       -14.1731
  78   2.0000      -0.509933       -13.8760
  79   2.0000      -0.500973       -13.6322
  80   2.0000      -0.488947       -13.3049
  81   2.0000      -0.482045       -13.1171
  82   2.0000      -0.477685       -12.9985
  83   2.0000      -0.476469       -12.9654
  84   2.0000      -0.472838       -12.8666
  85   2.0000      -0.467697       -12.7267
  86   2.0000      -0.461312       -12.5529
  87   2.0000      -0.455690       -12.3999
  88   2.0000      -0.450136       -12.2488
  89   2.0000      -0.447906       -12.1881
  90   2.0000      -0.445676       -12.1275
  91   2.0000      -0.442352       -12.0370
  92   2.0000      -0.440159       -11.9773
  93   2.0000      -0.437670       -11.9096
  94   2.0000      -0.430202       -11.7064
  95   2.0000      -0.428086       -11.6488
  96   2.0000      -0.415872       -11.3165
  97   2.0000      -0.414425       -11.2771
  98   2.0000      -0.412977       -11.2377
  99   2.0000      -0.409189       -11.1346
 100   2.0000      -0.406161       -11.0522
 101   2.0000      -0.399653       -10.8751
 102   2.0000      -0.398973       -10.8566
 103   2.0000      -0.396587       -10.7917
 104   2.0000      -0.391592       -10.6558
 105   2.0000      -0.387091       -10.5333
 106   2.0000      -0.385180       -10.4813
 107   2.0000      -0.370539       -10.0829
 108   2.0000      -0.367891       -10.0108
 109   2.0000      -0.367518       -10.0007
 110   2.0000      -0.360946        -9.8218
 111   2.0000      -0.353175        -9.6104
 112   2.0000      -0.351959        -9.5773
 113   2.0000      -0.348112        -9.4726
 114   2.0000      -0.337682        -9.1888
 115   2.0000      -0.330429        -8.9914
 116   2.0000      -0.328519        -8.9395
 117   2.0000      -0.325770        -8.8646
 118   2.0000      -0.320885        -8.7317
 119   2.0000      -0.319246        -8.6871
 120   2.0000      -0.306802        -8.3485
 121   2.0000      -0.303975        -8.2716
 122   2.0000      -0.294893        -8.0244
 123   2.0000      -0.292428        -7.9574
 124   2.0000      -0.289716        -7.8836
 125   2.0000      -0.282867        -7.6972
 126   2.0000      -0.280277        -7.6267
 127   2.0000      -0.277548        -7.5525
 128   2.0000      -0.274941        -7.4815
 129   2.0000      -0.271932        -7.3996
 130   2.0000      -0.259545        -7.0626
 131   2.0000      -0.250781        -6.8241
 132   2.0000      -0.243109        -6.6153
 133   2.0000      -0.232551        -6.3280
 134   2.0000      -0.221289        -6.0216
 135   2.0000      -0.198659        -5.4058
 136   0.0000      -0.082452        -2.2436
 137   0.0000      -0.059710        -1.6248
 138   0.0000      -0.031853        -0.8668
 139   0.0000      -0.026788        -0.7290
 140   0.0000       0.011702         0.3184

MULLIKEN ATOMIC CHARGES
-----------------------
   0 C :   -0.542479
   1 C :    0.091367
   2 C :    0.306376
   3 N :   -0.599728
   4 C :   -0.264756
   5 C :    0.189285
   6 C :   -0.151605
   7 C :   -0.198646
   8 C :    0.372859
   9 O :   -0.539265
  10 C :    0.173569
  11 C :   -0.290790
  12 C :   -0.270041
  13 C :   -0.269167
  14 C :   -0.295362
  15 C :   -0.179537
  16 C :   -0.151373
  17 S :    1.205949
  18 O :   -0.527388
  19 O :   -0.531518
  20 C :   -0.119499
  21 C :   -0.146926
  22 C :   -0.142547
  23 C :    0.082903
  24 C :    0.527829
  25 O :   -0.445340
  26 O :   -0.624021
  27 C :   -0.146749
  28 C :   -0.152784
  29 N :   -0.352406
  30 C :   -0.055253
  31 C :    0.136288
  32 C :   -0.201900
  33 C :   -0.127492
  34 C :   -0.120405
  35 C :   -0.201965
  36 C :    0.123994
  37 H :    0.163485
  38 H :    0.163051
  39 H :    0.169708
  40 H :    0.148525
  41 H :    0.174454
  42 H :    0.114168
  43 H :    0.125385
  44 H :    0.118474
  45 H :    0.138401
  46 H :    0.149502
  47 H :    0.131371
  48 H :    0.138976
  49 H :    0.139492
  50 H :    0.132980
  51 H :    0.139166
  52 H :    0.158737
  53 H :    0.133455
  54 H :    0.137821
  55 H :    0.184100
  56 H :    0.179417
  57 H :    0.433967
  58 H :    0.172158
  59 H :    0.184676
  60 H :    0.156535
  61 H :    0.141206
  62 H :    0.136006
  63 H :    0.137060
  64 H :    0.136247
Sum of atomic charges:    0.0000000

LOEWDIN ATOMIC CHARGES
----------------------
   0 C :   -0.361786
   1 C :   -0.026510
   2 C :    0.028070
   3 N :   -0.281100
   4 C :   -0.144680
   5 C :   -0.048352
   6 C :   -0.116033
   7 C :   -0.173279
   8 C :    0.092813
   9 O :   -0.181487
  10 C :    0.001751
  11 C :   -0.233404
  12 C :   -0.233661
  13 C :   -0.235254
  14 C :   -0.245590
  15 C :   -0.146179
  16 C :   -0.112627
  17 S :    1.268168
  18 O :   -0.555177
  19 O :   -0.561111
  20 C :   -0.175178
  21 C :   -0.104501
  22 C :   -0.087288
  23 C :   -0.041014
  24 C :    0.180047
  25 O :   -0.261602
  26 O :   -0.335193
  27 C :   -0.099410
  28 C :   -0.109574
  29 N :   -0.108474
  30 C :   -0.056328
  31 C :   -0.030177
  32 C :   -0.110236
  33 C :   -0.127844
  34 C :   -0.117616
  35 C :   -0.127395
  36 C :   -0.007759
  37 H :    0.137031
  38 H :    0.137368
  39 H :    0.138604
  40 H :    0.123643
  41 H :    0.143781
  42 H :    0.125668
  43 H :    0.131721
  44 H :    0.107208
  45 H :    0.123860
  46 H :    0.129653
  47 H :    0.117042
  48 H :    0.123848
  49 H :    0.123120
  50 H :    0.119272
  51 H :    0.122726
  52 H :    0.134605
  53 H :    0.138922
  54 H :    0.137999
  55 H :    0.159203
  56 H :    0.159759
  57 H :    0.349643
  58 H :    0.154332
  59 H :    0.159500
  60 H :    0.139438
  61 H :    0.138112
  62 H :    0.135490
  63 H :    0.136187
  64 H :    0.137233

  Mayer bond orders larger than 0.100000
B(  0-C ,  1-C ) :   0.9970 B(  0-C , 37-H ) :   0.9295 B(  0-C , 38-H ) :   0.9263
B(  0-C , 39-H ) :   0.9302 B(  1-C ,  2-C ) :   1.4283 B(  1-C , 30-C ) :   0.1014
B(  1-C , 36-C ) :   1.2656 B(  2-C ,  3-N ) :   0.8952 B(  2-C , 29-N ) :   1.2853
B(  3-N ,  4-C ) :   0.9137 B(  3-N , 17-S ) :   0.7999 B(  4-C ,  5-C ) :   0.9532
B(  4-C , 40-H ) :   0.9283 B(  4-C , 41-H ) :   0.9195 B(  5-C ,  6-C ) :   1.4432
B(  5-C , 16-C ) :   1.4161 B(  6-C ,  7-C ) :   1.4283 B(  6-C , 42-H ) :   0.9231
B(  7-C ,  8-C ) :   1.3728 B(  7-C , 43-H ) :   0.9162 B(  8-C ,  9-O ) :   0.9140
B(  8-C , 15-C ) :   1.3926 B(  9-O , 10-C ) :   0.8805 B( 10-C , 11-C ) :   1.0041
B( 10-C , 14-C ) :   0.9828 B( 10-C , 44-H ) :   0.9170 B( 11-C , 12-C ) :   0.9965
B( 11-C , 45-H ) :   0.9451 B( 11-C , 46-H ) :   0.9381 B( 12-C , 13-C ) :   0.9952
B( 12-C , 47-H ) :   0.9514 B( 12-C , 48-H ) :   0.9509 B( 13-C , 14-C ) :   0.9946
B( 13-C , 49-H ) :   0.9531 B( 13-C , 50-H ) :   0.9534 B( 14-C , 51-H ) :   0.9428
B( 14-C , 52-H ) :   0.9394 B( 15-C , 16-C ) :   1.4544 B( 15-C , 53-H ) :   0.9205
B( 16-C , 54-H ) :   0.9152 B( 17-S , 18-O ) :   1.6538 B( 17-S , 19-O ) :   1.6430
B( 17-S , 20-C ) :   0.8108 B( 20-C , 21-C ) :   1.3753 B( 20-C , 28-C ) :   1.3998
B( 21-C , 22-C ) :   1.4283 B( 21-C , 55-H ) :   0.9099 B( 22-C , 23-C ) :   1.3966
B( 22-C , 56-H ) :   0.9099 B( 23-C , 24-C ) :   1.0090 B( 23-C , 27-C ) :   1.3888
B( 24-C , 25-O ) :   1.8620 B( 24-C , 26-O ) :   1.0244 B( 26-O , 57-H ) :   0.7419
B( 27-C , 28-C ) :   1.4083 B( 27-C , 58-H ) :   0.9151 B( 28-C , 59-H ) :   0.9084
B( 29-N , 30-C ) :   1.4995 B( 30-C , 31-C ) :   1.2279 B( 30-C , 60-H ) :   0.9258
B( 31-C , 32-C ) :   1.2850 B( 31-C , 36-C ) :   1.2915 B( 32-C , 33-C ) :   1.5117
B( 32-C , 35-C ) :   0.1061 B( 32-C , 61-H ) :   0.9229 B( 33-C , 34-C ) :   1.3540
B( 33-C , 62-H ) :   0.9293 B( 34-C , 35-C ) :   1.5088 B( 34-C , 63-H ) :   0.9291
B( 35-C , 36-C ) :   1.2935 B( 35-C , 64-H ) :   0.9173

FINAL SINGLE POINT ENERGY     -2004.611106754160

DIPOLE MOMENT
-------------

Method             : SCF
Type of density    : Electron Density
Multiplicity       :   1
Irrep              :   0
Energy             : -2004.6111067541603461 Eh
Relativity type    :
Basis              : AO
                                X                 Y                 Z
Electronic contribution:    -38.018292685      -9.696365657      -2.419909560
Nuclear contribution   :     37.152445711      11.460578126       1.120965576
                        -----------------------------------------
Total Dipole Moment    :     -0.865846974       1.764212470      -1.298943984
                        -----------------------------------------
Magnitude (a.u.)       :      2.355714773
Magnitude (Debye)      :      5.987751099

Rotational constants in cm-1:             0.003471             0.001828             0.001284
Rotational constants in MHz :           104.064609            54.816145            38.480328

                             ****ORCA TERMINATED NORMALLY****
TOTAL RUN TIME: 0 days 0 hours 9 minutes 10 seconds 137 msec
