                         Program Version 6.0.0  -   RELEASE  -
|  1> ! B3LYP 6-31G* SP
|  2>
|  3> * xyz 0 1
|  4> O 5.9163 -4.1765 2.1866
|  5> C 5.7985 -2.9233 2.2582
|  6> O 6.6477 -2.2055 3.0967
|  7> C 4.7703 -2.2204 1.4597
|  8> C 4.6365 -0.8232 1.5458
|  9> C 3.6676 -0.1560 0.7897
| 10> C 2.8236 -0.8731 -0.0668
| 11> S 1.6042 -0.0224 -1.0095
| 12> O 1.0574 -0.9161 -2.0873
| 13> O 2.2442 1.1728 -1.6594
| 14> N 0.3100 0.4894 0.0299
| 15> C -0.3576 -0.4749 0.9039
| 16> C -1.6857 -0.8614 0.3158
| 17> C -1.7917 -1.9898 -0.5112
| 18> C -3.0124 -2.3145 -1.1096
| 19> C -4.1453 -1.5047 -0.8991
| 20> O -5.3930 -1.7783 -1.4824
| 21> C -5.6877 -2.9015 -2.3104
| 22> F -5.4722 -4.0772 -1.6119
| 23> F -7.0151 -2.8451 -2.6893
| 24> F -4.8994 -2.8764 -3.4465
| 25> C -4.0316 -0.3750 -0.0804
| 26> C -2.8123 -0.0513 0.5211
| 27> C -0.0715 1.8694 0.0700
| 28> N 0.2081 2.6051 1.1788
| 29> C -0.1429 3.9134 1.2854
| 30> C -0.8380 4.5471 0.2431
| 31> C -1.2196 6.0037 0.3197
| 32> F -1.1587 6.4729 1.6200
| 33> F -0.3562 6.7445 -0.4658
| 34> F -2.5121 6.1764 -0.1439
| 35> C -1.1240 3.8081 -0.9134
| 36> C -0.7505 2.4653 -1.0055
| 37> Cl -1.1799 1.5520 -2.4458
| 38> C 2.9436 -2.2665 -0.1496
| 39> C 3.9109 -2.9362 0.6059
| 40> H 7.3578 -2.6769 3.6446
| 41> H 5.2791 -0.2440 2.1974
| 42> H 3.5750 0.9202 0.8722
| 43> H 0.2743 -1.3792 1.0340
| 44> H -0.4952 -0.0389 1.9178
| 45> H -0.9269 -2.6135 -0.6996
| 46> H -3.0589 -3.1906 -1.7391
| 47> H -4.8924 0.2607 0.0836
| 48> H -2.7440 0.8351 1.1397
| 49> H 0.1186 4.4516 2.1865
| 50> H -1.6424 4.2755 -1.7427
| 51> H 2.2885 -2.8374 -0.7956
| 52> H 3.9846 -4.0135 0.5216
| 53> *
| 54>
| 55>                          ****END OF INPUT****

CARTESIAN COORDINATES (ANGSTROEM)
---------------------------------
  O      5.916300   -4.176500    2.186600
  C      5.798500   -2.923300    2.258200
  O      6.647700   -2.205500    3.096700
  C      4.770300   -2.220400    1.459700
  C      4.636500   -0.823200    1.545800
  C      3.667600   -0.156000    0.789700
  C      2.823600   -0.873100   -0.066800
  S      1.604200   -0.022400   -1.009500
  O      1.057400   -0.916100   -2.087300
  O      2.244200    1.172800   -1.659400
  N      0.310000    0.489400    0.029900
  C     -0.357600   -0.474900    0.903900
  C     -1.685700   -0.861400    0.315800
  C     -1.791700   -1.989800   -0.511200
  C     -3.012400   -2.314500   -1.109600
  C     -4.145300   -1.504700   -0.899100
  O     -5.393000   -1.778300   -1.482400
  C     -5.687700   -2.901500   -2.310400
  F     -5.472200   -4.077200   -1.611900
  F     -7.015100   -2.845100   -2.689300
  F     -4.899400   -2.876400   -3.446500
  C     -4.031600   -0.375000   -0.080400
  C     -2.812300   -0.051300    0.521100
  C     -0.071500    1.869400    0.070000
  N      0.208100    2.605100    1.178800
  C     -0.142900    3.913400    1.285400
  C     -0.838000    4.547100    0.243100
  C     -1.219600    6.003700    0.319700
  F     -1.158700    6.472900    1.620000
  F     -0.356200    6.744500   -0.465800
  F     -2.512100    6.176400   -0.143900
  C     -1.124000    3.808100   -0.913400
  C     -0.750500    2.465300   -1.005500
  Cl    -1.179900    1.552000   -2.445800
  C      2.943600   -2.266500   -0.149600
  C      3.910900   -2.936200    0.605900
  H      7.357800   -2.676900    3.644600
  H      5.279100   -0.244000    2.197400
  H      3.575000    0.920200    0.872200
  H      0.274300   -1.379200    1.034000
  H     -0.495200   -0.038900    1.917800
  H     -0.926900   -2.613500   -0.699600
  H     -3.058900   -3.190600   -1.739100
  H     -4.892400    0.260700    0.083600
  H     -2.744000    0.835100    1.139700
  H      0.118600    4.451600    2.186500
  H     -1.642400    4.275500   -1.742700
  H      2.288500   -2.837400   -0.795600
  H      3.984600   -4.013500    0.521600

 Total Charge           Charge          ....    0
 Multiplicity           Mult            ....    1
 Number of Electrons    NEL             ....  280
 Basis Dimension        Dim             ....  538

ORBITAL ENERGIES
----------------

  NO   OCC          E(Eh)            E(eV)
   0   2.0000    -101.539106     -2763.0195
   1   2.0000     -89.108758     -2424.7726
   2   2.0000     -24.740776      -673.2307
   3   2.0000     -24.738382      -673.1656
   4   2.0000     -24.738213      -673.1610
   5   2.0000     -24.737947      -673.1538
   6   2.0000     -24.734483      -673.0595
   7   2.0000     -24.731802      -672.9865
   8   2.0000     -19.213067      -522.8141
   9   2.0000     -19.202530      -522.5274
  10   2.0000     -19.144777      -520.9559
  11   2.0000     -19.134951      -520.6885
  12   2.0000     -19.133429      -520.6471
  13   2.0000     -14.386230      -391.4692
  14   2.0000     -14.366960      -390.9449
  15   2.0000     -10.503517      -285.8152
  16   2.0000     -10.454457      -284.4802
  17   2.0000     -10.342289      -281.4280
  18   2.0000     -10.298687      -280.2415
  19   2.0000     -10.278912      -279.7034
  20   2.0000     -10.270096      -279.4635
  21   2.0000     -10.257821      -279.1295
  22   2.0000     -10.252502      -278.9848
  23   2.0000     -10.245862      -278.8041
  24   2.0000     -10.242845      -278.7220
  25   2.0000     -10.240813      -278.6667
  26   2.0000     -10.239890      -278.6416
  27   2.0000     -10.229644      -278.3628
  28   2.0000     -10.229515      -278.3592
  29   2.0000     -10.225820      -278.2587
  30   2.0000     -10.225743      -278.2566
  31   2.0000     -10.200347      -277.5655
  32   2.0000     -10.199925      -277.5541
  33   2.0000     -10.199023      -277.5295
  34   2.0000     -10.197050      -277.4758
  35   2.0000     -10.196619      -277.4641
  36   2.0000      -9.470159      -257.6961
  37   2.0000      -8.144502      -221.6232
  38   2.0000      -7.233724      -196.8396
  39   2.0000      -7.223655      -196.5657
  40   2.0000      -7.223095      -196.5504
  41   2.0000      -6.109770      -166.2553
  42   2.0000      -6.107357      -166.1896
  43   2.0000      -6.107061      -166.1816
  44   2.0000      -1.303247       -35.4631
  45   2.0000      -1.296012       -35.2663
  46   2.0000      -1.223829       -33.3021
  47   2.0000      -1.223661       -33.2975
  48   2.0000      -1.222021       -33.2529
  49   2.0000      -1.219033       -33.1716
  50   2.0000      -1.093452       -29.7543
  51   2.0000      -1.087219       -29.5847
  52   2.0000      -1.082846       -29.4657
  53   2.0000      -1.001634       -27.2558
  54   2.0000      -0.990361       -26.9491
  55   2.0000      -0.970946       -26.4208
  56   2.0000      -0.936381       -25.4802
  57   2.0000      -0.899154       -24.4672
  58   2.0000      -0.885288       -24.0899
  59   2.0000      -0.867034       -23.5932
  60   2.0000      -0.839587       -22.8463
  61   2.0000      -0.815903       -22.2018
  62   2.0000      -0.792328       -21.5603
  63   2.0000      -0.785111       -21.3640
  64   2.0000      -0.775014       -21.0892
  65   2.0000      -0.760564       -20.6960
  66   2.0000      -0.734933       -19.9985
  67   2.0000      -0.732583       -19.9346
  68   2.0000      -0.706972       -19.2377
  69   2.0000      -0.686133       -18.6706
  70   2.0000      -0.670170       -18.2363
  71   2.0000      -0.656025       -17.8513
  72   2.0000      -0.646887       -17.6027
  73   2.0000      -0.636272       -17.3138
  74   2.0000      -0.631466       -17.1831
  75   2.0000      -0.621749       -16.9186
  76   2.0000      -0.607513       -16.5313
  77   2.0000      -0.595305       -16.1991
  78   2.0000      -0.591923       -16.1070
  79   2.0000      -0.587714       -15.9925
  80   2.0000      -0.586023       -15.9465
  81   2.0000      -0.576252       -15.6806
  82   2.0000      -0.573580       -15.6079
  83   2.0000      -0.570924       -15.5356
  84   2.0000      -0.550026       -14.9670
  85   2.0000      -0.532553       -14.4915
  86   2.0000      -0.528237       -14.3741
  87   2.0000      -0.503025       -13.6880
  88   2.0000      -0.501326       -13.6418
  89   2.0000      -0.494940       -13.4680
  90   2.0000      -0.482266       -13.1231
  91   2.0000      -0.478551       -13.0220
  92   2.0000      -0.477697       -12.9988
  93   2.0000      -0.471115       -12.8197
  94   2.0000      -0.469139       -12.7659
  95   2.0000      -0.468372       -12.7451
  96   2.0000      -0.464819       -12.6484
  97   2.0000      -0.463073       -12.6009
  98   2.0000      -0.460791       -12.5388
  99   2.0000      -0.460655       -12.5351
 100   2.0000      -0.456450       -12.4206
 101   2.0000      -0.451912       -12.2972
 102   2.0000      -0.449129       -12.2214
 103   2.0000      -0.444730       -12.1017
 104   2.0000      -0.441383       -12.0107
 105   2.0000      -0.436668       -11.8823
 106   2.0000      -0.434204       -11.8153
 107   2.0000      -0.433171       -11.7872
 108   2.0000      -0.431654       -11.7459
 109   2.0000      -0.429856       -11.6970
 110   2.0000      -0.424169       -11.5422
 111   2.0000      -0.422918       -11.5082
 112   2.0000      -0.415589       -11.3088
 113   2.0000      -0.415101       -11.2955
 114   2.0000      -0.413361       -11.2481
 115   2.0000      -0.407091       -11.0775
 116   2.0000      -0.401161       -10.9162
 117   2.0000      -0.397104       -10.8057
 118   2.0000      -0.393082       -10.6963
 119   2.0000      -0.389440       -10.5972
 120   2.0000      -0.379688       -10.3318
 121   2.0000      -0.376206       -10.2371
 122   2.0000      -0.362738        -9.8706
 123   2.0000      -0.351255        -9.5581
 124   2.0000      -0.349877        -9.5206
 125   2.0000      -0.335301        -9.1240
 126   2.0000      -0.332363        -9.0441
 127   2.0000      -0.327970        -8.9245
 128   2.0000      -0.316105        -8.6016
 129   2.0000      -0.313112        -8.5202
 130   2.0000      -0.302489        -8.2312
 131   2.0000      -0.291236        -7.9249
 132   2.0000      -0.288529        -7.8513
 133   2.0000      -0.286452        -7.7948
 134   2.0000      -0.285804        -7.7771
 135   2.0000      -0.281134        -7.6501
 136   2.0000      -0.274130        -7.4594
 137   2.0000      -0.262400        -7.1403
 138   2.0000      -0.260997        -7.1021
 139   2.0000      -0.240152        -6.5349
 140   0.0000      -0.095079        -2.5872
 141   0.0000      -0.069725        -1.8973
 142   0.0000      -0.052468        -1.4277
 143   0.0000      -0.039225        -1.0674
 144   0.0000      -0.015412        -0.4194

MULLIKEN ATOMIC CHARGES
-----------------------
   0 O :   -0.441145
   1 C :    0.530316
   2 O :   -0.622863
   3 C :    0.083841
   4 C :   -0.146856
   5 C :   -0.136058
   6 C :   -0.137648
   7 S :    1.227113
   8 O :   -0.535631
   9 O :   -0.542658
  10 N :   -0.597375
  11 C :   -0.276040
  12 C :    0.185754
  13 C :   -0.149441
  14 C :   -0.189439
  15 C :    0.356082
  16 O :   -0.545996
  17 C :    1.086847
  18 F :   -0.292299
  19 F :   -0.278901
  20 F :   -0.289215
  21 C :   -0.168250
  22 C :   -0.170138
  23 C :    0.404363
  24 N :   -0.384371
  25 C :   -0.013560
  26 C :   -0.025769
  27 C :    0.906041
  28 F :   -0.301583
  29 F :   -0.290893
  30 F :   -0.299986
  31 C :   -0.131740
  32 C :   -0.074544
  33 Cl:    0.064469
  34 C :   -0.149619
  35 C :   -0.138182
  36 H :    0.436198
  37 H :    0.177143
  38 H :    0.187458
  39 H :    0.167915
  40 H :    0.183404
  41 H :    0.145002
  42 H :    0.156097
  43 H :    0.148751
  44 H :    0.137171
  45 H :    0.180577
  46 H :    0.191613
  47 H :    0.190019
  48 H :    0.184026
Sum of atomic charges:    0.0000000

LOEWDIN ATOMIC CHARGES
----------------------
   0 O :   -0.257238
   1 C :    0.180225
   2 O :   -0.333464
   3 C :   -0.035420
   4 C :   -0.097394
   5 C :   -0.095605
   6 C :   -0.176613
   7 S :    1.264289
   8 O :   -0.564453
   9 O :   -0.568081
  10 N :   -0.279724
  11 C :   -0.147839
  12 C :   -0.040591
  13 C :   -0.108178
  14 C :   -0.153929
  15 C :    0.089965
  16 O :   -0.159712
  17 C :    0.360209
  18 F :   -0.106028
  19 F :   -0.087374
  20 F :   -0.102994
  21 C :   -0.138762
  22 C :   -0.124784
  23 C :    0.058000
  24 N :   -0.118134
  25 C :   -0.056413
  26 C :   -0.074773
  27 C :    0.312594
  28 F :   -0.107720
  29 F :   -0.107252
  30 F :   -0.110047
  31 C :   -0.086323
  32 C :   -0.081621
  33 Cl:    0.090942
  34 C :   -0.106617
  35 C :   -0.085405
  36 H :    0.351253
  37 H :    0.156829
  38 H :    0.160729
  39 H :    0.139969
  40 H :    0.142849
  41 H :    0.140109
  42 H :    0.144039
  43 H :    0.145326
  44 H :    0.136043
  45 H :    0.150951
  46 H :    0.164259
  47 H :    0.161815
  48 H :    0.162093

  Mayer bond orders larger than 0.100000
B(  0-O ,  1-C ) :   1.8647 B(  1-C ,  2-O ) :   1.0273 B(  1-C ,  3-C ) :   1.0063
B(  2-O , 36-H ) :   0.7405 B(  3-C ,  4-C ) :   1.3807 B(  3-C , 35-C ) :   1.4057
B(  4-C ,  5-C ) :   1.4259 B(  4-C , 37-H ) :   0.9138 B(  5-C ,  6-C ) :   1.3885
B(  5-C , 38-H ) :   0.9099 B(  6-C ,  7-S ) :   0.8100 B(  6-C , 34-C ) :   1.3835
B(  7-S ,  8-O ) :   1.6363 B(  7-S ,  9-O ) :   1.6376 B(  7-S , 10-N ) :   0.7900
B( 10-N , 11-C ) :   0.9240 B( 10-N , 23-C ) :   0.9364 B( 11-C , 12-C ) :   0.9366
B( 11-C , 39-H ) :   0.9228 B( 11-C , 40-H ) :   0.9200 B( 12-C , 13-C ) :   1.4337
B( 12-C , 22-C ) :   1.4298 B( 13-C , 14-C ) :   1.4390 B( 13-C , 41-H ) :   0.9172
B( 14-C , 15-C ) :   1.3900 B( 14-C , 42-H ) :   0.9085 B( 15-C , 16-O ) :   0.8257
B( 15-C , 21-C ) :   1.4205 B( 16-O , 17-C ) :   0.9887 B( 17-C , 18-F ) :   0.9684
B( 17-C , 19-F ) :   1.0081 B( 17-C , 20-F ) :   0.9700 B( 21-C , 22-C ) :   1.4376
B( 21-C , 43-H ) :   0.9178 B( 22-C , 44-H ) :   0.9221 B( 23-C , 24-N ) :   1.3916
B( 23-C , 32-C ) :   1.3319 B( 24-N , 25-C ) :   1.4057 B( 25-C , 26-C ) :   1.3676
B( 25-C , 45-H ) :   0.9180 B( 26-C , 27-C ) :   0.9722 B( 26-C , 31-C ) :   1.4043
B( 27-C , 28-F ) :   0.9477 B( 27-C , 29-F ) :   0.9871 B( 27-C , 30-F ) :   0.9573
B( 31-C , 32-C ) :   1.3913 B( 31-C , 46-H ) :   0.9083 B( 32-C , 33-Cl) :   1.0887
B( 34-C , 35-C ) :   1.4142 B( 34-C , 47-H ) :   0.9072 B( 35-C , 48-H ) :   0.9086

FINAL SINGLE POINT ENERGY     -2749.918970938877

DIPOLE MOMENT
-------------

Method             : SCF
Type of density    : Electron Density
Multiplicity       :   1
Irrep              :   0
Energy             : -2749.9189709388774645 Eh
Relativity type    :
Basis              : AO
                                X                 Y                 Z
Electronic contribution:    -31.437799818      18.435180698     -17.249715660
Nuclear contribution   :     32.044180017     -18.348891079      19.397613422
                        -----------------------------------------
Total Dipole Moment    :      0.606380199       0.086289619       2.147897762
                        -----------------------------------------
Magnitude (a.u.)       :      2.233519116
Magnitude (Debye)      :      5.677154421

Rotational constants in cm-1:             0.002763             0.002080             0.001304
Rotational constants in MHz :            82.843467            62.347146            39.094719

                             ****ORCA TERMINATED NORMALLY****
TOTAL RUN TIME: 0 days 0 hours 10 minutes 19 seconds 348 msec
