                         Program Version 6.0.0  -   RELEASE  -
|  1> ! B3LYP 6-31G* SP
|  2>
|  3> * xyz 0 1
|  4> C 0.9709 -2.8457 1.2299
|  5> C 0.0376 -2.4700 0.0469
|  6> C 0.6080 -3.1999 -1.1955
|  7> C -1.3874 -2.9173 0.4154
|  8> C -2.0377 -2.2967 1.5040
|  9> C -3.3356 -2.6622 1.8704
| 10> C -4.0098 -3.6547 1.1599
| 11> F -5.2716 -4.0037 1.5128
| 12> C -3.3863 -4.2847 0.0831
| 13> C -2.0869 -3.9256 -0.2888
| 14> N 0.0336 -1.0027 -0.2253
| 15> C -0.8473 -0.4305 -1.2654
| 16> C -1.9188 0.4401 -0.6573
| 17> C -3.2217 -0.0531 -0.4871
| 18> C -4.2041 0.7417 0.1050
| 19> C -3.8998 2.0381 0.5267
| 20> C -2.6059 2.5571 0.3520
| 21> C -2.2867 3.9327 0.7954
| 22> O -1.1239 4.3978 0.6488
| 23> O -3.2694 4.7266 1.3813
| 24> C -1.6210 1.7504 -0.2468
| 25> C 0.8770 -0.0910 0.5088
| 26> O 0.6062 0.1516 1.7167
| 27> C 2.0274 0.5922 -0.1351
| 28> C 2.4861 0.2099 -1.4086
| 29> N 3.5432 0.8436 -1.9815
| 30> C 4.1979 1.8565 -1.3562
| 31> C 5.2792 2.4865 -1.9819
| 32> C 5.9528 3.5271 -1.3332
| 33> C 5.5504 3.9392 -0.0585
| 34> C 4.4683 3.3175 0.5723
| 35> C 3.7856 2.2747 -0.0731
| 36> C 2.6964 1.6354 0.5307
| 37> H 0.9567 -3.9446 1.4007
| 38> H 0.6571 -2.3620 2.1773
| 39> H 2.0199 -2.5447 1.0183
| 40> H -0.0090 -3.0294 -2.1005
| 41> H 0.6740 -4.2954 -1.0186
| 42> H 1.6352 -2.8410 -1.4151
| 43> H -1.5479 -1.5098 2.0620
| 44> H -3.8204 -2.1681 2.7024
| 45> H -3.9101 -5.0553 -0.4681
| 46> H -1.6506 -4.4427 -1.1297
| 47> H -1.3289 -1.2325 -1.8629
| 48> H -0.2513 0.1697 -1.9848
| 49> H -3.4777 -1.0551 -0.8088
| 50> H -5.2043 0.3515 0.2381
| 51> H -4.6790 2.6341 0.9847
| 52> H -3.0593 5.6646 1.6981
| 53> H -0.6211 2.1391 -0.3981
| 54> H 2.0097 -0.5907 -1.9533
| 55> H 5.5983 2.1730 -2.9684
| 56> H 6.7894 4.0128 -1.8179
| 57> H 6.0766 4.7433 0.4404
| 58> H 4.1670 3.6489 1.5590
| 59> H 2.3689 1.9531 1.5141
| 60> *
| 61>
| 62>                          ****END OF INPUT****

CARTESIAN COORDINATES (ANGSTROEM)
---------------------------------
  C      0.970900   -2.845700    1.229900
  C      0.037600   -2.470000    0.046900
  C      0.608000   -3.199900   -1.195500
  C     -1.387400   -2.917300    0.415400
  C     -2.037700   -2.296700    1.504000
  C     -3.335600   -2.662200    1.870400
  C     -4.009800   -3.654700    1.159900
  F     -5.271600   -4.003700    1.512800
  C     -3.386300   -4.284700    0.083100
  C     -2.086900   -3.925600   -0.288800
  N      0.033600   -1.002700   -0.225300
  C     -0.847300   -0.430500   -1.265400
  C     -1.918800    0.440100   -0.657300
  C     -3.221700   -0.053100   -0.487100
  C     -4.204100    0.741700    0.105000
  C     -3.899800    2.038100    0.526700
  C     -2.605900    2.557100    0.352000
  C     -2.286700    3.932700    0.795400
  O     -1.123900    4.397800    0.648800
  O     -3.269400    4.726600    1.381300
  C     -1.621000    1.750400   -0.246800
  C      0.877000   -0.091000    0.508800
  O      0.606200    0.151600    1.716700
  C      2.027400    0.592200   -0.135100
  C      2.486100    0.209900   -1.408600
  N      3.543200    0.843600   -1.981500
  C      4.197900    1.856500   -1.356200
  C      5.279200    2.486500   -1.981900
  C      5.952800    3.527100   -1.333200
  C      5.550400    3.939200   -0.058500
  C      4.468300    3.317500    0.572300
  C      3.785600    2.274700   -0.073100
  C      2.696400    1.635400    0.530700
  H      0.956700   -3.944600    1.400700
  H      0.657100   -2.362000    2.177300
  H      2.019900   -2.544700    1.018300
  H     -0.009000   -3.029400   -2.100500
  H      0.674000   -4.295400   -1.018600
  H      1.635200   -2.841000   -1.415100
  H     -1.547900   -1.509800    2.062000
  H     -3.820400   -2.168100    2.702400
  H     -3.910100   -5.055300   -0.468100
  H     -1.650600   -4.442700   -1.129700
  H     -1.328900   -1.232500   -1.862900
  H     -0.251300    0.169700   -1.984800
  H     -3.477700   -1.055100   -0.808800
  H     -5.204300    0.351500    0.238100
  H     -4.679000    2.634100    0.984700
  H     -3.059300    5.664600    1.698100
  H     -0.621100    2.139100   -0.398100
  H      2.009700   -0.590700   -1.953300
  H      5.598300    2.173000   -2.968400
  H      6.789400    4.012800   -1.817900
  H      6.076600    4.743300    0.440400
  H      4.167000    3.648900    1.559000
  H      2.368900    1.953100    1.514100

 Total Charge           Charge          ....    0
 Multiplicity           Mult            ....    1
 Number of Electrons    NEL             ....  232
 Basis Dimension        Dim             ....  508

ORBITAL ENERGIES
----------------

  NO   OCC          E(Eh)            E(eV)
   0   2.0000     -24.696211      -672.0181
   1   2.0000     -19.178304      -521.8682
   2   2.0000     -19.129962      -520.5527
   3   2.0000     -19.117357      -520.2097
   4   2.0000     -14.333561      -390.0360
   5   2.0000     -14.326923      -389.8554
   6   2.0000     -10.315372      -280.6956
   7   2.0000     -10.297288      -280.2035
   8   2.0000     -10.265742      -279.3450
   9   2.0000     -10.242060      -278.7006
  10   2.0000     -10.228495      -278.3315
  11   2.0000     -10.224285      -278.2169
  12   2.0000     -10.223526      -278.1963
  13   2.0000     -10.208872      -277.7975
  14   2.0000     -10.206042      -277.7205
  15   2.0000     -10.202997      -277.6377
  16   2.0000     -10.199093      -277.5314
  17   2.0000     -10.197023      -277.4751
  18   2.0000     -10.195286      -277.4278
  19   2.0000     -10.193918      -277.3906
  20   2.0000     -10.193009      -277.3659
  21   2.0000     -10.192199      -277.3438
  22   2.0000     -10.191615      -277.3279
  23   2.0000     -10.190283      -277.2917
  24   2.0000     -10.189535      -277.2713
  25   2.0000     -10.189128      -277.2603
  26   2.0000     -10.188734      -277.2496
  27   2.0000     -10.188473      -277.2424
  28   2.0000     -10.185927      -277.1732
  29   2.0000     -10.185160      -277.1523
  30   2.0000     -10.184285      -277.1285
  31   2.0000     -10.179627      -277.0017
  32   2.0000     -10.175818      -276.8981
  33   2.0000      -1.209451       -32.9108
  34   2.0000      -1.062683       -28.9171
  35   2.0000      -1.022525       -27.8243
  36   2.0000      -0.976040       -26.5594
  37   2.0000      -0.939152       -25.5556
  38   2.0000      -0.919535       -25.0218
  39   2.0000      -0.859967       -23.4009
  40   2.0000      -0.854733       -23.2585
  41   2.0000      -0.852051       -23.1855
  42   2.0000      -0.814831       -22.1727
  43   2.0000      -0.798617       -21.7315
  44   2.0000      -0.772469       -21.0199
  45   2.0000      -0.762351       -20.7446
  46   2.0000      -0.753875       -20.5140
  47   2.0000      -0.750706       -20.4278
  48   2.0000      -0.742746       -20.2111
  49   2.0000      -0.728658       -19.8278
  50   2.0000      -0.695492       -18.9253
  51   2.0000      -0.679503       -18.4902
  52   2.0000      -0.662071       -18.0159
  53   2.0000      -0.655157       -17.8277
  54   2.0000      -0.642815       -17.4919
  55   2.0000      -0.625661       -17.0251
  56   2.0000      -0.614141       -16.7116
  57   2.0000      -0.608062       -16.5462
  58   2.0000      -0.595357       -16.2005
  59   2.0000      -0.592050       -16.1105
  60   2.0000      -0.583027       -15.8650
  61   2.0000      -0.549861       -14.9625
  62   2.0000      -0.537876       -14.6364
  63   2.0000      -0.528131       -14.3712
  64   2.0000      -0.524959       -14.2849
  65   2.0000      -0.519621       -14.1396
  66   2.0000      -0.504047       -13.7158
  67   2.0000      -0.492623       -13.4049
  68   2.0000      -0.486127       -13.2282
  69   2.0000      -0.482250       -13.1227
  70   2.0000      -0.476676       -12.9710
  71   2.0000      -0.469334       -12.7712
  72   2.0000      -0.454082       -12.3562
  73   2.0000      -0.452309       -12.3080
  74   2.0000      -0.450718       -12.2647
  75   2.0000      -0.450374       -12.2553
  76   2.0000      -0.445108       -12.1120
  77   2.0000      -0.441257       -12.0072
  78   2.0000      -0.435227       -11.8431
  79   2.0000      -0.429695       -11.6926
  80   2.0000      -0.426545       -11.6069
  81   2.0000      -0.423857       -11.5337
  82   2.0000      -0.421558       -11.4712
  83   2.0000      -0.418307       -11.3827
  84   2.0000      -0.417030       -11.3480
  85   2.0000      -0.408340       -11.1115
  86   2.0000      -0.406252       -11.0547
  87   2.0000      -0.401661       -10.9297
  88   2.0000      -0.393508       -10.7079
  89   2.0000      -0.387998       -10.5580
  90   2.0000      -0.382316       -10.4033
  91   2.0000      -0.378554       -10.3010
  92   2.0000      -0.372601       -10.1390
  93   2.0000      -0.369515       -10.0550
  94   2.0000      -0.365734        -9.9521
  95   2.0000      -0.359333        -9.7780
  96   2.0000      -0.358824        -9.7641
  97   2.0000      -0.355106        -9.6629
  98   2.0000      -0.352505        -9.5921
  99   2.0000      -0.349328        -9.5057
 100   2.0000      -0.340638        -9.2692
 101   2.0000      -0.338131        -9.2010
 102   2.0000      -0.335340        -9.1251
 103   2.0000      -0.329748        -8.9729
 104   2.0000      -0.303474        -8.2580
 105   2.0000      -0.299153        -8.1404
 106   2.0000      -0.271499        -7.3879
 107   2.0000      -0.260429        -7.0866
 108   2.0000      -0.260228        -7.0812
 109   2.0000      -0.255378        -6.9492
 110   2.0000      -0.250996        -6.8299
 111   2.0000      -0.246860        -6.7174
 112   2.0000      -0.242691        -6.6039
 113   2.0000      -0.237161        -6.4535
 114   2.0000      -0.229875        -6.2552
 115   2.0000      -0.212491        -5.7822
 116   0.0000      -0.077890        -2.1195
 117   0.0000      -0.047153        -1.2831
 118   0.0000      -0.044536        -1.2119
 119   0.0000      -0.011130        -0.3029
 120   0.0000      -0.004638        -0.1262

MULLIKEN ATOMIC CHARGES
-----------------------
   0 C :   -0.471602
   1 C :    0.149833
   2 C :   -0.455615
   3 C :    0.125984
   4 C :   -0.162365
   5 C :   -0.210399
   6 C :    0.407832
   7 F :   -0.320787
   8 C :   -0.214237
   9 C :   -0.179071
  10 N :   -0.449608
  11 C :   -0.265230
  12 C :    0.178837
  13 C :   -0.157066
  14 C :   -0.135012
  15 C :   -0.158691
  16 C :    0.079084
  17 C :    0.521350
  18 O :   -0.458282
  19 O :   -0.626948
  20 C :   -0.192034
  21 C :    0.458288
  22 O :   -0.437590
  23 C :    0.062927
  24 C :   -0.036293
  25 N :   -0.433964
  26 C :    0.218592
  27 C :   -0.143853
  28 C :   -0.125881
  29 C :   -0.131539
  30 C :   -0.192067
  31 C :    0.162455
  32 C :   -0.175688
  33 H :    0.153595
  34 H :    0.180689
  35 H :    0.144347
  36 H :    0.143035
  37 H :    0.147444
  38 H :    0.153414
  39 H :    0.175617
  40 H :    0.146520
  41 H :    0.141334
  42 H :    0.134230
  43 H :    0.163662
  44 H :    0.154886
  45 H :    0.144492
  46 H :    0.136105
  47 H :    0.154187
  48 H :    0.426653
  49 H :    0.159939
  50 H :    0.162887
  51 H :    0.146058
  52 H :    0.139937
  53 H :    0.137943
  54 H :    0.144429
  55 H :    0.177235
Sum of atomic charges:   -0.0000000

LOEWDIN ATOMIC CHARGES
----------------------
   0 C :   -0.350790
   1 C :    0.040313
   2 C :   -0.357107
   3 C :   -0.031089
   4 C :   -0.108831
   5 C :   -0.157423
   6 C :    0.110113
   7 F :   -0.106884
   8 C :   -0.164554
   9 C :   -0.138091
  10 N :   -0.139347
  11 C :   -0.146087
  12 C :   -0.029258
  13 C :   -0.104434
  14 C :   -0.131570
  15 C :   -0.105247
  16 C :   -0.057052
  17 C :    0.179724
  18 O :   -0.275097
  19 O :   -0.339053
  20 C :   -0.090545
  21 C :    0.151825
  22 O :   -0.236963
  23 C :   -0.087696
  24 C :   -0.060513
  25 N :   -0.131444
  26 C :    0.022617
  27 C :   -0.116063
  28 C :   -0.113222
  29 C :   -0.126759
  30 C :   -0.108816
  31 C :   -0.030447
  32 C :   -0.046514
  33 H :    0.133498
  34 H :    0.141161
  35 H :    0.124977
  36 H :    0.121409
  37 H :    0.127066
  38 H :    0.129347
  39 H :    0.152724
  40 H :    0.144025
  41 H :    0.141435
  42 H :    0.136388
  43 H :    0.136136
  44 H :    0.126349
  45 H :    0.139411
  46 H :    0.135322
  47 H :    0.145283
  48 H :    0.344476
  49 H :    0.149667
  50 H :    0.141026
  51 H :    0.145327
  52 H :    0.137714
  53 H :    0.136404
  54 H :    0.139173
  55 H :    0.157984

  Mayer bond orders larger than 0.100000
B(  0-C ,  1-C ) :   0.9978 B(  0-C , 33-H ) :   0.9391 B(  0-C , 34-H ) :   0.9257
B(  0-C , 35-H ) :   0.9337 B(  1-C ,  2-C ) :   0.9901 B(  1-C ,  3-C ) :   0.9591
B(  1-C , 10-N ) :   0.9355 B(  2-C , 36-H ) :   0.9349 B(  2-C , 37-H ) :   0.9326
B(  2-C , 38-H ) :   0.9362 B(  3-C ,  4-C ) :   1.4052 B(  3-C ,  9-C ) :   1.4271
B(  4-C ,  5-C ) :   1.4212 B(  4-C , 39-H ) :   0.9010 B(  5-C ,  6-C ) :   1.3824
B(  5-C , 40-H ) :   0.9211 B(  6-C ,  7-F ) :   0.9144 B(  6-C ,  8-C ) :   1.4013
B(  8-C ,  9-C ) :   1.4020 B(  8-C , 41-H ) :   0.9212 B(  9-C , 42-H ) :   0.9182
B( 10-N , 11-C ) :   0.9526 B( 10-N , 21-C ) :   0.9837 B( 11-C , 12-C ) :   0.9405
B( 11-C , 43-H ) :   0.9242 B( 11-C , 44-H ) :   0.9188 B( 12-C , 13-C ) :   1.4247
B( 12-C , 20-C ) :   1.4003 B( 13-C , 14-C ) :   1.4350 B( 13-C , 45-H ) :   0.9160
B( 14-C , 15-C ) :   1.4322 B( 14-C , 46-H ) :   0.9288 B( 15-C , 16-C ) :   1.3849
B( 15-C , 47-H ) :   0.9183 B( 16-C , 17-C ) :   1.0125 B( 16-C , 20-C ) :   1.3932
B( 17-C , 18-O ) :   1.8538 B( 17-C , 19-O ) :   1.0163 B( 19-O , 48-H ) :   0.7463
B( 20-C , 49-H ) :   0.9025 B( 21-C , 22-O ) :   1.8226 B( 21-C , 23-C ) :   0.9920
B( 23-C , 24-C ) :   1.2526 B( 23-C , 32-C ) :   1.4156 B( 24-C , 25-N ) :   1.5068
B( 24-C , 50-H ) :   0.9148 B( 25-N , 26-C ) :   1.2481 B( 26-C , 27-C ) :   1.3136
B( 26-C , 31-C ) :   1.2458 B( 27-C , 28-C ) :   1.5109 B( 27-C , 30-C ) :   0.1066
B( 27-C , 51-H ) :   0.9170 B( 28-C , 29-C ) :   1.3450 B( 28-C , 52-H ) :   0.9289
B( 29-C , 30-C ) :   1.5157 B( 29-C , 53-H ) :   0.9292 B( 30-C , 31-C ) :   1.2754
B( 30-C , 54-H ) :   0.9227 B( 31-C , 32-C ) :   1.2708 B( 32-C , 55-H ) :   0.9063

FINAL SINGLE POINT ENERGY     -1476.834495714779

DIPOLE MOMENT
-------------

Method             : SCF
Type of density    : Electron Density
Multiplicity       :   1
Irrep              :   0
Energy             : -1476.8344957147794503 Eh
Relativity type    :
Basis              : AO
                                X                 Y                 Z
Electronic contribution:    -11.544991622       7.605615537       5.218962722
Nuclear contribution   :     11.874941607      -7.577208728      -5.518510456
                        -----------------------------------------
Total Dipole Moment    :      0.329949984       0.028406809      -0.299547735
                        -----------------------------------------
Magnitude (a.u.)       :      0.446545389
Magnitude (Debye)      :      1.135028176

Rotational constants in cm-1:             0.006349             0.002777             0.002109
Rotational constants in MHz :           190.339238            83.246804            63.220803

                             ****ORCA TERMINATED NORMALLY****
TOTAL RUN TIME: 0 days 0 hours 10 minutes 6 seconds 133 msec
