                         Program Version 6.0.0  -   RELEASE  -
|  1> ! B3LYP 6-31G* SP
|  2>
|  3> * xyz -1 1
|  4> C -2.1652 -0.8668 0.8950
|  5> C -1.4768 -1.4566 -0.3103
|  6> C -0.2428 -0.9244 -0.7867
|  7> N 0.3877 0.1836 -0.1348
|  8> C 1.1389 -0.0122 1.1067
|  9> C 2.6110 -0.1268 0.8179
| 10> C 3.4850 0.9228 1.1370
| 11> C 4.8486 0.8216 0.8460
| 12> C 5.3597 -0.3360 0.2270
| 13> O 6.7182 -0.4882 -0.0938
| 14> C 7.7367 0.4788 0.1557
| 15> F 7.8347 0.7281 1.5126
| 16> F 8.9458 -0.0158 -0.2939
| 17> F 7.4571 1.6529 -0.5197
| 18> C 4.4849 -1.3836 -0.0844
| 19> C 3.1211 -1.2823 0.2058
| 20> S 0.2307 1.7650 -0.8329
| 21> O 1.4707 2.5724 -0.5721
| 22> O 0.0526 1.6511 -2.3213
| 23> C -1.1694 2.5615 -0.1277
| 24> C -1.0207 3.4016 0.9810
| 25> C -2.1403 4.0023 1.5645
| 26> C -3.4273 3.7626 1.0501
| 27> C -4.6162 4.3940 1.6630
| 28> O -4.4936 5.1619 2.6536
| 29> O -5.8868 4.1496 1.1522
| 30> C -3.5697 2.9090 -0.0566
| 31> C -2.4479 2.3128 -0.6402
| 32> N 0.3534 -1.4482 -1.9018
| 33> C -0.1767 -2.4932 -2.5920
| 34> C -1.3682 -3.0390 -2.1418
| 35> C -2.1031 -4.0833 -2.6520
| 36> C -3.1997 -4.1949 -1.8136
| 37> N -3.1501 -3.2666 -0.8276
| 38> C -4.1668 -3.1245 0.2130
| 39> C -2.0150 -2.5484 -1.0338
| 40> H -3.1906 -0.5438 0.6284
| 41> H -2.1859 -1.6070 1.7198
| 42> H -1.6502 0.0345 1.2822
| 43> H 0.7946 -0.9347 1.6241
| 44> H 0.9347 0.8337 1.7989
| 45> H 3.1123 1.8243 1.6097
| 46> H 5.4925 1.6514 1.1064
| 47> H 4.8635 -2.2807 -0.5601
| 48> H 2.4622 -2.1052 -0.0486
| 49> H -0.0402 3.5866 1.3999
| 50> H -1.9985 4.6499 2.4197
| 51> H -4.5476 2.6982 -0.4707
| 52> H -2.5784 1.6475 -1.4840
| 53> H 0.3251 -2.8832 -3.4680
| 54> H -1.8767 -4.6882 -3.5207
| 55> H -3.9915 -4.9246 -1.9240
| 56> H -4.9317 -3.9243 0.1199
| 57> H -3.7061 -3.2236 1.2159
| 58> H -4.6876 -2.1516 0.1068
| 59> *
| 60>
| 61>                          ****END OF INPUT****

CARTESIAN COORDINATES (ANGSTROEM)
---------------------------------
  C     -2.165200   -0.866800    0.895000
  C     -1.476800   -1.456600   -0.310300
  C     -0.242800   -0.924400   -0.786700
  N      0.387700    0.183600   -0.134800
  C      1.138900   -0.012200    1.106700
  C      2.611000   -0.126800    0.817900
  C      3.485000    0.922800    1.137000
  C      4.848600    0.821600    0.846000
  C      5.359700   -0.336000    0.227000
  O      6.718200   -0.488200   -0.093800
  C      7.736700    0.478800    0.155700
  F      7.834700    0.728100    1.512600
  F      8.945800   -0.015800   -0.293900
  F      7.457100    1.652900   -0.519700
  C      4.484900   -1.383600   -0.084400
  C      3.121100   -1.282300    0.205800
  S      0.230700    1.765000   -0.832900
  O      1.470700    2.572400   -0.572100
  O      0.052600    1.651100   -2.321300
  C     -1.169400    2.561500   -0.127700
  C     -1.020700    3.401600    0.981000
  C     -2.140300    4.002300    1.564500
  C     -3.427300    3.762600    1.050100
  C     -4.616200    4.394000    1.663000
  O     -4.493600    5.161900    2.653600
  O     -5.886800    4.149600    1.152200
  C     -3.569700    2.909000   -0.056600
  C     -2.447900    2.312800   -0.640200
  N      0.353400   -1.448200   -1.901800
  C     -0.176700   -2.493200   -2.592000
  C     -1.368200   -3.039000   -2.141800
  C     -2.103100   -4.083300   -2.652000
  C     -3.199700   -4.194900   -1.813600
  N     -3.150100   -3.266600   -0.827600
  C     -4.166800   -3.124500    0.213000
  C     -2.015000   -2.548400   -1.033800
  H     -3.190600   -0.543800    0.628400
  H     -2.185900   -1.607000    1.719800
  H     -1.650200    0.034500    1.282200
  H      0.794600   -0.934700    1.624100
  H      0.934700    0.833700    1.798900
  H      3.112300    1.824300    1.609700
  H      5.492500    1.651400    1.106400
  H      4.863500   -2.280700   -0.560100
  H      2.462200   -2.105200   -0.048600
  H     -0.040200    3.586600    1.399900
  H     -1.998500    4.649900    2.419700
  H     -4.547600    2.698200   -0.470700
  H     -2.578400    1.647500   -1.484000
  H      0.325100   -2.883200   -3.468000
  H     -1.876700   -4.688200   -3.520700
  H     -3.991500   -4.924600   -1.924000
  H     -4.931700   -3.924300    0.119900
  H     -3.706100   -3.223600    1.215900
  H     -4.687600   -2.151600    0.106800

 Total Charge           Charge          ....   -1
 Multiplicity           Mult            ....    1
 Number of Electrons    NEL             ....  268
 Basis Dimension        Dim             ....  546

ORBITAL ENERGIES
----------------

  NO   OCC          E(Eh)            E(eV)
   0   2.0000     -88.996736     -2421.7243
   1   2.0000     -24.683774      -671.6796
   2   2.0000     -24.679228      -671.5559
   3   2.0000     -24.676930      -671.4934
   4   2.0000     -19.145620      -520.9788
   5   2.0000     -19.028597      -517.7945
   6   2.0000     -19.024238      -517.6758
   7   2.0000     -18.908256      -514.5198
   8   2.0000     -18.886975      -513.9407
   9   2.0000     -14.331722      -389.9860
  10   2.0000     -14.278400      -388.5350
  11   2.0000     -14.244410      -387.6101
  12   2.0000     -10.442535      -284.1558
  13   2.0000     -10.193196      -277.3710
  14   2.0000     -10.180371      -277.0220
  15   2.0000     -10.176203      -276.9086
  16   2.0000     -10.156937      -276.3843
  17   2.0000     -10.156726      -276.3786
  18   2.0000     -10.154377      -276.3146
  19   2.0000     -10.142074      -275.9799
  20   2.0000     -10.135799      -275.8091
  21   2.0000     -10.121710      -275.4257
  22   2.0000     -10.119225      -275.3581
  23   2.0000     -10.118204      -275.3303
  24   2.0000     -10.117273      -275.3050
  25   2.0000     -10.115812      -275.2653
  26   2.0000     -10.114632      -275.2331
  27   2.0000     -10.113196      -275.1940
  28   2.0000     -10.109084      -275.0822
  29   2.0000     -10.107306      -275.0338
  30   2.0000     -10.094535      -274.6863
  31   2.0000     -10.093270      -274.6518
  32   2.0000     -10.092428      -274.6289
  33   2.0000     -10.075626      -274.1717
  34   2.0000     -10.074474      -274.1404
  35   2.0000     -10.073925      -274.1254
  36   2.0000      -8.032298      -218.5699
  37   2.0000      -5.997646      -163.2043
  38   2.0000      -5.995584      -163.1481
  39   2.0000      -5.994380      -163.1154
  40   2.0000      -1.244530       -33.8654
  41   2.0000      -1.166373       -31.7386
  42   2.0000      -1.163937       -31.6723
  43   2.0000      -1.015512       -27.6335
  44   2.0000      -0.984396       -26.7868
  45   2.0000      -0.950680       -25.8693
  46   2.0000      -0.872721       -23.7480
  47   2.0000      -0.862970       -23.4826
  48   2.0000      -0.825519       -22.4635
  49   2.0000      -0.817568       -22.2472
  50   2.0000      -0.786441       -21.4001
  51   2.0000      -0.761653       -20.7256
  52   2.0000      -0.756812       -20.5939
  53   2.0000      -0.731565       -19.9069
  54   2.0000      -0.710137       -19.3238
  55   2.0000      -0.698110       -18.9965
  56   2.0000      -0.680944       -18.5294
  57   2.0000      -0.675473       -18.3806
  58   2.0000      -0.667433       -18.1618
  59   2.0000      -0.658912       -17.9299
  60   2.0000      -0.650132       -17.6910
  61   2.0000      -0.644072       -17.5261
  62   2.0000      -0.620057       -16.8726
  63   2.0000      -0.607506       -16.5311
  64   2.0000      -0.574621       -15.6362
  65   2.0000      -0.566139       -15.4054
  66   2.0000      -0.557831       -15.1794
  67   2.0000      -0.550499       -14.9798
  68   2.0000      -0.535790       -14.5796
  69   2.0000      -0.529559       -14.4100
  70   2.0000      -0.524661       -14.2767
  71   2.0000      -0.518347       -14.1049
  72   2.0000      -0.502514       -13.6741
  73   2.0000      -0.500038       -13.6067
  74   2.0000      -0.485495       -13.2110
  75   2.0000      -0.466965       -12.7068
  76   2.0000      -0.446103       -12.1391
  77   2.0000      -0.438877       -11.9424
  78   2.0000      -0.424418       -11.5490
  79   2.0000      -0.423129       -11.5139
  80   2.0000      -0.418346       -11.3838
  81   2.0000      -0.413051       -11.2397
  82   2.0000      -0.410396       -11.1675
  83   2.0000      -0.408775       -11.1233
  84   2.0000      -0.402575       -10.9546
  85   2.0000      -0.394086       -10.7236
  86   2.0000      -0.392617       -10.6837
  87   2.0000      -0.383983       -10.4487
  88   2.0000      -0.382075       -10.3968
  89   2.0000      -0.378106       -10.2888
  90   2.0000      -0.376493       -10.2449
  91   2.0000      -0.368546       -10.0287
  92   2.0000      -0.365206        -9.9378
  93   2.0000      -0.358095        -9.7443
  94   2.0000      -0.357247        -9.7212
  95   2.0000      -0.357165        -9.7190
  96   2.0000      -0.355392        -9.6707
  97   2.0000      -0.353617        -9.6224
  98   2.0000      -0.344505        -9.3745
  99   2.0000      -0.338452        -9.2098
 100   2.0000      -0.337072        -9.1722
 101   2.0000      -0.335825        -9.1383
 102   2.0000      -0.333345        -9.0708
 103   2.0000      -0.322066        -8.7639
 104   2.0000      -0.317828        -8.6485
 105   2.0000      -0.312362        -8.4998
 106   2.0000      -0.308157        -8.3854
 107   2.0000      -0.304547        -8.2872
 108   2.0000      -0.292773        -7.9668
 109   2.0000      -0.290891        -7.9155
 110   2.0000      -0.283561        -7.7161
 111   2.0000      -0.273719        -7.4483
 112   2.0000      -0.271499        -7.3879
 113   2.0000      -0.270532        -7.3615
 114   2.0000      -0.245587        -6.6828
 115   2.0000      -0.233627        -6.3573
 116   2.0000      -0.230159        -6.2629
 117   2.0000      -0.217137        -5.9086
 118   2.0000      -0.210862        -5.7378
 119   2.0000      -0.199063        -5.4168
 120   2.0000      -0.193592        -5.2679
 121   2.0000      -0.187249        -5.0953
 122   2.0000      -0.184171        -5.0116
 123   2.0000      -0.179819        -4.8931
 124   2.0000      -0.175774        -4.7831
 125   2.0000      -0.169965        -4.6250
 126   2.0000      -0.165942        -4.5155
 127   2.0000      -0.159342        -4.3359
 128   2.0000      -0.150810        -4.1037
 129   2.0000      -0.139579        -3.7982
 130   2.0000      -0.128715        -3.5025
 131   2.0000      -0.062169        -1.6917
 132   2.0000      -0.040574        -1.1041
 133   2.0000      -0.023928        -0.6511
 134   0.0000       0.039898         1.0857
 135   0.0000       0.060663         1.6507
 136   0.0000       0.064359         1.7513
 137   0.0000       0.066236         1.8024
 138   0.0000       0.077277         2.1028

MULLIKEN ATOMIC CHARGES
-----------------------
   0 C :   -0.548151
   1 C :    0.134402
   2 C :    0.284423
   3 N :   -0.595377
   4 C :   -0.254916
   5 C :    0.186779
   6 C :   -0.138023
   7 C :   -0.195069
   8 C :    0.346492
   9 O :   -0.550871
  10 C :    1.081621
  11 F :   -0.295653
  12 F :   -0.287487
  13 F :   -0.289850
  14 C :   -0.176692
  15 C :   -0.141152
  16 S :    1.192909
  17 O :   -0.562981
  18 O :   -0.546962
  19 C :   -0.135550
  20 C :   -0.160717
  21 C :   -0.158717
  22 C :    0.105137
  23 C :    0.409974
  24 O :   -0.551397
  25 O :   -0.660849
  26 C :   -0.155885
  27 C :   -0.158787
  28 N :   -0.372393
  29 C :   -0.068631
  30 C :    0.132845
  31 C :   -0.246751
  32 C :    0.007293
  33 N :   -0.431712
  34 C :   -0.325844
  35 C :    0.250065
  36 H :    0.175544
  37 H :    0.139243
  38 H :    0.193840
  39 H :    0.154569
  40 H :    0.162411
  41 H :    0.145045
  42 H :    0.140099
  43 H :    0.130231
  44 H :    0.137496
  45 H :    0.138494
  46 H :    0.145317
  47 H :    0.148374
  48 H :    0.144473
  49 H :    0.133641
  50 H :    0.120531
  51 H :    0.136779
  52 H :    0.163927
  53 H :    0.175770
  54 H :    0.192695
Sum of atomic charges:   -1.0000000

LOEWDIN ATOMIC CHARGES
----------------------
   0 C :   -0.361694
   1 C :   -0.042154
   2 C :    0.020943
   3 N :   -0.288003
   4 C :   -0.144069
   5 C :   -0.029474
   6 C :   -0.103547
   7 C :   -0.164045
   8 C :    0.078249
   9 O :   -0.164856
  10 C :    0.356764
  11 F :   -0.108815
  12 F :   -0.094951
  13 F :   -0.104039
  14 C :   -0.147521
  15 C :   -0.109292
  16 S :    1.266610
  17 O :   -0.586907
  18 O :   -0.573563
  19 C :   -0.214810
  20 C :   -0.130955
  21 C :   -0.115236
  22 C :   -0.006055
  23 C :    0.071201
  24 O :   -0.376938
  25 O :   -0.509365
  26 C :   -0.111444
  27 C :   -0.129233
  28 N :   -0.126822
  29 C :   -0.075916
  30 C :   -0.055910
  31 C :   -0.194631
  32 C :   -0.102254
  33 N :    0.012340
  34 C :   -0.262240
  35 C :    0.012290
  36 H :    0.143350
  37 H :    0.123859
  38 H :    0.150423
  39 H :    0.132724
  40 H :    0.132303
  41 H :    0.141387
  42 H :    0.136438
  43 H :    0.136699
  44 H :    0.138964
  45 H :    0.136379
  46 H :    0.145819
  47 H :    0.148303
  48 H :    0.138953
  49 H :    0.130224
  50 H :    0.131892
  51 H :    0.129883
  52 H :    0.136658
  53 H :    0.137556
  54 H :    0.144525

  Mayer bond orders larger than 0.100000
B(  0-C ,  1-C ) :   0.9791 B(  0-C , 36-H ) :   0.9262 B(  0-C , 37-H ) :   0.9316
B(  0-C , 38-H ) :   0.9229 B(  1-C ,  2-C ) :   1.4113 B(  1-C , 35-C ) :   1.2884
B(  2-C ,  3-N ) :   0.9068 B(  2-C , 28-N ) :   1.3081 B(  3-N ,  4-C ) :   0.9381
B(  3-N , 16-S ) :   0.7774 B(  4-C ,  5-C ) :   0.9498 B(  4-C , 39-H ) :   0.9249
B(  4-C , 40-H ) :   0.9232 B(  5-C ,  6-C ) :   1.4462 B(  5-C , 15-C ) :   1.4288
B(  6-C ,  7-C ) :   1.4277 B(  6-C , 41-H ) :   0.9156 B(  7-C ,  8-C ) :   1.3968
B(  7-C , 42-H ) :   0.9122 B(  8-C ,  9-O ) :   0.8054 B(  8-C , 14-C ) :   1.4166
B(  9-O , 10-C ) :   1.0056 B( 10-C , 11-F ) :   0.9644 B( 10-C , 12-F ) :   0.9989
B( 10-C , 13-F ) :   0.9717 B( 14-C , 15-C ) :   1.4410 B( 14-C , 43-H ) :   0.9217
B( 15-C , 44-H ) :   0.9164 B( 16-S , 17-O ) :   1.6125 B( 16-S , 18-O ) :   1.6485
B( 16-S , 19-C ) :   0.8417 B( 19-C , 20-C ) :   1.3699 B( 19-C , 27-C ) :   1.3627
B( 20-C , 21-C ) :   1.4045 B( 20-C , 45-H ) :   0.9205 B( 21-C , 22-C ) :   1.3931
B( 21-C , 46-H ) :   0.9078 B( 22-C , 23-C ) :   0.9272 B( 22-C , 26-C ) :   1.4000
B( 23-C , 24-O ) :   1.7090 B( 23-C , 25-O ) :   1.5483 B( 24-O , 25-O ) :   0.1475
B( 26-C , 27-C ) :   1.4025 B( 26-C , 47-H ) :   0.9020 B( 27-C , 48-H ) :   0.9198
B( 28-N , 29-C ) :   1.4657 B( 29-C , 30-C ) :   1.2691 B( 29-C , 49-H ) :   0.9330
B( 30-C , 31-C ) :   1.2935 B( 30-C , 35-C ) :   1.3053 B( 31-C , 32-C ) :   1.5539
B( 31-C , 50-H ) :   0.9318 B( 32-C , 33-N ) :   1.1460 B( 32-C , 51-H ) :   0.9298
B( 33-N , 34-C ) :   0.9425 B( 33-N , 35-C ) :   1.0494 B( 34-C , 52-H ) :   0.9428
B( 34-C , 53-H ) :   0.9329 B( 34-C , 54-H ) :   0.9283

FINAL SINGLE POINT ENERGY     -2162.977429536268

DIPOLE MOMENT
-------------

Method             : SCF
Type of density    : Electron Density
Multiplicity       :   1
Irrep              :   0
Energy             : -2162.9774295362681187 Eh
Relativity type    :
Basis              : AO
                                X                 Y                 Z
Electronic contribution:     54.723722230      12.315968236      -4.985435492
Nuclear contribution   :    -49.091931614     -20.373891331       4.264309490
                        -----------------------------------------
Total Dipole Moment    :      5.631790616      -8.057923095      -0.721126001
                        -----------------------------------------
Magnitude (a.u.)       :      9.857343093
Magnitude (Debye)      :     25.055374960

Rotational constants in cm-1:             0.004315             0.001829             0.001386
Rotational constants in MHz :           129.361698            54.831117            41.550947

                             ****ORCA TERMINATED NORMALLY****
TOTAL RUN TIME: 0 days 0 hours 11 minutes 55 seconds 22 msec
