                         Program Version 6.0.0  -   RELEASE  -
|  1> ! B3LYP 6-31G* SP
|  2>
|  3> * xyz 0 1
|  4> C -1.7422 0.8003 -2.0163
|  5> C -1.4506 -0.4572 -1.2439
|  6> C -1.6159 -1.6943 -1.8852
|  7> C -1.3618 -2.8858 -1.1965
|  8> C -1.5051 -4.1345 -1.8207
|  9> C -1.2385 -5.3060 -1.1049
| 10> C -0.8299 -5.2379 0.2312
| 11> C -0.6855 -3.9975 0.8596
| 12> C -0.9496 -2.8208 0.1508
| 13> N -0.8014 -1.6142 0.7563
| 14> C -1.0349 -0.4422 0.1066
| 15> N -0.8134 0.7859 0.8078
| 16> C 0.4830 1.4608 0.7134
| 17> C 1.5743 0.5655 1.2371
| 18> C 1.7378 0.3899 2.6166
| 19> C 2.7079 -0.4854 3.1042
| 20> C 3.5184 -1.2021 2.2217
| 21> F 4.4704 -2.0234 2.7312
| 22> C 3.3503 -1.0632 0.8285
| 23> C 4.2597 -1.7907 -0.1404
| 24> F 4.5134 -3.0736 0.3227
| 25> F 3.6431 -1.9170 -1.3752
| 26> C 5.5522 -0.9722 -0.3303
| 27> C 6.7609 -1.3684 0.5056
| 28> C 6.7121 -1.7181 -0.9734
| 29> C 2.3770 -0.1662 0.3486
| 30> S -2.0778 1.4261 1.8072
| 31> O -2.9265 0.3012 2.3326
| 32> O -1.4904 2.1538 2.9825
| 33> C -3.0605 2.5277 0.8528
| 34> C -2.6381 3.8474 0.6501
| 35> C -3.3928 4.7136 -0.1486
| 36> C -4.5806 4.2695 -0.7569
| 37> C -5.3779 5.1871 -1.6024
| 38> O -6.4286 4.7815 -2.1709
| 39> O -4.9743 6.5084 -1.7800
| 40> C -4.9950 2.9405 -0.5529
| 41> C -4.2374 2.0753 0.2420
| 42> H -1.1396 0.8129 -2.9471
| 43> H -1.5065 1.7175 -1.4441
| 44> H -2.8196 0.8268 -2.2869
| 45> H -1.9357 -1.7251 -2.9223
| 46> H -1.8192 -4.2031 -2.8556
| 47> H -1.3474 -6.2687 -1.5864
| 48> H -0.6251 -6.1469 0.7808
| 49> H -0.3654 -3.9527 1.8934
| 50> H 0.6789 1.7390 -0.3446
| 51> H 0.4731 2.4085 1.2937
| 52> H 1.1125 0.9326 3.3154
| 53> H 2.8360 -0.6046 4.1723
| 54> H 5.4877 0.1006 -0.6168
| 55> H 6.6457 -2.2472 1.1767
| 56> H 7.4451 -0.5287 0.7442
| 57> H 6.5559 -2.7989 -1.1745
| 58> H 7.3738 -1.0865 -1.6037
| 59> H 2.2403 -0.0328 -0.7173
| 60> H -1.7200 4.2032 1.1025
| 61> H -3.0428 5.7284 -0.2940
| 62> H -5.5147 7.1456 -2.3538
| 63> H -5.9019 2.5672 -1.0122
| 64> H -4.5631 1.0492 0.3694
| 65> *
| 66>
| 67>                          ****END OF INPUT****

CARTESIAN COORDINATES (ANGSTROEM)
---------------------------------
  C     -1.742200    0.800300   -2.016300
  C     -1.450600   -0.457200   -1.243900
  C     -1.615900   -1.694300   -1.885200
  C     -1.361800   -2.885800   -1.196500
  C     -1.505100   -4.134500   -1.820700
  C     -1.238500   -5.306000   -1.104900
  C     -0.829900   -5.237900    0.231200
  C     -0.685500   -3.997500    0.859600
  C     -0.949600   -2.820800    0.150800
  N     -0.801400   -1.614200    0.756300
  C     -1.034900   -0.442200    0.106600
  N     -0.813400    0.785900    0.807800
  C      0.483000    1.460800    0.713400
  C      1.574300    0.565500    1.237100
  C      1.737800    0.389900    2.616600
  C      2.707900   -0.485400    3.104200
  C      3.518400   -1.202100    2.221700
  F      4.470400   -2.023400    2.731200
  C      3.350300   -1.063200    0.828500
  C      4.259700   -1.790700   -0.140400
  F      4.513400   -3.073600    0.322700
  F      3.643100   -1.917000   -1.375200
  C      5.552200   -0.972200   -0.330300
  C      6.760900   -1.368400    0.505600
  C      6.712100   -1.718100   -0.973400
  C      2.377000   -0.166200    0.348600
  S     -2.077800    1.426100    1.807200
  O     -2.926500    0.301200    2.332600
  O     -1.490400    2.153800    2.982500
  C     -3.060500    2.527700    0.852800
  C     -2.638100    3.847400    0.650100
  C     -3.392800    4.713600   -0.148600
  C     -4.580600    4.269500   -0.756900
  C     -5.377900    5.187100   -1.602400
  O     -6.428600    4.781500   -2.170900
  O     -4.974300    6.508400   -1.780000
  C     -4.995000    2.940500   -0.552900
  C     -4.237400    2.075300    0.242000
  H     -1.139600    0.812900   -2.947100
  H     -1.506500    1.717500   -1.444100
  H     -2.819600    0.826800   -2.286900
  H     -1.935700   -1.725100   -2.922300
  H     -1.819200   -4.203100   -2.855600
  H     -1.347400   -6.268700   -1.586400
  H     -0.625100   -6.146900    0.780800
  H     -0.365400   -3.952700    1.893400
  H      0.678900    1.739000   -0.344600
  H      0.473100    2.408500    1.293700
  H      1.112500    0.932600    3.315400
  H      2.836000   -0.604600    4.172300
  H      5.487700    0.100600   -0.616800
  H      6.645700   -2.247200    1.176700
  H      7.445100   -0.528700    0.744200
  H      6.555900   -2.798900   -1.174500
  H      7.373800   -1.086500   -1.603700
  H      2.240300   -0.032800   -0.717300
  H     -1.720000    4.203200    1.102500
  H     -3.042800    5.728400   -0.294000
  H     -5.514700    7.145600   -2.353800
  H     -5.901900    2.567200   -1.012200
  H     -4.563100    1.049200    0.369400

 Total Charge           Charge          ....    0
 Multiplicity           Mult            ....    1
 Number of Electrons    NEL             ....  280
 Basis Dimension        Dim             ....  582

ORBITAL ENERGIES
----------------

  NO   OCC          E(Eh)            E(eV)
   0   2.0000     -89.100052     -2424.5357
   1   2.0000     -24.699396      -672.1047
   2   2.0000     -24.692519      -671.9176
   3   2.0000     -24.686392      -671.7509
   4   2.0000     -19.200019      -522.4591
   5   2.0000     -19.141582      -520.8689
   6   2.0000     -19.131141      -520.5848
   7   2.0000     -19.125838      -520.4405
   8   2.0000     -14.373408      -391.1203
   9   2.0000     -14.326669      -389.8485
  10   2.0000     -10.347627      -281.5732
  11   2.0000     -10.339321      -281.3472
  12   2.0000     -10.273084      -279.5448
  13   2.0000     -10.263141      -279.2743
  14   2.0000     -10.245604      -278.7970
  15   2.0000     -10.237504      -278.5766
  16   2.0000     -10.236202      -278.5412
  17   2.0000     -10.225490      -278.2497
  18   2.0000     -10.223313      -278.1905
  19   2.0000     -10.222575      -278.1704
  20   2.0000     -10.221496      -278.1410
  21   2.0000     -10.217920      -278.0437
  22   2.0000     -10.209061      -277.8027
  23   2.0000     -10.202237      -277.6170
  24   2.0000     -10.200952      -277.5820
  25   2.0000     -10.198648      -277.5193
  26   2.0000     -10.196272      -277.4547
  27   2.0000     -10.195321      -277.4288
  28   2.0000     -10.194484      -277.4060
  29   2.0000     -10.190619      -277.3009
  30   2.0000     -10.190296      -277.2921
  31   2.0000     -10.189655      -277.2746
  32   2.0000     -10.188895      -277.2539
  33   2.0000     -10.188793      -277.2511
  34   2.0000     -10.188216      -277.2354
  35   2.0000     -10.184811      -277.1428
  36   2.0000     -10.183795      -277.1151
  37   2.0000     -10.182582      -277.0821
  38   2.0000      -8.135630      -221.3817
  39   2.0000      -6.100633      -166.0067
  40   2.0000      -6.098696      -165.9539
  41   2.0000      -6.098326      -165.9439
  42   2.0000      -1.229159       -33.4471
  43   2.0000      -1.212080       -32.9824
  44   2.0000      -1.174419       -31.9576
  45   2.0000      -1.086181       -29.5565
  46   2.0000      -1.084215       -29.5030
  47   2.0000      -0.998365       -27.1669
  48   2.0000      -0.966154       -26.2904
  49   2.0000      -0.962321       -26.1861
  50   2.0000      -0.917421       -24.9643
  51   2.0000      -0.894273       -24.3344
  52   2.0000      -0.866173       -23.5698
  53   2.0000      -0.854261       -23.2456
  54   2.0000      -0.845349       -23.0031
  55   2.0000      -0.819951       -22.3120
  56   2.0000      -0.811368       -22.0784
  57   2.0000      -0.784119       -21.3370
  58   2.0000      -0.780731       -21.2448
  59   2.0000      -0.769204       -20.9311
  60   2.0000      -0.763533       -20.7768
  61   2.0000      -0.743660       -20.2360
  62   2.0000      -0.718404       -19.5488
  63   2.0000      -0.699599       -19.0371
  64   2.0000      -0.693617       -18.8743
  65   2.0000      -0.686264       -18.6742
  66   2.0000      -0.664668       -18.0865
  67   2.0000      -0.642922       -17.4948
  68   2.0000      -0.627595       -17.0777
  69   2.0000      -0.621663       -16.9163
  70   2.0000      -0.614161       -16.7122
  71   2.0000      -0.605537       -16.4775
  72   2.0000      -0.603622       -16.4254
  73   2.0000      -0.593023       -16.1370
  74   2.0000      -0.586727       -15.9656
  75   2.0000      -0.580730       -15.8025
  76   2.0000      -0.563134       -15.3237
  77   2.0000      -0.546048       -14.8587
  78   2.0000      -0.543808       -14.7978
  79   2.0000      -0.533009       -14.5039
  80   2.0000      -0.531300       -14.4574
  81   2.0000      -0.519469       -14.1355
  82   2.0000      -0.515195       -14.0192
  83   2.0000      -0.503191       -13.6925
  84   2.0000      -0.499974       -13.6050
  85   2.0000      -0.494990       -13.4694
  86   2.0000      -0.489677       -13.3248
  87   2.0000      -0.482057       -13.1174
  88   2.0000      -0.476275       -12.9601
  89   2.0000      -0.471025       -12.8172
  90   2.0000      -0.464705       -12.6453
  91   2.0000      -0.464533       -12.6406
  92   2.0000      -0.458845       -12.4858
  93   2.0000      -0.453003       -12.3268
  94   2.0000      -0.452694       -12.3184
  95   2.0000      -0.449340       -12.2272
  96   2.0000      -0.445755       -12.1296
  97   2.0000      -0.442390       -12.0380
  98   2.0000      -0.437809       -11.9134
  99   2.0000      -0.435688       -11.8557
 100   2.0000      -0.425331       -11.5738
 101   2.0000      -0.423215       -11.5163
 102   2.0000      -0.419934       -11.4270
 103   2.0000      -0.418413       -11.3856
 104   2.0000      -0.417634       -11.3644
 105   2.0000      -0.404317       -11.0020
 106   2.0000      -0.402988       -10.9659
 107   2.0000      -0.402166       -10.9435
 108   2.0000      -0.398301       -10.8383
 109   2.0000      -0.396387       -10.7862
 110   2.0000      -0.389273       -10.5927
 111   2.0000      -0.388584       -10.5739
 112   2.0000      -0.384426       -10.4608
 113   2.0000      -0.382564       -10.4101
 114   2.0000      -0.378533       -10.3004
 115   2.0000      -0.372584       -10.1385
 116   2.0000      -0.364005        -9.9051
 117   2.0000      -0.360242        -9.8027
 118   2.0000      -0.356239        -9.6938
 119   2.0000      -0.354820        -9.6551
 120   2.0000      -0.349458        -9.5092
 121   2.0000      -0.339464        -9.2373
 122   2.0000      -0.328122        -8.9286
 123   2.0000      -0.325869        -8.8674
 124   2.0000      -0.323907        -8.8140
 125   2.0000      -0.309535        -8.4229
 126   2.0000      -0.300410        -8.1746
 127   2.0000      -0.294792        -8.0217
 128   2.0000      -0.293580        -7.9887
 129   2.0000      -0.292097        -7.9484
 130   2.0000      -0.286806        -7.8044
 131   2.0000      -0.283267        -7.7081
 132   2.0000      -0.278302        -7.5730
 133   2.0000      -0.272577        -7.4172
 134   2.0000      -0.260048        -7.0763
 135   2.0000      -0.253909        -6.9092
 136   2.0000      -0.251839        -6.8529
 137   2.0000      -0.250038        -6.8039
 138   2.0000      -0.234804        -6.3893
 139   2.0000      -0.223237        -6.0746
 140   0.0000      -0.086563        -2.3555
 141   0.0000      -0.064202        -1.7470
 142   0.0000      -0.035827        -0.9749
 143   0.0000      -0.022911        -0.6235
 144   0.0000      -0.014116        -0.3841

MULLIKEN ATOMIC CHARGES
-----------------------
   0 C :   -0.539102
   1 C :    0.150087
   2 C :   -0.206146
   3 C :    0.179025
   4 C :   -0.204839
   5 C :   -0.126366
   6 C :   -0.130594
   7 C :   -0.139996
   8 C :    0.207344
   9 N :   -0.412024
  10 C :    0.313927
  11 N :   -0.609442
  12 C :   -0.244404
  13 C :    0.167175
  14 C :   -0.139907
  15 C :   -0.207108
  16 C :    0.385472
  17 F :   -0.308971
  18 C :   -0.074077
  19 C :    0.701516
  20 F :   -0.335505
  21 F :   -0.337058
  22 C :   -0.181381
  23 C :   -0.305089
  24 C :   -0.316294
  25 C :   -0.203930
  26 S :    1.202181
  27 O :   -0.528176
  28 O :   -0.549439
  29 C :   -0.113385
  30 C :   -0.149649
  31 C :   -0.147297
  32 C :    0.082950
  33 C :    0.529064
  34 O :   -0.443983
  35 O :   -0.623987
  36 C :   -0.142093
  37 C :   -0.147720
  38 H :    0.163368
  39 H :    0.161295
  40 H :    0.168893
  41 H :    0.136854
  42 H :    0.131914
  43 H :    0.134843
  44 H :    0.138272
  45 H :    0.153338
  46 H :    0.149056
  47 H :    0.186029
  48 H :    0.172463
  49 H :    0.150806
  50 H :    0.158928
  51 H :    0.177273
  52 H :    0.148710
  53 H :    0.168275
  54 H :    0.148642
  55 H :    0.142904
  56 H :    0.174637
  57 H :    0.173432
  58 H :    0.435000
  59 H :    0.182158
  60 H :    0.192133
Sum of atomic charges:   -0.0000000

LOEWDIN ATOMIC CHARGES
----------------------
   0 C :   -0.360560
   1 C :   -0.037442
   2 C :   -0.097908
   3 C :   -0.020167
   4 C :   -0.124061
   5 C :   -0.121462
   6 C :   -0.122567
   7 C :   -0.106192
   8 C :    0.016489
   9 N :   -0.094197
  10 C :    0.040100
  11 N :   -0.282881
  12 C :   -0.146231
  13 C :   -0.036664
  14 C :   -0.099775
  15 C :   -0.149017
  16 C :    0.126740
  17 F :   -0.097552
  18 C :   -0.074336
  19 C :    0.242226
  20 F :   -0.127716
  21 F :   -0.134663
  22 C :   -0.164124
  23 C :   -0.250347
  24 C :   -0.254210
  25 C :   -0.119233
  26 S :    1.264858
  27 O :   -0.558997
  28 O :   -0.572835
  29 C :   -0.174179
  30 C :   -0.110094
  31 C :   -0.098669
  32 C :   -0.040140
  33 C :    0.180349
  34 O :   -0.260453
  35 O :   -0.334947
  36 C :   -0.086000
  37 C :   -0.104679
  38 H :    0.137832
  39 H :    0.133764
  40 H :    0.141087
  41 H :    0.137184
  42 H :    0.132985
  43 H :    0.134963
  44 H :    0.137173
  45 H :    0.148718
  46 H :    0.120443
  47 H :    0.149589
  48 H :    0.152250
  49 H :    0.147128
  50 H :    0.143082
  51 H :    0.145432
  52 H :    0.133067
  53 H :    0.141196
  54 H :    0.132286
  55 H :    0.139463
  56 H :    0.153988
  57 H :    0.154891
  58 H :    0.350447
  59 H :    0.161043
  60 H :    0.163528

  Mayer bond orders larger than 0.100000
B(  0-C ,  1-C ) :   0.9805 B(  0-C , 38-H ) :   0.9369 B(  0-C , 39-H ) :   0.9348
B(  0-C , 40-H ) :   0.9326 B(  1-C ,  2-C ) :   1.4552 B(  1-C , 10-C ) :   1.3131
B(  2-C ,  3-C ) :   1.3020 B(  2-C , 41-H ) :   0.9202 B(  3-C ,  4-C ) :   1.2792
B(  3-C ,  8-C ) :   1.2421 B(  4-C ,  5-C ) :   1.5171 B(  4-C ,  7-C ) :   0.1084
B(  4-C , 42-H ) :   0.9251 B(  5-C ,  6-C ) :   1.3425 B(  5-C , 43-H ) :   0.9298
B(  6-C ,  7-C ) :   1.5201 B(  6-C , 44-H ) :   0.9292 B(  7-C ,  8-C ) :   1.2991
B(  7-C , 45-H ) :   0.9158 B(  8-C ,  9-N ) :   1.2516 B(  9-N , 10-C ) :   1.4522
B( 10-C , 11-N ) :   0.8806 B( 11-N , 12-C ) :   0.9228 B( 11-N , 26-S ) :   0.8167
B( 12-C , 13-C ) :   0.9653 B( 12-C , 46-H ) :   0.9216 B( 12-C , 47-H ) :   0.9121
B( 13-C , 14-C ) :   1.4307 B( 13-C , 25-C ) :   1.4152 B( 14-C , 15-C ) :   1.4271
B( 14-C , 48-H ) :   0.9095 B( 15-C , 16-C ) :   1.3796 B( 15-C , 49-H ) :   0.9186
B( 16-C , 17-F ) :   0.9307 B( 16-C , 18-C ) :   1.3336 B( 18-C , 19-C ) :   0.9597
B( 18-C , 25-C ) :   1.3904 B( 19-C , 20-F ) :   0.8773 B( 19-C , 21-F ) :   0.8903
B( 19-C , 22-C ) :   0.9972 B( 22-C , 23-C ) :   0.9357 B( 22-C , 24-C ) :   0.9346
B( 22-C , 50-H ) :   0.9260 B( 23-C , 24-C ) :   0.9631 B( 23-C , 51-H ) :   0.9317
B( 23-C , 52-H ) :   0.9433 B( 24-C , 53-H ) :   0.9384 B( 24-C , 54-H ) :   0.9458
B( 25-C , 55-H ) :   0.9134 B( 26-S , 27-O ) :   1.6531 B( 26-S , 28-O ) :   1.6120
B( 26-S , 29-C ) :   0.8146 B( 29-C , 30-C ) :   1.3859 B( 29-C , 37-C ) :   1.3862
B( 30-C , 31-C ) :   1.4202 B( 30-C , 56-H ) :   0.9127 B( 31-C , 32-C ) :   1.3841
B( 31-C , 57-H ) :   0.9146 B( 32-C , 33-C ) :   1.0075 B( 32-C , 36-C ) :   1.4010
B( 33-C , 34-O ) :   1.8624 B( 33-C , 35-O ) :   1.0251 B( 35-O , 58-H ) :   0.7412
B( 36-C , 37-C ) :   1.4153 B( 36-C , 59-H ) :   0.9092 B( 37-C , 60-H ) :   0.9070

FINAL SINGLE POINT ENERGY     -2187.736262073531

DIPOLE MOMENT
-------------

Method             : SCF
Type of density    : Electron Density
Multiplicity       :   1
Irrep              :   0
Energy             : -2187.7362620735311793 Eh
Relativity type    :
Basis              : AO
                                X                 Y                 Z
Electronic contribution:      0.358237329      -3.738887738      11.065565066
Nuclear contribution   :      0.103858488       5.034118879     -13.211278210
                        -----------------------------------------
Total Dipole Moment    :      0.462095816       1.295231141      -2.145713144
                        -----------------------------------------
Magnitude (a.u.)       :      2.548576298
Magnitude (Debye)      :      6.477966138

Rotational constants in cm-1:             0.005059             0.001668             0.001497
Rotational constants in MHz :           151.672567            50.009118            44.878062

                             ****ORCA TERMINATED NORMALLY****
TOTAL RUN TIME: 0 days 0 hours 11 minutes 24 seconds 560 msec
