                         Program Version 6.0.0  -   RELEASE  -
|  1> ! B3LYP 6-31G* SP
|  2>
|  3> * xyz 0 1
|  4> C 4.5281 -0.1791 0.0905
|  5> C 3.7677 -1.1973 -0.7682
|  6> N 2.3360 -0.8762 -0.7675
|  7> C 1.8002 0.2437 -1.4865
|  8> O 2.5147 0.8372 -2.3404
|  9> N 0.4515 0.6939 -1.2449
| 10> C -0.2908 1.3609 -2.3206
| 11> C -0.5039 2.8250 -1.9582
| 12> C -1.0890 2.9674 -0.5774
| 13> C -1.7964 4.1368 -0.2542
| 14> C -2.2888 4.3324 1.0375
| 15> C -2.0645 3.3725 2.0242
| 16> C -1.3484 2.2126 1.7227
| 17> C -0.8561 1.9925 0.4232
| 18> C -0.0904 0.7110 0.1296
| 19> C -0.9563 -0.5113 0.3895
| 20> C -2.2205 -0.6517 -0.2097
| 21> C -3.0091 -1.7764 0.0454
| 22> C -2.5578 -2.7823 0.9177
| 23> C -3.3912 -4.0097 1.1983
| 24> F -2.7210 -5.1327 0.7482
| 25> F -3.6025 -4.1255 2.5605
| 26> F -4.6229 -3.9486 0.5689
| 27> C -1.3016 -2.6358 1.5318
| 28> F -0.8358 -3.5848 2.3833
| 29> C -0.5165 -1.5080 1.2773
| 30> C 3.9999 -2.6319 -0.2625
| 31> F 5.3459 -2.9468 -0.3252
| 32> F 3.5658 -2.7632 1.0457
| 33> F 3.3025 -3.5238 -1.0577
| 34> H 4.3940 0.8438 -0.3195
| 35> H 5.6151 -0.4067 0.0927
| 36> H 4.1515 -0.1924 1.1356
| 37> H 4.1533 -1.1425 -1.8104
| 38> H 1.6694 -1.5174 -0.2873
| 39> H 0.2488 1.2949 -3.2903
| 40> H -1.2687 0.8633 -2.4722
| 41> H -1.1772 3.2862 -2.7134
| 42> H 0.4717 3.3562 -1.9889
| 43> H -1.9618 4.9015 -1.0033
| 44> H -2.8372 5.2345 1.2761
| 45> H -2.4422 3.5294 3.0264
| 46> H -1.1788 1.4802 2.5025
| 47> H 0.7661 0.7112 0.8420
| 48> H -2.6162 0.1204 -0.8531
| 49> H -3.9756 -1.8496 -0.4363
| 50> H 0.4392 -1.4138 1.7780
| 51> *
| 52>
| 53>                          ****END OF INPUT****

CARTESIAN COORDINATES (ANGSTROEM)
---------------------------------
  C      4.528100   -0.179100    0.090500
  C      3.767700   -1.197300   -0.768200
  N      2.336000   -0.876200   -0.767500
  C      1.800200    0.243700   -1.486500
  O      2.514700    0.837200   -2.340400
  N      0.451500    0.693900   -1.244900
  C     -0.290800    1.360900   -2.320600
  C     -0.503900    2.825000   -1.958200
  C     -1.089000    2.967400   -0.577400
  C     -1.796400    4.136800   -0.254200
  C     -2.288800    4.332400    1.037500
  C     -2.064500    3.372500    2.024200
  C     -1.348400    2.212600    1.722700
  C     -0.856100    1.992500    0.423200
  C     -0.090400    0.711000    0.129600
  C     -0.956300   -0.511300    0.389500
  C     -2.220500   -0.651700   -0.209700
  C     -3.009100   -1.776400    0.045400
  C     -2.557800   -2.782300    0.917700
  C     -3.391200   -4.009700    1.198300
  F     -2.721000   -5.132700    0.748200
  F     -3.602500   -4.125500    2.560500
  F     -4.622900   -3.948600    0.568900
  C     -1.301600   -2.635800    1.531800
  F     -0.835800   -3.584800    2.383300
  C     -0.516500   -1.508000    1.277300
  C      3.999900   -2.631900   -0.262500
  F      5.345900   -2.946800   -0.325200
  F      3.565800   -2.763200    1.045700
  F      3.302500   -3.523800   -1.057700
  H      4.394000    0.843800   -0.319500
  H      5.615100   -0.406700    0.092700
  H      4.151500   -0.192400    1.135600
  H      4.153300   -1.142500   -1.810400
  H      1.669400   -1.517400   -0.287300
  H      0.248800    1.294900   -3.290300
  H     -1.268700    0.863300   -2.472200
  H     -1.177200    3.286200   -2.713400
  H      0.471700    3.356200   -1.988900
  H     -1.961800    4.901500   -1.003300
  H     -2.837200    5.234500    1.276100
  H     -2.442200    3.529400    3.026400
  H     -1.178800    1.480200    2.502500
  H      0.766100    0.711200    0.842000
  H     -2.616200    0.120400   -0.853100
  H     -3.975600   -1.849600   -0.436300
  H      0.439200   -1.413800    1.778000

 Total Charge           Charge          ....    0
 Multiplicity           Mult            ....    1
 Number of Electrons    NEL             ....  222
 Basis Dimension        Dim             ....  454

ORBITAL ENERGIES
----------------

  NO   OCC          E(Eh)            E(eV)
   0   2.0000     -24.731341      -672.9740
   1   2.0000     -24.729166      -672.9148
   2   2.0000     -24.725554      -672.8165
   3   2.0000     -24.725500      -672.8151
   4   2.0000     -24.720453      -672.6777
   5   2.0000     -24.717531      -672.5982
   6   2.0000     -24.717472      -672.5966
   7   2.0000     -19.110153      -520.0137
   8   2.0000     -14.367180      -390.9508
   9   2.0000     -14.360885      -390.7795
  10   2.0000     -10.442261      -284.1484
  11   2.0000     -10.440759      -284.1075
  12   2.0000     -10.323426      -280.9147
  13   2.0000     -10.298502      -280.2365
  14   2.0000     -10.252745      -278.9914
  15   2.0000     -10.250696      -278.9356
  16   2.0000     -10.226554      -278.2787
  17   2.0000     -10.223561      -278.1972
  18   2.0000     -10.222906      -278.1794
  19   2.0000     -10.217137      -278.0224
  20   2.0000     -10.213303      -277.9181
  21   2.0000     -10.205280      -277.6998
  22   2.0000     -10.204967      -277.6913
  23   2.0000     -10.200510      -277.5700
  24   2.0000     -10.192849      -277.3615
  25   2.0000     -10.189511      -277.2707
  26   2.0000     -10.188934      -277.2550
  27   2.0000     -10.188517      -277.2436
  28   2.0000     -10.188089      -277.2320
  29   2.0000     -10.184284      -277.1285
  30   2.0000      -1.288493       -35.0617
  31   2.0000      -1.281597       -34.8740
  32   2.0000      -1.232470       -33.5372
  33   2.0000      -1.215482       -33.0749
  34   2.0000      -1.211987       -32.9798
  35   2.0000      -1.207797       -32.8658
  36   2.0000      -1.203774       -32.7564
  37   2.0000      -1.025598       -27.9079
  38   2.0000      -0.938243       -25.5309
  39   2.0000      -0.919041       -25.0084
  40   2.0000      -0.885622       -24.0990
  41   2.0000      -0.860514       -23.4158
  42   2.0000      -0.816017       -22.2050
  43   2.0000      -0.794528       -21.6202
  44   2.0000      -0.780265       -21.2321
  45   2.0000      -0.772585       -21.0231
  46   2.0000      -0.767361       -20.8810
  47   2.0000      -0.738731       -20.1019
  48   2.0000      -0.708909       -19.2904
  49   2.0000      -0.703184       -19.1346
  50   2.0000      -0.674141       -18.3443
  51   2.0000      -0.654982       -17.8230
  52   2.0000      -0.642575       -17.4853
  53   2.0000      -0.631707       -17.1896
  54   2.0000      -0.627192       -17.0668
  55   2.0000      -0.605455       -16.4753
  56   2.0000      -0.594655       -16.1814
  57   2.0000      -0.582316       -15.8456
  58   2.0000      -0.577236       -15.7074
  59   2.0000      -0.575123       -15.6499
  60   2.0000      -0.572821       -15.5872
  61   2.0000      -0.571119       -15.5409
  62   2.0000      -0.565749       -15.3948
  63   2.0000      -0.551501       -15.0071
  64   2.0000      -0.534485       -14.5441
  65   2.0000      -0.520406       -14.1610
  66   2.0000      -0.514760       -14.0073
  67   2.0000      -0.505576       -13.7574
  68   2.0000      -0.492247       -13.3947
  69   2.0000      -0.485100       -13.2002
  70   2.0000      -0.477889       -13.0040
  71   2.0000      -0.475687       -12.9441
  72   2.0000      -0.467926       -12.7329
  73   2.0000      -0.462451       -12.5839
  74   2.0000      -0.459632       -12.5072
  75   2.0000      -0.454703       -12.3731
  76   2.0000      -0.453515       -12.3408
  77   2.0000      -0.449197       -12.2233
  78   2.0000      -0.449029       -12.2187
  79   2.0000      -0.440414       -11.9843
  80   2.0000      -0.438339       -11.9278
  81   2.0000      -0.429274       -11.6812
  82   2.0000      -0.424438       -11.5496
  83   2.0000      -0.423541       -11.5251
  84   2.0000      -0.418840       -11.3972
  85   2.0000      -0.416180       -11.3248
  86   2.0000      -0.412714       -11.2305
  87   2.0000      -0.412031       -11.2119
  88   2.0000      -0.409154       -11.1336
  89   2.0000      -0.407889       -11.0992
  90   2.0000      -0.405652       -11.0384
  91   2.0000      -0.398757       -10.8507
  92   2.0000      -0.397552       -10.8179
  93   2.0000      -0.390201       -10.6179
  94   2.0000      -0.386060       -10.5052
  95   2.0000      -0.383642       -10.4394
  96   2.0000      -0.380489       -10.3536
  97   2.0000      -0.374880       -10.2010
  98   2.0000      -0.366591        -9.9755
  99   2.0000      -0.364184        -9.9099
 100   2.0000      -0.358986        -9.7685
 101   2.0000      -0.350982        -9.5507
 102   2.0000      -0.344318        -9.3694
 103   2.0000      -0.333906        -9.0860
 104   2.0000      -0.282709        -7.6929
 105   2.0000      -0.269573        -7.3355
 106   2.0000      -0.265822        -7.2334
 107   2.0000      -0.255717        -6.9584
 108   2.0000      -0.250228        -6.8090
 109   2.0000      -0.245867        -6.6904
 110   2.0000      -0.232191        -6.3182
 111   0.0000      -0.042496        -1.1564
 112   0.0000      -0.028585        -0.7778
 113   0.0000      -0.015927        -0.4334
 114   0.0000      -0.004515        -0.1228
 115   0.0000       0.021301         0.5796

MULLIKEN ATOMIC CHARGES
-----------------------
   0 C :   -0.462747
   1 C :   -0.020991
   2 N :   -0.651788
   3 C :    0.682176
   4 O :   -0.497766
   5 N :   -0.436265
   6 C :   -0.150388
   7 C :   -0.333324
   8 C :    0.100677
   9 C :   -0.182458
  10 C :   -0.120713
  11 C :   -0.130595
  12 C :   -0.171473
  13 C :    0.105281
  14 C :   -0.165978
  15 C :    0.227652
  16 C :   -0.177581
  17 C :   -0.149922
  18 C :   -0.117072
  19 C :    0.921316
  20 F :   -0.296918
  21 F :   -0.298487
  22 F :   -0.305354
  23 C :    0.395413
  24 F :   -0.297775
  25 C :   -0.304902
  26 C :    0.910183
  27 F :   -0.299594
  28 F :   -0.306064
  29 F :   -0.301633
  30 H :    0.185272
  31 H :    0.158508
  32 H :    0.151671
  33 H :    0.194235
  34 H :    0.339833
  35 H :    0.185118
  36 H :    0.143934
  37 H :    0.140767
  38 H :    0.178859
  39 H :    0.128131
  40 H :    0.130659
  41 H :    0.132131
  42 H :    0.129943
  43 H :    0.168145
  44 H :    0.149253
  45 H :    0.165675
  46 H :    0.154956
Sum of atomic charges:    0.0000000

LOEWDIN ATOMIC CHARGES
----------------------
   0 C :   -0.365319
   1 C :   -0.086101
   2 N :   -0.255142
   3 C :    0.164653
   4 O :   -0.317053
   5 N :   -0.115759
   6 C :   -0.147936
   7 C :   -0.229875
   8 C :   -0.023653
   9 C :   -0.130080
  10 C :   -0.125479
  11 C :   -0.130300
  12 C :   -0.125933
  13 C :   -0.029112
  14 C :   -0.045092
  15 C :   -0.000476
  16 C :   -0.131213
  17 C :   -0.102218
  18 C :   -0.099057
  19 C :    0.314760
  20 F :   -0.110836
  21 F :   -0.111256
  22 F :   -0.110760
  23 C :    0.138085
  24 F :   -0.090284
  25 C :   -0.177933
  26 C :    0.306372
  27 F :   -0.107766
  28 F :   -0.117842
  29 F :   -0.112664
  30 H :    0.147121
  31 H :    0.133676
  32 H :    0.128482
  33 H :    0.156102
  34 H :    0.253999
  35 H :    0.150985
  36 H :    0.117139
  37 H :    0.128956
  38 H :    0.145504
  39 H :    0.132435
  40 H :    0.132932
  41 H :    0.133687
  42 H :    0.133152
  43 H :    0.142479
  44 H :    0.141661
  45 H :    0.150850
  46 H :    0.146108

  Mayer bond orders larger than 0.100000
B(  0-C ,  1-C ) :   0.9863 B(  0-C , 30-H ) :   0.9315 B(  0-C , 31-H ) :   0.9368
B(  0-C , 32-H ) :   0.9436 B(  1-C ,  2-N ) :   0.8887 B(  1-C , 26-C ) :   0.9528
B(  1-C , 33-H ) :   0.9001 B(  2-N ,  3-C ) :   1.0457 B(  2-N , 34-H ) :   0.7932
B(  3-C ,  4-O ) :   1.7792 B(  3-C ,  5-N ) :   1.0388 B(  5-N ,  6-C ) :   0.9418
B(  5-N , 14-C ) :   0.9423 B(  6-C ,  7-C ) :   0.9853 B(  6-C , 35-H ) :   0.9197
B(  6-C , 36-H ) :   0.9234 B(  7-C ,  8-C ) :   0.9907 B(  7-C , 37-H ) :   0.9284
B(  7-C , 38-H ) :   0.9167 B(  8-C ,  9-C ) :   1.4058 B(  8-C , 13-C ) :   1.4423
B(  9-C , 10-C ) :   1.4500 B(  9-C , 39-H ) :   0.9252 B( 10-C , 11-C ) :   1.4382
B( 10-C , 40-H ) :   0.9292 B( 11-C , 12-C ) :   1.4507 B( 11-C , 41-H ) :   0.9292
B( 12-C , 13-C ) :   1.3938 B( 12-C , 42-H ) :   0.9229 B( 13-C , 14-C ) :   0.9562
B( 14-C , 15-C ) :   0.9147 B( 14-C , 43-H ) :   0.9098 B( 15-C , 16-C ) :   1.4140
B( 15-C , 25-C ) :   1.3772 B( 16-C , 17-C ) :   1.4367 B( 16-C , 44-H ) :   0.9136
B( 17-C , 18-C ) :   1.4013 B( 17-C , 45-H ) :   0.9169 B( 18-C , 19-C ) :   0.9656
B( 18-C , 23-C ) :   1.3343 B( 19-C , 20-F ) :   0.9762 B( 19-C , 21-F ) :   0.9693
B( 19-C , 22-F ) :   0.9467 B( 23-C , 24-F ) :   0.9539 B( 23-C , 25-C ) :   1.3659
B( 25-C , 46-H ) :   0.9089 B( 26-C , 27-F ) :   0.9614 B( 26-C , 28-F ) :   0.9523
B( 26-C , 29-F ) :   0.9695

FINAL SINGLE POINT ENERGY     -1655.142555856472

DIPOLE MOMENT
-------------

Method             : SCF
Type of density    : Electron Density
Multiplicity       :   1
Irrep              :   0
Energy             : -1655.1425558564715175 Eh
Relativity type    :
Basis              : AO
                                X                 Y                 Z
Electronic contribution:     -5.069584260     -49.083156478      11.599449385
Nuclear contribution   :      4.491851143      50.541719448     -11.475421042
                        -----------------------------------------
Total Dipole Moment    :     -0.577733118       1.458562970       0.124028342
                        -----------------------------------------
Magnitude (a.u.)       :      1.573710431
Magnitude (Debye)      :      4.000054027

Rotational constants in cm-1:             0.004550             0.004112             0.002479
Rotational constants in MHz :           136.410662           123.275705            74.315504

                             ****ORCA TERMINATED NORMALLY****
TOTAL RUN TIME: 0 days 0 hours 7 minutes 34 seconds 478 msec
