                         Program Version 6.0.0  -   RELEASE  -
|  1> ! B3LYP 6-31G* SP
|  2>
|  3> * xyz 0 1
|  4> C 5.9526 2.3783 -1.4102
|  5> N 5.2465 1.1797 -0.9158
|  6> C 3.9407 1.2785 -0.5219
|  7> O 3.3818 2.4089 -0.5507
|  8> C 3.2367 0.1385 -0.0583
|  9> C 1.8375 0.1551 0.2818
| 10> C 0.9575 1.3835 0.0468
| 11> C -0.5227 1.1500 0.1849
| 12> O -1.1744 0.7252 -0.8076
| 13> N -1.1692 1.3665 1.4493
| 14> C -2.5614 1.1218 1.6852
| 15> N -3.4228 0.6735 0.7475
| 16> C -4.6850 0.5202 1.2381
| 17> C -5.7940 0.0305 0.3766
| 18> C -7.1377 0.0801 0.8008
| 19> C -8.1618 -0.3845 -0.0299
| 20> C -7.8636 -0.9009 -1.2916
| 21> C -6.5380 -0.9529 -1.7287
| 22> Cl -6.1638 -1.6010 -3.3154
| 23> C -5.5090 -0.4891 -0.9018
| 24> C -4.8187 0.8505 2.5921
| 25> S -3.3162 1.3449 3.1661
| 26> C 1.2690 -1.0004 0.8561
| 27> C 2.0100 -2.1577 1.0235
| 28> C 3.3371 -2.2038 0.6300
| 29> C 3.9803 -1.0690 0.0839
| 30> N 5.3077 -1.1188 -0.2898
| 31> C 6.0777 -2.3764 -0.1631
| 32> C 5.9290 0.0031 -0.7775
| 33> O 7.1524 -0.0419 -1.0945
| 34> H 5.2626 3.0617 -1.9498
| 35> H 6.4098 2.9205 -0.5559
| 36> H 6.7463 2.1110 -2.1402
| 37> H 1.2559 2.1836 0.7571
| 38> H 1.1197 1.7522 -0.9886
| 39> H -0.5921 1.7028 2.2526
| 40> H -7.4094 0.4866 1.7639
| 41> H -9.1901 -0.3407 0.3050
| 42> H -8.6626 -1.2581 -1.9286
| 43> H -4.4882 -0.5422 -1.2595
| 44> H -5.7141 0.7898 3.1935
| 45> H 0.2367 -1.0297 1.1755
| 46> H 1.5459 -3.0354 1.4558
| 47> H 3.8517 -3.1415 0.7801
| 48> H 6.1479 -2.6702 0.9060
| 49> H 5.5864 -3.1827 -0.7485
| 50> H 7.1152 -2.3002 -0.5480
| 51> *
| 52>
| 53>                          ****END OF INPUT****

CARTESIAN COORDINATES (ANGSTROEM)
---------------------------------
  C      5.952600    2.378300   -1.410200
  N      5.246500    1.179700   -0.915800
  C      3.940700    1.278500   -0.521900
  O      3.381800    2.408900   -0.550700
  C      3.236700    0.138500   -0.058300
  C      1.837500    0.155100    0.281800
  C      0.957500    1.383500    0.046800
  C     -0.522700    1.150000    0.184900
  O     -1.174400    0.725200   -0.807600
  N     -1.169200    1.366500    1.449300
  C     -2.561400    1.121800    1.685200
  N     -3.422800    0.673500    0.747500
  C     -4.685000    0.520200    1.238100
  C     -5.794000    0.030500    0.376600
  C     -7.137700    0.080100    0.800800
  C     -8.161800   -0.384500   -0.029900
  C     -7.863600   -0.900900   -1.291600
  C     -6.538000   -0.952900   -1.728700
  Cl    -6.163800   -1.601000   -3.315400
  C     -5.509000   -0.489100   -0.901800
  C     -4.818700    0.850500    2.592100
  S     -3.316200    1.344900    3.166100
  C      1.269000   -1.000400    0.856100
  C      2.010000   -2.157700    1.023500
  C      3.337100   -2.203800    0.630000
  C      3.980300   -1.069000    0.083900
  N      5.307700   -1.118800   -0.289800
  C      6.077700   -2.376400   -0.163100
  C      5.929000    0.003100   -0.777500
  O      7.152400   -0.041900   -1.094500
  H      5.262600    3.061700   -1.949800
  H      6.409800    2.920500   -0.555900
  H      6.746300    2.111000   -2.140200
  H      1.255900    2.183600    0.757100
  H      1.119700    1.752200   -0.988600
  H     -0.592100    1.702800    2.252600
  H     -7.409400    0.486600    1.763900
  H     -9.190100   -0.340700    0.305000
  H     -8.662600   -1.258100   -1.928600
  H     -4.488200   -0.542200   -1.259500
  H     -5.714100    0.789800    3.193500
  H      0.236700   -1.029700    1.175500
  H      1.545900   -3.035400    1.455800
  H      3.851700   -3.141500    0.780100
  H      6.147900   -2.670200    0.906000
  H      5.586400   -3.182700   -0.748500
  H      7.115200   -2.300200   -0.548000

 Total Charge           Charge          ....    0
 Multiplicity           Mult            ....    1
 Number of Electrons    NEL             ....  228
 Basis Dimension        Dim             ....  462

ORBITAL ENERGIES
----------------

  NO   OCC          E(Eh)            E(eV)
   0   2.0000    -101.517790     -2762.4395
   1   2.0000     -88.908087     -2419.3121
   2   2.0000     -19.116198      -520.1782
   3   2.0000     -19.113566      -520.1066
   4   2.0000     -19.110002      -520.0096
   5   2.0000     -14.403500      -391.9392
   6   2.0000     -14.397391      -391.7729
   7   2.0000     -14.397297      -391.7704
   8   2.0000     -14.328178      -389.8896
   9   2.0000     -10.326007      -280.9849
  10   2.0000     -10.300305      -280.2856
  11   2.0000     -10.295286      -280.1490
  12   2.0000     -10.291362      -280.0422
  13   2.0000     -10.259282      -279.1693
  14   2.0000     -10.238178      -278.5950
  15   2.0000     -10.234442      -278.4933
  16   2.0000     -10.229744      -278.3655
  17   2.0000     -10.229320      -278.3540
  18   2.0000     -10.219338      -278.0823
  19   2.0000     -10.213632      -277.9271
  20   2.0000     -10.211260      -277.8625
  21   2.0000     -10.206199      -277.7248
  22   2.0000     -10.204241      -277.6715
  23   2.0000     -10.201524      -277.5976
  24   2.0000     -10.200881      -277.5801
  25   2.0000     -10.194840      -277.4157
  26   2.0000     -10.189423      -277.2683
  27   2.0000     -10.188810      -277.2516
  28   2.0000     -10.188485      -277.2428
  29   2.0000     -10.185753      -277.1684
  30   2.0000      -9.449738      -257.1404
  31   2.0000      -7.986006      -217.3103
  32   2.0000      -7.212750      -196.2689
  33   2.0000      -7.203357      -196.0133
  34   2.0000      -7.203024      -196.0043
  35   2.0000      -5.949063      -161.8822
  36   2.0000      -5.944964      -161.7707
  37   2.0000      -5.942805      -161.7119
  38   2.0000      -1.069323       -29.0978
  39   2.0000      -1.023634       -27.8545
  40   2.0000      -1.020663       -27.7737
  41   2.0000      -0.976170       -26.5629
  42   2.0000      -0.971270       -26.4296
  43   2.0000      -0.940726       -25.5985
  44   2.0000      -0.917473       -24.9657
  45   2.0000      -0.879499       -23.9324
  46   2.0000      -0.870256       -23.6809
  47   2.0000      -0.831613       -22.6293
  48   2.0000      -0.813722       -22.1425
  49   2.0000      -0.798280       -21.7223
  50   2.0000      -0.788267       -21.4498
  51   2.0000      -0.770946       -20.9785
  52   2.0000      -0.746546       -20.3146
  53   2.0000      -0.735486       -20.0136
  54   2.0000      -0.728591       -19.8260
  55   2.0000      -0.716757       -19.5040
  56   2.0000      -0.705878       -19.2079
  57   2.0000      -0.659088       -17.9347
  58   2.0000      -0.653271       -17.7764
  59   2.0000      -0.634208       -17.2577
  60   2.0000      -0.620019       -16.8716
  61   2.0000      -0.610808       -16.6209
  62   2.0000      -0.600053       -16.3283
  63   2.0000      -0.585050       -15.9200
  64   2.0000      -0.573312       -15.6006
  65   2.0000      -0.549010       -14.9393
  66   2.0000      -0.543976       -14.8023
  67   2.0000      -0.523406       -14.2426
  68   2.0000      -0.516949       -14.0669
  69   2.0000      -0.506554       -13.7840
  70   2.0000      -0.503951       -13.7132
  71   2.0000      -0.489900       -13.3309
  72   2.0000      -0.485615       -13.2143
  73   2.0000      -0.467518       -12.7218
  74   2.0000      -0.463220       -12.6049
  75   2.0000      -0.462270       -12.5790
  76   2.0000      -0.460078       -12.5194
  77   2.0000      -0.454957       -12.3800
  78   2.0000      -0.452202       -12.3050
  79   2.0000      -0.451607       -12.2888
  80   2.0000      -0.436523       -11.8784
  81   2.0000      -0.431943       -11.7538
  82   2.0000      -0.424856       -11.5609
  83   2.0000      -0.421626       -11.4730
  84   2.0000      -0.420297       -11.4369
  85   2.0000      -0.410055       -11.1582
  86   2.0000      -0.403944       -10.9919
  87   2.0000      -0.402282       -10.9466
  88   2.0000      -0.396435       -10.7876
  89   2.0000      -0.389807       -10.6072
  90   2.0000      -0.388174       -10.5628
  91   2.0000      -0.381057       -10.3691
  92   2.0000      -0.379991       -10.3401
  93   2.0000      -0.379500       -10.3267
  94   2.0000      -0.372674       -10.1410
  95   2.0000      -0.370366       -10.0782
  96   2.0000      -0.359302        -9.7771
  97   2.0000      -0.354576        -9.6485
  98   2.0000      -0.352558        -9.5936
  99   2.0000      -0.330269        -8.9871
 100   2.0000      -0.315798        -8.5933
 101   2.0000      -0.304769        -8.2932
 102   2.0000      -0.301311        -8.1991
 103   2.0000      -0.293369        -7.9830
 104   2.0000      -0.282730        -7.6935
 105   2.0000      -0.274069        -7.4578
 106   2.0000      -0.266726        -7.2580
 107   2.0000      -0.263762        -7.1773
 108   2.0000      -0.253576        -6.9001
 109   2.0000      -0.250274        -6.8103
 110   2.0000      -0.239678        -6.5220
 111   2.0000      -0.233776        -6.3614
 112   2.0000      -0.230997        -6.2857
 113   2.0000      -0.212363        -5.7787
 114   0.0000      -0.058413        -1.5895
 115   0.0000      -0.039747        -1.0816
 116   0.0000      -0.022403        -0.6096
 117   0.0000      -0.019827        -0.5395
 118   0.0000      -0.003570        -0.0971

MULLIKEN ATOMIC CHARGES
-----------------------
   0 C :   -0.313684
   1 N :   -0.462734
   2 C :    0.501504
   3 O :   -0.498788
   4 C :    0.001461
   5 C :    0.096226
   6 C :   -0.391370
   7 C :    0.535889
   8 O :   -0.420923
   9 N :   -0.658355
  10 C :    0.253928
  11 N :   -0.374620
  12 C :    0.223414
  13 C :    0.123196
  14 C :   -0.178954
  15 C :   -0.125677
  16 C :   -0.127426
  17 C :   -0.066904
  18 Cl:   -0.018213
  19 C :   -0.180516
  20 C :   -0.396864
  21 S :    0.248410
  22 C :   -0.186122
  23 C :   -0.110415
  24 C :   -0.196921
  25 C :    0.316400
  26 N :   -0.509703
  27 C :   -0.336291
  28 C :    0.671057
  29 O :   -0.510928
  30 H :    0.193884
  31 H :    0.177089
  32 H :    0.196207
  33 H :    0.168322
  34 H :    0.218103
  35 H :    0.345189
  36 H :    0.124484
  37 H :    0.136724
  38 H :    0.147040
  39 H :    0.194602
  40 H :    0.182921
  41 H :    0.152484
  42 H :    0.146849
  43 H :    0.140734
  44 H :    0.171550
  45 H :    0.173590
  46 H :    0.224150
Sum of atomic charges:   -0.0000000

LOEWDIN ATOMIC CHARGES
----------------------
   0 C :   -0.258196
   1 N :   -0.020603
   2 C :    0.114366
   3 O :   -0.291348
   4 C :   -0.076013
   5 C :    0.040628
   6 C :   -0.238875
   7 C :    0.145737
   8 O :   -0.240887
   9 N :   -0.211462
  10 C :   -0.083449
  11 N :   -0.150955
  12 C :   -0.000496
  13 C :   -0.013004
  14 C :   -0.127925
  15 C :   -0.124081
  16 C :   -0.134496
  17 C :   -0.085753
  18 Cl:    0.035841
  19 C :   -0.117711
  20 C :   -0.347011
  21 S :    0.386763
  22 C :   -0.150337
  23 C :   -0.098145
  24 C :   -0.166895
  25 C :    0.053022
  26 N :   -0.026872
  27 C :   -0.265274
  28 C :    0.136633
  29 O :   -0.319871
  30 H :    0.151759
  31 H :    0.140456
  32 H :    0.153017
  33 H :    0.146300
  34 H :    0.178292
  35 H :    0.266600
  36 H :    0.130427
  37 H :    0.136542
  38 H :    0.142270
  39 H :    0.165301
  40 H :    0.160508
  41 H :    0.144128
  42 H :    0.141570
  43 H :    0.140354
  44 H :    0.134880
  45 H :    0.136249
  46 H :    0.168013

  Mayer bond orders larger than 0.100000
B(  0-C ,  1-N ) :   0.9174 B(  0-C , 30-H ) :   0.9251 B(  0-C , 31-H ) :   0.9409
B(  0-C , 32-H ) :   0.9252 B(  1-N ,  2-C ) :   1.0045 B(  1-N , 28-C ) :   1.0411
B(  2-C ,  3-O ) :   1.7372 B(  2-C ,  4-C ) :   1.0601 B(  4-C ,  5-C ) :   1.3598
B(  4-C , 25-C ) :   1.2876 B(  5-C ,  6-C ) :   1.0027 B(  5-C , 22-C ) :   1.4438
B(  6-C ,  7-C ) :   0.9314 B(  6-C , 33-H ) :   0.9013 B(  6-C , 34-H ) :   0.8949
B(  7-C ,  8-O ) :   1.9047 B(  7-C ,  9-N ) :   0.9621 B(  9-N , 10-C ) :   0.9474
B(  9-N , 35-H ) :   0.8201 B( 10-C , 11-N ) :   1.5115 B( 10-C , 20-C ) :   0.1088
B( 10-C , 21-S ) :   1.1392 B( 11-N , 12-C ) :   1.2640 B( 12-C , 13-C ) :   1.0552
B( 12-C , 20-C ) :   1.5119 B( 13-C , 14-C ) :   1.4017 B( 13-C , 19-C ) :   1.3969
B( 14-C , 15-C ) :   1.4430 B( 14-C , 36-H ) :   0.9208 B( 15-C , 16-C ) :   1.4436
B( 15-C , 37-H ) :   0.9282 B( 16-C , 17-C ) :   1.4161 B( 16-C , 38-H ) :   0.9249
B( 17-C , 18-Cl) :   1.0141 B( 17-C , 19-C ) :   1.3835 B( 19-C , 39-H ) :   0.9003
B( 20-C , 21-S ) :   1.1144 B( 20-C , 40-H ) :   0.9012 B( 22-C , 23-C ) :   1.4049
B( 22-C , 41-H ) :   0.9111 B( 23-C , 24-C ) :   1.4690 B( 23-C , 42-H ) :   0.9255
B( 24-C , 25-C ) :   1.3463 B( 24-C , 43-H ) :   0.9143 B( 25-C , 26-N ) :   0.9703
B( 26-N , 27-C ) :   0.9344 B( 26-N , 28-C ) :   1.0464 B( 27-C , 44-H ) :   0.9324
B( 27-C , 45-H ) :   0.9313 B( 27-C , 46-H ) :   0.9139 B( 28-C , 29-O ) :   1.7840

FINAL SINGLE POINT ENERGY     -2112.681718463749

DIPOLE MOMENT
-------------

Method             : SCF
Type of density    : Electron Density
Multiplicity       :   1
Irrep              :   0
Energy             : -2112.6817184637488936 Eh
Relativity type    :
Basis              : AO
                                X                 Y                 Z
Electronic contribution:    -25.572022327       0.620822549      -4.442904640
Nuclear contribution   :     25.934395109      -1.279919326       6.773706314
                        -----------------------------------------
Total Dipole Moment    :      0.362372782      -0.659096777       2.330801673
                        -----------------------------------------
Magnitude (a.u.)       :      2.449154759
Magnitude (Debye)      :      6.225256669

Rotational constants in cm-1:             0.008957             0.001567             0.001470
Rotational constants in MHz :           268.528998            46.986002            44.068229

                             ****ORCA TERMINATED NORMALLY****
TOTAL RUN TIME: 0 days 0 hours 7 minutes 7 seconds 250 msec
