                         Program Version 6.0.0  -   RELEASE  -
|  1> ! B3LYP 6-31G* SP
|  2>
|  3> * xyz 0 1
|  4> C 5.2644 2.7601 0.0950
|  5> C 5.3021 1.2401 0.0821
|  6> O 5.4416 0.7902 -1.2574
|  7> C 4.9247 -0.5241 -1.4815
|  8> C 5.2272 -0.8466 -2.9576
|  9> C 3.3840 -0.5278 -1.3361
| 10> C 2.6759 0.6265 -1.7413
| 11> C 1.2854 0.6941 -1.6506
| 12> C 0.5545 -0.4012 -1.1801
| 13> C -0.9379 -0.3108 -1.0188
| 14> N -1.2800 -0.0278 0.3768
| 15> C -1.4375 -1.1046 1.3075
| 16> N -0.4224 -1.3708 2.1712
| 17> C -0.4796 -2.3820 3.0712
| 18> C -1.6088 -3.2027 3.1342
| 19> C -1.6659 -4.2587 4.0571
| 20> C -2.7942 -5.0775 4.1176
| 21> C -3.8707 -4.8502 3.2604
| 22> C -3.8280 -3.8017 2.3372
| 23> C -2.6976 -2.9577 2.2595
| 24> C -2.6209 -1.8789 1.3401
| 25> C -3.7827 -1.5483 0.4285
| 26> S -1.2229 1.6005 0.9750
| 27> O 0.1926 2.1058 0.9377
| 28> O -1.7068 1.6412 2.3987
| 29> C -2.2731 2.6140 -0.0081
| 30> C -1.7343 3.4950 -0.9547
| 31> C -2.5793 4.2698 -1.7558
| 32> C -3.9769 4.1725 -1.6212
| 33> C -4.8769 4.9884 -2.4664
| 34> O -4.4029 5.7631 -3.3414
| 35> O -6.2585 4.9070 -2.3021
| 36> C -4.5097 3.2827 -0.6714
| 37> C -3.6626 2.5076 0.1262
| 38> C 1.2322 -1.5710 -0.8186
| 39> C 2.6258 -1.6490 -0.9089
| 40> F 3.2000 -2.8290 -0.5784
| 41> C 5.6956 -1.5598 -0.5915
| 42> F 7.0371 -1.2192 -0.5400
| 43> F 5.6198 -2.8436 -1.1086
| 44> F 5.2006 -1.5719 0.7023
| 45> H 5.1958 3.1265 1.1412
| 46> H 4.3798 3.1224 -0.4697
| 47> H 6.1862 3.1684 -0.3698
| 48> H 4.3756 0.8737 0.5755
| 49> H 6.1799 0.9115 0.6794
| 50> H 6.3242 -0.8759 -3.1336
| 51> H 4.7922 -1.8261 -3.2528
| 52> H 4.7998 -0.0646 -3.6228
| 53> H 3.2036 1.4892 -2.1281
| 54> H 0.7793 1.6053 -1.9453
| 55> H -1.3553 0.4817 -1.6763
| 56> H -1.4063 -1.2661 -1.3430
| 57> H 0.3624 -2.5463 3.7327
| 58> H -0.8387 -4.4505 4.7306
| 59> H -2.8333 -5.8917 4.8300
| 60> H -4.7429 -5.4897 3.3106
| 61> H -4.6826 -3.6668 1.6883
| 62> H -4.7029 -1.3964 1.0316
| 63> H -3.6259 -0.6179 -0.1525
| 64> H -3.9429 -2.3792 -0.2901
| 65> H -0.6624 3.5792 -1.0795
| 66> H -2.1390 4.9420 -2.4814
| 67> H -6.8855 5.4584 -2.8758
| 68> H -5.5807 3.1810 -0.5458
| 69> H -4.0907 1.8202 0.8459
| 70> H 0.6767 -2.4315 -0.4650
| 71> *
| 72>
| 73>                          ****END OF INPUT****

CARTESIAN COORDINATES (ANGSTROEM)
---------------------------------
  C      5.264400    2.760100    0.095000
  C      5.302100    1.240100    0.082100
  O      5.441600    0.790200   -1.257400
  C      4.924700   -0.524100   -1.481500
  C      5.227200   -0.846600   -2.957600
  C      3.384000   -0.527800   -1.336100
  C      2.675900    0.626500   -1.741300
  C      1.285400    0.694100   -1.650600
  C      0.554500   -0.401200   -1.180100
  C     -0.937900   -0.310800   -1.018800
  N     -1.280000   -0.027800    0.376800
  C     -1.437500   -1.104600    1.307500
  N     -0.422400   -1.370800    2.171200
  C     -0.479600   -2.382000    3.071200
  C     -1.608800   -3.202700    3.134200
  C     -1.665900   -4.258700    4.057100
  C     -2.794200   -5.077500    4.117600
  C     -3.870700   -4.850200    3.260400
  C     -3.828000   -3.801700    2.337200
  C     -2.697600   -2.957700    2.259500
  C     -2.620900   -1.878900    1.340100
  C     -3.782700   -1.548300    0.428500
  S     -1.222900    1.600500    0.975000
  O      0.192600    2.105800    0.937700
  O     -1.706800    1.641200    2.398700
  C     -2.273100    2.614000   -0.008100
  C     -1.734300    3.495000   -0.954700
  C     -2.579300    4.269800   -1.755800
  C     -3.976900    4.172500   -1.621200
  C     -4.876900    4.988400   -2.466400
  O     -4.402900    5.763100   -3.341400
  O     -6.258500    4.907000   -2.302100
  C     -4.509700    3.282700   -0.671400
  C     -3.662600    2.507600    0.126200
  C      1.232200   -1.571000   -0.818600
  C      2.625800   -1.649000   -0.908900
  F      3.200000   -2.829000   -0.578400
  C      5.695600   -1.559800   -0.591500
  F      7.037100   -1.219200   -0.540000
  F      5.619800   -2.843600   -1.108600
  F      5.200600   -1.571900    0.702300
  H      5.195800    3.126500    1.141200
  H      4.379800    3.122400   -0.469700
  H      6.186200    3.168400   -0.369800
  H      4.375600    0.873700    0.575500
  H      6.179900    0.911500    0.679400
  H      6.324200   -0.875900   -3.133600
  H      4.792200   -1.826100   -3.252800
  H      4.799800   -0.064600   -3.622800
  H      3.203600    1.489200   -2.128100
  H      0.779300    1.605300   -1.945300
  H     -1.355300    0.481700   -1.676300
  H     -1.406300   -1.266100   -1.343000
  H      0.362400   -2.546300    3.732700
  H     -0.838700   -4.450500    4.730600
  H     -2.833300   -5.891700    4.830000
  H     -4.742900   -5.489700    3.310600
  H     -4.682600   -3.666800    1.688300
  H     -4.702900   -1.396400    1.031600
  H     -3.625900   -0.617900   -0.152500
  H     -3.942900   -2.379200   -0.290100
  H     -0.662400    3.579200   -1.079500
  H     -2.139000    4.942000   -2.481400
  H     -6.885500    5.458400   -2.875800
  H     -5.580700    3.181000   -0.545800
  H     -4.090700    1.820200    0.845900
  H      0.676700   -2.431500   -0.465000

 Total Charge           Charge          ....    0
 Multiplicity           Mult            ....    1
 Number of Electrons    NEL             ....  306
 Basis Dimension        Dim             ....  630

ORBITAL ENERGIES
----------------

  NO   OCC          E(Eh)            E(eV)
   0   2.0000     -89.097217     -2424.4585
   1   2.0000     -24.709171      -672.3707
   2   2.0000     -24.709090      -672.3685
   3   2.0000     -24.707783      -672.3330
   4   2.0000     -24.697230      -672.0458
   5   2.0000     -19.201609      -522.5023
   6   2.0000     -19.150286      -521.1058
   7   2.0000     -19.143773      -520.9285
   8   2.0000     -19.123650      -520.3810
   9   2.0000     -19.120516      -520.2957
  10   2.0000     -14.371732      -391.0747
  11   2.0000     -14.328513      -389.8987
  12   2.0000     -10.422906      -283.6217
  13   2.0000     -10.341307      -281.4013
  14   2.0000     -10.270253      -279.4678
  15   2.0000     -10.267539      -279.3939
  16   2.0000     -10.261577      -279.2317
  17   2.0000     -10.248387      -278.8728
  18   2.0000     -10.241239      -278.6783
  19   2.0000     -10.238999      -278.6173
  20   2.0000     -10.227401      -278.3017
  21   2.0000     -10.226791      -278.2851
  22   2.0000     -10.224397      -278.2200
  23   2.0000     -10.224084      -278.2115
  24   2.0000     -10.223614      -278.1987
  25   2.0000     -10.213346      -277.9193
  26   2.0000     -10.212565      -277.8980
  27   2.0000     -10.209034      -277.8019
  28   2.0000     -10.204302      -277.6732
  29   2.0000     -10.201235      -277.5897
  30   2.0000     -10.200203      -277.5616
  31   2.0000     -10.198889      -277.5259
  32   2.0000     -10.198758      -277.5223
  33   2.0000     -10.197242      -277.4811
  34   2.0000     -10.195883      -277.4441
  35   2.0000     -10.194549      -277.4078
  36   2.0000     -10.188705      -277.2488
  37   2.0000     -10.186827      -277.1977
  38   2.0000     -10.183587      -277.1095
  39   2.0000     -10.177336      -276.9394
  40   2.0000     -10.160737      -276.4877
  41   2.0000      -8.132887      -221.3071
  42   2.0000      -6.097997      -165.9349
  43   2.0000      -6.095855      -165.8767
  44   2.0000      -6.095538      -165.8680
  45   2.0000      -1.269400       -34.5421
  46   2.0000      -1.212957       -33.0062
  47   2.0000      -1.194292       -32.4983
  48   2.0000      -1.191924       -32.4339
  49   2.0000      -1.085873       -29.5481
  50   2.0000      -1.080984       -29.4151
  51   2.0000      -1.038909       -28.2701
  52   2.0000      -1.000533       -27.2259
  53   2.0000      -0.963061       -26.2062
  54   2.0000      -0.958573       -26.0841
  55   2.0000      -0.915687       -24.9171
  56   2.0000      -0.896537       -24.3960
  57   2.0000      -0.866417       -23.5764
  58   2.0000      -0.859326       -23.3835
  59   2.0000      -0.814436       -22.1619
  60   2.0000      -0.811916       -22.0933
  61   2.0000      -0.804884       -21.9020
  62   2.0000      -0.783319       -21.3152
  63   2.0000      -0.778413       -21.1817
  64   2.0000      -0.763985       -20.7891
  65   2.0000      -0.746875       -20.3235
  66   2.0000      -0.744817       -20.2675
  67   2.0000      -0.727774       -19.8037
  68   2.0000      -0.718886       -19.5619
  69   2.0000      -0.707387       -19.2490
  70   2.0000      -0.689607       -18.7652
  71   2.0000      -0.687179       -18.6991
  72   2.0000      -0.658772       -17.9261
  73   2.0000      -0.646791       -17.6001
  74   2.0000      -0.643117       -17.5001
  75   2.0000      -0.626046       -17.0356
  76   2.0000      -0.620957       -16.8971
  77   2.0000      -0.617226       -16.7956
  78   2.0000      -0.603093       -16.4110
  79   2.0000      -0.598960       -16.2985
  80   2.0000      -0.597171       -16.2498
  81   2.0000      -0.587137       -15.9768
  82   2.0000      -0.564101       -15.3500
  83   2.0000      -0.559667       -15.2293
  84   2.0000      -0.558821       -15.2063
  85   2.0000      -0.546673       -14.8757
  86   2.0000      -0.543265       -14.7830
  87   2.0000      -0.533145       -14.5076
  88   2.0000      -0.523262       -14.2387
  89   2.0000      -0.513876       -13.9833
  90   2.0000      -0.502408       -13.6712
  91   2.0000      -0.499556       -13.5936
  92   2.0000      -0.497565       -13.5394
  93   2.0000      -0.489224       -13.3125
  94   2.0000      -0.479421       -13.0457
  95   2.0000      -0.479105       -13.0371
  96   2.0000      -0.473472       -12.8838
  97   2.0000      -0.467586       -12.7237
  98   2.0000      -0.466841       -12.7034
  99   2.0000      -0.460925       -12.5424
 100   2.0000      -0.455109       -12.3841
 101   2.0000      -0.452461       -12.3121
 102   2.0000      -0.452175       -12.3043
 103   2.0000      -0.447870       -12.1872
 104   2.0000      -0.447527       -12.1778
 105   2.0000      -0.442836       -12.0502
 106   2.0000      -0.440153       -11.9772
 107   2.0000      -0.436514       -11.8781
 108   2.0000      -0.435163       -11.8414
 109   2.0000      -0.431557       -11.7433
 110   2.0000      -0.426228       -11.5983
 111   2.0000      -0.423879       -11.5343
 112   2.0000      -0.420855       -11.4521
 113   2.0000      -0.418030       -11.3752
 114   2.0000      -0.415048       -11.2940
 115   2.0000      -0.409507       -11.1433
 116   2.0000      -0.406215       -11.0537
 117   2.0000      -0.402634       -10.9562
 118   2.0000      -0.401304       -10.9200
 119   2.0000      -0.397257       -10.8099
 120   2.0000      -0.394667       -10.7394
 121   2.0000      -0.391287       -10.6475
 122   2.0000      -0.390256       -10.6194
 123   2.0000      -0.386882       -10.5276
 124   2.0000      -0.380916       -10.3653
 125   2.0000      -0.374692       -10.1959
 126   2.0000      -0.373870       -10.1735
 127   2.0000      -0.371028       -10.0962
 128   2.0000      -0.368489       -10.0271
 129   2.0000      -0.366344        -9.9687
 130   2.0000      -0.357368        -9.7245
 131   2.0000      -0.354859        -9.6562
 132   2.0000      -0.352193        -9.5837
 133   2.0000      -0.349922        -9.5218
 134   2.0000      -0.347554        -9.4574
 135   2.0000      -0.334979        -9.1152
 136   2.0000      -0.326354        -8.8805
 137   2.0000      -0.321215        -8.7407
 138   2.0000      -0.309462        -8.4209
 139   2.0000      -0.308450        -8.3933
 140   2.0000      -0.300841        -8.1863
 141   2.0000      -0.291554        -7.9336
 142   2.0000      -0.288096        -7.8395
 143   2.0000      -0.282683        -7.6922
 144   2.0000      -0.280416        -7.6305
 145   2.0000      -0.275028        -7.4839
 146   2.0000      -0.268268        -7.2999
 147   2.0000      -0.262999        -7.1566
 148   2.0000      -0.253889        -6.9087
 149   2.0000      -0.250487        -6.8161
 150   2.0000      -0.240653        -6.5485
 151   2.0000      -0.236799        -6.4436
 152   2.0000      -0.223469        -6.0809
 153   0.0000      -0.090692        -2.4679
 154   0.0000      -0.062717        -1.7066
 155   0.0000      -0.038359        -1.0438
 156   0.0000      -0.032175        -0.8755
 157   0.0000      -0.015407        -0.4192

MULLIKEN ATOMIC CHARGES
-----------------------
   0 C :   -0.450558
   1 C :   -0.038373
   2 O :   -0.488942
   3 C :    0.156345
   4 C :   -0.465538
   5 C :    0.011563
   6 C :   -0.167098
   7 C :   -0.143761
   8 C :    0.218714
   9 C :   -0.283977
  10 N :   -0.603063
  11 C :    0.319988
  12 N :   -0.362271
  13 C :   -0.048306
  14 C :    0.135459
  15 C :   -0.200980
  16 C :   -0.126611
  17 C :   -0.119995
  18 C :   -0.200394
  19 C :    0.124421
  20 C :    0.101936
  21 C :   -0.546401
  22 S :    1.208992
  23 O :   -0.528636
  24 O :   -0.536888
  25 C :   -0.136651
  26 C :   -0.152270
  27 C :   -0.138226
  28 C :    0.083139
  29 C :    0.529741
  30 O :   -0.441851
  31 O :   -0.624150
  32 C :   -0.148487
  33 C :   -0.141618
  34 C :   -0.239896
  35 C :    0.369982
  36 F :   -0.312357
  37 C :    0.946988
  38 F :   -0.305176
  39 F :   -0.307603
  40 F :   -0.308732
  41 H :    0.148360
  42 H :    0.149150
  43 H :    0.149791
  44 H :    0.157835
  45 H :    0.136395
  46 H :    0.164293
  47 H :    0.163918
  48 H :    0.162257
  49 H :    0.154375
  50 H :    0.121123
  51 H :    0.162735
  52 H :    0.172867
  53 H :    0.159468
  54 H :    0.143419
  55 H :    0.137565
  56 H :    0.137681
  57 H :    0.135391
  58 H :    0.166829
  59 H :    0.167707
  60 H :    0.162116
  61 H :    0.193272
  62 H :    0.182976
  63 H :    0.435642
  64 H :    0.174371
  65 H :    0.181707
  66 H :    0.140293
Sum of atomic charges:   -0.0000000

LOEWDIN ATOMIC CHARGES
----------------------
   0 C :   -0.364654
   1 C :   -0.115008
   2 O :   -0.210151
   3 C :    0.046273
   4 C :   -0.348817
   5 C :   -0.054699
   6 C :   -0.114922
   7 C :   -0.127570
   8 C :   -0.022573
   9 C :   -0.148189
  10 N :   -0.280319
  11 C :    0.031766
  12 N :   -0.111250
  13 C :   -0.053484
  14 C :   -0.027694
  15 C :   -0.109094
  16 C :   -0.125766
  17 C :   -0.116855
  18 C :   -0.126122
  19 C :   -0.006965
  20 C :   -0.015756
  21 C :   -0.362303
  22 S :    1.264287
  23 O :   -0.564331
  24 O :   -0.566583
  25 C :   -0.175623
  26 C :   -0.108182
  27 C :   -0.085104
  28 C :   -0.037559
  29 C :    0.180613
  30 O :   -0.258116
  31 O :   -0.335086
  32 C :   -0.099299
  33 C :   -0.102577
  34 C :   -0.146554
  35 C :    0.113376
  36 F :   -0.094875
  37 C :    0.303013
  38 F :   -0.109509
  39 F :   -0.110739
  40 F :   -0.109692
  41 H :    0.132073
  42 H :    0.125675
  43 H :    0.126832
  44 H :    0.123158
  45 H :    0.110660
  46 H :    0.135188
  47 H :    0.137516
  48 H :    0.137126
  49 H :    0.144446
  50 H :    0.128759
  51 H :    0.132731
  52 H :    0.140416
  53 H :    0.140882
  54 H :    0.139199
  55 H :    0.136201
  56 H :    0.136530
  57 H :    0.137073
  58 H :    0.139141
  59 H :    0.136320
  60 H :    0.136831
  61 H :    0.161900
  62 H :    0.161513
  63 H :    0.350798
  64 H :    0.155359
  65 H :    0.157494
  66 H :    0.142869

  Mayer bond orders larger than 0.100000
B(  0-C ,  1-C ) :   1.0237 B(  0-C , 41-H ) :   0.9441 B(  0-C , 42-H ) :   0.9477
B(  0-C , 43-H ) :   0.9489 B(  1-C ,  2-O ) :   0.8917 B(  1-C , 44-H ) :   0.9121
B(  1-C , 45-H ) :   0.9255 B(  2-O ,  3-C ) :   0.9085 B(  3-C ,  4-C ) :   0.9852
B(  3-C ,  5-C ) :   0.9229 B(  3-C , 37-C ) :   0.9016 B(  4-C , 46-H ) :   0.9335
B(  4-C , 47-H ) :   0.9358 B(  4-C , 48-H ) :   0.9368 B(  5-C ,  6-C ) :   1.3975
B(  5-C , 35-C ) :   1.3343 B(  6-C ,  7-C ) :   1.4351 B(  6-C , 49-H ) :   0.9123
B(  7-C ,  8-C ) :   1.4300 B(  7-C , 50-H ) :   0.9195 B(  8-C ,  9-C ) :   0.9356
B(  8-C , 34-C ) :   1.4113 B(  9-C , 10-N ) :   0.9366 B(  9-C , 51-H ) :   0.9252
B(  9-C , 52-H ) :   0.9225 B( 10-N , 11-C ) :   0.8897 B( 10-N , 22-S ) :   0.8000
B( 11-C , 12-N ) :   1.2845 B( 11-C , 20-C ) :   1.4400 B( 12-N , 13-C ) :   1.4958
B( 13-C , 14-C ) :   1.2306 B( 13-C , 20-C ) :   0.1016 B( 13-C , 53-H ) :   0.9253
B( 14-C , 15-C ) :   1.2849 B( 14-C , 19-C ) :   1.2910 B( 15-C , 16-C ) :   1.5120
B( 15-C , 18-C ) :   0.1062 B( 15-C , 54-H ) :   0.9225 B( 16-C , 17-C ) :   1.3537
B( 16-C , 55-H ) :   0.9290 B( 17-C , 18-C ) :   1.5087 B( 17-C , 56-H ) :   0.9290
B( 18-C , 19-C ) :   1.2936 B( 18-C , 57-H ) :   0.9173 B( 19-C , 20-C ) :   1.2647
B( 20-C , 21-C ) :   0.9967 B( 21-C , 58-H ) :   0.9283 B( 21-C , 59-H ) :   0.9294
B( 21-C , 60-H ) :   0.9274 B( 22-S , 23-O ) :   1.6507 B( 22-S , 24-O ) :   1.6411
B( 22-S , 25-C ) :   0.8081 B( 25-C , 26-C ) :   1.3863 B( 25-C , 33-C ) :   1.3887
B( 26-C , 27-C ) :   1.4115 B( 26-C , 61-H ) :   0.9039 B( 27-C , 28-C ) :   1.4061
B( 27-C , 62-H ) :   0.9090 B( 28-C , 29-C ) :   1.0070 B( 28-C , 32-C ) :   1.3801
B( 29-C , 30-O ) :   1.8645 B( 29-C , 31-O ) :   1.0251 B( 31-O , 63-H ) :   0.7408
B( 32-C , 33-C ) :   1.4238 B( 32-C , 64-H ) :   0.9143 B( 33-C , 65-H ) :   0.9101
B( 34-C , 35-C ) :   1.3811 B( 34-C , 66-H ) :   0.9119 B( 35-C , 36-F ) :   0.9075
B( 37-C , 38-F ) :   0.9426 B( 37-C , 39-F ) :   0.9344 B( 37-C , 40-F ) :   0.9300

FINAL SINGLE POINT ENERGY     -2402.634725053426

DIPOLE MOMENT
-------------

Method             : SCF
Type of density    : Electron Density
Multiplicity       :   1
Irrep              :   0
Energy             : -2402.6347250534258819 Eh
Relativity type    :
Basis              : AO
                                X                 Y                 Z
Electronic contribution:     20.026322317      -9.103388290       1.821481831
Nuclear contribution   :    -23.137154442       8.065480576      -2.812378778
                        -----------------------------------------
Total Dipole Moment    :     -3.110832125      -1.037907714      -0.990896947
                        -----------------------------------------
Magnitude (a.u.)       :      3.425843792
Magnitude (Debye)      :      8.707802900

Rotational constants in cm-1:             0.002872             0.001752             0.001201
Rotational constants in MHz :            86.093565            52.517934            35.993701

                             ****ORCA TERMINATED NORMALLY****
TOTAL RUN TIME: 0 days 0 hours 15 minutes 12 seconds 194 msec
