                         Program Version 6.0.0  -   RELEASE  -
|  1> ! B3LYP 6-31G* SP
|  2>
|  3> * xyz 0 1
|  4> Cl -0.4912 1.1436 2.7648
|  5> C -0.8049 1.9405 1.2248
|  6> C -1.4022 3.2052 1.3073
|  7> C -1.7849 3.8886 0.1572
|  8> C -1.6024 3.3018 -1.0893
|  9> C -1.0047 2.0457 -1.1926
| 10> C -0.5249 1.3565 -0.0501
| 11> C 0.0961 -0.0598 -0.2175
| 12> C 1.3046 -0.3088 0.7085
| 13> C 2.1624 0.7516 1.0843
| 14> C 3.3263 0.5077 1.8184
| 15> C 3.6914 -0.7993 2.1392
| 16> C 2.9087 -1.8666 1.7006
| 17> C 1.7440 -1.6274 0.9665
| 18> C -1.0884 -1.0276 0.0154
| 19> C -1.3240 -1.6601 1.2589
| 20> C -2.4495 -2.4655 1.4537
| 21> C -3.3798 -2.6318 0.4288
| 22> C -3.1942 -1.9813 -0.7898
| 23> C -2.0710 -1.1752 -0.9908
| 24> N 0.6548 -0.2448 -1.5834
| 25> C 1.4911 0.5986 -2.2265
| 26> C 1.9950 -0.0387 -3.3341
| 27> N 1.5306 -1.3007 -3.3747
| 28> C 0.7379 -1.3998 -2.2880
| 29> H -1.5923 3.6548 2.2740
| 30> H -2.2528 4.8615 0.2348
| 31> H -1.9393 3.8150 -1.9809
| 32> H -0.9379 1.6125 -2.1804
| 33> H 1.9399 1.7733 0.8076
| 34> H 3.9562 1.3337 2.1226
| 35> H 4.5967 -0.9865 2.7020
| 36> H 3.2149 -2.8830 1.9119
| 37> H 1.1914 -2.4780 0.5895
| 38> H -0.6458 -1.5401 2.0901
| 39> H -2.6053 -2.9540 2.4070
| 40> H -4.2522 -3.2532 0.5842
| 41> H -3.9271 -2.0931 -1.5784
| 42> H -1.9704 -0.6626 -1.9384
| 43> H 1.7494 1.5955 -1.8932
| 44> H 2.6911 0.3785 -4.0491
| 45> H 0.2627 -2.3267 -1.9951
| 46> *
| 47>
| 48>                          ****END OF INPUT****

CARTESIAN COORDINATES (ANGSTROEM)
---------------------------------
  Cl    -0.491200    1.143600    2.764800
  C     -0.804900    1.940500    1.224800
  C     -1.402200    3.205200    1.307300
  C     -1.784900    3.888600    0.157200
  C     -1.602400    3.301800   -1.089300
  C     -1.004700    2.045700   -1.192600
  C     -0.524900    1.356500   -0.050100
  C      0.096100   -0.059800   -0.217500
  C      1.304600   -0.308800    0.708500
  C      2.162400    0.751600    1.084300
  C      3.326300    0.507700    1.818400
  C      3.691400   -0.799300    2.139200
  C      2.908700   -1.866600    1.700600
  C      1.744000   -1.627400    0.966500
  C     -1.088400   -1.027600    0.015400
  C     -1.324000   -1.660100    1.258900
  C     -2.449500   -2.465500    1.453700
  C     -3.379800   -2.631800    0.428800
  C     -3.194200   -1.981300   -0.789800
  C     -2.071000   -1.175200   -0.990800
  N      0.654800   -0.244800   -1.583400
  C      1.491100    0.598600   -2.226500
  C      1.995000   -0.038700   -3.334100
  N      1.530600   -1.300700   -3.374700
  C      0.737900   -1.399800   -2.288000
  H     -1.592300    3.654800    2.274000
  H     -2.252800    4.861500    0.234800
  H     -1.939300    3.815000   -1.980900
  H     -0.937900    1.612500   -2.180400
  H      1.939900    1.773300    0.807600
  H      3.956200    1.333700    2.122600
  H      4.596700   -0.986500    2.702000
  H      3.214900   -2.883000    1.911900
  H      1.191400   -2.478000    0.589500
  H     -0.645800   -1.540100    2.090100
  H     -2.605300   -2.954000    2.407000
  H     -4.252200   -3.253200    0.584200
  H     -3.927100   -2.093100   -1.578400
  H     -1.970400   -0.662600   -1.938400
  H      1.749400    1.595500   -1.893200
  H      2.691100    0.378500   -4.049100
  H      0.262700   -2.326700   -1.995100

 Total Charge           Charge          ....    0
 Multiplicity           Mult            ....    1
 Number of Electrons    NEL             ....  180
 Basis Dimension        Dim             ....  388

ORBITAL ENERGIES
----------------

  NO   OCC          E(Eh)            E(eV)
   0   2.0000    -101.530390     -2762.7824
   1   2.0000     -14.383827      -391.4038
   2   2.0000     -14.294105      -388.9624
   3   2.0000     -10.268244      -279.4131
   4   2.0000     -10.257163      -279.1116
   5   2.0000     -10.224025      -278.2099
   6   2.0000     -10.215280      -277.9719
   7   2.0000     -10.205821      -277.7145
   8   2.0000     -10.201092      -277.5858
   9   2.0000     -10.199558      -277.5441
  10   2.0000     -10.199369      -277.5389
  11   2.0000     -10.196996      -277.4744
  12   2.0000     -10.195040      -277.4212
  13   2.0000     -10.188339      -277.2388
  14   2.0000     -10.186897      -277.1996
  15   2.0000     -10.186472      -277.1880
  16   2.0000     -10.185952      -277.1739
  17   2.0000     -10.185267      -277.1552
  18   2.0000     -10.184819      -277.1430
  19   2.0000     -10.184184      -277.1257
  20   2.0000     -10.183672      -277.1118
  21   2.0000     -10.181941      -277.0647
  22   2.0000     -10.181632      -277.0563
  23   2.0000     -10.181100      -277.0418
  24   2.0000     -10.173934      -276.8468
  25   2.0000      -9.461847      -257.4700
  26   2.0000      -7.225000      -196.6023
  27   2.0000      -7.215446      -196.3423
  28   2.0000      -7.215044      -196.3313
  29   2.0000      -1.015585       -27.6355
  30   2.0000      -0.904300       -24.6072
  31   2.0000      -0.881743       -23.9935
  32   2.0000      -0.852298       -23.1922
  33   2.0000      -0.848005       -23.0754
  34   2.0000      -0.837886       -22.8000
  35   2.0000      -0.795524       -21.6473
  36   2.0000      -0.757939       -20.6246
  37   2.0000      -0.749220       -20.3873
  38   2.0000      -0.745028       -20.2732
  39   2.0000      -0.739554       -20.1243
  40   2.0000      -0.737163       -20.0592
  41   2.0000      -0.722481       -19.6597
  42   2.0000      -0.688332       -18.7305
  43   2.0000      -0.623788       -16.9741
  44   2.0000      -0.617090       -16.7919
  45   2.0000      -0.609788       -16.5932
  46   2.0000      -0.603107       -16.4114
  47   2.0000      -0.595562       -16.2061
  48   2.0000      -0.586806       -15.9678
  49   2.0000      -0.575890       -15.6708
  50   2.0000      -0.557846       -15.1798
  51   2.0000      -0.536423       -14.5968
  52   2.0000      -0.522299       -14.2125
  53   2.0000      -0.518451       -14.1078
  54   2.0000      -0.498310       -13.5597
  55   2.0000      -0.476369       -12.9627
  56   2.0000      -0.471167       -12.8211
  57   2.0000      -0.462217       -12.5776
  58   2.0000      -0.455513       -12.3951
  59   2.0000      -0.447653       -12.1812
  60   2.0000      -0.446982       -12.1630
  61   2.0000      -0.440596       -11.9892
  62   2.0000      -0.432587       -11.7713
  63   2.0000      -0.426131       -11.5956
  64   2.0000      -0.421911       -11.4808
  65   2.0000      -0.420433       -11.4406
  66   2.0000      -0.410826       -11.1791
  67   2.0000      -0.409385       -11.1399
  68   2.0000      -0.406180       -11.0527
  69   2.0000      -0.392159       -10.6712
  70   2.0000      -0.386930       -10.5289
  71   2.0000      -0.374883       -10.2011
  72   2.0000      -0.365240        -9.9387
  73   2.0000      -0.361575        -9.8389
  74   2.0000      -0.359589        -9.7849
  75   2.0000      -0.353720        -9.6252
  76   2.0000      -0.348647        -9.4872
  77   2.0000      -0.342180        -9.3112
  78   2.0000      -0.337080        -9.1724
  79   2.0000      -0.330345        -8.9891
  80   2.0000      -0.313092        -8.5197
  81   2.0000      -0.277763        -7.5583
  82   2.0000      -0.265254        -7.2179
  83   2.0000      -0.253000        -6.8845
  84   2.0000      -0.252533        -6.8718
  85   2.0000      -0.248943        -6.7741
  86   2.0000      -0.244589        -6.6556
  87   2.0000      -0.238907        -6.5010
  88   2.0000      -0.235489        -6.4080
  89   2.0000      -0.207234        -5.6391
  90   0.0000      -0.031196        -0.8489
  91   0.0000      -0.020560        -0.5595
  92   0.0000      -0.012448        -0.3387
  93   0.0000      -0.005406        -0.1471
  94   0.0000      -0.000063        -0.0017

MULLIKEN ATOMIC CHARGES
-----------------------
   0 Cl:    0.001163
   1 C :   -0.113901
   2 C :   -0.130698
   3 C :   -0.111853
   4 C :   -0.131412
   5 C :   -0.169213
   6 C :    0.108867
   7 C :    0.009034
   8 C :    0.137938
   9 C :   -0.162899
  10 C :   -0.129046
  11 C :   -0.120754
  12 C :   -0.131703
  13 C :   -0.169685
  14 C :    0.103434
  15 C :   -0.165693
  16 C :   -0.135692
  17 C :   -0.120498
  18 C :   -0.129297
  19 C :   -0.164987
  20 N :   -0.346595
  21 C :   -0.021516
  22 C :   -0.045077
  23 N :   -0.388689
  24 C :    0.130529
  25 H :    0.155533
  26 H :    0.139693
  27 H :    0.139523
  28 H :    0.164211
  29 H :    0.136035
  30 H :    0.130226
  31 H :    0.128553
  32 H :    0.132223
  33 H :    0.140073
  34 H :    0.157247
  35 H :    0.133599
  36 H :    0.130354
  37 H :    0.134001
  38 H :    0.142176
  39 H :    0.145937
  40 H :    0.128538
  41 H :    0.160323
Sum of atomic charges:   -0.0000000

LOEWDIN ATOMIC CHARGES
----------------------
   0 Cl:    0.050018
   1 C :   -0.081527
   2 C :   -0.131244
   3 C :   -0.123101
   4 C :   -0.128265
   5 C :   -0.124850
   6 C :   -0.018609
   7 C :    0.057426
   8 C :   -0.017688
   9 C :   -0.123550
  10 C :   -0.128725
  11 C :   -0.125250
  12 C :   -0.129343
  13 C :   -0.126165
  14 C :   -0.021170
  15 C :   -0.125147
  16 C :   -0.129827
  17 C :   -0.124465
  18 C :   -0.129616
  19 C :   -0.123888
  20 N :    0.038873
  21 C :   -0.159564
  22 C :   -0.142108
  23 N :   -0.171690
  24 C :   -0.090327
  25 H :    0.146320
  26 H :    0.137998
  27 H :    0.137170
  28 H :    0.148540
  29 H :    0.134788
  30 H :    0.132763
  31 H :    0.131777
  32 H :    0.133560
  33 H :    0.137279
  34 H :    0.145383
  35 H :    0.134303
  36 H :    0.132490
  37 H :    0.134431
  38 H :    0.137429
  39 H :    0.136628
  40 H :    0.128744
  41 H :    0.140198

  Mayer bond orders larger than 0.100000
B(  0-Cl,  1-C ) :   1.0327 B(  1-C ,  2-C ) :   1.4045 B(  1-C ,  6-C ) :   1.3581
B(  2-C ,  3-C ) :   1.4564 B(  2-C , 25-H ) :   0.9220 B(  3-C ,  4-C ) :   1.4482
B(  3-C , 26-H ) :   0.9272 B(  4-C ,  5-C ) :   1.4417 B(  4-C , 27-H ) :   0.9273
B(  5-C ,  6-C ) :   1.3969 B(  5-C , 28-H ) :   0.9092 B(  6-C ,  7-C ) :   0.9459
B(  7-C ,  8-C ) :   0.9330 B(  7-C , 14-C ) :   0.9396 B(  7-C , 20-N ) :   0.8686
B(  8-C ,  9-C ) :   1.4084 B(  8-C , 13-C ) :   1.4085 B(  9-C , 10-C ) :   1.4418
B(  9-C , 29-H ) :   0.9167 B( 10-C , 11-C ) :   1.4534 B( 10-C , 30-H ) :   0.9293
B( 11-C , 12-C ) :   1.4528 B( 11-C , 31-H ) :   0.9296 B( 12-C , 13-C ) :   1.4394
B( 12-C , 32-H ) :   0.9291 B( 13-C , 33-H ) :   0.9165 B( 14-C , 15-C ) :   1.4232
B( 14-C , 19-C ) :   1.3902 B( 15-C , 16-C ) :   1.4292 B( 15-C , 34-H ) :   0.9078
B( 16-C , 17-C ) :   1.4576 B( 16-C , 35-H ) :   0.9290 B( 17-C , 18-C ) :   1.4462
B( 17-C , 36-H ) :   0.9295 B( 18-C , 19-C ) :   1.4502 B( 18-C , 37-H ) :   0.9289
B( 19-C , 38-H ) :   0.9163 B( 20-N , 21-C ) :   1.1626 B( 20-N , 24-C ) :   1.1827
B( 21-C , 22-C ) :   1.5554 B( 21-C , 39-H ) :   0.9243 B( 22-C , 23-N ) :   1.3403
B( 22-C , 40-H ) :   0.9410 B( 23-N , 24-C ) :   1.5511 B( 24-C , 41-H ) :   0.9260

FINAL SINGLE POINT ENERGY     -1417.542721393223

DIPOLE MOMENT
-------------

Method             : SCF
Type of density    : Electron Density
Multiplicity       :   1
Irrep              :   0
Energy             : -1417.5427213932230188 Eh
Relativity type    :
Basis              : AO
                                X                 Y                 Z
Electronic contribution:     -0.984500152       3.644782481       6.822948133
Nuclear contribution   :      0.243014397      -2.763143352      -5.914024007
                        -----------------------------------------
Total Dipole Moment    :     -0.741485756       0.881639129       0.908924126
                        -----------------------------------------
Magnitude (a.u.)       :      1.467389432
Magnitude (Debye)      :      3.729807524

Rotational constants in cm-1:             0.007783             0.007235             0.006755
Rotational constants in MHz :           233.327407           216.898099           202.518526

                             ****ORCA TERMINATED NORMALLY****
TOTAL RUN TIME: 0 days 0 hours 4 minutes 15 seconds 197 msec
