                         Program Version 6.0.0  -   RELEASE  -
|  1> ! B3LYP 6-31G* SP
|  2>
|  3> * xyz 0 1
|  4> C -5.3744 -0.4513 -1.2162
|  5> C -4.9597 0.3054 0.0403
|  6> O -3.5588 0.5720 0.0278
|  7> C -2.5862 -0.3980 0.2974
|  8> O -2.9227 -1.5689 0.6236
|  9> C -1.1612 -0.0511 0.2079
| 10> S 0.1169 -1.1029 0.5089
| 11> C 1.3025 0.0560 0.1887
| 12> C 2.7659 -0.1615 0.2564
| 13> C 3.6512 0.8929 -0.0359
| 14> C 5.0341 0.6952 0.0257
| 15> C 5.5487 -0.5542 0.3791
| 16> F 6.8899 -0.7435 0.4383
| 17> C 4.6804 -1.6086 0.6715
| 18> C 3.2966 -1.4163 0.6113
| 19> N 0.7391 1.2404 -0.1467
| 20> C -0.6202 1.1847 -0.1373
| 21> O -1.3989 2.2933 -0.4531
| 22> H -5.0895 0.1291 -2.1191
| 23> H -6.4747 -0.6001 -1.2162
| 24> H -4.8806 -1.4447 -1.2510
| 25> H -5.5031 1.2733 0.0689
| 26> H -5.2367 -0.2724 0.9488
| 27> H 3.2761 1.8704 -0.3123
| 28> H 5.7063 1.5128 -0.2010
| 29> H 5.0788 -2.5771 0.9454
| 30> H 2.6475 -2.2505 0.8428
| 31> H -0.9672 3.1757 -0.6997
| 32> *
| 33>
| 34>                          ****END OF INPUT****

CARTESIAN COORDINATES (ANGSTROEM)
---------------------------------
  C     -5.374400   -0.451300   -1.216200
  C     -4.959700    0.305400    0.040300
  O     -3.558800    0.572000    0.027800
  C     -2.586200   -0.398000    0.297400
  O     -2.922700   -1.568900    0.623600
  C     -1.161200   -0.051100    0.207900
  S      0.116900   -1.102900    0.508900
  C      1.302500    0.056000    0.188700
  C      2.765900   -0.161500    0.256400
  C      3.651200    0.892900   -0.035900
  C      5.034100    0.695200    0.025700
  C      5.548700   -0.554200    0.379100
  F      6.889900   -0.743500    0.438300
  C      4.680400   -1.608600    0.671500
  C      3.296600   -1.416300    0.611300
  N      0.739100    1.240400   -0.146700
  C     -0.620200    1.184700   -0.137300
  O     -1.398900    2.293300   -0.453100
  H     -5.089500    0.129100   -2.119100
  H     -6.474700   -0.600100   -1.216200
  H     -4.880600   -1.444700   -1.251000
  H     -5.503100    1.273300    0.068900
  H     -5.236700   -0.272400    0.948800
  H      3.276100    1.870400   -0.312300
  H      5.706300    1.512800   -0.201000
  H      5.078800   -2.577100    0.945400
  H      2.647500   -2.250500    0.842800
  H     -0.967200    3.175700   -0.699700

 Total Charge           Charge          ....    0
 Multiplicity           Mult            ....    1
 Number of Electrons    NEL             ....  138
 Basis Dimension        Dim             ....  276

ORBITAL ENERGIES
----------------

  NO   OCC          E(Eh)            E(eV)
   0   2.0000     -88.911201     -2419.3968
   1   2.0000     -24.711102      -672.4233
   2   2.0000     -19.182844      -521.9917
   3   2.0000     -19.170640      -521.6596
   4   2.0000     -19.118514      -520.2412
   5   2.0000     -14.341557      -390.2536
   6   2.0000     -10.319854      -280.8175
   7   2.0000     -10.295059      -280.1428
   8   2.0000     -10.285010      -279.8694
   9   2.0000     -10.270469      -279.4737
  10   2.0000     -10.233107      -278.4570
  11   2.0000     -10.224946      -278.2349
  12   2.0000     -10.222004      -278.1549
  13   2.0000     -10.212036      -277.8836
  14   2.0000     -10.207540      -277.7613
  15   2.0000     -10.205256      -277.6991
  16   2.0000     -10.203835      -277.6605
  17   2.0000     -10.167162      -276.6626
  18   2.0000      -7.987655      -217.3551
  19   2.0000      -5.950719      -161.9273
  20   2.0000      -5.946657      -161.8168
  21   2.0000      -5.944605      -161.7609
  22   2.0000      -1.223934       -33.3049
  23   2.0000      -1.068029       -29.0626
  24   2.0000      -1.051450       -28.6114
  25   2.0000      -0.984134       -26.7796
  26   2.0000      -0.969088       -26.3702
  27   2.0000      -0.876474       -23.8501
  28   2.0000      -0.823610       -22.4116
  29   2.0000      -0.793958       -21.6047
  30   2.0000      -0.768660       -20.9163
  31   2.0000      -0.760112       -20.6837
  32   2.0000      -0.733950       -19.9718
  33   2.0000      -0.665603       -18.1120
  34   2.0000      -0.640082       -17.4175
  35   2.0000      -0.636412       -17.3177
  36   2.0000      -0.610368       -16.6090
  37   2.0000      -0.589865       -16.0510
  38   2.0000      -0.554604       -15.0915
  39   2.0000      -0.551022       -14.9941
  40   2.0000      -0.532256       -14.4834
  41   2.0000      -0.516154       -14.0453
  42   2.0000      -0.498366       -13.5612
  43   2.0000      -0.475479       -12.9384
  44   2.0000      -0.466663       -12.6985
  45   2.0000      -0.463605       -12.6153
  46   2.0000      -0.460562       -12.5325
  47   2.0000      -0.453500       -12.3404
  48   2.0000      -0.442256       -12.0344
  49   2.0000      -0.435241       -11.8435
  50   2.0000      -0.427717       -11.6388
  51   2.0000      -0.407014       -11.0754
  52   2.0000      -0.402184       -10.9440
  53   2.0000      -0.391253       -10.6465
  54   2.0000      -0.385034       -10.4773
  55   2.0000      -0.381919       -10.3925
  56   2.0000      -0.370342       -10.0775
  57   2.0000      -0.369741       -10.0612
  58   2.0000      -0.358520        -9.7558
  59   2.0000      -0.354906        -9.6575
  60   2.0000      -0.351674        -9.5695
  61   2.0000      -0.318823        -8.6756
  62   2.0000      -0.294016        -8.0006
  63   2.0000      -0.290594        -7.9075
  64   2.0000      -0.277271        -7.5449
  65   2.0000      -0.272748        -7.4219
  66   2.0000      -0.266795        -7.2599
  67   2.0000      -0.254057        -6.9132
  68   2.0000      -0.222943        -6.0666
  69   0.0000      -0.073603        -2.0028
  70   0.0000      -0.023079        -0.6280
  71   0.0000      -0.007597        -0.2067
  72   0.0000       0.018639         0.5072
  73   0.0000       0.039910         1.0860

MULLIKEN ATOMIC CHARGES
-----------------------
   0 C :   -0.459557
   1 C :   -0.017238
   2 O :   -0.469519
   3 C :    0.597575
   4 O :   -0.479772
   5 C :   -0.263554
   6 S :    0.315951
   7 C :   -0.015940
   8 C :    0.128810
   9 C :   -0.137691
  10 C :   -0.208699
  11 C :    0.421829
  12 F :   -0.312158
  13 C :   -0.214038
  14 C :   -0.173361
  15 N :   -0.430840
  16 C :    0.505961
  17 O :   -0.629056
  18 H :    0.151530
  19 H :    0.140250
  20 H :    0.177628
  21 H :    0.150268
  22 H :    0.154464
  23 H :    0.168960
  24 H :    0.154184
  25 H :    0.155241
  26 H :    0.162771
  27 H :    0.426001
Sum of atomic charges:   -0.0000000

LOEWDIN ATOMIC CHARGES
----------------------
   0 C :   -0.374945
   1 C :   -0.089422
   2 O :   -0.166950
   3 C :    0.183413
   4 O :   -0.281113
   5 C :   -0.271923
   6 S :    0.440799
   7 C :   -0.104756
   8 C :   -0.039453
   9 C :   -0.093704
  10 C :   -0.152666
  11 C :    0.126470
  12 F :   -0.098091
  13 C :   -0.152582
  14 C :   -0.109955
  15 N :   -0.191153
  16 C :    0.106411
  17 O :   -0.320142
  18 H :    0.127768
  19 H :    0.127904
  20 H :    0.139814
  21 H :    0.127257
  22 H :    0.124310
  23 H :    0.153656
  24 H :    0.148062
  25 H :    0.148545
  26 H :    0.147291
  27 H :    0.345154

  Mayer bond orders larger than 0.100000
B(  0-C ,  1-C ) :   1.0112 B(  0-C , 18-H ) :   0.9482 B(  0-C , 19-H ) :   0.9427
B(  0-C , 20-H ) :   0.9402 B(  1-C ,  2-O ) :   0.8710 B(  1-C , 21-H ) :   0.9398
B(  1-C , 22-H ) :   0.9251 B(  2-O ,  3-C ) :   1.0203 B(  3-C ,  4-O ) :   1.7516
B(  3-C ,  5-C ) :   1.0510 B(  5-C ,  6-S ) :   1.0816 B(  5-C ,  7-C ) :   0.1136
B(  5-C , 16-C ) :   1.3908 B(  6-S ,  7-C ) :   1.1728 B(  7-C ,  8-C ) :   1.0262
B(  7-C , 15-N ) :   1.4313 B(  8-C ,  9-C ) :   1.4014 B(  8-C , 14-C ) :   1.3868
B(  9-C , 10-C ) :   1.4215 B(  9-C , 23-H ) :   0.9106 B( 10-C , 11-C ) :   1.3808
B( 10-C , 24-H ) :   0.9198 B( 11-C , 12-F ) :   0.9240 B( 11-C , 13-C ) :   1.3829
B( 13-C , 14-C ) :   1.4347 B( 13-C , 25-H ) :   0.9190 B( 14-C , 26-H ) :   0.9145
B( 15-N , 16-C ) :   1.2912 B( 16-C , 17-O ) :   1.0116 B( 17-O , 27-H ) :   0.7540

FINAL SINGLE POINT ENERGY     -1241.198939562832

DIPOLE MOMENT
-------------

Method             : SCF
Type of density    : Electron Density
Multiplicity       :   1
Irrep              :   0
Energy             : -1241.1989395628315833 Eh
Relativity type    :
Basis              : AO
                                X                 Y                 Z
Electronic contribution:     22.324159210      -1.572335373       4.136151105
Nuclear contribution   :    -21.879376517       2.421219598      -4.439241908
                        -----------------------------------------
Total Dipole Moment    :      0.444782693       0.848884225      -0.303090803
                        -----------------------------------------
Magnitude (a.u.)       :      1.005136860
Magnitude (Debye)      :      2.554854860

Rotational constants in cm-1:             0.046476             0.004730             0.004358
Rotational constants in MHz :          1393.318899           141.810360           130.642301

                             ****ORCA TERMINATED NORMALLY****
TOTAL RUN TIME: 0 days 0 hours 3 minutes 11 seconds 978 msec
