                         Program Version 6.0.0  -   RELEASE  -
|  1> ! B3LYP 6-31G* SP
|  2>
|  3> * xyz 0 1
|  4> C 0.0797 -1.6185 1.8547
|  5> C -0.8082 -1.7142 0.6333
|  6> C -1.0701 -0.5725 -0.1609
|  7> N -0.5120 0.7054 0.1660
|  8> C 0.5720 1.2544 -0.6486
|  9> C 1.8273 0.4583 -0.4288
| 10> C 2.1256 -0.6464 -1.2667
| 11> C 3.2496 -1.4533 -1.0173
| 12> C 4.0522 -1.1367 0.0803
| 13> C 3.7591 -0.0760 0.8989
| 14> C 2.6545 0.7435 0.6788
| 15> C 4.7097 -0.0619 1.8973
| 16> Cl 4.8152 1.0482 3.2486
| 17> C 5.5552 -1.1327 1.6376
| 18> N 5.1523 -1.7815 0.5193
| 19> C 5.7531 -2.9866 -0.0442
| 20> S -1.3089 1.7084 1.3360
| 21> O -2.3323 0.9078 2.0921
| 22> O -0.2947 2.2317 2.3145
| 23> C -2.1122 3.0332 0.5030
| 24> C -3.2062 2.7655 -0.3279
| 25> C -3.8389 3.8042 -1.0168
| 26> C -3.3817 5.1283 -0.8859
| 27> C -4.0447 6.2317 -1.6150
| 28> O -5.0241 5.9981 -2.3737
| 29> O -3.5908 7.5405 -1.4710
| 30> C -2.2799 5.3892 -0.0529
| 31> C -1.6485 4.3481 0.6343
| 32> N -1.8409 -0.6772 -1.2744
| 33> C -2.3953 -1.8487 -1.6678
| 34> C -2.1773 -3.0126 -0.9270
| 35> C -2.7469 -4.2285 -1.3356
| 36> C -2.5199 -5.3918 -0.5998
| 37> C -1.7238 -5.3514 0.5447
| 38> C -1.1514 -4.1474 0.9638
| 39> C -1.3708 -2.9558 0.2375
| 40> H -0.4762 -1.9629 2.7514
| 41> H 0.9816 -2.2492 1.7094
| 42> H 0.4263 -0.5877 2.0614
| 43> H 0.7560 2.3186 -0.3840
| 44> H 0.2803 1.2360 -1.7215
| 45> H 1.4770 -0.8899 -2.0993
| 46> H 3.4717 -2.3007 -1.6526
| 47> H 2.4285 1.5605 1.3526
| 48> H 6.4056 -1.4240 2.2405
| 49> H 6.7234 -3.2055 0.4508
| 50> H 5.9349 -2.8443 -1.1306
| 51> H 5.0692 -3.8487 0.1054
| 52> H -3.5670 1.7510 -0.4452
| 53> H -4.6834 3.5700 -1.6532
| 54> H -4.0373 8.3035 -1.9654
| 55> H -1.9019 6.3967 0.0656
| 56> H -0.7964 4.5705 1.2630
| 57> H -3.0033 -1.8684 -2.5636
| 58> H -3.3655 -4.2788 -2.2241
| 59> H -2.9607 -6.3276 -0.9185
| 60> H -1.5487 -6.2574 1.1104
| 61> H -0.5399 -4.1645 1.8554
| 62> *
| 63>
| 64>                          ****END OF INPUT****

CARTESIAN COORDINATES (ANGSTROEM)
---------------------------------
  C      0.079700   -1.618500    1.854700
  C     -0.808200   -1.714200    0.633300
  C     -1.070100   -0.572500   -0.160900
  N     -0.512000    0.705400    0.166000
  C      0.572000    1.254400   -0.648600
  C      1.827300    0.458300   -0.428800
  C      2.125600   -0.646400   -1.266700
  C      3.249600   -1.453300   -1.017300
  C      4.052200   -1.136700    0.080300
  C      3.759100   -0.076000    0.898900
  C      2.654500    0.743500    0.678800
  C      4.709700   -0.061900    1.897300
  Cl     4.815200    1.048200    3.248600
  C      5.555200   -1.132700    1.637600
  N      5.152300   -1.781500    0.519300
  C      5.753100   -2.986600   -0.044200
  S     -1.308900    1.708400    1.336000
  O     -2.332300    0.907800    2.092100
  O     -0.294700    2.231700    2.314500
  C     -2.112200    3.033200    0.503000
  C     -3.206200    2.765500   -0.327900
  C     -3.838900    3.804200   -1.016800
  C     -3.381700    5.128300   -0.885900
  C     -4.044700    6.231700   -1.615000
  O     -5.024100    5.998100   -2.373700
  O     -3.590800    7.540500   -1.471000
  C     -2.279900    5.389200   -0.052900
  C     -1.648500    4.348100    0.634300
  N     -1.840900   -0.677200   -1.274400
  C     -2.395300   -1.848700   -1.667800
  C     -2.177300   -3.012600   -0.927000
  C     -2.746900   -4.228500   -1.335600
  C     -2.519900   -5.391800   -0.599800
  C     -1.723800   -5.351400    0.544700
  C     -1.151400   -4.147400    0.963800
  C     -1.370800   -2.955800    0.237500
  H     -0.476200   -1.962900    2.751400
  H      0.981600   -2.249200    1.709400
  H      0.426300   -0.587700    2.061400
  H      0.756000    2.318600   -0.384000
  H      0.280300    1.236000   -1.721500
  H      1.477000   -0.889900   -2.099300
  H      3.471700   -2.300700   -1.652600
  H      2.428500    1.560500    1.352600
  H      6.405600   -1.424000    2.240500
  H      6.723400   -3.205500    0.450800
  H      5.934900   -2.844300   -1.130600
  H      5.069200   -3.848700    0.105400
  H     -3.567000    1.751000   -0.445200
  H     -4.683400    3.570000   -1.653200
  H     -4.037300    8.303500   -1.965400
  H     -1.901900    6.396700    0.065600
  H     -0.796400    4.570500    1.263000
  H     -3.003300   -1.868400   -2.563600
  H     -3.365500   -4.278800   -2.224100
  H     -2.960700   -6.327600   -0.918500
  H     -1.548700   -6.257400    1.110400
  H     -0.539900   -4.164500    1.855400

 Total Charge           Charge          ....    0
 Multiplicity           Mult            ....    1
 Number of Electrons    NEL             ....  270
 Basis Dimension        Dim             ....  556

ORBITAL ENERGIES
----------------

  NO   OCC          E(Eh)            E(eV)
   0   2.0000    -101.520532     -2762.5141
   1   2.0000     -89.090266     -2424.2694
   2   2.0000     -19.191305      -522.2220
   3   2.0000     -19.132664      -520.6263
   4   2.0000     -19.120819      -520.3039
   5   2.0000     -19.119665      -520.2725
   6   2.0000     -14.388259      -391.5244
   7   2.0000     -14.361992      -390.8097
   8   2.0000     -14.328896      -389.9091
   9   2.0000     -10.329963      -281.0926
  10   2.0000     -10.252027      -278.9718
  11   2.0000     -10.242114      -278.7021
  12   2.0000     -10.234164      -278.4857
  13   2.0000     -10.224961      -278.2353
  14   2.0000     -10.223364      -278.1919
  15   2.0000     -10.221278      -278.1351
  16   2.0000     -10.216678      -278.0100
  17   2.0000     -10.215618      -277.9811
  18   2.0000     -10.212343      -277.8920
  19   2.0000     -10.211999      -277.8826
  20   2.0000     -10.210290      -277.8361
  21   2.0000     -10.210050      -277.8296
  22   2.0000     -10.209565      -277.8164
  23   2.0000     -10.203962      -277.6639
  24   2.0000     -10.201692      -277.6021
  25   2.0000     -10.197220      -277.4805
  26   2.0000     -10.195171      -277.4247
  27   2.0000     -10.194887      -277.4170
  28   2.0000     -10.193611      -277.3823
  29   2.0000     -10.192556      -277.3536
  30   2.0000     -10.184526      -277.1350
  31   2.0000     -10.183347      -277.1030
  32   2.0000     -10.180255      -277.0188
  33   2.0000     -10.175227      -276.8820
  34   2.0000     -10.173757      -276.8420
  35   2.0000     -10.166158      -276.6352
  36   2.0000      -9.451522      -257.1890
  37   2.0000      -8.126045      -221.1209
  38   2.0000      -7.214808      -196.3249
  39   2.0000      -7.204976      -196.0574
  40   2.0000      -7.204950      -196.0567
  41   2.0000      -6.091009      -165.7448
  42   2.0000      -6.089119      -165.6933
  43   2.0000      -6.088707      -165.6821
  44   2.0000      -1.077437       -29.3186
  45   2.0000      -1.075827       -29.2747
  46   2.0000      -1.012824       -27.5603
  47   2.0000      -0.989992       -26.9390
  48   2.0000      -0.958134       -26.0721
  49   2.0000      -0.955365       -25.9968
  50   2.0000      -0.908697       -24.7269
  51   2.0000      -0.882867       -24.0240
  52   2.0000      -0.866225       -23.5712
  53   2.0000      -0.860926       -23.4270
  54   2.0000      -0.840795       -22.8792
  55   2.0000      -0.803439       -21.8627
  56   2.0000      -0.799599       -21.7582
  57   2.0000      -0.794021       -21.6064
  58   2.0000      -0.773744       -21.0547
  59   2.0000      -0.768859       -20.9217
  60   2.0000      -0.761020       -20.7084
  61   2.0000      -0.738429       -20.0937
  62   2.0000      -0.732778       -19.9399
  63   2.0000      -0.709621       -19.3098
  64   2.0000      -0.699870       -19.0444
  65   2.0000      -0.685806       -18.6617
  66   2.0000      -0.671456       -18.2713
  67   2.0000      -0.647658       -17.6237
  68   2.0000      -0.640169       -17.4199
  69   2.0000      -0.631906       -17.1950
  70   2.0000      -0.621803       -16.9201
  71   2.0000      -0.608862       -16.5680
  72   2.0000      -0.590703       -16.0739
  73   2.0000      -0.589707       -16.0467
  74   2.0000      -0.576151       -15.6779
  75   2.0000      -0.573045       -15.5933
  76   2.0000      -0.554068       -15.0770
  77   2.0000      -0.535290       -14.5660
  78   2.0000      -0.529079       -14.3970
  79   2.0000      -0.521697       -14.1961
  80   2.0000      -0.509174       -13.8553
  81   2.0000      -0.498201       -13.5567
  82   2.0000      -0.492628       -13.4051
  83   2.0000      -0.483344       -13.1525
  84   2.0000      -0.481242       -13.0953
  85   2.0000      -0.479424       -13.0458
  86   2.0000      -0.473390       -12.8816
  87   2.0000      -0.464783       -12.6474
  88   2.0000      -0.457021       -12.4362
  89   2.0000      -0.454119       -12.3572
  90   2.0000      -0.451115       -12.2755
  91   2.0000      -0.445852       -12.1323
  92   2.0000      -0.444563       -12.0972
  93   2.0000      -0.440823       -11.9954
  94   2.0000      -0.438850       -11.9417
  95   2.0000      -0.436593       -11.8803
  96   2.0000      -0.426530       -11.6065
  97   2.0000      -0.422543       -11.4980
  98   2.0000      -0.420847       -11.4518
  99   2.0000      -0.417335       -11.3563
 100   2.0000      -0.413989       -11.2652
 101   2.0000      -0.409973       -11.1559
 102   2.0000      -0.409146       -11.1334
 103   2.0000      -0.402995       -10.9660
 104   2.0000      -0.397043       -10.8041
 105   2.0000      -0.389559       -10.6005
 106   2.0000      -0.386942       -10.5292
 107   2.0000      -0.382013       -10.3951
 108   2.0000      -0.379482       -10.3262
 109   2.0000      -0.373564       -10.1652
 110   2.0000      -0.367221        -9.9926
 111   2.0000      -0.361706        -9.8425
 112   2.0000      -0.361300        -9.8315
 113   2.0000      -0.350547        -9.5389
 114   2.0000      -0.346818        -9.4374
 115   2.0000      -0.343262        -9.3406
 116   2.0000      -0.338957        -9.2235
 117   2.0000      -0.326469        -8.8837
 118   2.0000      -0.317852        -8.6492
 119   2.0000      -0.315544        -8.5864
 120   2.0000      -0.301232        -8.1969
 121   2.0000      -0.300601        -8.1798
 122   2.0000      -0.294653        -8.0179
 123   2.0000      -0.284509        -7.7419
 124   2.0000      -0.275306        -7.4915
 125   2.0000      -0.272135        -7.4052
 126   2.0000      -0.271435        -7.3861
 127   2.0000      -0.268925        -7.3178
 128   2.0000      -0.265870        -7.2347
 129   2.0000      -0.261960        -7.1283
 130   2.0000      -0.251339        -6.8393
 131   2.0000      -0.245595        -6.6830
 132   2.0000      -0.224354        -6.1050
 133   2.0000      -0.219351        -5.9688
 134   2.0000      -0.195192        -5.3114
 135   0.0000      -0.076561        -2.0833
 136   0.0000      -0.057148        -1.5551
 137   0.0000      -0.029761        -0.8098
 138   0.0000      -0.022961        -0.6248
 139   0.0000      -0.015981        -0.4349

MULLIKEN ATOMIC CHARGES
-----------------------
   0 C :   -0.543773
   1 C :    0.134622
   2 C :    0.311135
   3 N :   -0.607605
   4 C :   -0.242208
   5 C :    0.145063
   6 C :   -0.191229
   7 C :   -0.187227
   8 C :    0.293834
   9 C :    0.137228
  10 C :   -0.245342
  11 C :   -0.184697
  12 Cl:   -0.007749
  13 C :    0.001814
  14 N :   -0.421492
  15 C :   -0.327137
  16 S :    1.222173
  17 O :   -0.545708
  18 O :   -0.555323
  19 C :   -0.126196
  20 C :   -0.136655
  21 C :   -0.142593
  22 C :    0.082792
  23 C :    0.527078
  24 O :   -0.446003
  25 O :   -0.624170
  26 C :   -0.146740
  27 C :   -0.152791
  28 N :   -0.402572
  29 C :   -0.060660
  30 C :    0.139625
  31 C :   -0.204559
  32 C :   -0.126162
  33 C :   -0.121964
  34 C :   -0.194666
  35 C :    0.116194
  36 H :    0.167400
  37 H :    0.156294
  38 H :    0.207057
  39 H :    0.170094
  40 H :    0.167557
  41 H :    0.130033
  42 H :    0.124301
  43 H :    0.167276
  44 H :    0.157579
  45 H :    0.177267
  46 H :    0.177257
  47 H :    0.175795
  48 H :    0.189223
  49 H :    0.178829
  50 H :    0.432822
  51 H :    0.170893
  52 H :    0.185003
  53 H :    0.148648
  54 H :    0.136862
  55 H :    0.134404
  56 H :    0.136106
  57 H :    0.142964
Sum of atomic charges:    0.0000000

LOEWDIN ATOMIC CHARGES
----------------------
   0 C :   -0.360492
   1 C :    0.011196
   2 C :    0.026964
   3 N :   -0.279382
   4 C :   -0.146084
   5 C :   -0.044303
   6 C :   -0.141844
   7 C :   -0.156698
   8 C :    0.006298
   9 C :   -0.047356
  10 C :   -0.118277
  11 C :   -0.152025
  12 Cl:    0.038572
  13 C :   -0.107663
  14 N :    0.012945
  15 C :   -0.261636
  16 S :    1.262636
  17 O :   -0.569622
  18 O :   -0.578609
  19 C :   -0.174998
  20 C :   -0.096490
  21 C :   -0.086286
  22 C :   -0.040885
  23 C :    0.179789
  24 O :   -0.262222
  25 O :   -0.335468
  26 C :   -0.100688
  27 C :   -0.108676
  28 N :   -0.139096
  29 C :   -0.066691
  30 C :   -0.027715
  31 C :   -0.113833
  32 C :   -0.126372
  33 C :   -0.119418
  34 C :   -0.118680
  35 C :   -0.006343
  36 H :    0.141235
  37 H :    0.135324
  38 H :    0.155923
  39 H :    0.142128
  40 H :    0.131561
  41 H :    0.133265
  42 H :    0.131292
  43 H :    0.151325
  44 H :    0.141324
  45 H :    0.144598
  46 H :    0.138702
  47 H :    0.135764
  48 H :    0.161998
  49 H :    0.159656
  50 H :    0.348864
  51 H :    0.153785
  52 H :    0.160126
  53 H :    0.135039
  54 H :    0.136000
  55 H :    0.134664
  56 H :    0.135787
  57 H :    0.141094

  Mayer bond orders larger than 0.100000
B(  0-C ,  1-C ) :   1.0088 B(  0-C , 36-H ) :   0.9239 B(  0-C , 37-H ) :   0.9249
B(  0-C , 38-H ) :   0.9140 B(  1-C ,  2-C ) :   1.4338 B(  1-C , 29-C ) :   0.1007
B(  1-C , 35-C ) :   1.2615 B(  2-C ,  3-N ) :   0.8943 B(  2-C , 28-N ) :   1.2761
B(  3-N ,  4-C ) :   0.9167 B(  3-N , 16-S ) :   0.8105 B(  4-C ,  5-C ) :   0.9575
B(  4-C , 39-H ) :   0.9205 B(  4-C , 40-H ) :   0.9207 B(  5-C ,  6-C ) :   1.3661
B(  5-C , 10-C ) :   1.4404 B(  6-C ,  7-C ) :   1.4606 B(  6-C , 41-H ) :   0.9233
B(  7-C ,  8-C ) :   1.3504 B(  7-C , 10-C ) :   0.1024 B(  7-C , 42-H ) :   0.9199
B(  8-C ,  9-C ) :   1.3128 B(  8-C , 14-N ) :   1.0538 B(  9-C , 10-C ) :   1.3332
B(  9-C , 11-C ) :   1.2616 B( 10-C , 43-H ) :   0.9046 B( 11-C , 12-Cl) :   1.0292
B( 11-C , 13-C ) :   1.5117 B( 13-C , 14-N ) :   1.1438 B( 13-C , 44-H ) :   0.9240
B( 14-N , 15-C ) :   0.9497 B( 15-C , 45-H ) :   0.9432 B( 15-C , 46-H ) :   0.9325
B( 15-C , 47-H ) :   0.9310 B( 16-S , 17-O ) :   1.6475 B( 16-S , 18-O ) :   1.6082
B( 16-S , 19-C ) :   0.8102 B( 19-C , 20-C ) :   1.3786 B( 19-C , 27-C ) :   1.4018
B( 20-C , 21-C ) :   1.4325 B( 20-C , 48-H ) :   0.9045 B( 21-C , 22-C ) :   1.3949
B( 21-C , 49-H ) :   0.9104 B( 22-C , 23-C ) :   1.0091 B( 22-C , 26-C ) :   1.3884
B( 23-C , 24-O ) :   1.8622 B( 23-C , 25-O ) :   1.0235 B( 25-O , 50-H ) :   0.7426
B( 26-C , 27-C ) :   1.4084 B( 26-C , 51-H ) :   0.9154 B( 27-C , 52-H ) :   0.9089
B( 28-N , 29-C ) :   1.4929 B( 29-C , 30-C ) :   1.2421 B( 29-C , 53-H ) :   0.9270
B( 30-C , 31-C ) :   1.2832 B( 30-C , 35-C ) :   1.2912 B( 31-C , 32-C ) :   1.5130
B( 31-C , 34-C ) :   0.1062 B( 31-C , 54-H ) :   0.9236 B( 32-C , 33-C ) :   1.3525
B( 32-C , 55-H ) :   0.9296 B( 33-C , 34-C ) :   1.5076 B( 33-C , 56-H ) :   0.9294
B( 34-C , 35-C ) :   1.2963 B( 34-C , 57-H ) :   0.9151

FINAL SINGLE POINT ENERGY     -2364.528688635527

DIPOLE MOMENT
-------------

Method             : SCF
Type of density    : Electron Density
Multiplicity       :   1
Irrep              :   0
Energy             : -2364.5286886355270326 Eh
Relativity type    :
Basis              : AO
                                X                 Y                 Z
Electronic contribution:      0.162467309      20.892026047       9.532204466
Nuclear contribution   :      1.193443677     -22.599184096     -11.273948626
                        -----------------------------------------
Total Dipole Moment    :      1.355910985      -1.707158049      -1.741744160
                        -----------------------------------------
Magnitude (a.u.)       :      2.790440095
Magnitude (Debye)      :      7.092735052

Rotational constants in cm-1:             0.003950             0.002103             0.001556
Rotational constants in MHz :           118.428993            63.056989            46.633359

                             ****ORCA TERMINATED NORMALLY****
TOTAL RUN TIME: 0 days 0 hours 7 minutes 23 seconds 190 msec
