                         Program Version 6.0.0  -   RELEASE  -
|  1> ! B3LYP 6-31G* SP
|  2>
|  3> * xyz 0 1
|  4> C -4.7981 1.0138 1.1215
|  5> O -4.7606 0.0458 0.1019
|  6> N -3.4649 -0.0405 -0.3076
|  7> C -3.0554 0.7305 -1.4816
|  8> C -2.6338 -1.0791 0.2463
|  9> O -3.1849 -2.0433 0.8425
| 10> C -1.1572 -1.0515 0.1565
| 11> S -0.1872 0.3149 -0.0095
| 12> C 1.2620 -0.5430 0.0764
| 13> C 2.6208 0.0397 -0.0093
| 14> C 3.7529 -0.7909 0.0850
| 15> C 5.0389 -0.2480 0.0046
| 16> C 5.2097 1.1268 -0.1705
| 17> C 4.0944 1.9623 -0.2657
| 18> F 4.2617 3.2971 -0.4358
| 19> C 2.8056 1.4243 -0.1859
| 20> N 1.0252 -1.8641 0.2460
| 21> C -0.3049 -2.1467 0.2974
| 22> O -0.7670 -3.4469 0.4746
| 23> H -5.8418 1.1094 1.4847
| 24> H -4.4754 2.0069 0.7378
| 25> H -4.1614 0.7095 1.9817
| 26> H -2.5421 0.0731 -2.2152
| 27> H -2.3872 1.5607 -1.1771
| 28> H -3.9460 1.1749 -1.9746
| 29> H 3.6457 -1.8598 0.2207
| 30> H 5.9039 -0.8944 0.0781
| 31> H 6.2068 1.5436 -0.2323
| 32> H 1.9583 2.0930 -0.2628
| 33> H -0.1178 -4.2182 0.5720
| 34> *
| 35>
| 36>                          ****END OF INPUT****

CARTESIAN COORDINATES (ANGSTROEM)
---------------------------------
  C     -4.798100    1.013800    1.121500
  O     -4.760600    0.045800    0.101900
  N     -3.464900   -0.040500   -0.307600
  C     -3.055400    0.730500   -1.481600
  C     -2.633800   -1.079100    0.246300
  O     -3.184900   -2.043300    0.842500
  C     -1.157200   -1.051500    0.156500
  S     -0.187200    0.314900   -0.009500
  C      1.262000   -0.543000    0.076400
  C      2.620800    0.039700   -0.009300
  C      3.752900   -0.790900    0.085000
  C      5.038900   -0.248000    0.004600
  C      5.209700    1.126800   -0.170500
  C      4.094400    1.962300   -0.265700
  F      4.261700    3.297100   -0.435800
  C      2.805600    1.424300   -0.185900
  N      1.025200   -1.864100    0.246000
  C     -0.304900   -2.146700    0.297400
  O     -0.767000   -3.446900    0.474600
  H     -5.841800    1.109400    1.484700
  H     -4.475400    2.006900    0.737800
  H     -4.161400    0.709500    1.981700
  H     -2.542100    0.073100   -2.215200
  H     -2.387200    1.560700   -1.177100
  H     -3.946000    1.174900   -1.974600
  H      3.645700   -1.859800    0.220700
  H      5.903900   -0.894400    0.078100
  H      6.206800    1.543600   -0.232300
  H      1.958300    2.093000   -0.262800
  H     -0.117800   -4.218200    0.572000

 Total Charge           Charge          ....    0
 Multiplicity           Mult            ....    1
 Number of Electrons    NEL             ....  146
 Basis Dimension        Dim             ....  292

ORBITAL ENERGIES
----------------

  NO   OCC          E(Eh)            E(eV)
   0   2.0000     -88.911499     -2419.4049
   1   2.0000     -24.709739      -672.3862
   2   2.0000     -19.187365      -522.1147
   3   2.0000     -19.175264      -521.7855
   4   2.0000     -19.102689      -519.8106
   5   2.0000     -14.392785      -391.6476
   6   2.0000     -14.343327      -390.3018
   7   2.0000     -10.293441      -280.0988
   8   2.0000     -10.292319      -280.0682
   9   2.0000     -10.283704      -279.8338
  10   2.0000     -10.269637      -279.4510
  11   2.0000     -10.226548      -278.2785
  12   2.0000     -10.224656      -278.2270
  13   2.0000     -10.224594      -278.2254
  14   2.0000     -10.221586      -278.1435
  15   2.0000     -10.207975      -277.7731
  16   2.0000     -10.204267      -277.6722
  17   2.0000     -10.202885      -277.6346
  18   2.0000     -10.199088      -277.5313
  19   2.0000      -7.988709      -217.3838
  20   2.0000      -5.951570      -161.9505
  21   2.0000      -5.947658      -161.8440
  22   2.0000      -5.945845      -161.7947
  23   2.0000      -1.222786       -33.2737
  24   2.0000      -1.108620       -30.1671
  25   2.0000      -1.046538       -28.4778
  26   2.0000      -0.994182       -27.0531
  27   2.0000      -0.969322       -26.3766
  28   2.0000      -0.874938       -23.8083
  29   2.0000      -0.865704       -23.5570
  30   2.0000      -0.821859       -22.3639
  31   2.0000      -0.793815       -21.6008
  32   2.0000      -0.760802       -20.7025
  33   2.0000      -0.738675       -20.1004
  34   2.0000      -0.709546       -19.3077
  35   2.0000      -0.684495       -18.6261
  36   2.0000      -0.652286       -17.7496
  37   2.0000      -0.630674       -17.1615
  38   2.0000      -0.611166       -16.6307
  39   2.0000      -0.592226       -16.1153
  40   2.0000      -0.565900       -15.3989
  41   2.0000      -0.543836       -14.7985
  42   2.0000      -0.526644       -14.3307
  43   2.0000      -0.510188       -13.8829
  44   2.0000      -0.505311       -13.7502
  45   2.0000      -0.501134       -13.6365
  46   2.0000      -0.485028       -13.1983
  47   2.0000      -0.482075       -13.1179
  48   2.0000      -0.466010       -12.6808
  49   2.0000      -0.465730       -12.6732
  50   2.0000      -0.448135       -12.1944
  51   2.0000      -0.445685       -12.1277
  52   2.0000      -0.435819       -11.8592
  53   2.0000      -0.425387       -11.5754
  54   2.0000      -0.415761       -11.3134
  55   2.0000      -0.409121       -11.1327
  56   2.0000      -0.394480       -10.7344
  57   2.0000      -0.385859       -10.4998
  58   2.0000      -0.384351       -10.4587
  59   2.0000      -0.381898       -10.3920
  60   2.0000      -0.369363       -10.0509
  61   2.0000      -0.363635        -9.8950
  62   2.0000      -0.356641        -9.7047
  63   2.0000      -0.355366        -9.6700
  64   2.0000      -0.349312        -9.5053
  65   2.0000      -0.295313        -8.0359
  66   2.0000      -0.288959        -7.8630
  67   2.0000      -0.279909        -7.6167
  68   2.0000      -0.274178        -7.4608
  69   2.0000      -0.256625        -6.9831
  70   2.0000      -0.242061        -6.5868
  71   2.0000      -0.224963        -6.1216
  72   2.0000      -0.220290        -5.9944
  73   0.0000      -0.073901        -2.0110
  74   0.0000      -0.013827        -0.3762
  75   0.0000      -0.008732        -0.2376
  76   0.0000       0.016205         0.4410
  77   0.0000       0.034994         0.9522

MULLIKEN ATOMIC CHARGES
-----------------------
   0 C :   -0.179424
   1 O :   -0.334142
   2 N :   -0.203004
   3 C :   -0.332208
   4 C :    0.516492
   5 O :   -0.441155
   6 C :   -0.273516
   7 S :    0.283240
   8 C :   -0.022601
   9 C :    0.159831
  10 C :   -0.159633
  11 C :   -0.116175
  12 C :   -0.199904
  13 C :    0.413043
  14 F :   -0.315046
  15 C :   -0.279998
  16 N :   -0.424236
  17 C :    0.511350
  18 O :   -0.616666
  19 H :    0.158460
  20 H :    0.131336
  21 H :    0.155129
  22 H :    0.176395
  23 H :    0.165361
  24 H :    0.182440
  25 H :    0.162892
  26 H :    0.147895
  27 H :    0.150784
  28 H :    0.158881
  29 H :    0.424178
Sum of atomic charges:    0.0000000

LOEWDIN ATOMIC CHARGES
----------------------
   0 C :   -0.209718
   1 O :   -0.142553
   2 N :   -0.027103
   3 C :   -0.284762
   4 C :    0.124013
   5 O :   -0.254977
   6 C :   -0.274043
   7 S :    0.402192
   8 C :   -0.111544
   9 C :   -0.021608
  10 C :   -0.113849
  11 C :   -0.115832
  12 C :   -0.149005
  13 C :    0.120119
  14 F :   -0.101003
  15 C :   -0.153439
  16 N :   -0.181682
  17 C :    0.113279
  18 O :   -0.312157
  19 H :    0.128160
  20 H :    0.106079
  21 H :    0.119705
  22 H :    0.138136
  23 H :    0.123459
  24 H :    0.146248
  25 H :    0.150453
  26 H :    0.141499
  27 H :    0.146291
  28 H :    0.149419
  29 H :    0.344224

  Mayer bond orders larger than 0.100000
B(  0-C ,  1-O ) :   0.9098 B(  0-C , 19-H ) :   0.9452 B(  0-C , 20-H ) :   0.9371
B(  0-C , 21-H ) :   0.9341 B(  1-O ,  2-N ) :   0.9587 B(  2-N ,  3-C ) :   0.9338
B(  2-N ,  4-C ) :   0.9844 B(  3-C , 22-H ) :   0.9345 B(  3-C , 23-H ) :   0.9244
B(  3-C , 24-H ) :   0.9353 B(  4-C ,  5-O ) :   1.8647 B(  4-C ,  6-C ) :   0.9628
B(  6-C ,  7-S ) :   1.0696 B(  6-C ,  8-C ) :   0.1191 B(  6-C , 17-C ) :   1.4174
B(  7-S ,  8-C ) :   1.1615 B(  8-C ,  9-C ) :   1.0235 B(  8-C , 16-N ) :   1.4399
B(  9-C , 10-C ) :   1.4085 B(  9-C , 15-C ) :   1.3573 B( 10-C , 11-C ) :   1.4338
B( 10-C , 25-H ) :   0.9118 B( 11-C , 12-C ) :   1.4231 B( 11-C , 26-H ) :   0.9282
B( 12-C , 13-C ) :   1.3874 B( 12-C , 27-H ) :   0.9198 B( 13-C , 14-F ) :   0.9153
B( 13-C , 15-C ) :   1.3924 B( 15-C , 28-H ) :   0.9071 B( 16-N , 17-C ) :   1.2918
B( 17-C , 18-O ) :   1.0228 B( 18-O , 29-H ) :   0.7548

FINAL SINGLE POINT ENERGY     -1296.432803168866

DIPOLE MOMENT
-------------

Method             : SCF
Type of density    : Electron Density
Multiplicity       :   1
Irrep              :   0
Energy             : -1296.4328031688664851 Eh
Relativity type    :
Basis              : AO
                                X                 Y                 Z
Electronic contribution:     12.426803117      -0.147305700       0.250655241
Nuclear contribution   :    -11.146853326       1.022951203      -0.679288310
                        -----------------------------------------
Total Dipole Moment    :      1.279949791       0.875645503      -0.428633068
                        -----------------------------------------
Magnitude (a.u.)       :      1.608960168
Magnitude (Debye)      :      4.089651736

Rotational constants in cm-1:             0.023436             0.005422             0.004554
Rotational constants in MHz :           702.600822           162.537713           136.516487

                             ****ORCA TERMINATED NORMALLY****
TOTAL RUN TIME: 0 days 0 hours 3 minutes 25 seconds 876 msec
