                         Program Version 6.0.0  -   RELEASE  -
|  1> ! B3LYP 6-31G* SP
|  2>
|  3> * xyz 0 1
|  4> C -1.7424 -1.5062 -2.4852
|  5> C -0.3484 -1.4859 -1.8427
|  6> C 0.0694 -2.8032 -1.2069
|  7> C -0.8537 -3.6806 -0.5991
|  8> C -0.4160 -4.8622 0.0074
|  9> C 0.9428 -5.1828 0.0214
| 10> F 1.3638 -6.3321 0.6067
| 11> C 1.8707 -4.3141 -0.5586
| 12> C 1.4386 -3.1274 -1.1605
| 13> N -0.2084 -0.3684 -0.8882
| 14> C -0.9377 -0.3418 0.3951
| 15> C -2.3020 0.2857 0.2437
| 16> C -3.4582 -0.4439 0.5653
| 17> C -4.7208 0.1358 0.4236
| 18> C -4.8441 1.4478 -0.0344
| 19> C -3.6987 2.2033 -0.3400
| 20> C -3.8196 3.5961 -0.8233
| 21> O -4.9574 4.1198 -0.9802
| 22> O -2.6797 4.3381 -1.1167
| 23> C -2.4297 1.6189 -0.1812
| 24> C 0.5336 0.7953 -1.2980
| 25> O 0.3118 1.2985 -2.4308
| 26> C 1.5334 1.4225 -0.4056
| 27> C 1.7992 2.7996 -0.4863
| 28> N 2.7085 3.3754 0.3453
| 29> C 3.3864 2.6535 1.2752
| 30> C 4.3045 3.2847 2.1227
| 31> C 4.9940 2.5392 3.0849
| 32> C 4.7721 1.1625 3.2000
| 33> C 3.8574 0.5228 2.3568
| 34> C 3.1625 1.2625 1.3890
| 35> C 2.2366 0.6528 0.5342
| 36> H -1.8104 -2.3324 -3.2237
| 37> H -1.9212 -0.5503 -3.0185
| 38> H -2.5427 -1.6339 -1.7359
| 39> H 0.3503 -1.3181 -2.6955
| 40> H -1.9098 -3.4537 -0.5680
| 41> H -1.1322 -5.5284 0.4714
| 42> H 2.9247 -4.5545 -0.5380
| 43> H 2.1771 -2.4584 -1.5897
| 44> H -1.0224 -1.3673 0.8087
| 45> H -0.3724 0.2373 1.1555
| 46> H -3.3851 -1.4659 0.9186
| 47> H -5.6069 -0.4348 0.6684
| 48> H -5.8361 1.8713 -0.1437
| 49> H -2.7496 5.2916 -1.4603
| 50> H -1.5417 2.2014 -0.3849
| 51> H 1.2688 3.4195 -1.1954
| 52> H 4.4775 4.3480 2.0474
| 53> H 5.7002 3.0273 3.7444
| 54> H 5.3025 0.5916 3.9503
| 55> H 3.6978 -0.5396 2.4549
| 56> H 2.0633 -0.4170 0.6004
| 57> *
| 58>
| 59>                          ****END OF INPUT****

CARTESIAN COORDINATES (ANGSTROEM)
---------------------------------
  C     -1.742400   -1.506200   -2.485200
  C     -0.348400   -1.485900   -1.842700
  C      0.069400   -2.803200   -1.206900
  C     -0.853700   -3.680600   -0.599100
  C     -0.416000   -4.862200    0.007400
  C      0.942800   -5.182800    0.021400
  F      1.363800   -6.332100    0.606700
  C      1.870700   -4.314100   -0.558600
  C      1.438600   -3.127400   -1.160500
  N     -0.208400   -0.368400   -0.888200
  C     -0.937700   -0.341800    0.395100
  C     -2.302000    0.285700    0.243700
  C     -3.458200   -0.443900    0.565300
  C     -4.720800    0.135800    0.423600
  C     -4.844100    1.447800   -0.034400
  C     -3.698700    2.203300   -0.340000
  C     -3.819600    3.596100   -0.823300
  O     -4.957400    4.119800   -0.980200
  O     -2.679700    4.338100   -1.116700
  C     -2.429700    1.618900   -0.181200
  C      0.533600    0.795300   -1.298000
  O      0.311800    1.298500   -2.430800
  C      1.533400    1.422500   -0.405600
  C      1.799200    2.799600   -0.486300
  N      2.708500    3.375400    0.345300
  C      3.386400    2.653500    1.275200
  C      4.304500    3.284700    2.122700
  C      4.994000    2.539200    3.084900
  C      4.772100    1.162500    3.200000
  C      3.857400    0.522800    2.356800
  C      3.162500    1.262500    1.389000
  C      2.236600    0.652800    0.534200
  H     -1.810400   -2.332400   -3.223700
  H     -1.921200   -0.550300   -3.018500
  H     -2.542700   -1.633900   -1.735900
  H      0.350300   -1.318100   -2.695500
  H     -1.909800   -3.453700   -0.568000
  H     -1.132200   -5.528400    0.471400
  H      2.924700   -4.554500   -0.538000
  H      2.177100   -2.458400   -1.589700
  H     -1.022400   -1.367300    0.808700
  H     -0.372400    0.237300    1.155500
  H     -3.385100   -1.465900    0.918600
  H     -5.606900   -0.434800    0.668400
  H     -5.836100    1.871300   -0.143700
  H     -2.749600    5.291600   -1.460300
  H     -1.541700    2.201400   -0.384900
  H      1.268800    3.419500   -1.195400
  H      4.477500    4.348000    2.047400
  H      5.700200    3.027300    3.744400
  H      5.302500    0.591600    3.950300
  H      3.697800   -0.539600    2.454900
  H      2.063300   -0.417000    0.600400

 Total Charge           Charge          ....    0
 Multiplicity           Mult            ....    1
 Number of Electrons    NEL             ....  224
 Basis Dimension        Dim             ....  490

ORBITAL ENERGIES
----------------

  NO   OCC          E(Eh)            E(eV)
   0   2.0000     -24.704736      -672.2500
   1   2.0000     -19.181071      -521.9435
   2   2.0000     -19.124084      -520.3928
   3   2.0000     -19.120563      -520.2970
   4   2.0000     -14.350515      -390.4974
   5   2.0000     -14.329622      -389.9288
   6   2.0000     -10.318454      -280.7794
   7   2.0000     -10.294618      -280.1308
   8   2.0000     -10.277210      -279.6571
   9   2.0000     -10.230709      -278.3917
  10   2.0000     -10.229906      -278.3699
  11   2.0000     -10.227972      -278.3173
  12   2.0000     -10.226069      -278.2655
  13   2.0000     -10.213555      -277.9250
  14   2.0000     -10.209519      -277.8151
  15   2.0000     -10.208781      -277.7951
  16   2.0000     -10.203267      -277.6450
  17   2.0000     -10.202835      -277.6333
  18   2.0000     -10.201680      -277.6018
  19   2.0000     -10.201571      -277.5989
  20   2.0000     -10.201293      -277.5913
  21   2.0000     -10.199311      -277.5374
  22   2.0000     -10.199029      -277.5297
  23   2.0000     -10.198978      -277.5283
  24   2.0000     -10.198894      -277.5260
  25   2.0000     -10.198554      -277.5167
  26   2.0000     -10.197716      -277.4940
  27   2.0000     -10.195885      -277.4441
  28   2.0000     -10.195755      -277.4406
  29   2.0000     -10.194065      -277.3946
  30   2.0000     -10.191529      -277.3256
  31   2.0000     -10.167904      -276.6827
  32   2.0000      -1.217890       -33.1405
  33   2.0000      -1.064621       -28.9698
  34   2.0000      -1.022151       -27.8141
  35   2.0000      -0.978099       -26.6154
  36   2.0000      -0.940896       -25.6031
  37   2.0000      -0.926231       -25.2040
  38   2.0000      -0.869170       -23.6513
  39   2.0000      -0.863273       -23.4908
  40   2.0000      -0.855130       -23.2693
  41   2.0000      -0.820642       -22.3308
  42   2.0000      -0.793512       -21.5926
  43   2.0000      -0.775489       -21.1021
  44   2.0000      -0.767309       -20.8795
  45   2.0000      -0.763394       -20.7730
  46   2.0000      -0.761667       -20.7260
  47   2.0000      -0.746781       -20.3209
  48   2.0000      -0.726402       -19.7664
  49   2.0000      -0.691342       -18.8124
  50   2.0000      -0.664492       -18.0818
  51   2.0000      -0.660593       -17.9757
  52   2.0000      -0.651909       -17.7393
  53   2.0000      -0.636624       -17.3234
  54   2.0000      -0.626473       -17.0472
  55   2.0000      -0.613397       -16.6914
  56   2.0000      -0.612927       -16.6786
  57   2.0000      -0.595299       -16.1989
  58   2.0000      -0.583182       -15.8692
  59   2.0000      -0.561501       -15.2792
  60   2.0000      -0.546242       -14.8640
  61   2.0000      -0.538157       -14.6440
  62   2.0000      -0.532247       -14.4832
  63   2.0000      -0.520416       -14.1613
  64   2.0000      -0.515951       -14.0397
  65   2.0000      -0.499088       -13.5809
  66   2.0000      -0.495637       -13.4870
  67   2.0000      -0.489810       -13.3284
  68   2.0000      -0.478055       -13.0085
  69   2.0000      -0.466082       -12.6827
  70   2.0000      -0.461266       -12.5517
  71   2.0000      -0.460197       -12.5226
  72   2.0000      -0.456559       -12.4236
  73   2.0000      -0.453329       -12.3357
  74   2.0000      -0.447619       -12.1803
  75   2.0000      -0.444537       -12.0965
  76   2.0000      -0.442216       -12.0333
  77   2.0000      -0.437800       -11.9131
  78   2.0000      -0.435508       -11.8508
  79   2.0000      -0.430020       -11.7014
  80   2.0000      -0.424982       -11.5643
  81   2.0000      -0.421771       -11.4770
  82   2.0000      -0.415554       -11.3078
  83   2.0000      -0.412629       -11.2282
  84   2.0000      -0.409045       -11.1307
  85   2.0000      -0.399842       -10.8802
  86   2.0000      -0.398770       -10.8511
  87   2.0000      -0.389129       -10.5888
  88   2.0000      -0.378437       -10.2978
  89   2.0000      -0.377231       -10.2650
  90   2.0000      -0.369870       -10.0647
  91   2.0000      -0.368509       -10.0276
  92   2.0000      -0.362662        -9.8685
  93   2.0000      -0.360551        -9.8111
  94   2.0000      -0.356409        -9.6984
  95   2.0000      -0.355527        -9.6744
  96   2.0000      -0.351742        -9.5714
  97   2.0000      -0.347099        -9.4450
  98   2.0000      -0.341442        -9.2911
  99   2.0000      -0.335085        -9.1181
 100   2.0000      -0.309428        -8.4200
 101   2.0000      -0.301101        -8.1934
 102   2.0000      -0.269601        -7.3362
 103   2.0000      -0.267361        -7.2753
 104   2.0000      -0.262039        -7.1304
 105   2.0000      -0.259230        -7.0540
 106   2.0000      -0.257933        -7.0187
 107   2.0000      -0.253486        -6.8977
 108   2.0000      -0.250867        -6.8264
 109   2.0000      -0.245390        -6.6774
 110   2.0000      -0.233867        -6.3639
 111   2.0000      -0.225004        -6.1227
 112   0.0000      -0.074805        -2.0355
 113   0.0000      -0.052424        -1.4265
 114   0.0000      -0.043860        -1.1935
 115   0.0000      -0.020186        -0.5493
 116   0.0000      -0.015476        -0.4211

MULLIKEN ATOMIC CHARGES
-----------------------
   0 C :   -0.457196
   1 C :   -0.051957
   2 C :    0.147982
   3 C :   -0.167016
   4 C :   -0.211538
   5 C :    0.412338
   6 F :   -0.317744
   7 C :   -0.210140
   8 C :   -0.165815
   9 N :   -0.406423
  10 C :   -0.275200
  11 C :    0.180922
  12 C :   -0.176186
  13 C :   -0.127989
  14 C :   -0.150828
  15 C :    0.079722
  16 C :    0.525389
  17 O :   -0.456101
  18 O :   -0.622874
  19 C :   -0.197136
  20 C :    0.440284
  21 O :   -0.455555
  22 C :    0.052656
  23 C :   -0.008212
  24 N :   -0.431383
  25 C :    0.217176
  26 C :   -0.142334
  27 C :   -0.127996
  28 C :   -0.130629
  29 C :   -0.199643
  30 C :    0.162150
  31 C :   -0.202774
  32 H :    0.141810
  33 H :    0.178262
  34 H :    0.147175
  35 H :    0.165077
  36 H :    0.140440
  37 H :    0.146663
  38 H :    0.147321
  39 H :    0.142357
  40 H :    0.159440
  41 H :    0.172150
  42 H :    0.130685
  43 H :    0.138665
  44 H :    0.165945
  45 H :    0.430257
  46 H :    0.165300
  47 H :    0.179183
  48 H :    0.148479
  49 H :    0.140462
  50 H :    0.136950
  51 H :    0.136498
  52 H :    0.160931
Sum of atomic charges:   -0.0000000

LOEWDIN ATOMIC CHARGES
----------------------
   0 C :   -0.366970
   1 C :   -0.046627
   2 C :   -0.030032
   3 C :   -0.129638
   4 C :   -0.157223
   5 C :    0.116820
   6 F :   -0.104271
   7 C :   -0.157017
   8 C :   -0.121809
   9 N :   -0.112216
  10 C :   -0.153277
  11 C :   -0.030550
  12 C :   -0.122549
  13 C :   -0.128620
  14 C :   -0.091875
  15 C :   -0.051829
  16 C :    0.180057
  17 O :   -0.272052
  18 O :   -0.334601
  19 C :   -0.098299
  20 C :    0.133963
  21 O :   -0.256053
  22 C :   -0.077956
  23 C :   -0.039910
  24 N :   -0.125852
  25 C :    0.020673
  26 C :   -0.114193
  27 C :   -0.116080
  28 C :   -0.126664
  29 C :   -0.117605
  30 C :   -0.031687
  31 C :   -0.080487
  32 H :    0.125463
  33 H :    0.143804
  34 H :    0.124156
  35 H :    0.142972
  36 H :    0.136992
  37 H :    0.143895
  38 H :    0.144350
  39 H :    0.137850
  40 H :    0.132368
  41 H :    0.140937
  42 H :    0.130804
  43 H :    0.136989
  44 H :    0.152897
  45 H :    0.347665
  46 H :    0.150243
  47 H :    0.151728
  48 H :    0.146661
  49 H :    0.137906
  50 H :    0.135895
  51 H :    0.135381
  52 H :    0.145475

  Mayer bond orders larger than 0.100000
B(  0-C ,  1-C ) :   0.9959 B(  0-C , 32-H ) :   0.9424 B(  0-C , 33-H ) :   0.9365
B(  0-C , 34-H ) :   0.9312 B(  1-C ,  2-C ) :   0.9579 B(  1-C ,  9-N ) :   0.9314
B(  1-C , 35-H ) :   0.9189 B(  2-C ,  3-C ) :   1.4193 B(  2-C ,  8-C ) :   1.4172
B(  3-C ,  4-C ) :   1.4123 B(  3-C , 36-H ) :   0.9188 B(  4-C ,  5-C ) :   1.3978
B(  4-C , 37-H ) :   0.9204 B(  5-C ,  6-F ) :   0.9180 B(  5-C ,  7-C ) :   1.3896
B(  7-C ,  8-C ) :   1.4218 B(  7-C , 38-H ) :   0.9202 B(  8-C , 39-H ) :   0.9228
B(  9-N , 10-C ) :   0.9689 B(  9-N , 20-C ) :   1.0301 B( 10-C , 11-C ) :   0.9342
B( 10-C , 40-H ) :   0.9156 B( 10-C , 41-H ) :   0.9163 B( 11-C , 12-C ) :   1.4334
B( 11-C , 19-C ) :   1.3924 B( 12-C , 13-C ) :   1.4183 B( 12-C , 42-H ) :   0.9219
B( 13-C , 14-C ) :   1.4416 B( 13-C , 43-H ) :   0.9281 B( 14-C , 15-C ) :   1.3997
B( 14-C , 44-H ) :   0.9121 B( 15-C , 16-C ) :   1.0104 B( 15-C , 19-C ) :   1.3836
B( 16-C , 17-O ) :   1.8549 B( 16-C , 18-O ) :   1.0202 B( 18-O , 45-H ) :   0.7440
B( 19-C , 46-H ) :   0.9019 B( 20-C , 21-O ) :   1.8054 B( 20-C , 22-C ) :   0.9749
B( 22-C , 23-C ) :   1.2667 B( 22-C , 31-C ) :   1.4296 B( 23-C , 24-N ) :   1.5032
B( 23-C , 47-H ) :   0.9163 B( 24-N , 25-C ) :   1.2462 B( 25-C , 26-C ) :   1.3125
B( 25-C , 30-C ) :   1.2491 B( 26-C , 27-C ) :   1.5103 B( 26-C , 29-C ) :   0.1067
B( 26-C , 48-H ) :   0.9168 B( 27-C , 28-C ) :   1.3484 B( 27-C , 49-H ) :   0.9288
B( 28-C , 29-C ) :   1.5137 B( 28-C , 50-H ) :   0.9293 B( 29-C , 30-C ) :   1.2800
B( 29-C , 51-H ) :   0.9243 B( 30-C , 31-C ) :   1.2758 B( 31-C , 52-H ) :   0.9070

FINAL SINGLE POINT ENERGY     -1437.563515953106

DIPOLE MOMENT
-------------

Method             : SCF
Type of density    : Electron Density
Multiplicity       :   1
Irrep              :   0
Energy             : -1437.5635159531059344 Eh
Relativity type    :
Basis              : AO
                                X                 Y                 Z
Electronic contribution:      4.169846093       0.002093598       0.857065143
Nuclear contribution   :     -3.368735499      -1.204559088       0.401563386
                        -----------------------------------------
Total Dipole Moment    :      0.801110593      -1.202465490       1.258628529
                        -----------------------------------------
Magnitude (a.u.)       :      1.916206464
Magnitude (Debye)      :      4.870609757

Rotational constants in cm-1:             0.004199             0.003708             0.002239
Rotational constants in MHz :           125.891788           111.171960            67.137546

                             ****ORCA TERMINATED NORMALLY****
TOTAL RUN TIME: 0 days 0 hours 8 minutes 13 seconds 472 msec
