                         Program Version 6.0.0  -   RELEASE  -
|  1> ! B3LYP 6-31G* SP
|  2>
|  3> * xyz 0 1
|  4> C -6.5058 2.8354 1.3811
|  5> N -5.8741 1.6370 0.7939
|  6> C -4.5671 1.3532 1.0785
|  7> O -3.9425 2.1042 1.8766
|  8> C -3.9345 0.2166 0.5147
|  9> C -2.5385 -0.0856 0.6975
| 10> C -1.5847 0.8733 1.4111
| 11> C -0.1216 0.5552 1.2588
| 12> O 0.4969 0.9738 0.2428
| 13> N 0.5433 -0.2557 2.2406
| 14> C 1.9176 -0.6517 2.1495
| 15> N 2.7429 -0.3026 1.1399
| 16> C 3.9950 -0.8175 1.2971
| 17> C 5.0691 -0.5534 0.3036
| 18> C 4.8907 0.4469 -0.6683
| 19> C 5.8857 0.7109 -1.6128
| 20> C 7.0848 -0.0246 -1.6095
| 21> O 8.1097 0.2091 -2.5412
| 22> C 8.0774 1.2112 -3.5535
| 23> F 8.0604 2.4671 -2.9740
| 24> F 9.2072 1.0951 -4.3397
| 25> C 7.2647 -1.0286 -0.6473
| 26> Cl 8.7449 -1.9759 -0.6180
| 27> C 6.2675 -1.2918 0.2988
| 28> C 4.1601 -1.5839 2.4568
| 29> S 2.6960 -1.6089 3.2857
| 30> C -2.0437 -1.3115 0.2068
| 31> C -2.8534 -2.1781 -0.5072
| 32> C -4.1784 -1.8579 -0.7532
| 33> C -4.7493 -0.6642 -0.2544
| 34> N -6.0749 -0.3611 -0.4893
| 35> C -6.9186 -1.2617 -1.3064
| 36> C -6.6258 0.7783 0.0408
| 37> O -7.8477 1.0377 -0.1563
| 38> H -6.9375 2.5814 2.3722
| 39> H -5.7733 3.6620 1.5025
| 40> H -7.3080 3.2354 0.7247
| 41> H -1.8323 0.8906 2.4940
| 42> H -1.7247 1.8963 1.0007
| 43> H -0.0065 -0.5947 3.0617
| 44> H 3.9815 1.0346 -0.6966
| 45> H 5.7098 1.4899 -2.3415
| 46> H 7.1821 1.0783 -4.1968
| 47> H 6.4345 -2.0850 1.0135
| 48> H 5.0649 -2.0681 2.7948
| 49> H -1.0171 -1.6138 0.3594
| 50> H -2.4454 -3.1076 -0.8842
| 51> H -4.7489 -2.5744 -1.3258
| 52> H -7.9462 -0.8773 -1.4698
| 53> H -7.0156 -2.2476 -0.8038
| 54> H -6.4704 -1.3904 -2.3148
| 55> *
| 56>
| 57>                          ****END OF INPUT****

CARTESIAN COORDINATES (ANGSTROEM)
---------------------------------
  C     -6.505800    2.835400    1.381100
  N     -5.874100    1.637000    0.793900
  C     -4.567100    1.353200    1.078500
  O     -3.942500    2.104200    1.876600
  C     -3.934500    0.216600    0.514700
  C     -2.538500   -0.085600    0.697500
  C     -1.584700    0.873300    1.411100
  C     -0.121600    0.555200    1.258800
  O      0.496900    0.973800    0.242800
  N      0.543300   -0.255700    2.240600
  C      1.917600   -0.651700    2.149500
  N      2.742900   -0.302600    1.139900
  C      3.995000   -0.817500    1.297100
  C      5.069100   -0.553400    0.303600
  C      4.890700    0.446900   -0.668300
  C      5.885700    0.710900   -1.612800
  C      7.084800   -0.024600   -1.609500
  O      8.109700    0.209100   -2.541200
  C      8.077400    1.211200   -3.553500
  F      8.060400    2.467100   -2.974000
  F      9.207200    1.095100   -4.339700
  C      7.264700   -1.028600   -0.647300
  Cl     8.744900   -1.975900   -0.618000
  C      6.267500   -1.291800    0.298800
  C      4.160100   -1.583900    2.456800
  S      2.696000   -1.608900    3.285700
  C     -2.043700   -1.311500    0.206800
  C     -2.853400   -2.178100   -0.507200
  C     -4.178400   -1.857900   -0.753200
  C     -4.749300   -0.664200   -0.254400
  N     -6.074900   -0.361100   -0.489300
  C     -6.918600   -1.261700   -1.306400
  C     -6.625800    0.778300    0.040800
  O     -7.847700    1.037700   -0.156300
  H     -6.937500    2.581400    2.372200
  H     -5.773300    3.662000    1.502500
  H     -7.308000    3.235400    0.724700
  H     -1.832300    0.890600    2.494000
  H     -1.724700    1.896300    1.000700
  H     -0.006500   -0.594700    3.061700
  H      3.981500    1.034600   -0.696600
  H      5.709800    1.489900   -2.341500
  H      7.182100    1.078300   -4.196800
  H      6.434500   -2.085000    1.013500
  H      5.064900   -2.068100    2.794800
  H     -1.017100   -1.613800    0.359400
  H     -2.445400   -3.107600   -0.884200
  H     -4.748900   -2.574400   -1.325800
  H     -7.946200   -0.877300   -1.469800
  H     -7.015600   -2.247600   -0.803800
  H     -6.470400   -1.390400   -2.314800

 Total Charge           Charge          ....    0
 Multiplicity           Mult            ....    1
 Number of Electrons    NEL             ....  260
 Basis Dimension        Dim             ....  518

ORBITAL ENERGIES
----------------

  NO   OCC          E(Eh)            E(eV)
   0   2.0000    -101.527524     -2762.7044
   1   2.0000     -88.911861     -2419.4147
   2   2.0000     -24.713549      -672.4899
   3   2.0000     -24.709806      -672.3880
   4   2.0000     -19.197691      -522.3957
   5   2.0000     -19.120478      -520.2947
   6   2.0000     -19.115931      -520.1709
   7   2.0000     -19.111949      -520.0626
   8   2.0000     -14.405970      -392.0064
   9   2.0000     -14.399731      -391.8366
  10   2.0000     -14.399455      -391.8291
  11   2.0000     -14.329694      -389.9308
  12   2.0000     -10.411238      -283.3042
  13   2.0000     -10.328385      -281.0496
  14   2.0000     -10.303432      -280.3706
  15   2.0000     -10.297981      -280.2223
  16   2.0000     -10.294443      -280.1260
  17   2.0000     -10.272304      -279.5236
  18   2.0000     -10.262268      -279.2505
  19   2.0000     -10.252207      -278.9767
  20   2.0000     -10.236474      -278.5486
  21   2.0000     -10.232304      -278.4351
  22   2.0000     -10.230944      -278.3981
  23   2.0000     -10.221323      -278.1364
  24   2.0000     -10.216881      -278.0155
  25   2.0000     -10.213552      -277.9249
  26   2.0000     -10.207868      -277.7702
  27   2.0000     -10.206618      -277.7362
  28   2.0000     -10.204640      -277.6824
  29   2.0000     -10.203946      -277.6635
  30   2.0000     -10.203182      -277.6427
  31   2.0000     -10.198457      -277.5141
  32   2.0000     -10.196687      -277.4660
  33   2.0000     -10.191571      -277.3268
  34   2.0000      -9.458911      -257.3901
  35   2.0000      -7.989560      -217.4070
  36   2.0000      -7.222208      -196.5263
  37   2.0000      -7.212479      -196.2615
  38   2.0000      -7.212070      -196.2504
  39   2.0000      -5.952644      -161.9797
  40   2.0000      -5.948514      -161.8673
  41   2.0000      -5.946387      -161.8094
  42   2.0000      -1.252973       -34.0951
  43   2.0000      -1.196524       -32.5591
  44   2.0000      -1.071576       -29.1591
  45   2.0000      -1.070795       -29.1378
  46   2.0000      -1.025987       -27.9185
  47   2.0000      -1.024040       -27.8656
  48   2.0000      -0.978884       -26.6368
  49   2.0000      -0.973554       -26.4918
  50   2.0000      -0.942952       -25.6590
  51   2.0000      -0.920296       -25.0425
  52   2.0000      -0.889292       -24.1989
  53   2.0000      -0.872638       -23.7457
  54   2.0000      -0.839646       -22.8479
  55   2.0000      -0.816253       -22.2114
  56   2.0000      -0.800848       -21.7922
  57   2.0000      -0.791166       -21.5287
  58   2.0000      -0.782159       -21.2836
  59   2.0000      -0.749378       -20.3916
  60   2.0000      -0.742370       -20.2009
  61   2.0000      -0.740861       -20.1598
  62   2.0000      -0.726308       -19.7639
  63   2.0000      -0.711605       -19.3638
  64   2.0000      -0.694107       -18.8876
  65   2.0000      -0.661159       -17.9911
  66   2.0000      -0.655504       -17.8372
  67   2.0000      -0.636803       -17.3283
  68   2.0000      -0.631083       -17.1727
  69   2.0000      -0.614126       -16.7112
  70   2.0000      -0.604041       -16.4368
  71   2.0000      -0.601318       -16.3627
  72   2.0000      -0.576648       -15.6914
  73   2.0000      -0.571127       -15.5412
  74   2.0000      -0.559758       -15.2318
  75   2.0000      -0.551347       -15.0029
  76   2.0000      -0.550490       -14.9796
  77   2.0000      -0.548232       -14.9181
  78   2.0000      -0.526947       -14.3389
  79   2.0000      -0.518604       -14.1119
  80   2.0000      -0.506209       -13.7746
  81   2.0000      -0.495271       -13.4770
  82   2.0000      -0.491950       -13.3867
  83   2.0000      -0.488240       -13.2857
  84   2.0000      -0.475822       -12.9478
  85   2.0000      -0.465608       -12.6698
  86   2.0000      -0.464551       -12.6411
  87   2.0000      -0.462839       -12.5945
  88   2.0000      -0.460832       -12.5399
  89   2.0000      -0.454502       -12.3676
  90   2.0000      -0.450696       -12.2640
  91   2.0000      -0.440229       -11.9792
  92   2.0000      -0.437818       -11.9136
  93   2.0000      -0.434050       -11.8111
  94   2.0000      -0.431046       -11.7294
  95   2.0000      -0.426340       -11.6013
  96   2.0000      -0.424737       -11.5577
  97   2.0000      -0.419303       -11.4098
  98   2.0000      -0.413645       -11.2559
  99   2.0000      -0.409192       -11.1347
 100   2.0000      -0.405600       -11.0369
 101   2.0000      -0.404489       -11.0067
 102   2.0000      -0.400686       -10.9032
 103   2.0000      -0.399045       -10.8586
 104   2.0000      -0.396030       -10.7765
 105   2.0000      -0.391986       -10.6665
 106   2.0000      -0.385048       -10.4777
 107   2.0000      -0.383290       -10.4298
 108   2.0000      -0.377683       -10.2773
 109   2.0000      -0.374963       -10.2033
 110   2.0000      -0.373302       -10.1581
 111   2.0000      -0.364216        -9.9108
 112   2.0000      -0.360396        -9.8069
 113   2.0000      -0.353648        -9.6232
 114   2.0000      -0.343130        -9.3370
 115   2.0000      -0.336131        -9.1466
 116   2.0000      -0.317989        -8.6529
 117   2.0000      -0.308989        -8.4080
 118   2.0000      -0.306672        -8.3450
 119   2.0000      -0.292086        -7.9481
 120   2.0000      -0.285626        -7.7723
 121   2.0000      -0.276242        -7.5169
 122   2.0000      -0.268863        -7.3161
 123   2.0000      -0.266116        -7.2414
 124   2.0000      -0.257140        -6.9971
 125   2.0000      -0.252570        -6.8728
 126   2.0000      -0.243421        -6.6238
 127   2.0000      -0.237056        -6.4506
 128   2.0000      -0.233260        -6.3473
 129   2.0000      -0.212459        -5.7813
 130   0.0000      -0.060816        -1.6549
 131   0.0000      -0.042627        -1.1599
 132   0.0000      -0.024545        -0.6679
 133   0.0000      -0.022174        -0.6034
 134   0.0000      -0.014910        -0.4057

MULLIKEN ATOMIC CHARGES
-----------------------
   0 C :   -0.313408
   1 N :   -0.462865
   2 C :    0.501597
   3 O :   -0.498782
   4 C :    0.000765
   5 C :    0.096997
   6 C :   -0.391210
   7 C :    0.536440
   8 O :   -0.424144
   9 N :   -0.658475
  10 C :    0.253732
  11 N :   -0.376402
  12 C :    0.220313
  13 C :    0.124308
  14 C :   -0.173960
  15 C :   -0.189860
  16 C :    0.373216
  17 O :   -0.519240
  18 C :    0.695878
  19 F :   -0.302169
  20 F :   -0.293078
  21 C :   -0.134788
  22 Cl:    0.005954
  23 C :   -0.181362
  24 C :   -0.398020
  25 S :    0.251314
  26 C :   -0.185970
  27 C :   -0.110309
  28 C :   -0.196879
  29 C :    0.316670
  30 N :   -0.510146
  31 C :   -0.336107
  32 C :    0.671195
  33 O :   -0.510116
  34 H :    0.177391
  35 H :    0.193590
  36 H :    0.196224
  37 H :    0.168532
  38 H :    0.217082
  39 H :    0.346078
  40 H :    0.186576
  41 H :    0.153403
  42 H :    0.134780
  43 H :    0.150108
  44 H :    0.185430
  45 H :    0.152144
  46 H :    0.146893
  47 H :    0.141135
  48 H :    0.224360
  49 H :    0.171929
  50 H :    0.173250
Sum of atomic charges:   -0.0000000

LOEWDIN ATOMIC CHARGES
----------------------
   0 C :   -0.258006
   1 N :   -0.020636
   2 C :    0.114215
   3 O :   -0.291368
   4 C :   -0.075986
   5 C :    0.040444
   6 C :   -0.238674
   7 C :    0.146191
   8 O :   -0.243574
   9 N :   -0.211135
  10 C :   -0.083575
  11 N :   -0.152531
  12 C :   -0.001196
  13 C :   -0.022753
  14 C :   -0.102713
  15 C :   -0.158219
  16 C :    0.082392
  17 O :   -0.167722
  18 C :    0.244697
  19 F :   -0.133936
  20 F :   -0.115430
  21 C :   -0.103948
  22 Cl:    0.048803
  23 C :   -0.122687
  24 C :   -0.348336
  25 S :    0.388930
  26 C :   -0.150196
  27 C :   -0.098044
  28 C :   -0.166630
  29 C :    0.053070
  30 N :   -0.026973
  31 C :   -0.265142
  32 C :    0.136643
  33 O :   -0.319134
  34 H :    0.140624
  35 H :    0.151633
  36 H :    0.153027
  37 H :    0.146295
  38 H :    0.177815
  39 H :    0.267141
  40 H :    0.160809
  41 H :    0.143848
  42 H :    0.109824
  43 H :    0.145297
  44 H :    0.161620
  45 H :    0.143909
  46 H :    0.141572
  47 H :    0.140487
  48 H :    0.168111
  49 H :    0.135063
  50 H :    0.136083

  Mayer bond orders larger than 0.100000
B(  0-C ,  1-N ) :   0.9172 B(  0-C , 34-H ) :   0.9408 B(  0-C , 35-H ) :   0.9251
B(  0-C , 36-H ) :   0.9251 B(  1-N ,  2-C ) :   1.0048 B(  1-N , 32-C ) :   1.0407
B(  2-C ,  3-O ) :   1.7370 B(  2-C ,  4-C ) :   1.0602 B(  4-C ,  5-C ) :   1.3602
B(  4-C , 29-C ) :   1.2875 B(  5-C ,  6-C ) :   1.0023 B(  5-C , 26-C ) :   1.4436
B(  6-C ,  7-C ) :   0.9316 B(  6-C , 37-H ) :   0.9014 B(  6-C , 38-H ) :   0.8950
B(  7-C ,  8-O ) :   1.9025 B(  7-C ,  9-N ) :   0.9636 B(  9-N , 10-C ) :   0.9473
B(  9-N , 39-H ) :   0.8196 B( 10-C , 11-N ) :   1.5111 B( 10-C , 24-C ) :   0.1088
B( 10-C , 25-S ) :   1.1408 B( 11-N , 12-C ) :   1.2649 B( 12-C , 13-C ) :   1.0539
B( 12-C , 24-C ) :   1.5114 B( 13-C , 14-C ) :   1.3991 B( 13-C , 23-C ) :   1.3989
B( 14-C , 15-C ) :   1.4186 B( 14-C , 40-H ) :   0.9041 B( 15-C , 16-C ) :   1.3683
B( 15-C , 41-H ) :   0.9142 B( 16-C , 17-O ) :   0.8881 B( 16-C , 21-C ) :   1.3436
B( 17-O , 18-C ) :   0.9547 B( 18-C , 19-F ) :   0.9569 B( 18-C , 20-F ) :   0.9943
B( 18-C , 42-H ) :   0.9069 B( 21-C , 22-Cl) :   1.0387 B( 21-C , 23-C ) :   1.4145
B( 23-C , 43-H ) :   0.9120 B( 24-C , 25-S ) :   1.1147 B( 24-C , 44-H ) :   0.9010
B( 26-C , 27-C ) :   1.4051 B( 26-C , 45-H ) :   0.9113 B( 27-C , 28-C ) :   1.4690
B( 27-C , 46-H ) :   0.9255 B( 28-C , 29-C ) :   1.3463 B( 28-C , 47-H ) :   0.9142
B( 29-C , 30-N ) :   0.9704 B( 30-N , 31-C ) :   0.9342 B( 30-N , 32-C ) :   1.0461
B( 31-C , 48-H ) :   0.9139 B( 31-C , 49-H ) :   0.9324 B( 31-C , 50-H ) :   0.9313
B( 32-C , 33-O ) :   1.7846

FINAL SINGLE POINT ENERGY     -2425.550486869916

DIPOLE MOMENT
-------------

Method             : SCF
Type of density    : Electron Density
Multiplicity       :   1
Irrep              :   0
Energy             : -2425.5504868699163126 Eh
Relativity type    :
Basis              : AO
                                X                 Y                 Z
Electronic contribution:     65.045408847      -1.165747225      -7.800819496
Nuclear contribution   :    -66.968957202      -0.489159783       8.369993702
                        -----------------------------------------
Total Dipole Moment    :     -1.923548355      -1.654907007       0.569174206
                        -----------------------------------------
Magnitude (a.u.)       :      2.600522016
Magnitude (Debye)      :      6.610001659

Rotational constants in cm-1:             0.007151             0.001010             0.000958
Rotational constants in MHz :           214.386263            30.266435            28.709074

                             ****ORCA TERMINATED NORMALLY****
TOTAL RUN TIME: 0 days 0 hours 8 minutes 57 seconds 537 msec
