                         Program Version 6.0.0  -   RELEASE  -
|  1> ! B3LYP 6-31G* SP
|  2>
|  3> * xyz 0 1
|  4> C -2.2916 -0.7254 0.6436
|  5> C -1.1038 -0.5375 -0.3175
|  6> C -0.3370 -1.8337 -0.5527
|  7> C -0.0668 -2.7404 0.4927
|  8> C 0.7033 -3.8840 0.2619
|  9> F 0.9845 -4.7273 1.2840
| 10> C 1.2064 -4.1444 -1.0130
| 11> C 0.9419 -3.2603 -2.0607
| 12> F 1.4387 -3.5090 -3.2964
| 13> C 0.1755 -2.1128 -1.8344
| 14> N -0.2080 0.5480 0.1508
| 15> C 0.5068 0.3825 1.3919
| 16> O 0.0416 0.9111 2.4376
| 17> C 1.7569 -0.4139 1.4741
| 18> C 2.0690 -1.0725 2.6788
| 19> C 3.2098 -1.8724 2.7772
| 20> C 4.0558 -2.0235 1.6783
| 21> C 3.7683 -1.3677 0.4804
| 22> C 2.6278 -0.5582 0.3695
| 23> O 2.3723 0.1051 -0.8286
| 24> C -0.2834 1.9194 -0.4056
| 25> C 0.2597 2.0045 -1.8162
| 26> N 1.0573 3.1216 -2.2089
| 27> O -0.0113 1.1194 -2.6679
| 28> C -1.6804 2.5027 -0.2682
| 29> C -2.6547 2.3686 -1.2813
| 30> C -3.9405 2.8863 -1.0991
| 31> C -4.2748 3.5350 0.0923
| 32> C -3.3250 3.6639 1.1070
| 33> C -2.0378 3.1477 0.9314
| 34> H -2.9047 -1.5971 0.3277
| 35> H -1.9546 -0.8817 1.6885
| 36> H -2.9430 0.1717 0.6288
| 37> H -1.5645 -0.2463 -1.2840
| 38> H -0.4190 -2.5532 1.4968
| 39> H 1.8098 -5.0262 -1.1869
| 40> H -0.0093 -1.4399 -2.6600
| 41> H 1.4139 -0.9902 3.5378
| 42> H 3.4328 -2.3828 3.7051
| 43> H 4.9371 -2.6473 1.7557
| 44> H 4.4356 -1.4865 -0.3634
| 45> H 2.9842 0.0119 -1.6311
| 46> H 0.3928 2.5718 0.1947
| 47> H 1.2777 3.8878 -1.5350
| 48> H 1.4361 3.1833 -3.1799
| 49> H -2.4307 1.8619 -2.2104
| 50> H -4.6800 2.7816 -1.8827
| 51> H -5.2706 3.9343 0.2313
| 52> H -3.5857 4.1620 2.0325
| 53> H -1.3183 3.2522 1.7333
| 54> *
| 55>
| 56>                          ****END OF INPUT****

CARTESIAN COORDINATES (ANGSTROEM)
---------------------------------
  C     -2.291600   -0.725400    0.643600
  C     -1.103800   -0.537500   -0.317500
  C     -0.337000   -1.833700   -0.552700
  C     -0.066800   -2.740400    0.492700
  C      0.703300   -3.884000    0.261900
  F      0.984500   -4.727300    1.284000
  C      1.206400   -4.144400   -1.013000
  C      0.941900   -3.260300   -2.060700
  F      1.438700   -3.509000   -3.296400
  C      0.175500   -2.112800   -1.834400
  N     -0.208000    0.548000    0.150800
  C      0.506800    0.382500    1.391900
  O      0.041600    0.911100    2.437600
  C      1.756900   -0.413900    1.474100
  C      2.069000   -1.072500    2.678800
  C      3.209800   -1.872400    2.777200
  C      4.055800   -2.023500    1.678300
  C      3.768300   -1.367700    0.480400
  C      2.627800   -0.558200    0.369500
  O      2.372300    0.105100   -0.828600
  C     -0.283400    1.919400   -0.405600
  C      0.259700    2.004500   -1.816200
  N      1.057300    3.121600   -2.208900
  O     -0.011300    1.119400   -2.667900
  C     -1.680400    2.502700   -0.268200
  C     -2.654700    2.368600   -1.281300
  C     -3.940500    2.886300   -1.099100
  C     -4.274800    3.535000    0.092300
  C     -3.325000    3.663900    1.107000
  C     -2.037800    3.147700    0.931400
  H     -2.904700   -1.597100    0.327700
  H     -1.954600   -0.881700    1.688500
  H     -2.943000    0.171700    0.628800
  H     -1.564500   -0.246300   -1.284000
  H     -0.419000   -2.553200    1.496800
  H      1.809800   -5.026200   -1.186900
  H     -0.009300   -1.439900   -2.660000
  H      1.413900   -0.990200    3.537800
  H      3.432800   -2.382800    3.705100
  H      4.937100   -2.647300    1.755700
  H      4.435600   -1.486500   -0.363400
  H      2.984200    0.011900   -1.631100
  H      0.392800    2.571800    0.194700
  H      1.277700    3.887800   -1.535000
  H      1.436100    3.183300   -3.179900
  H     -2.430700    1.861900   -2.210400
  H     -4.680000    2.781600   -1.882700
  H     -5.270600    3.934300    0.231300
  H     -3.585700    4.162000    2.032500
  H     -1.318300    3.252200    1.733300

 Total Charge           Charge          ....    0
 Multiplicity           Mult            ....    1
 Number of Electrons    NEL             ....  214
 Basis Dimension        Dim             ....  460

ORBITAL ENERGIES
----------------

  NO   OCC          E(Eh)            E(eV)
   0   2.0000     -24.693654      -671.9485
   1   2.0000     -24.693140      -671.9345
   2   2.0000     -19.173878      -521.7477
   3   2.0000     -19.125873      -520.4415
   4   2.0000     -19.111850      -520.0599
   5   2.0000     -14.358764      -390.7218
   6   2.0000     -14.323630      -389.7658
   7   2.0000     -10.293789      -280.1083
   8   2.0000     -10.291957      -280.0584
   9   2.0000     -10.264602      -279.3140
  10   2.0000     -10.263751      -279.2909
  11   2.0000     -10.262166      -279.2477
  12   2.0000     -10.236015      -278.5361
  13   2.0000     -10.216215      -277.9973
  14   2.0000     -10.198325      -277.5105
  15   2.0000     -10.194712      -277.4122
  16   2.0000     -10.193219      -277.3716
  17   2.0000     -10.192314      -277.3470
  18   2.0000     -10.190922      -277.3091
  19   2.0000     -10.188669      -277.2478
  20   2.0000     -10.183318      -277.1022
  21   2.0000     -10.182102      -277.0691
  22   2.0000     -10.178266      -276.9647
  23   2.0000     -10.178043      -276.9586
  24   2.0000     -10.177946      -276.9560
  25   2.0000     -10.177539      -276.9449
  26   2.0000     -10.177207      -276.9359
  27   2.0000     -10.176866      -276.9266
  28   2.0000     -10.173284      -276.8291
  29   2.0000     -10.154917      -276.3293
  30   2.0000      -1.207346       -32.8535
  31   2.0000      -1.206643       -32.8344
  32   2.0000      -1.039841       -28.2955
  33   2.0000      -1.018889       -27.7254
  34   2.0000      -1.012468       -27.5507
  35   2.0000      -0.908423       -24.7195
  36   2.0000      -0.882368       -24.0105
  37   2.0000      -0.855536       -23.2803
  38   2.0000      -0.852739       -23.2042
  39   2.0000      -0.843993       -22.9662
  40   2.0000      -0.784499       -21.3473
  41   2.0000      -0.767568       -20.8866
  42   2.0000      -0.752123       -20.4663
  43   2.0000      -0.743008       -20.2183
  44   2.0000      -0.737736       -20.0748
  45   2.0000      -0.737564       -20.0701
  46   2.0000      -0.718597       -19.5540
  47   2.0000      -0.693330       -18.8665
  48   2.0000      -0.641874       -17.4663
  49   2.0000      -0.630572       -17.1587
  50   2.0000      -0.623875       -16.9765
  51   2.0000      -0.609744       -16.5920
  52   2.0000      -0.603062       -16.4102
  53   2.0000      -0.596857       -16.2413
  54   2.0000      -0.587100       -15.9758
  55   2.0000      -0.572833       -15.5876
  56   2.0000      -0.554821       -15.0974
  57   2.0000      -0.544619       -14.8198
  58   2.0000      -0.528989       -14.3945
  59   2.0000      -0.522185       -14.2094
  60   2.0000      -0.511918       -13.9300
  61   2.0000      -0.502776       -13.6812
  62   2.0000      -0.493554       -13.4303
  63   2.0000      -0.490701       -13.3527
  64   2.0000      -0.482742       -13.1361
  65   2.0000      -0.478876       -13.0309
  66   2.0000      -0.472344       -12.8531
  67   2.0000      -0.465573       -12.6689
  68   2.0000      -0.458795       -12.4844
  69   2.0000      -0.455692       -12.4000
  70   2.0000      -0.448840       -12.2136
  71   2.0000      -0.442039       -12.0285
  72   2.0000      -0.436012       -11.8645
  73   2.0000      -0.432708       -11.7746
  74   2.0000      -0.429270       -11.6810
  75   2.0000      -0.417084       -11.3494
  76   2.0000      -0.416277       -11.3275
  77   2.0000      -0.414139       -11.2693
  78   2.0000      -0.412814       -11.2332
  79   2.0000      -0.406390       -11.0584
  80   2.0000      -0.395340       -10.7578
  81   2.0000      -0.386916       -10.5285
  82   2.0000      -0.386109       -10.5066
  83   2.0000      -0.375663       -10.2223
  84   2.0000      -0.373109       -10.1528
  85   2.0000      -0.368505       -10.0275
  86   2.0000      -0.363545        -9.8926
  87   2.0000      -0.357598        -9.7307
  88   2.0000      -0.355699        -9.6791
  89   2.0000      -0.351533        -9.5657
  90   2.0000      -0.344525        -9.3750
  91   2.0000      -0.340195        -9.2572
  92   2.0000      -0.337330        -9.1792
  93   2.0000      -0.333909        -9.0861
  94   2.0000      -0.332136        -9.0379
  95   2.0000      -0.329326        -8.9614
  96   2.0000      -0.325983        -8.8705
  97   2.0000      -0.267528        -7.2798
  98   2.0000      -0.264308        -7.1922
  99   2.0000      -0.256702        -6.9852
 100   2.0000      -0.250980        -6.8295
 101   2.0000      -0.243427        -6.6240
 102   2.0000      -0.237980        -6.4758
 103   2.0000      -0.237354        -6.4587
 104   2.0000      -0.234286        -6.3752
 105   2.0000      -0.222943        -6.0666
 106   2.0000      -0.200678        -5.4607
 107   0.0000      -0.055398        -1.5074
 108   0.0000      -0.009632        -0.2621
 109   0.0000      -0.001802        -0.0490
 110   0.0000       0.003235         0.0880
 111   0.0000       0.005071         0.1380

MULLIKEN ATOMIC CHARGES
-----------------------
   0 C :   -0.450943
   1 C :   -0.056218
   2 C :    0.171829
   3 C :   -0.270629
   4 C :    0.433619
   5 F :   -0.320169
   6 C :   -0.298988
   7 C :    0.419613
   8 F :   -0.321640
   9 C :   -0.264774
  10 N :   -0.396687
  11 C :    0.423274
  12 O :   -0.435391
  13 C :    0.069660
  14 C :   -0.156774
  15 C :   -0.134766
  16 C :   -0.112090
  17 C :   -0.201027
  18 C :    0.359922
  19 O :   -0.658120
  20 C :   -0.145571
  21 C :    0.616979
  22 N :   -0.772418
  23 O :   -0.497791
  24 C :    0.143980
  25 C :   -0.183448
  26 C :   -0.129674
  27 C :   -0.123792
  28 C :   -0.129231
  29 C :   -0.165162
  30 H :    0.137780
  31 H :    0.151896
  32 H :    0.166047
  33 H :    0.175694
  34 H :    0.142496
  35 H :    0.148312
  36 H :    0.172411
  37 H :    0.159484
  38 H :    0.133602
  39 H :    0.138151
  40 H :    0.125549
  41 H :    0.419882
  42 H :    0.144908
  43 H :    0.335429
  44 H :    0.346410
  45 H :    0.155162
  46 H :    0.129440
  47 H :    0.126703
  48 H :    0.130463
  49 H :    0.146606
Sum of atomic charges:    0.0000000

LOEWDIN ATOMIC CHARGES
----------------------
   0 C :   -0.367787
   1 C :   -0.045517
   2 C :   -0.000840
   3 C :   -0.169914
   4 C :    0.119808
   5 F :   -0.102858
   6 C :   -0.194338
   7 C :    0.112995
   8 F :   -0.105257
   9 C :   -0.161200
  10 N :   -0.121575
  11 C :    0.158796
  12 O :   -0.239389
  13 C :   -0.078085
  14 C :   -0.087404
  15 C :   -0.148333
  16 C :   -0.103389
  17 C :   -0.170985
  18 C :    0.107523
  19 O :   -0.326253
  20 C :   -0.056376
  21 C :    0.153058
  22 N :   -0.399529
  23 O :   -0.300928
  24 C :   -0.025385
  25 C :   -0.139304
  26 C :   -0.130790
  27 C :   -0.129618
  28 C :   -0.129285
  29 C :   -0.121880
  30 H :    0.123253
  31 H :    0.125915
  32 H :    0.137476
  33 H :    0.147226
  34 H :    0.142596
  35 H :    0.148567
  36 H :    0.156095
  37 H :    0.149868
  38 H :    0.134951
  39 H :    0.136661
  40 H :    0.132130
  41 H :    0.338508
  42 H :    0.138701
  43 H :    0.252408
  44 H :    0.262374
  45 H :    0.142416
  46 H :    0.131786
  47 H :    0.130577
  48 H :    0.132546
  49 H :    0.139986

  Mayer bond orders larger than 0.100000
B(  0-C ,  1-C ) :   0.9888 B(  0-C , 30-H ) :   0.9411 B(  0-C , 31-H ) :   0.9335
B(  0-C , 32-H ) :   0.9365 B(  1-C ,  2-C ) :   0.9723 B(  1-C , 10-N ) :   0.9384
B(  1-C , 33-H ) :   0.9062 B(  2-C ,  3-C ) :   1.3877 B(  2-C ,  9-C ) :   1.4163
B(  3-C ,  4-C ) :   1.3822 B(  3-C , 34-H ) :   0.9111 B(  4-C ,  5-F ) :   0.9040
B(  4-C ,  6-C ) :   1.3732 B(  6-C ,  7-C ) :   1.3653 B(  6-C , 35-H ) :   0.9145
B(  7-C ,  8-F ) :   0.9010 B(  7-C ,  9-C ) :   1.3749 B(  9-C , 36-H ) :   0.8988
B( 10-N , 11-C ) :   0.9809 B( 10-N , 20-C ) :   0.9877 B( 11-C , 12-O ) :   1.8424
B( 11-C , 13-C ) :   0.9825 B( 13-C , 14-C ) :   1.3824 B( 13-C , 18-C ) :   1.3274
B( 14-C , 15-C ) :   1.4491 B( 14-C , 37-H ) :   0.9148 B( 15-C , 16-C ) :   1.4243
B( 15-C , 38-H ) :   0.9293 B( 16-C , 17-C ) :   1.4544 B( 16-C , 39-H ) :   0.9280
B( 17-C , 18-C ) :   1.3621 B( 17-C , 40-H ) :   0.9239 B( 18-C , 19-O ) :   0.9240
B( 19-O , 41-H ) :   0.7596 B( 20-C , 21-C ) :   0.9095 B( 20-C , 24-C ) :   0.9447
B( 20-C , 42-H ) :   0.9093 B( 21-C , 22-N ) :   1.0757 B( 21-C , 23-O ) :   1.7798
B( 22-N , 43-H ) :   0.8302 B( 22-N , 44-H ) :   0.8241 B( 24-C , 25-C ) :   1.4241
B( 24-C , 29-C ) :   1.4253 B( 25-C , 26-C ) :   1.4295 B( 25-C , 45-H ) :   0.9059
B( 26-C , 27-C ) :   1.4556 B( 26-C , 46-H ) :   0.9302 B( 27-C , 28-C ) :   1.4469
B( 27-C , 47-H ) :   0.9308 B( 28-C , 29-C ) :   1.4447 B( 28-C , 48-H ) :   0.9296
B( 29-C , 49-H ) :   0.9153

FINAL SINGLE POINT ENERGY     -1422.478373096964

DIPOLE MOMENT
-------------

Method             : SCF
Type of density    : Electron Density
Multiplicity       :   1
Irrep              :   0
Energy             : -1422.4783730969643329 Eh
Relativity type    :
Basis              : AO
                                X                 Y                 Z
Electronic contribution:     11.437511491     -17.456070396      -5.116260050
Nuclear contribution   :    -10.280973848      18.555325534       4.711827031
                        -----------------------------------------
Total Dipole Moment    :      1.156537643       1.099255138      -0.404433020
                        -----------------------------------------
Magnitude (a.u.)       :      1.646058093
Magnitude (Debye)      :      4.183947169

Rotational constants in cm-1:             0.008616             0.003900             0.003661
Rotational constants in MHz :           258.301812           116.925170           109.742086

                             ****ORCA TERMINATED NORMALLY****
TOTAL RUN TIME: 0 days 0 hours 6 minutes 9 seconds 409 msec
