                         Program Version 6.0.0  -   RELEASE  -
|  1> ! B3LYP 6-31G* SP
|  2>
|  3> * xyz 0 1
|  4> C 4.5132 -2.5192 -0.9932
|  5> O 5.1993 -1.3374 -1.3712
|  6> C 5.1497 -0.3034 -0.3843
|  7> C 5.9991 0.8521 -0.9471
|  8> C 3.7078 0.2408 -0.2391
|  9> C 2.8703 0.2323 -1.3776
| 10> C 1.5668 0.7269 -1.3229
| 11> C 1.0699 1.2790 -0.1381
| 12> C -0.3677 1.7101 -0.0456
| 13> N -1.1922 0.5875 0.4017
| 14> C -1.4233 -0.5194 -0.4771
| 15> N -2.2538 -0.3421 -1.5378
| 16> C -2.5114 -1.3259 -2.4319
| 17> C -1.9071 -2.5776 -2.2921
| 18> C -2.1648 -3.5952 -3.2234
| 19> C -1.5482 -4.8396 -3.0910
| 20> C -0.6743 -5.0780 -2.0308
| 21> C -0.4122 -4.0755 -1.0935
| 22> C -1.0249 -2.8078 -1.2065
| 23> C -0.7801 -1.7642 -0.2765
| 24> C 0.1690 -1.9659 0.8843
| 25> S -2.1039 0.7110 1.8723
| 26> O -1.1792 1.0704 3.0016
| 27> O -2.7518 -0.6080 2.1899
| 28> C -3.3523 1.9351 1.6763
| 29> C -4.4322 1.6915 0.8201
| 30> C -5.4269 2.6587 0.6477
| 31> C -5.3525 3.8870 1.3292
| 32> C -6.4078 4.9099 1.1589
| 33> O -7.3800 4.7019 0.3824
| 34> O -6.3437 6.1087 1.8631
| 35> C -4.2595 4.1288 2.1797
| 36> C -3.2650 3.1605 2.3491
| 37> C 1.8966 1.3365 0.9886
| 38> C 3.2056 0.8460 0.9419
| 39> F 3.9548 0.9789 2.0607
| 40> C 5.8203 -0.7998 0.9439
| 41> F 6.2892 0.2530 1.7132
| 42> F 4.9299 -1.5419 1.7016
| 43> F 6.9104 -1.6004 0.6450
| 44> H 4.2265 -3.0663 -1.9138
| 45> H 5.1841 -3.1842 -0.4106
| 46> H 3.5805 -2.3303 -0.4207
| 47> H 5.6272 1.1563 -1.9499
| 48> H 5.9571 1.7424 -0.2804
| 49> H 7.0608 0.5391 -1.0598
| 50> H 3.2216 -0.1711 -2.3188
| 51> H 0.9394 0.6660 -2.2038
| 52> H -0.4596 2.5640 0.6612
| 53> H -0.7311 2.0715 -1.0329
| 54> H -3.1840 -1.1245 -3.2564
| 55> H -2.8392 -3.4265 -4.0548
| 56> H -1.7475 -5.6211 -3.8126
| 57> H -0.1967 -6.0444 -1.9336
| 58> H 0.2717 -4.3056 -0.2878
| 59> H 1.1843 -2.1949 0.4997
| 60> H -0.1877 -2.8043 1.5180
| 61> H 0.2551 -1.0750 1.5361
| 62> H -4.5043 0.7516 0.2866
| 63> H -6.2541 2.4440 -0.0172
| 64> H -7.0637 6.8136 1.7581
| 65> H -4.1709 5.0662 2.7141
| 66> H -2.4300 3.3689 3.0055
| 67> H 1.5234 1.7593 1.9134
| 68> *
| 69>
| 70>                          ****END OF INPUT****

CARTESIAN COORDINATES (ANGSTROEM)
---------------------------------
  C      4.513200   -2.519200   -0.993200
  O      5.199300   -1.337400   -1.371200
  C      5.149700   -0.303400   -0.384300
  C      5.999100    0.852100   -0.947100
  C      3.707800    0.240800   -0.239100
  C      2.870300    0.232300   -1.377600
  C      1.566800    0.726900   -1.322900
  C      1.069900    1.279000   -0.138100
  C     -0.367700    1.710100   -0.045600
  N     -1.192200    0.587500    0.401700
  C     -1.423300   -0.519400   -0.477100
  N     -2.253800   -0.342100   -1.537800
  C     -2.511400   -1.325900   -2.431900
  C     -1.907100   -2.577600   -2.292100
  C     -2.164800   -3.595200   -3.223400
  C     -1.548200   -4.839600   -3.091000
  C     -0.674300   -5.078000   -2.030800
  C     -0.412200   -4.075500   -1.093500
  C     -1.024900   -2.807800   -1.206500
  C     -0.780100   -1.764200   -0.276500
  C      0.169000   -1.965900    0.884300
  S     -2.103900    0.711000    1.872300
  O     -1.179200    1.070400    3.001600
  O     -2.751800   -0.608000    2.189900
  C     -3.352300    1.935100    1.676300
  C     -4.432200    1.691500    0.820100
  C     -5.426900    2.658700    0.647700
  C     -5.352500    3.887000    1.329200
  C     -6.407800    4.909900    1.158900
  O     -7.380000    4.701900    0.382400
  O     -6.343700    6.108700    1.863100
  C     -4.259500    4.128800    2.179700
  C     -3.265000    3.160500    2.349100
  C      1.896600    1.336500    0.988600
  C      3.205600    0.846000    0.941900
  F      3.954800    0.978900    2.060700
  C      5.820300   -0.799800    0.943900
  F      6.289200    0.253000    1.713200
  F      4.929900   -1.541900    1.701600
  F      6.910400   -1.600400    0.645000
  H      4.226500   -3.066300   -1.913800
  H      5.184100   -3.184200   -0.410600
  H      3.580500   -2.330300   -0.420700
  H      5.627200    1.156300   -1.949900
  H      5.957100    1.742400   -0.280400
  H      7.060800    0.539100   -1.059800
  H      3.221600   -0.171100   -2.318800
  H      0.939400    0.666000   -2.203800
  H     -0.459600    2.564000    0.661200
  H     -0.731100    2.071500   -1.032900
  H     -3.184000   -1.124500   -3.256400
  H     -2.839200   -3.426500   -4.054800
  H     -1.747500   -5.621100   -3.812600
  H     -0.196700   -6.044400   -1.933600
  H      0.271700   -4.305600   -0.287800
  H      1.184300   -2.194900    0.499700
  H     -0.187700   -2.804300    1.518000
  H      0.255100   -1.075000    1.536100
  H     -4.504300    0.751600    0.286600
  H     -6.254100    2.444000   -0.017200
  H     -7.063700    6.813600    1.758100
  H     -4.170900    5.066200    2.714100
  H     -2.430000    3.368900    3.005500
  H      1.523400    1.759300    1.913400

 Total Charge           Charge          ....    0
 Multiplicity           Mult            ....    1
 Number of Electrons    NEL             ....  298
 Basis Dimension        Dim             ....  612

ORBITAL ENERGIES
----------------

  NO   OCC          E(Eh)            E(eV)
   0   2.0000     -89.098879     -2424.5038
   1   2.0000     -24.718554      -672.6261
   2   2.0000     -24.717340      -672.5930
   3   2.0000     -24.714888      -672.5263
   4   2.0000     -24.704793      -672.2516
   5   2.0000     -19.195751      -522.3429
   6   2.0000     -19.163923      -521.4769
   7   2.0000     -19.137159      -520.7486
   8   2.0000     -19.129605      -520.5430
   9   2.0000     -19.128124      -520.5027
  10   2.0000     -14.372827      -391.1045
  11   2.0000     -14.336192      -390.1076
  12   2.0000     -10.431471      -283.8547
  13   2.0000     -10.334639      -281.2198
  14   2.0000     -10.279218      -279.7118
  15   2.0000     -10.277429      -279.6631
  16   2.0000     -10.260037      -279.1898
  17   2.0000     -10.240901      -278.6691
  18   2.0000     -10.237839      -278.5858
  19   2.0000     -10.230680      -278.3910
  20   2.0000     -10.228324      -278.3268
  21   2.0000     -10.224782      -278.2305
  22   2.0000     -10.218832      -278.0686
  23   2.0000     -10.218165      -278.0504
  24   2.0000     -10.216105      -277.9943
  25   2.0000     -10.215668      -277.9825
  26   2.0000     -10.214443      -277.9491
  27   2.0000     -10.211986      -277.8823
  28   2.0000     -10.208543      -277.7886
  29   2.0000     -10.204486      -277.6782
  30   2.0000     -10.203765      -277.6586
  31   2.0000     -10.200907      -277.5808
  32   2.0000     -10.200659      -277.5740
  33   2.0000     -10.199314      -277.5375
  34   2.0000     -10.199241      -277.5354
  35   2.0000     -10.198697      -277.5207
  36   2.0000     -10.193095      -277.3682
  37   2.0000     -10.192312      -277.3469
  38   2.0000     -10.185021      -277.1485
  39   2.0000     -10.175274      -276.8833
  40   2.0000      -8.134686      -221.3560
  41   2.0000      -6.099696      -165.9812
  42   2.0000      -6.097763      -165.9286
  43   2.0000      -6.097285      -165.9156
  44   2.0000      -1.277838       -34.7717
  45   2.0000      -1.220482       -33.2110
  46   2.0000      -1.203286       -32.7431
  47   2.0000      -1.199520       -32.6406
  48   2.0000      -1.086097       -29.5542
  49   2.0000      -1.080373       -29.3984
  50   2.0000      -1.050547       -28.5868
  51   2.0000      -0.994148       -27.0521
  52   2.0000      -0.967021       -26.3140
  53   2.0000      -0.964163       -26.2362
  54   2.0000      -0.918039       -24.9811
  55   2.0000      -0.888955       -24.1897
  56   2.0000      -0.870547       -23.6888
  57   2.0000      -0.865889       -23.5620
  58   2.0000      -0.814523       -22.1643
  59   2.0000      -0.810412       -22.0524
  60   2.0000      -0.803777       -21.8719
  61   2.0000      -0.780239       -21.2314
  62   2.0000      -0.774747       -21.0820
  63   2.0000      -0.767357       -20.8808
  64   2.0000      -0.754546       -20.5322
  65   2.0000      -0.744475       -20.2582
  66   2.0000      -0.716261       -19.4905
  67   2.0000      -0.704128       -19.1603
  68   2.0000      -0.699818       -19.0430
  69   2.0000      -0.687297       -18.7023
  70   2.0000      -0.680295       -18.5118
  71   2.0000      -0.654541       -17.8110
  72   2.0000      -0.646868       -17.6022
  73   2.0000      -0.638068       -17.3627
  74   2.0000      -0.632085       -17.1999
  75   2.0000      -0.622794       -16.9471
  76   2.0000      -0.615809       -16.7570
  77   2.0000      -0.598642       -16.2899
  78   2.0000      -0.597375       -16.2554
  79   2.0000      -0.591583       -16.0978
  80   2.0000      -0.567930       -15.4542
  81   2.0000      -0.567520       -15.4430
  82   2.0000      -0.561443       -15.2777
  83   2.0000      -0.553950       -15.0737
  84   2.0000      -0.541178       -14.7262
  85   2.0000      -0.537263       -14.6197
  86   2.0000      -0.526851       -14.3364
  87   2.0000      -0.514179       -13.9915
  88   2.0000      -0.505691       -13.7605
  89   2.0000      -0.503484       -13.7005
  90   2.0000      -0.496309       -13.5052
  91   2.0000      -0.487526       -13.2662
  92   2.0000      -0.483937       -13.1686
  93   2.0000      -0.480068       -13.0633
  94   2.0000      -0.474764       -12.9190
  95   2.0000      -0.470639       -12.8067
  96   2.0000      -0.461913       -12.5693
  97   2.0000      -0.459790       -12.5115
  98   2.0000      -0.457767       -12.4565
  99   2.0000      -0.454284       -12.3617
 100   2.0000      -0.451851       -12.2955
 101   2.0000      -0.450835       -12.2679
 102   2.0000      -0.446616       -12.1530
 103   2.0000      -0.445754       -12.1296
 104   2.0000      -0.443091       -12.0571
 105   2.0000      -0.441453       -12.0125
 106   2.0000      -0.435082       -11.8392
 107   2.0000      -0.433001       -11.7826
 108   2.0000      -0.429566       -11.6891
 109   2.0000      -0.427773       -11.6403
 110   2.0000      -0.424371       -11.5477
 111   2.0000      -0.420293       -11.4367
 112   2.0000      -0.415398       -11.3035
 113   2.0000      -0.410146       -11.1607
 114   2.0000      -0.407364       -11.0849
 115   2.0000      -0.404069       -10.9953
 116   2.0000      -0.397263       -10.8101
 117   2.0000      -0.396549       -10.7907
 118   2.0000      -0.395744       -10.7687
 119   2.0000      -0.390675       -10.6308
 120   2.0000      -0.385348       -10.4859
 121   2.0000      -0.384480       -10.4622
 122   2.0000      -0.380822       -10.3627
 123   2.0000      -0.378281       -10.2936
 124   2.0000      -0.374024       -10.1777
 125   2.0000      -0.368792       -10.0353
 126   2.0000      -0.367249        -9.9934
 127   2.0000      -0.366181        -9.9643
 128   2.0000      -0.359628        -9.7860
 129   2.0000      -0.356882        -9.7113
 130   2.0000      -0.353459        -9.6181
 131   2.0000      -0.350997        -9.5511
 132   2.0000      -0.328376        -8.9356
 133   2.0000      -0.322554        -8.7771
 134   2.0000      -0.320513        -8.7216
 135   2.0000      -0.308618        -8.3979
 136   2.0000      -0.302082        -8.2201
 137   2.0000      -0.291672        -7.9368
 138   2.0000      -0.283144        -7.7047
 139   2.0000      -0.278877        -7.5886
 140   2.0000      -0.277971        -7.5640
 141   2.0000      -0.276660        -7.5283
 142   2.0000      -0.273645        -7.4463
 143   2.0000      -0.269725        -7.3396
 144   2.0000      -0.262101        -7.1321
 145   2.0000      -0.257529        -7.0077
 146   2.0000      -0.252216        -6.8631
 147   2.0000      -0.247006        -6.7214
 148   2.0000      -0.225852        -6.1457
 149   0.0000      -0.082337        -2.2405
 150   0.0000      -0.063923        -1.7394
 151   0.0000      -0.036559        -0.9948
 152   0.0000      -0.029009        -0.7894
 153   0.0000      -0.026323        -0.7163

MULLIKEN ATOMIC CHARGES
-----------------------
   0 C :   -0.229331
   1 O :   -0.477634
   2 C :    0.154939
   3 C :   -0.463226
   4 C :    0.002671
   5 C :   -0.165989
   6 C :   -0.176464
   7 C :    0.184683
   8 C :   -0.240459
   9 N :   -0.609496
  10 C :    0.304579
  11 N :   -0.402311
  12 C :   -0.060012
  13 C :    0.139212
  14 C :   -0.203911
  15 C :   -0.125430
  16 C :   -0.120994
  17 C :   -0.195937
  18 C :    0.116572
  19 C :    0.134858
  20 C :   -0.552194
  21 S :    1.223896
  22 O :   -0.556221
  23 O :   -0.543761
  24 C :   -0.126238
  25 C :   -0.135077
  26 C :   -0.142213
  27 C :    0.083341
  28 C :    0.527898
  29 O :   -0.445217
  30 O :   -0.623354
  31 C :   -0.146233
  32 C :   -0.153323
  33 C :   -0.259620
  34 C :    0.376065
  35 F :   -0.308156
  36 C :    0.942996
  37 F :   -0.303422
  38 F :   -0.310064
  39 F :   -0.303486
  40 H :    0.151962
  41 H :    0.154805
  42 H :    0.156741
  43 H :    0.164736
  44 H :    0.168072
  45 H :    0.166527
  46 H :    0.157144
  47 H :    0.140807
  48 H :    0.173115
  49 H :    0.174714
  50 H :    0.151464
  51 H :    0.139336
  52 H :    0.137715
  53 H :    0.139654
  54 H :    0.143957
  55 H :    0.161057
  56 H :    0.173099
  57 H :    0.202991
  58 H :    0.188990
  59 H :    0.180520
  60 H :    0.434068
  61 H :    0.172117
  62 H :    0.184002
  63 H :    0.170469
Sum of atomic charges:   -0.0000000

LOEWDIN ATOMIC CHARGES
----------------------
   0 C :   -0.223847
   1 O :   -0.213086
   2 C :    0.045152
   3 C :   -0.348039
   4 C :   -0.057721
   5 C :   -0.118505
   6 C :   -0.140739
   7 C :   -0.023036
   8 C :   -0.144020
   9 N :   -0.279726
  10 C :    0.022843
  11 N :   -0.139993
  12 C :   -0.065037
  13 C :   -0.027405
  14 C :   -0.112699
  15 C :   -0.124107
  16 C :   -0.117066
  17 C :   -0.119146
  18 C :   -0.006678
  19 C :    0.010069
  20 C :   -0.360999
  21 S :    1.263514
  22 O :   -0.578886
  23 O :   -0.566681
  24 C :   -0.175902
  25 C :   -0.095638
  26 C :   -0.085391
  27 C :   -0.039456
  28 C :    0.179881
  29 O :   -0.261552
  30 O :   -0.334231
  31 C :   -0.100172
  32 C :   -0.109141
  33 C :   -0.147956
  34 C :    0.113342
  35 F :   -0.091572
  36 C :    0.302964
  37 F :   -0.107800
  38 F :   -0.111190
  39 F :   -0.108946
  40 H :    0.123859
  41 H :    0.117244
  42 H :    0.117132
  43 H :    0.138544
  44 H :    0.139798
  45 H :    0.136512
  46 H :    0.146379
  47 H :    0.137592
  48 H :    0.143744
  49 H :    0.135636
  50 H :    0.136382
  51 H :    0.137156
  52 H :    0.136271
  53 H :    0.137457
  54 H :    0.141421
  55 H :    0.132994
  56 H :    0.144430
  57 H :    0.154058
  58 H :    0.162041
  59 H :    0.160517
  60 H :    0.349780
  61 H :    0.154416
  62 H :    0.159486
  63 H :    0.155752

  Mayer bond orders larger than 0.100000
B(  0-C ,  1-O ) :   0.9203 B(  0-C , 40-H ) :   0.9482 B(  0-C , 41-H ) :   0.9301
B(  0-C , 42-H ) :   0.9151 B(  1-O ,  2-C ) :   0.9042 B(  2-C ,  3-C ) :   0.9857
B(  2-C ,  4-C ) :   0.9238 B(  2-C , 36-C ) :   0.9018 B(  3-C , 43-H ) :   0.9361
B(  3-C , 44-H ) :   0.9346 B(  3-C , 45-H ) :   0.9331 B(  4-C ,  5-C ) :   1.3991
B(  4-C , 34-C ) :   1.3304 B(  5-C ,  6-C ) :   1.4244 B(  5-C , 46-H ) :   0.9146
B(  6-C ,  7-C ) :   1.4285 B(  6-C , 47-H ) :   0.9208 B(  7-C ,  8-C ) :   0.9563
B(  7-C , 33-C ) :   1.4126 B(  8-C ,  9-N ) :   0.9228 B(  8-C , 48-H ) :   0.9189
B(  8-C , 49-H ) :   0.9188 B(  9-N , 10-C ) :   0.8907 B(  9-N , 21-S ) :   0.8059
B( 10-C , 11-N ) :   1.2770 B( 10-C , 19-C ) :   1.4336 B( 11-N , 12-C ) :   1.4928
B( 12-C , 13-C ) :   1.2417 B( 12-C , 50-H ) :   0.9264 B( 13-C , 14-C ) :   1.2834
B( 13-C , 18-C ) :   1.2915 B( 14-C , 15-C ) :   1.5122 B( 14-C , 17-C ) :   0.1060
B( 14-C , 51-H ) :   0.9233 B( 15-C , 16-C ) :   1.3531 B( 15-C , 52-H ) :   0.9290
B( 16-C , 17-C ) :   1.5071 B( 16-C , 53-H ) :   0.9287 B( 17-C , 18-C ) :   1.2965
B( 17-C , 54-H ) :   0.9151 B( 18-C , 19-C ) :   1.2613 B( 19-C , 20-C ) :   1.0073
B( 20-C , 55-H ) :   0.9180 B( 20-C , 56-H ) :   0.9231 B( 20-C , 57-H ) :   0.9161
B( 21-S , 22-O ) :   1.6092 B( 21-S , 23-O ) :   1.6475 B( 21-S , 24-C ) :   0.8123
B( 24-C , 25-C ) :   1.3786 B( 24-C , 32-C ) :   1.4004 B( 25-C , 26-C ) :   1.4315
B( 25-C , 58-H ) :   0.9051 B( 26-C , 27-C ) :   1.3961 B( 26-C , 59-H ) :   0.9098
B( 27-C , 28-C ) :   1.0081 B( 27-C , 31-C ) :   1.3888 B( 28-C , 29-O ) :   1.8619
B( 28-C , 30-O ) :   1.0254 B( 30-O , 60-H ) :   0.7418 B( 31-C , 32-C ) :   1.4092
B( 31-C , 61-H ) :   0.9150 B( 32-C , 62-H ) :   0.9092 B( 33-C , 34-C ) :   1.3735
B( 33-C , 63-H ) :   0.9044 B( 34-C , 35-F ) :   0.9132 B( 36-C , 37-F ) :   0.9393
B( 36-C , 38-F ) :   0.9328 B( 36-C , 39-F ) :   0.9461

FINAL SINGLE POINT ENERGY     -2363.360182791631

DIPOLE MOMENT
-------------

Method             : SCF
Type of density    : Electron Density
Multiplicity       :   1
Irrep              :   0
Energy             : -2363.3601827916309048 Eh
Relativity type    :
Basis              : AO
                                X                 Y                 Z
Electronic contribution:     15.237815413       8.125462043      19.144351489
Nuclear contribution   :    -15.590155175      -7.759936494     -21.070173065
                        -----------------------------------------
Total Dipole Moment    :     -0.352339763       0.365525550      -1.925821576
                        -----------------------------------------
Magnitude (a.u.)       :      1.991617679
Magnitude (Debye)      :      5.062289834

Rotational constants in cm-1:             0.004130             0.001535             0.001234
Rotational constants in MHz :           123.817154            46.020378            37.001180

                             ****ORCA TERMINATED NORMALLY****
TOTAL RUN TIME: 0 days 0 hours 14 minutes 45 seconds 453 msec
