                         Program Version 6.0.0  -   RELEASE  -
|  1> ! B3LYP 6-31G* SP
|  2>
|  3> * xyz 0 1
|  4> C 5.8807 0.9103 1.1446
|  5> C 5.2416 1.3519 -0.1668
|  6> O 3.8600 0.9991 -0.1972
|  7> C 3.4015 -0.3047 -0.4184
|  8> O 4.2150 -1.2383 -0.6580
|  9> C 1.9582 -0.5768 -0.3760
| 10> S 0.7682 0.5711 -0.0705
| 11> C -0.5010 -0.5349 -0.2019
| 12> C -1.9404 -0.2233 -0.0442
| 13> C -2.3708 1.0844 0.2450
| 14> C -3.7321 1.3672 0.3918
| 15> C -4.6871 0.3522 0.2396
| 16> C -6.1442 0.6491 0.4365
| 17> C -4.2626 -0.9562 -0.0305
| 18> C -2.9018 -1.2408 -0.1777
| 19> N -0.0320 -1.7748 -0.4768
| 20> C 1.3247 -1.8017 -0.5734
| 21> O 2.0144 -2.9777 -0.8500
| 22> H 5.3376 1.3619 2.0016
| 23> H 5.8517 -0.1954 1.2370
| 24> H 6.9398 1.2426 1.1742
| 25> H 5.7767 0.8989 -1.0296
| 26> H 5.3261 2.4558 -0.2503
| 27> H -1.6595 1.8914 0.3623
| 28> H -4.0410 2.3791 0.6237
| 29> H -6.7696 -0.0326 -0.1785
| 30> H -6.3758 1.6928 0.1345
| 31> H -6.4068 0.5149 1.5066
| 32> H -4.9851 -1.7572 -0.1282
| 33> H -2.6032 -2.2592 -0.3926
| 34> H 1.5170 -3.8493 -0.9872
| 35> *
| 36>
| 37>                          ****END OF INPUT****

CARTESIAN COORDINATES (ANGSTROEM)
---------------------------------
  C      5.880700    0.910300    1.144600
  C      5.241600    1.351900   -0.166800
  O      3.860000    0.999100   -0.197200
  C      3.401500   -0.304700   -0.418400
  O      4.215000   -1.238300   -0.658000
  C      1.958200   -0.576800   -0.376000
  S      0.768200    0.571100   -0.070500
  C     -0.501000   -0.534900   -0.201900
  C     -1.940400   -0.223300   -0.044200
  C     -2.370800    1.084400    0.245000
  C     -3.732100    1.367200    0.391800
  C     -4.687100    0.352200    0.239600
  C     -6.144200    0.649100    0.436500
  C     -4.262600   -0.956200   -0.030500
  C     -2.901800   -1.240800   -0.177700
  N     -0.032000   -1.774800   -0.476800
  C      1.324700   -1.801700   -0.573400
  O      2.014400   -2.977700   -0.850000
  H      5.337600    1.361900    2.001600
  H      5.851700   -0.195400    1.237000
  H      6.939800    1.242600    1.174200
  H      5.776700    0.898900   -1.029600
  H      5.326100    2.455800   -0.250300
  H     -1.659500    1.891400    0.362300
  H     -4.041000    2.379100    0.623700
  H     -6.769600   -0.032600   -0.178500
  H     -6.375800    1.692800    0.134500
  H     -6.406800    0.514900    1.506600
  H     -4.985100   -1.757200   -0.128200
  H     -2.603200   -2.259200   -0.392600
  H      1.517000   -3.849300   -0.987200

 Total Charge           Charge          ....    0
 Multiplicity           Mult            ....    1
 Number of Electrons    NEL             ....  138
 Basis Dimension        Dim             ....  282

ORBITAL ENERGIES
----------------

  NO   OCC          E(Eh)            E(eV)
   0   2.0000     -88.903004     -2419.1737
   1   2.0000     -19.174177      -521.7559
   2   2.0000     -19.171019      -521.6699
   3   2.0000     -19.113586      -520.1071
   4   2.0000     -14.336127      -390.1059
   5   2.0000     -10.315210      -280.6911
   6   2.0000     -10.290997      -280.0323
   7   2.0000     -10.263263      -279.2776
   8   2.0000     -10.233086      -278.4564
   9   2.0000     -10.220145      -278.1043
  10   2.0000     -10.211203      -277.8610
  11   2.0000     -10.201808      -277.6053
  12   2.0000     -10.197764      -277.4953
  13   2.0000     -10.192867      -277.3620
  14   2.0000     -10.190701      -277.3031
  15   2.0000     -10.189006      -277.2569
  16   2.0000     -10.185390      -277.1585
  17   2.0000     -10.166537      -276.6455
  18   2.0000      -7.980113      -217.1499
  19   2.0000      -5.943073      -161.7192
  20   2.0000      -5.939026      -161.6091
  21   2.0000      -5.937165      -161.5585
  22   2.0000      -1.066380       -29.0177
  23   2.0000      -1.043829       -28.4040
  24   2.0000      -0.977819       -26.6078
  25   2.0000      -0.963640       -26.2220
  26   2.0000      -0.866188       -23.5702
  27   2.0000      -0.820422       -22.3248
  28   2.0000      -0.797306       -21.6958
  29   2.0000      -0.758545       -20.6410
  30   2.0000      -0.752451       -20.4752
  31   2.0000      -0.743295       -20.2261
  32   2.0000      -0.693021       -18.8581
  33   2.0000      -0.659167       -17.9369
  34   2.0000      -0.623266       -16.9599
  35   2.0000      -0.616310       -16.7706
  36   2.0000      -0.599347       -16.3091
  37   2.0000      -0.575507       -15.6603
  38   2.0000      -0.551986       -15.0203
  39   2.0000      -0.517800       -14.0901
  40   2.0000      -0.513762       -13.9802
  41   2.0000      -0.493909       -13.4400
  42   2.0000      -0.467727       -12.7275
  43   2.0000      -0.462697       -12.5906
  44   2.0000      -0.458344       -12.4722
  45   2.0000      -0.450401       -12.2560
  46   2.0000      -0.434286       -11.8175
  47   2.0000      -0.429212       -11.6794
  48   2.0000      -0.427804       -11.6411
  49   2.0000      -0.427088       -11.6217
  50   2.0000      -0.416113       -11.3230
  51   2.0000      -0.390582       -10.6283
  52   2.0000      -0.386920       -10.5286
  53   2.0000      -0.382058       -10.3963
  54   2.0000      -0.375949       -10.2301
  55   2.0000      -0.366854        -9.9826
  56   2.0000      -0.359377        -9.7792
  57   2.0000      -0.357234        -9.7208
  58   2.0000      -0.351852        -9.5744
  59   2.0000      -0.347720        -9.4619
  60   2.0000      -0.344705        -9.3799
  61   2.0000      -0.322189        -8.7672
  62   2.0000      -0.287979        -7.8363
  63   2.0000      -0.280180        -7.6241
  64   2.0000      -0.277002        -7.5376
  65   2.0000      -0.261317        -7.1108
  66   2.0000      -0.256751        -6.9865
  67   2.0000      -0.250093        -6.8054
  68   2.0000      -0.215166        -5.8550
  69   0.0000      -0.066669        -1.8141
  70   0.0000      -0.011371        -0.3094
  71   0.0000      -0.003313        -0.0902
  72   0.0000       0.025292         0.6882
  73   0.0000       0.041817         1.1379

MULLIKEN ATOMIC CHARGES
-----------------------
   0 C :   -0.459787
   1 C :   -0.015831
   2 O :   -0.488193
   3 C :    0.586477
   4 O :   -0.455416
   5 C :   -0.268439
   6 S :    0.294605
   7 C :   -0.017170
   8 C :    0.139971
   9 C :   -0.188283
  10 C :   -0.176613
  11 C :    0.177221
  12 C :   -0.525224
  13 C :   -0.171209
  14 C :   -0.152765
  15 N :   -0.428745
  16 C :    0.511532
  17 O :   -0.617085
  18 H :    0.149433
  19 H :    0.180788
  20 H :    0.140473
  21 H :    0.156821
  22 H :    0.148881
  23 H :    0.149297
  24 H :    0.130900
  25 H :    0.157758
  26 H :    0.157171
  27 H :    0.170243
  28 H :    0.131012
  29 H :    0.158343
  30 H :    0.423834
Sum of atomic charges:    0.0000000

LOEWDIN ATOMIC CHARGES
----------------------
   0 C :   -0.375207
   1 C :   -0.090192
   2 O :   -0.183024
   3 C :    0.179534
   4 O :   -0.261900
   5 C :   -0.276215
   6 S :    0.418260
   7 C :   -0.103863
   8 C :   -0.038626
   9 C :   -0.116767
  10 C :   -0.132429
  11 C :   -0.008973
  12 C :   -0.352292
  13 C :   -0.132066
  14 C :   -0.099864
  15 N :   -0.188491
  16 C :    0.115572
  17 O :   -0.311585
  18 H :    0.126789
  19 H :    0.141383
  20 H :    0.128075
  21 H :    0.125714
  22 H :    0.126236
  23 H :    0.140557
  24 H :    0.133984
  25 H :    0.133942
  26 H :    0.133593
  27 H :    0.141688
  28 H :    0.134077
  29 H :    0.148159
  30 H :    0.343931

  Mayer bond orders larger than 0.100000
B(  0-C ,  1-C ) :   1.0119 B(  0-C , 18-H ) :   0.9486 B(  0-C , 19-H ) :   0.9393
B(  0-C , 20-H ) :   0.9428 B(  1-C ,  2-O ) :   0.8675 B(  1-C , 21-H ) :   0.9249
B(  1-C , 22-H ) :   0.9405 B(  2-O ,  3-C ) :   0.9867 B(  3-C ,  4-O ) :   1.8140
B(  3-C ,  5-C ) :   1.0340 B(  5-C ,  6-S ) :   1.0629 B(  5-C ,  7-C ) :   0.1130
B(  5-C , 16-C ) :   1.4065 B(  6-S ,  7-C ) :   1.1712 B(  7-C ,  8-C ) :   1.0232
B(  7-C , 15-N ) :   1.4282 B(  8-C ,  9-C ) :   1.3860 B(  8-C , 14-C ) :   1.4005
B(  9-C , 10-C ) :   1.4417 B(  9-C , 23-H ) :   0.9156 B( 10-C , 11-C ) :   1.4269
B( 10-C , 24-H ) :   0.9251 B( 11-C , 12-C ) :   0.9902 B( 11-C , 13-C ) :   1.4244
B( 12-C , 25-H ) :   0.9446 B( 12-C , 26-H ) :   0.9448 B( 12-C , 27-H ) :   0.9312
B( 13-C , 14-C ) :   1.4286 B( 13-C , 28-H ) :   0.9256 B( 14-C , 29-H ) :   0.9122
B( 15-N , 16-C ) :   1.2977 B( 16-C , 17-O ) :   1.0221 B( 17-O , 30-H ) :   0.7550

FINAL SINGLE POINT ENERGY     -1181.285897402001

DIPOLE MOMENT
-------------

Method             : SCF
Type of density    : Electron Density
Multiplicity       :   1
Irrep              :   0
Energy             : -1181.2858974020014102 Eh
Relativity type    :
Basis              : AO
                                X                 Y                 Z
Electronic contribution:      4.019108174      -5.892417550      -4.722215337
Nuclear contribution   :     -5.482693789       6.447291486       5.024758898
                        -----------------------------------------
Total Dipole Moment    :     -1.463585615       0.554873936       0.302543561
                        -----------------------------------------
Magnitude (a.u.)       :      1.594208438
Magnitude (Debye)      :      4.052155820

Rotational constants in cm-1:             0.034849             0.005199             0.004595
Rotational constants in MHz :          1044.759312           155.863826           137.755993

                             ****ORCA TERMINATED NORMALLY****
TOTAL RUN TIME: 0 days 0 hours 1 minutes 58 seconds 231 msec
