                         Program Version 6.0.0  -   RELEASE  -
|  1> ! B3LYP 6-31G* SP
|  2>
|  3> * xyz 0 1
|  4> O -4.1063 6.4056 -2.7658
|  5> C -3.3131 6.5707 -1.8001
|  6> O -2.9226 7.8609 -1.4514
|  7> C -2.8025 5.4071 -1.0432
|  8> C -1.8940 5.5912 0.0141
|  9> C -1.4108 4.4937 0.7327
| 10> C -1.8323 3.1978 0.4088
| 11> S -1.2259 1.8064 1.2981
| 12> O -2.3857 0.9533 1.7310
| 13> O -0.4763 2.2458 2.5251
| 14> N -0.1637 0.8932 0.2734
| 15> C 1.1157 1.4666 -0.1476
| 16> C 2.2435 0.5722 0.2868
| 17> C 2.7741 0.6837 1.5799
| 18> C 3.7426 -0.2202 2.0245
| 19> C 4.1937 -1.2490 1.1902
| 20> O 5.1565 -2.1379 1.6952
| 21> C 5.7376 -3.2205 0.9711
| 22> F 6.4074 -2.7425 -0.1420
| 23> F 4.7597 -4.1194 0.5833
| 24> F 6.6412 -3.8711 1.7885
| 25> C 3.6657 -1.3568 -0.1114
| 26> C 2.6942 -0.4552 -0.5550
| 27> C -0.6477 -0.3050 -0.3490
| 28> N -1.0651 -0.2139 -1.6338
| 29> C -1.5254 -1.2721 -2.3282
| 30> C -1.5921 -2.5276 -1.7315
| 31> C -2.0807 -3.6052 -2.4879
| 32> C -2.1684 -4.8740 -1.9310
| 33> C -1.7748 -5.0779 -0.6163
| 34> C -1.2857 -4.0185 0.1520
| 35> C -1.1687 -2.7032 -0.3784
| 36> C -0.6631 -1.5521 0.3427
| 37> C -0.0888 -1.4974 1.7795
| 38> C 0.6929 -2.6746 2.3271
| 39> C -0.7036 -2.3412 2.8773
| 40> C -2.7315 3.0066 -0.6466
| 41> C -3.2145 4.1018 -1.3685
| 42> H -3.2660 8.6646 -1.9625
| 43> H -1.5535 6.5821 0.2856
| 44> H -0.7075 4.6581 1.5389
| 45> H 1.2510 2.4785 0.2923
| 46> H 1.1233 1.5948 -1.2521
| 47> H 2.4192 1.4540 2.2524
| 48> H 4.1370 -0.1284 3.0289
| 49> H 3.9866 -2.1394 -0.7838
| 50> H 2.2776 -0.5716 -1.5486
| 51> H -1.8419 -1.1252 -3.3538
| 52> H -2.3967 -3.4641 -3.5151
| 53> H -2.5450 -5.7009 -2.5193
| 54> H -1.8492 -6.0685 -0.1845
| 55> H -1.0231 -4.2974 1.1485
| 56> H 0.2950 -0.5351 2.1706
| 57> H 0.8559 -3.4873 1.5986
| 58> H 1.5298 -2.3598 2.9873
| 59> H -0.6955 -1.8263 3.8622
| 60> H -1.6113 -2.8838 2.5609
| 61> H -3.0572 2.0084 -0.9115
| 62> H -3.9104 3.9258 -2.1798
| 63> *
| 64>
| 65>                          ****END OF INPUT****

CARTESIAN COORDINATES (ANGSTROEM)
---------------------------------
  O     -4.106300    6.405600   -2.765800
  C     -3.313100    6.570700   -1.800100
  O     -2.922600    7.860900   -1.451400
  C     -2.802500    5.407100   -1.043200
  C     -1.894000    5.591200    0.014100
  C     -1.410800    4.493700    0.732700
  C     -1.832300    3.197800    0.408800
  S     -1.225900    1.806400    1.298100
  O     -2.385700    0.953300    1.731000
  O     -0.476300    2.245800    2.525100
  N     -0.163700    0.893200    0.273400
  C      1.115700    1.466600   -0.147600
  C      2.243500    0.572200    0.286800
  C      2.774100    0.683700    1.579900
  C      3.742600   -0.220200    2.024500
  C      4.193700   -1.249000    1.190200
  O      5.156500   -2.137900    1.695200
  C      5.737600   -3.220500    0.971100
  F      6.407400   -2.742500   -0.142000
  F      4.759700   -4.119400    0.583300
  F      6.641200   -3.871100    1.788500
  C      3.665700   -1.356800   -0.111400
  C      2.694200   -0.455200   -0.555000
  C     -0.647700   -0.305000   -0.349000
  N     -1.065100   -0.213900   -1.633800
  C     -1.525400   -1.272100   -2.328200
  C     -1.592100   -2.527600   -1.731500
  C     -2.080700   -3.605200   -2.487900
  C     -2.168400   -4.874000   -1.931000
  C     -1.774800   -5.077900   -0.616300
  C     -1.285700   -4.018500    0.152000
  C     -1.168700   -2.703200   -0.378400
  C     -0.663100   -1.552100    0.342700
  C     -0.088800   -1.497400    1.779500
  C      0.692900   -2.674600    2.327100
  C     -0.703600   -2.341200    2.877300
  C     -2.731500    3.006600   -0.646600
  C     -3.214500    4.101800   -1.368500
  H     -3.266000    8.664600   -1.962500
  H     -1.553500    6.582100    0.285600
  H     -0.707500    4.658100    1.538900
  H      1.251000    2.478500    0.292300
  H      1.123300    1.594800   -1.252100
  H      2.419200    1.454000    2.252400
  H      4.137000   -0.128400    3.028900
  H      3.986600   -2.139400   -0.783800
  H      2.277600   -0.571600   -1.548600
  H     -1.841900   -1.125200   -3.353800
  H     -2.396700   -3.464100   -3.515100
  H     -2.545000   -5.700900   -2.519300
  H     -1.849200   -6.068500   -0.184500
  H     -1.023100   -4.297400    1.148500
  H      0.295000   -0.535100    2.170600
  H      0.855900   -3.487300    1.598600
  H      1.529800   -2.359800    2.987300
  H     -0.695500   -1.826300    3.862200
  H     -1.611300   -2.883800    2.560900
  H     -3.057200    2.008400   -0.911500
  H     -3.910400    3.925800   -2.179800

 Total Charge           Charge          ....    0
 Multiplicity           Mult            ....    1
 Number of Electrons    NEL             ....  280
 Basis Dimension        Dim             ....  578

ORBITAL ENERGIES
----------------

  NO   OCC          E(Eh)            E(eV)
   0   2.0000     -89.096807     -2424.4474
   1   2.0000     -24.741494      -673.2503
   2   2.0000     -24.739789      -673.2039
   3   2.0000     -24.738762      -673.1759
   4   2.0000     -19.213072      -522.8143
   5   2.0000     -19.194614      -522.3120
   6   2.0000     -19.136094      -520.7196
   7   2.0000     -19.128360      -520.5091
   8   2.0000     -19.125908      -520.4424
   9   2.0000     -14.369136      -391.0041
  10   2.0000     -14.332331      -390.0025
  11   2.0000     -10.504238      -285.8349
  12   2.0000     -10.333416      -281.1865
  13   2.0000     -10.268699      -279.4255
  14   2.0000     -10.257060      -279.1088
  15   2.0000     -10.239252      -278.6242
  16   2.0000     -10.232853      -278.4501
  17   2.0000     -10.229138      -278.3490
  18   2.0000     -10.223403      -278.1929
  19   2.0000     -10.219543      -278.0879
  20   2.0000     -10.217302      -278.0269
  21   2.0000     -10.217269      -278.0260
  22   2.0000     -10.216623      -278.0084
  23   2.0000     -10.214630      -277.9542
  24   2.0000     -10.214282      -277.9447
  25   2.0000     -10.203072      -277.6397
  26   2.0000     -10.197781      -277.4957
  27   2.0000     -10.196803      -277.4691
  28   2.0000     -10.196652      -277.4650
  29   2.0000     -10.196419      -277.4587
  30   2.0000     -10.196361      -277.4571
  31   2.0000     -10.196085      -277.4496
  32   2.0000     -10.195574      -277.4357
  33   2.0000     -10.195013      -277.4204
  34   2.0000     -10.194125      -277.3963
  35   2.0000     -10.187776      -277.2235
  36   2.0000     -10.182983      -277.0930
  37   2.0000     -10.181678      -277.0575
  38   2.0000      -8.132577      -221.2987
  39   2.0000      -6.097528      -165.9222
  40   2.0000      -6.095696      -165.8723
  41   2.0000      -6.095206      -165.8590
  42   2.0000      -1.304237       -35.4901
  43   2.0000      -1.225159       -33.3383
  44   2.0000      -1.224439       -33.3187
  45   2.0000      -1.084175       -29.5019
  46   2.0000      -1.082863       -29.4662
  47   2.0000      -1.079362       -29.3709
  48   2.0000      -0.993488       -27.0342
  49   2.0000      -0.964978       -26.2584
  50   2.0000      -0.962045       -26.1786
  51   2.0000      -0.915005       -24.8986
  52   2.0000      -0.887406       -24.1475
  53   2.0000      -0.867668       -23.6105
  54   2.0000      -0.862700       -23.4753
  55   2.0000      -0.850235       -23.1361
  56   2.0000      -0.805338       -21.9144
  57   2.0000      -0.789876       -21.4936
  58   2.0000      -0.782235       -21.2857
  59   2.0000      -0.775410       -21.1000
  60   2.0000      -0.773352       -21.0440
  61   2.0000      -0.758274       -20.6337
  62   2.0000      -0.740948       -20.1622
  63   2.0000      -0.727367       -19.7927
  64   2.0000      -0.703224       -19.1357
  65   2.0000      -0.678012       -18.4496
  66   2.0000      -0.664151       -18.0725
  67   2.0000      -0.651508       -17.7284
  68   2.0000      -0.636892       -17.3307
  69   2.0000      -0.633504       -17.2385
  70   2.0000      -0.623261       -16.9598
  71   2.0000      -0.618224       -16.8227
  72   2.0000      -0.613517       -16.6946
  73   2.0000      -0.596432       -16.2297
  74   2.0000      -0.593774       -16.1574
  75   2.0000      -0.592734       -16.1291
  76   2.0000      -0.590693       -16.0736
  77   2.0000      -0.573310       -15.6006
  78   2.0000      -0.569108       -15.4862
  79   2.0000      -0.558506       -15.1977
  80   2.0000      -0.539633       -14.6842
  81   2.0000      -0.526801       -14.3350
  82   2.0000      -0.516676       -14.0595
  83   2.0000      -0.507650       -13.8139
  84   2.0000      -0.498849       -13.5744
  85   2.0000      -0.490320       -13.3423
  86   2.0000      -0.486951       -13.2506
  87   2.0000      -0.485194       -13.2028
  88   2.0000      -0.481661       -13.1067
  89   2.0000      -0.475768       -12.9463
  90   2.0000      -0.470201       -12.7948
  91   2.0000      -0.469103       -12.7649
  92   2.0000      -0.468440       -12.7469
  93   2.0000      -0.459635       -12.5073
  94   2.0000      -0.458276       -12.4703
  95   2.0000      -0.457376       -12.4458
  96   2.0000      -0.447848       -12.1866
  97   2.0000      -0.445736       -12.1291
  98   2.0000      -0.445332       -12.1181
  99   2.0000      -0.440379       -11.9833
 100   2.0000      -0.437927       -11.9166
 101   2.0000      -0.435138       -11.8407
 102   2.0000      -0.431361       -11.7379
 103   2.0000      -0.428834       -11.6692
 104   2.0000      -0.424819       -11.5599
 105   2.0000      -0.419630       -11.4187
 106   2.0000      -0.416685       -11.3386
 107   2.0000      -0.414382       -11.2759
 108   2.0000      -0.413001       -11.2383
 109   2.0000      -0.407665       -11.0931
 110   2.0000      -0.405797       -11.0423
 111   2.0000      -0.391041       -10.6408
 112   2.0000      -0.388550       -10.5730
 113   2.0000      -0.383737       -10.4420
 114   2.0000      -0.382794       -10.4164
 115   2.0000      -0.373506       -10.1636
 116   2.0000      -0.371375       -10.1056
 117   2.0000      -0.369566       -10.0564
 118   2.0000      -0.365838        -9.9550
 119   2.0000      -0.356356        -9.6970
 120   2.0000      -0.348106        -9.4725
 121   2.0000      -0.346546        -9.4300
 122   2.0000      -0.341805        -9.3010
 123   2.0000      -0.326141        -8.8747
 124   2.0000      -0.319712        -8.6998
 125   2.0000      -0.318389        -8.6638
 126   2.0000      -0.307888        -8.3781
 127   2.0000      -0.299822        -8.1586
 128   2.0000      -0.289320        -7.8728
 129   2.0000      -0.280915        -7.6441
 130   2.0000      -0.278138        -7.5685
 131   2.0000      -0.276409        -7.5215
 132   2.0000      -0.273128        -7.4322
 133   2.0000      -0.271829        -7.3968
 134   2.0000      -0.267522        -7.2796
 135   2.0000      -0.261329        -7.1111
 136   2.0000      -0.253043        -6.8857
 137   2.0000      -0.252269        -6.8646
 138   2.0000      -0.238258        -6.4833
 139   2.0000      -0.216500        -5.8913
 140   0.0000      -0.080756        -2.1975
 141   0.0000      -0.060359        -1.6424
 142   0.0000      -0.034785        -0.9466
 143   0.0000      -0.027346        -0.7441
 144   0.0000      -0.015263        -0.4153

MULLIKEN ATOMIC CHARGES
-----------------------
   0 O :   -0.444919
   1 C :    0.527524
   2 O :   -0.624027
   3 C :    0.082754
   4 C :   -0.146132
   5 C :   -0.153056
   6 C :   -0.124557
   7 S :    1.228588
   8 O :   -0.544606
   9 O :   -0.562242
  10 N :   -0.609094
  11 C :   -0.236605
  12 C :    0.158750
  13 C :   -0.167550
  14 C :   -0.176122
  15 C :    0.356074
  16 O :   -0.545833
  17 C :    1.086305
  18 F :   -0.291927
  19 F :   -0.291641
  20 F :   -0.278945
  21 C :   -0.190006
  22 C :   -0.167389
  23 C :    0.292655
  24 N :   -0.395565
  25 C :   -0.066797
  26 C :    0.141580
  27 C :   -0.202668
  28 C :   -0.124044
  29 C :   -0.123386
  30 C :   -0.219232
  31 C :    0.096821
  32 C :    0.137508
  33 C :   -0.176949
  34 C :   -0.318910
  35 C :   -0.307268
  36 C :   -0.134205
  37 C :   -0.142197
  38 H :    0.433595
  39 H :    0.171321
  40 H :    0.182426
  41 H :    0.171467
  42 H :    0.171708
  43 H :    0.164171
  44 H :    0.150559
  45 H :    0.151900
  46 H :    0.145746
  47 H :    0.149654
  48 H :    0.139015
  49 H :    0.136000
  50 H :    0.139697
  51 H :    0.155473
  52 H :    0.186106
  53 H :    0.157087
  54 H :    0.157190
  55 H :    0.164293
  56 H :    0.162177
  57 H :    0.187801
  58 H :    0.179931
Sum of atomic charges:   -0.0000000

LOEWDIN ATOMIC CHARGES
----------------------
   0 O :   -0.261083
   1 C :    0.179574
   2 O :   -0.335000
   3 C :   -0.039933
   4 C :   -0.100499
   5 C :   -0.109202
   6 C :   -0.175031
   7 S :    1.263328
   8 O :   -0.565398
   9 O :   -0.583142
  10 N :   -0.279588
  11 C :   -0.145635
  12 C :   -0.037489
  13 C :   -0.114463
  14 C :   -0.142638
  15 C :    0.087426
  16 O :   -0.159897
  17 C :    0.359922
  18 F :   -0.105702
  19 F :   -0.105274
  20 F :   -0.087338
  21 C :   -0.159474
  22 C :   -0.119362
  23 C :    0.021127
  24 N :   -0.137295
  25 C :   -0.071946
  26 C :   -0.025086
  27 C :   -0.113669
  28 C :   -0.124540
  29 C :   -0.120844
  30 C :   -0.128675
  31 C :   -0.004706
  32 C :    0.023706
  33 C :   -0.137176
  34 C :   -0.252686
  35 C :   -0.244876
  36 C :   -0.095280
  37 C :   -0.085523
  38 H :    0.349343
  39 H :    0.154018
  40 H :    0.158827
  41 H :    0.142778
  42 H :    0.133498
  43 H :    0.148666
  44 H :    0.145674
  45 H :    0.141776
  46 H :    0.140029
  47 H :    0.135382
  48 H :    0.137338
  49 H :    0.135387
  50 H :    0.137499
  51 H :    0.147337
  52 H :    0.152528
  53 H :    0.134389
  54 H :    0.138227
  55 H :    0.142017
  56 H :    0.136761
  57 H :    0.161663
  58 H :    0.160233

  Mayer bond orders larger than 0.100000
B(  0-O ,  1-C ) :   1.8628 B(  1-C ,  2-O ) :   1.0243 B(  1-C ,  3-C ) :   1.0087
B(  2-O , 38-H ) :   0.7421 B(  3-C ,  4-C ) :   1.3885 B(  3-C , 37-C ) :   1.3957
B(  4-C ,  5-C ) :   1.4097 B(  4-C , 39-H ) :   0.9152 B(  5-C ,  6-C ) :   1.4009
B(  5-C , 40-H ) :   0.9097 B(  6-C ,  7-S ) :   0.8117 B(  6-C , 36-C ) :   1.3793
B(  7-S ,  8-O ) :   1.6459 B(  7-S ,  9-O ) :   1.6021 B(  7-S , 10-N ) :   0.8059
B( 10-N , 11-C ) :   0.9186 B( 10-N , 23-C ) :   0.8994 B( 11-C , 12-C ) :   0.9619
B( 11-C , 41-H ) :   0.9191 B( 11-C , 42-H ) :   0.9184 B( 12-C , 13-C ) :   1.4281
B( 12-C , 22-C ) :   1.4375 B( 13-C , 14-C ) :   1.4351 B( 13-C , 43-H ) :   0.9132
B( 14-C , 15-C ) :   1.4108 B( 14-C , 44-H ) :   0.9183 B( 15-C , 16-O ) :   0.8236
B( 15-C , 21-C ) :   1.3957 B( 16-O , 17-C ) :   0.9912 B( 17-C , 18-F ) :   0.9690
B( 17-C , 19-F ) :   0.9670 B( 17-C , 20-F ) :   1.0082 B( 21-C , 22-C ) :   1.4257
B( 21-C , 45-H ) :   0.9095 B( 22-C , 46-H ) :   0.9196 B( 23-C , 24-N ) :   1.2818
B( 23-C , 32-C ) :   1.4152 B( 24-N , 25-C ) :   1.4936 B( 25-C , 26-C ) :   1.2418
B( 25-C , 47-H ) :   0.9268 B( 26-C , 27-C ) :   1.2817 B( 26-C , 31-C ) :   1.2895
B( 27-C , 28-C ) :   1.5146 B( 27-C , 30-C ) :   0.1026 B( 27-C , 48-H ) :   0.9236
B( 28-C , 29-C ) :   1.3594 B( 28-C , 49-H ) :   0.9283 B( 29-C , 30-C ) :   1.5174
B( 29-C , 50-H ) :   0.9283 B( 30-C , 31-C ) :   1.2713 B( 30-C , 51-H ) :   0.9083
B( 31-C , 32-C ) :   1.2274 B( 32-C , 33-C ) :   1.0601 B( 33-C , 34-C ) :   0.9159
B( 33-C , 35-C ) :   0.9166 B( 33-C , 52-H ) :   0.9014 B( 34-C , 35-C ) :   0.9542
B( 34-C , 53-H ) :   0.9318 B( 34-C , 54-H ) :   0.9370 B( 35-C , 55-H ) :   0.9396
B( 35-C , 56-H ) :   0.9326 B( 36-C , 37-C ) :   1.4318 B( 36-C , 57-H ) :   0.9055
B( 37-C , 58-H ) :   0.9100

FINAL SINGLE POINT ENERGY     -2223.636914017105

DIPOLE MOMENT
-------------

Method             : SCF
Type of density    : Electron Density
Multiplicity       :   1
Irrep              :   0
Energy             : -2223.6369140171054823 Eh
Relativity type    :
Basis              : AO
                                X                 Y                 Z
Electronic contribution:     27.762195195      -5.238898129       0.285929478
Nuclear contribution   :    -27.439569817       5.249169116      -1.494689009
                        -----------------------------------------
Total Dipole Moment    :      0.322625378       0.010270987      -1.208759531
                        -----------------------------------------
Magnitude (a.u.)       :      1.251116395
Magnitude (Debye)      :      3.180085150

Rotational constants in cm-1:             0.004627             0.001680             0.001417
Rotational constants in MHz :           138.701387            50.351970            42.488297

                             ****ORCA TERMINATED NORMALLY****
TOTAL RUN TIME: 0 days 0 hours 13 minutes 31 seconds 178 msec
