                         Program Version 6.0.0  -   RELEASE  -
|  1> ! B3LYP 6-31G* SP
|  2>
|  3> * xyz 0 1
|  4> C -3.7084 3.2989 -0.4895
|  5> C -4.6333 2.1444 -0.2810
|  6> O -5.5456 2.1089 0.6711
|  7> C -6.1521 0.9477 0.5937
|  8> C -5.6424 0.1943 -0.4190
|  9> C -4.6505 0.9573 -1.0163
| 10> C -3.7084 0.5690 -2.1215
| 11> C -2.4054 0.1002 -1.5483
| 12> O -1.4109 0.8758 -1.5609
| 13> N -2.3043 -1.2089 -0.9681
| 14> C -1.1295 -1.7044 -0.3133
| 15> N -0.0157 -0.9732 -0.0969
| 16> C 0.9449 -1.6839 0.5602
| 17> C 2.2583 -1.0761 0.9018
| 18> C 3.1444 -1.6930 1.8018
| 19> C 4.3720 -1.1016 2.1099
| 20> F 5.2076 -1.7197 2.9831
| 21> C 4.7541 0.1088 1.5205
| 22> O 6.0149 0.6253 1.8678
| 23> C 6.8609 1.4647 1.0732
| 24> C 7.6536 0.6701 -0.0018
| 25> C 8.3982 -0.5107 0.6538
| 26> C 6.7174 0.1353 -1.1035
| 27> C 8.6868 1.6125 -0.6530
| 28> C 3.8574 0.7489 0.6381
| 29> F 4.1299 1.9562 0.0934
| 30> C 2.6263 0.1563 0.3366
| 31> C 0.5800 -3.0022 0.8636
| 32> S -0.9817 -3.2609 0.2969
| 33> C -6.1461 -1.0805 -0.6551
| 34> O -5.7094 -1.7726 -1.6145
| 35> N -7.1334 -1.5614 0.1749
| 36> C -7.6975 -2.9018 -0.0617
| 37> C -7.6452 -0.7657 1.1848
| 38> O -8.5697 -1.2055 1.9253
| 39> N -7.1581 0.5055 1.3941
| 40> C -7.6689 1.3428 2.4867
| 41> H -4.0320 4.1589 0.1330
| 42> H -3.7166 3.6056 -1.5559
| 43> H -2.6792 3.0089 -0.1931
| 44> H -4.1482 -0.2265 -2.7560
| 45> H -3.5357 1.4447 -2.7829
| 46> H -3.1326 -1.8424 -1.0172
| 47> H 2.8920 -2.6255 2.2854
| 48> H 6.3083 2.3139 0.6306
| 49> H 7.5915 1.9287 1.7706
| 50> H 9.0201 -1.0463 -0.0956
| 51> H 9.0666 -0.1503 1.4630
| 52> H 7.6805 -1.2396 1.0882
| 53> H 6.1150 0.9602 -1.5412
| 54> H 6.0324 -0.6427 -0.7088
| 55> H 7.3071 -0.3330 -1.9221
| 56> H 8.1800 2.4806 -1.1256
| 57> H 9.4033 1.9953 0.1039
| 58> H 9.2683 1.0811 -1.4379
| 59> H 1.9590 0.6684 -0.3430
| 60> H 1.1840 -3.7495 1.3587
| 61> H -8.0282 -3.3725 0.8877
| 62> H -8.5629 -2.8237 -0.7512
| 63> H -6.9419 -3.5864 -0.5020
| 64> H -7.2549 0.9840 3.4534
| 65> H -7.3875 2.4101 2.3492
| 66> H -8.7790 1.2974 2.5213
| 67> *
| 68>
| 69>                          ****END OF INPUT****

CARTESIAN COORDINATES (ANGSTROEM)
---------------------------------
  C     -3.708400    3.298900   -0.489500
  C     -4.633300    2.144400   -0.281000
  O     -5.545600    2.108900    0.671100
  C     -6.152100    0.947700    0.593700
  C     -5.642400    0.194300   -0.419000
  C     -4.650500    0.957300   -1.016300
  C     -3.708400    0.569000   -2.121500
  C     -2.405400    0.100200   -1.548300
  O     -1.410900    0.875800   -1.560900
  N     -2.304300   -1.208900   -0.968100
  C     -1.129500   -1.704400   -0.313300
  N     -0.015700   -0.973200   -0.096900
  C      0.944900   -1.683900    0.560200
  C      2.258300   -1.076100    0.901800
  C      3.144400   -1.693000    1.801800
  C      4.372000   -1.101600    2.109900
  F      5.207600   -1.719700    2.983100
  C      4.754100    0.108800    1.520500
  O      6.014900    0.625300    1.867800
  C      6.860900    1.464700    1.073200
  C      7.653600    0.670100   -0.001800
  C      8.398200   -0.510700    0.653800
  C      6.717400    0.135300   -1.103500
  C      8.686800    1.612500   -0.653000
  C      3.857400    0.748900    0.638100
  F      4.129900    1.956200    0.093400
  C      2.626300    0.156300    0.336600
  C      0.580000   -3.002200    0.863600
  S     -0.981700   -3.260900    0.296900
  C     -6.146100   -1.080500   -0.655100
  O     -5.709400   -1.772600   -1.614500
  N     -7.133400   -1.561400    0.174900
  C     -7.697500   -2.901800   -0.061700
  C     -7.645200   -0.765700    1.184800
  O     -8.569700   -1.205500    1.925300
  N     -7.158100    0.505500    1.394100
  C     -7.668900    1.342800    2.486700
  H     -4.032000    4.158900    0.133000
  H     -3.716600    3.605600   -1.555900
  H     -2.679200    3.008900   -0.193100
  H     -4.148200   -0.226500   -2.756000
  H     -3.535700    1.444700   -2.782900
  H     -3.132600   -1.842400   -1.017200
  H      2.892000   -2.625500    2.285400
  H      6.308300    2.313900    0.630600
  H      7.591500    1.928700    1.770600
  H      9.020100   -1.046300   -0.095600
  H      9.066600   -0.150300    1.463000
  H      7.680500   -1.239600    1.088200
  H      6.115000    0.960200   -1.541200
  H      6.032400   -0.642700   -0.708800
  H      7.307100   -0.333000   -1.922100
  H      8.180000    2.480600   -1.125600
  H      9.403300    1.995300    0.103900
  H      9.268300    1.081100   -1.437900
  H      1.959000    0.668400   -0.343000
  H      1.184000   -3.749500    1.358700
  H     -8.028200   -3.372500    0.887700
  H     -8.562900   -2.823700   -0.751200
  H     -6.941900   -3.586400   -0.502000
  H     -7.254900    0.984000    3.453400
  H     -7.387500    2.410100    2.349200
  H     -8.779000    1.297400    2.521300

 Total Charge           Charge          ....    0
 Multiplicity           Mult            ....    1
 Number of Electrons    NEL             ....  278
 Basis Dimension        Dim             ....  574

ORBITAL ENERGIES
----------------

  NO   OCC          E(Eh)            E(eV)
   0   2.0000     -88.904145     -2419.2048
   1   2.0000     -24.705735      -672.2772
   2   2.0000     -24.696916      -672.0372
   3   2.0000     -19.256179      -523.9873
   4   2.0000     -19.162008      -521.4247
   5   2.0000     -19.120509      -520.2955
   6   2.0000     -19.119183      -520.2594
   7   2.0000     -19.115382      -520.1560
   8   2.0000     -14.420328      -392.3971
   9   2.0000     -14.404919      -391.9778
  10   2.0000     -14.387583      -391.5060
  11   2.0000     -14.321873      -389.7180
  12   2.0000     -10.337561      -281.2993
  13   2.0000     -10.304582      -280.4019
  14   2.0000     -10.300189      -280.2824
  15   2.0000     -10.299596      -280.2663
  16   2.0000     -10.286491      -279.9097
  17   2.0000     -10.269968      -279.4600
  18   2.0000     -10.269900      -279.4582
  19   2.0000     -10.255435      -279.0646
  20   2.0000     -10.254791      -279.0471
  21   2.0000     -10.245069      -278.7825
  22   2.0000     -10.226637      -278.2809
  23   2.0000     -10.226004      -278.2637
  24   2.0000     -10.224284      -278.2169
  25   2.0000     -10.206013      -277.7197
  26   2.0000     -10.203011      -277.6380
  27   2.0000     -10.202726      -277.6303
  28   2.0000     -10.201755      -277.6039
  29   2.0000     -10.196309      -277.4557
  30   2.0000     -10.193551      -277.3806
  31   2.0000     -10.189585      -277.2727
  32   2.0000     -10.187486      -277.2156
  33   2.0000     -10.181785      -277.0605
  34   2.0000     -10.166213      -276.6367
  35   2.0000     -10.159636      -276.4578
  36   2.0000     -10.157955      -276.4120
  37   2.0000      -7.981813      -217.1962
  38   2.0000      -5.944896      -161.7689
  39   2.0000      -5.940788      -161.6571
  40   2.0000      -5.938629      -161.5983
  41   2.0000      -1.219466       -33.1834
  42   2.0000      -1.208835       -32.8941
  43   2.0000      -1.186473       -32.2856
  44   2.0000      -1.075499       -29.2658
  45   2.0000      -1.037465       -28.2309
  46   2.0000      -1.029284       -28.0083
  47   2.0000      -1.018387       -27.7117
  48   2.0000      -0.982293       -26.7295
  49   2.0000      -0.971152       -26.4264
  50   2.0000      -0.947614       -25.7859
  51   2.0000      -0.910455       -24.7747
  52   2.0000      -0.861076       -23.4311
  53   2.0000      -0.856914       -23.3178
  54   2.0000      -0.811846       -22.0914
  55   2.0000      -0.810252       -22.0481
  56   2.0000      -0.808070       -21.9887
  57   2.0000      -0.777206       -21.1489
  58   2.0000      -0.767970       -20.8975
  59   2.0000      -0.748116       -20.3573
  60   2.0000      -0.746582       -20.3155
  61   2.0000      -0.729523       -19.8513
  62   2.0000      -0.721798       -19.6411
  63   2.0000      -0.711362       -19.3571
  64   2.0000      -0.678505       -18.4631
  65   2.0000      -0.672430       -18.2978
  66   2.0000      -0.669626       -18.2214
  67   2.0000      -0.669025       -18.2051
  68   2.0000      -0.636413       -17.3177
  69   2.0000      -0.628118       -17.0920
  70   2.0000      -0.626578       -17.0500
  71   2.0000      -0.616216       -16.7681
  72   2.0000      -0.607436       -16.5292
  73   2.0000      -0.592623       -16.1261
  74   2.0000      -0.582719       -15.8566
  75   2.0000      -0.558220       -15.1899
  76   2.0000      -0.542678       -14.7670
  77   2.0000      -0.539352       -14.6765
  78   2.0000      -0.534853       -14.5541
  79   2.0000      -0.530444       -14.4341
  80   2.0000      -0.517623       -14.0852
  81   2.0000      -0.513080       -13.9616
  82   2.0000      -0.508778       -13.8446
  83   2.0000      -0.502778       -13.6813
  84   2.0000      -0.492708       -13.4073
  85   2.0000      -0.483283       -13.1508
  86   2.0000      -0.481453       -13.1010
  87   2.0000      -0.478610       -13.0237
  88   2.0000      -0.474020       -12.8987
  89   2.0000      -0.466597       -12.6967
  90   2.0000      -0.461093       -12.5470
  91   2.0000      -0.454610       -12.3706
  92   2.0000      -0.449712       -12.2373
  93   2.0000      -0.448846       -12.2137
  94   2.0000      -0.448383       -12.2011
  95   2.0000      -0.445847       -12.1321
  96   2.0000      -0.440457       -11.9854
  97   2.0000      -0.437022       -11.8920
  98   2.0000      -0.429283       -11.6814
  99   2.0000      -0.427113       -11.6223
 100   2.0000      -0.425697       -11.5838
 101   2.0000      -0.420117       -11.4320
 102   2.0000      -0.418440       -11.3863
 103   2.0000      -0.417215       -11.3530
 104   2.0000      -0.411366       -11.1938
 105   2.0000      -0.408329       -11.1112
 106   2.0000      -0.406227       -11.0540
 107   2.0000      -0.405442       -11.0327
 108   2.0000      -0.395494       -10.7620
 109   2.0000      -0.393181       -10.6990
 110   2.0000      -0.390952       -10.6383
 111   2.0000      -0.390339       -10.6217
 112   2.0000      -0.380634       -10.3576
 113   2.0000      -0.379152       -10.3173
 114   2.0000      -0.373526       -10.1642
 115   2.0000      -0.369855       -10.0643
 116   2.0000      -0.368237       -10.0202
 117   2.0000      -0.363406        -9.8888
 118   2.0000      -0.360954        -9.8221
 119   2.0000      -0.353682        -9.6242
 120   2.0000      -0.353616        -9.6224
 121   2.0000      -0.344007        -9.3609
 122   2.0000      -0.332106        -9.0371
 123   2.0000      -0.320458        -8.7201
 124   2.0000      -0.317267        -8.6333
 125   2.0000      -0.310767        -8.4564
 126   2.0000      -0.299143        -8.1401
 127   2.0000      -0.294266        -8.0074
 128   2.0000      -0.292906        -7.9704
 129   2.0000      -0.283655        -7.7186
 130   2.0000      -0.278574        -7.5804
 131   2.0000      -0.276614        -7.5270
 132   2.0000      -0.275294        -7.4911
 133   2.0000      -0.258240        -7.0271
 134   2.0000      -0.240165        -6.5352
 135   2.0000      -0.234171        -6.3721
 136   2.0000      -0.231992        -6.3128
 137   2.0000      -0.209245        -5.6939
 138   2.0000      -0.200283        -5.4500
 139   0.0000      -0.035032        -0.9533
 140   0.0000      -0.028480        -0.7750
 141   0.0000      -0.015834        -0.4309
 142   0.0000      -0.007882        -0.2145
 143   0.0000       0.003740         0.1018

MULLIKEN ATOMIC CHARGES
-----------------------
   0 C :   -0.529687
   1 C :    0.256654
   2 O :   -0.401649
   3 C :    0.487554
   4 C :    0.031039
   5 C :    0.016305
   6 C :   -0.436151
   7 C :    0.565877
   8 O :   -0.437021
   9 N :   -0.666916
  10 C :    0.254414
  11 N :   -0.378787
  12 C :    0.217486
  13 C :    0.147470
  14 C :   -0.283669
  15 C :    0.375097
  16 F :   -0.310222
  17 C :    0.217618
  18 O :   -0.519483
  19 C :   -0.033694
  20 C :    0.089450
  21 C :   -0.435371
  22 C :   -0.453967
  23 C :   -0.445688
  24 C :    0.386058
  25 F :   -0.311592
  26 C :   -0.282400
  27 C :   -0.398075
  28 S :    0.251684
  29 C :    0.504236
  30 O :   -0.521488
  31 N :   -0.482828
  32 C :   -0.315864
  33 C :    0.676444
  34 O :   -0.503890
  35 N :   -0.501997
  36 C :   -0.329445
  37 H :    0.160635
  38 H :    0.177623
  39 H :    0.208717
  40 H :    0.199345
  41 H :    0.179990
  42 H :    0.360266
  43 H :    0.139522
  44 H :    0.148833
  45 H :    0.141502
  46 H :    0.133023
  47 H :    0.133517
  48 H :    0.154769
  49 H :    0.142953
  50 H :    0.148348
  51 H :    0.136186
  52 H :    0.138410
  53 H :    0.136120
  54 H :    0.143721
  55 H :    0.190181
  56 H :    0.182193
  57 H :    0.196462
  58 H :    0.180677
  59 H :    0.192927
  60 H :    0.189013
  61 H :    0.184306
  62 H :    0.203259
Sum of atomic charges:   -0.0000000

LOEWDIN ATOMIC CHARGES
----------------------
   0 C :   -0.362521
   1 C :    0.029327
   2 O :    0.001178
   3 C :    0.094018
   4 C :   -0.115818
   5 C :   -0.048920
   6 C :   -0.241707
   7 C :    0.157286
   8 O :   -0.255573
   9 N :   -0.208785
  10 C :   -0.079869
  11 N :   -0.155686
  12 C :   -0.000549
  13 C :   -0.020563
  14 C :   -0.159544
  15 C :    0.103445
  16 F :   -0.095415
  17 C :    0.034812
  18 O :   -0.179942
  19 C :   -0.085296
  20 C :   -0.055420
  21 C :   -0.348356
  22 C :   -0.353781
  23 C :   -0.347366
  24 C :    0.090403
  25 F :   -0.090332
  26 C :   -0.145022
  27 C :   -0.351728
  28 S :    0.389389
  29 C :    0.109675
  30 O :   -0.319348
  31 N :   -0.027425
  32 C :   -0.260145
  33 C :    0.142482
  34 O :   -0.312411
  35 N :   -0.021742
  36 C :   -0.259578
  37 H :    0.140802
  38 H :    0.148747
  39 H :    0.161840
  40 H :    0.160736
  41 H :    0.154821
  42 H :    0.272681
  43 H :    0.142916
  44 H :    0.118684
  45 H :    0.123712
  46 H :    0.119722
  47 H :    0.120007
  48 H :    0.128809
  49 H :    0.122959
  50 H :    0.126174
  51 H :    0.121490
  52 H :    0.120876
  53 H :    0.119724
  54 H :    0.125816
  55 H :    0.166739
  56 H :    0.160124
  57 H :    0.153089
  58 H :    0.141804
  59 H :    0.151754
  60 H :    0.144550
  61 H :    0.146094
  62 H :    0.156158

  Mayer bond orders larger than 0.100000
B(  0-C ,  1-C ) :   1.0409 B(  0-C , 37-H ) :   0.9347 B(  0-C , 38-H ) :   0.9304
B(  0-C , 39-H ) :   0.9126 B(  1-C ,  2-O ) :   0.9862 B(  1-C ,  5-C ) :   1.5494
B(  2-O ,  3-C ) :   1.0751 B(  3-C ,  4-C ) :   1.3628 B(  3-C , 35-N ) :   0.9787
B(  4-C ,  5-C ) :   1.2784 B(  4-C , 29-C ) :   1.0910 B(  5-C ,  6-C ) :   0.9959
B(  6-C ,  7-C ) :   0.9592 B(  6-C , 40-H ) :   0.8943 B(  6-C , 41-H ) :   0.9136
B(  7-C ,  8-O ) :   1.8743 B(  7-C ,  9-N ) :   0.9985 B(  9-N , 10-C ) :   0.9555
B(  9-N , 42-H ) :   0.7900 B( 10-C , 11-N ) :   1.5086 B( 10-C , 27-C ) :   0.1076
B( 10-C , 28-S ) :   1.1405 B( 11-N , 12-C ) :   1.2679 B( 12-C , 13-C ) :   1.0603
B( 12-C , 27-C ) :   1.5121 B( 13-C , 14-C ) :   1.3634 B( 13-C , 26-C ) :   1.3728
B( 14-C , 15-C ) :   1.3976 B( 14-C , 43-H ) :   0.9108 B( 15-C , 16-F ) :   0.9261
B( 15-C , 17-C ) :   1.2939 B( 17-C , 18-O ) :   0.9171 B( 17-C , 24-C ) :   1.2817
B( 18-O , 19-C ) :   0.8859 B( 19-C , 20-C ) :   0.9696 B( 19-C , 44-H ) :   0.9122
B( 19-C , 45-H ) :   0.9297 B( 20-C , 21-C ) :   0.9985 B( 20-C , 22-C ) :   0.9989
B( 20-C , 23-C ) :   0.9863 B( 21-C , 46-H ) :   0.9465 B( 21-C , 47-H ) :   0.9473
B( 21-C , 48-H ) :   0.9390 B( 22-C , 49-H ) :   0.9417 B( 22-C , 50-H ) :   0.9380
B( 22-C , 51-H ) :   0.9454 B( 23-C , 52-H ) :   0.9452 B( 23-C , 53-H ) :   0.9448
B( 23-C , 54-H ) :   0.9446 B( 24-C , 25-F ) :   0.8787 B( 24-C , 26-C ) :   1.3696
B( 26-C , 55-H ) :   0.8964 B( 27-C , 28-S ) :   1.1125 B( 27-C , 56-H ) :   0.9016
B( 29-C , 30-O ) :   1.7253 B( 29-C , 31-N ) :   0.9788 B( 31-N , 32-C ) :   0.9171
B( 31-N , 33-C ) :   1.0386 B( 32-C , 57-H ) :   0.9259 B( 32-C , 58-H ) :   0.9401
B( 32-C , 59-H ) :   0.9246 B( 33-C , 34-O ) :   1.7934 B( 33-C , 35-N ) :   1.0482
B( 35-N , 36-C ) :   0.9246 B( 36-C , 60-H ) :   0.9342 B( 36-C , 61-H ) :   0.9299
B( 36-C , 62-H ) :   0.9268

FINAL SINGLE POINT ENERGY     -2160.226216081992

DIPOLE MOMENT
-------------

Method             : SCF
Type of density    : Electron Density
Multiplicity       :   1
Irrep              :   0
Energy             : -2160.2262160819923338 Eh
Relativity type    :
Basis              : AO
                                X                 Y                 Z
Electronic contribution:    -27.982382240     -11.640069733       8.953741940
Nuclear contribution   :     26.568607424      12.153378978      -8.812098556
                        -----------------------------------------
Total Dipole Moment    :     -1.413774817       0.513309245       0.141643385
                        -----------------------------------------
Magnitude (a.u.)       :      1.510731102
Magnitude (Debye)      :      3.839973293

Rotational constants in cm-1:             0.007474             0.001066             0.001019
Rotational constants in MHz :           224.076068            31.959742            30.545610

                             ****ORCA TERMINATED NORMALLY****
TOTAL RUN TIME: 0 days 0 hours 6 minutes 55 seconds 223 msec
