                         Program Version 6.0.0  -   RELEASE  -
|  1> ! B3LYP 6-31G* SP
|  2>
|  3> * xyz 0 1
|  4> C 0.6117 -1.6389 -2.4027
|  5> C -0.3546 -1.9813 -1.3020
|  6> C -0.9034 -3.2705 -1.2420
|  7> C -1.7858 -3.6128 -0.2123
|  8> C -2.3328 -4.9010 -0.1207
|  9> C -3.2055 -5.2167 0.9253
| 10> C -3.5368 -4.2505 1.8821
| 11> Cl -4.6309 -4.6545 3.1924
| 12> C -2.9957 -2.9628 1.7954
| 13> C -2.1213 -2.6401 0.7518
| 14> N -1.5950 -1.3913 0.6650
| 15> C -0.7421 -1.0314 -0.3317
| 16> N -0.2145 0.3008 -0.3447
| 17> C 0.6393 0.7537 0.7542
| 18> C 1.9860 0.0924 0.6590
| 19> C 3.0060 0.6770 -0.1044
| 20> C 4.2313 0.0236 -0.2654
| 21> C 4.4490 -1.2343 0.3277
| 22> O 5.6537 -1.9412 0.1872
| 23> C 6.7800 -1.5071 -0.5711
| 24> F 6.4235 -1.3262 -1.8942
| 25> F 7.7657 -2.4722 -0.5017
| 26> F 7.2768 -0.3257 -0.0497
| 27> C 3.4263 -1.8150 1.0863
| 28> C 2.2021 -1.1613 1.2487
| 29> S -0.7317 1.4263 -1.5626
| 30> O 0.4570 1.8257 -2.3914
| 31> O -1.7605 0.7897 -2.4544
| 32> C -1.4499 2.8355 -0.7911
| 33> C -1.0949 4.1293 -1.1937
| 34> C -1.6558 5.2418 -0.5600
| 35> C -2.5815 5.0748 0.4862
| 36> C -3.1735 6.2490 1.1634
| 37> O -2.8737 7.4168 0.7962
| 38> O -4.0705 6.0746 2.2139
| 39> C -2.9376 3.7731 0.8800
| 40> C -2.3758 2.6625 0.2438
| 41> H 1.4000 -0.9504 -2.0364
| 42> H 0.0656 -1.1635 -3.2437
| 43> H 1.1205 -2.5513 -2.7807
| 44> H -0.6325 -4.0084 -1.9886
| 45> H -2.0849 -5.6601 -0.8523
| 46> H -3.6229 -6.2132 0.9917
| 47> H -3.2548 -2.2167 2.5367
| 48> H 0.1569 0.5199 1.7284
| 49> H 0.7644 1.8577 0.7188
| 50> H 2.8477 1.6335 -0.5858
| 51> H 4.9948 0.5028 -0.8599
| 52> H 3.5782 -2.7842 1.5434
| 53> H 1.4175 -1.6399 1.8214
| 54> H -0.3838 4.2804 -1.9954
| 55> H -1.3622 6.2317 -0.8869
| 56> H -4.4818 6.8720 2.6849
| 57> H -3.6480 3.6110 1.6802
| 58> H -2.6590 1.6667 0.5614
| 59> *
| 60>
| 61>                          ****END OF INPUT****

CARTESIAN COORDINATES (ANGSTROEM)
---------------------------------
  C      0.611700   -1.638900   -2.402700
  C     -0.354600   -1.981300   -1.302000
  C     -0.903400   -3.270500   -1.242000
  C     -1.785800   -3.612800   -0.212300
  C     -2.332800   -4.901000   -0.120700
  C     -3.205500   -5.216700    0.925300
  C     -3.536800   -4.250500    1.882100
  Cl    -4.630900   -4.654500    3.192400
  C     -2.995700   -2.962800    1.795400
  C     -2.121300   -2.640100    0.751800
  N     -1.595000   -1.391300    0.665000
  C     -0.742100   -1.031400   -0.331700
  N     -0.214500    0.300800   -0.344700
  C      0.639300    0.753700    0.754200
  C      1.986000    0.092400    0.659000
  C      3.006000    0.677000   -0.104400
  C      4.231300    0.023600   -0.265400
  C      4.449000   -1.234300    0.327700
  O      5.653700   -1.941200    0.187200
  C      6.780000   -1.507100   -0.571100
  F      6.423500   -1.326200   -1.894200
  F      7.765700   -2.472200   -0.501700
  F      7.276800   -0.325700   -0.049700
  C      3.426300   -1.815000    1.086300
  C      2.202100   -1.161300    1.248700
  S     -0.731700    1.426300   -1.562600
  O      0.457000    1.825700   -2.391400
  O     -1.760500    0.789700   -2.454400
  C     -1.449900    2.835500   -0.791100
  C     -1.094900    4.129300   -1.193700
  C     -1.655800    5.241800   -0.560000
  C     -2.581500    5.074800    0.486200
  C     -3.173500    6.249000    1.163400
  O     -2.873700    7.416800    0.796200
  O     -4.070500    6.074600    2.213900
  C     -2.937600    3.773100    0.880000
  C     -2.375800    2.662500    0.243800
  H      1.400000   -0.950400   -2.036400
  H      0.065600   -1.163500   -3.243700
  H      1.120500   -2.551300   -2.780700
  H     -0.632500   -4.008400   -1.988600
  H     -2.084900   -5.660100   -0.852300
  H     -3.622900   -6.213200    0.991700
  H     -3.254800   -2.216700    2.536700
  H      0.156900    0.519900    1.728400
  H      0.764400    1.857700    0.718800
  H      2.847700    1.633500   -0.585800
  H      4.994800    0.502800   -0.859900
  H      3.578200   -2.784200    1.543400
  H      1.417500   -1.639900    1.821400
  H     -0.383800    4.280400   -1.995400
  H     -1.362200    6.231700   -0.886900
  H     -4.481800    6.872000    2.684900
  H     -3.648000    3.611000    1.680200
  H     -2.659000    1.666700    0.561400

 Total Charge           Charge          ....    0
 Multiplicity           Mult            ....    1
 Number of Electrons    NEL             ....  282
 Basis Dimension        Dim             ....  562

ORBITAL ENERGIES
----------------

  NO   OCC          E(Eh)            E(eV)
   0   2.0000    -101.535892     -2762.9321
   1   2.0000     -89.106028     -2424.6983
   2   2.0000     -24.742087      -673.2664
   3   2.0000     -24.740067      -673.2114
   4   2.0000     -24.739420      -673.1938
   5   2.0000     -19.214434      -522.8513
   6   2.0000     -19.199542      -522.4461
   7   2.0000     -19.141334      -520.8622
   8   2.0000     -19.133592      -520.6515
   9   2.0000     -19.133126      -520.6388
  10   2.0000     -14.380137      -391.3034
  11   2.0000     -14.340729      -390.2311
  12   2.0000     -10.504932      -285.8537
  13   2.0000     -10.338866      -281.3348
  14   2.0000     -10.274562      -279.5851
  15   2.0000     -10.271315      -279.4967
  16   2.0000     -10.258395      -279.1451
  17   2.0000     -10.248478      -278.8753
  18   2.0000     -10.240883      -278.6686
  19   2.0000     -10.236428      -278.5474
  20   2.0000     -10.234497      -278.4948
  21   2.0000     -10.225076      -278.2385
  22   2.0000     -10.224879      -278.2331
  23   2.0000     -10.221926      -278.1527
  24   2.0000     -10.221761      -278.1483
  25   2.0000     -10.211403      -277.8664
  26   2.0000     -10.208023      -277.7744
  27   2.0000     -10.206748      -277.7397
  28   2.0000     -10.206337      -277.7286
  29   2.0000     -10.205832      -277.7148
  30   2.0000     -10.202818      -277.6328
  31   2.0000     -10.200660      -277.5741
  32   2.0000     -10.199909      -277.5536
  33   2.0000     -10.199488      -277.5422
  34   2.0000     -10.198234      -277.5081
  35   2.0000     -10.197105      -277.4773
  36   2.0000     -10.173017      -276.8219
  37   2.0000      -9.467677      -257.6286
  38   2.0000      -8.141741      -221.5480
  39   2.0000      -7.230734      -196.7583
  40   2.0000      -7.221308      -196.5018
  41   2.0000      -7.220935      -196.4916
  42   2.0000      -6.106949      -166.1785
  43   2.0000      -6.104615      -166.1150
  44   2.0000      -6.104359      -166.1080
  45   2.0000      -1.305189       -35.5160
  46   2.0000      -1.225910       -33.3587
  47   2.0000      -1.225161       -33.3383
  48   2.0000      -1.091697       -29.7066
  49   2.0000      -1.084607       -29.5136
  50   2.0000      -1.084306       -29.5055
  51   2.0000      -0.998553       -27.1720
  52   2.0000      -0.974020       -26.5044
  53   2.0000      -0.970167       -26.3996
  54   2.0000      -0.928968       -25.2785
  55   2.0000      -0.895613       -24.3709
  56   2.0000      -0.890849       -24.2412
  57   2.0000      -0.867764       -23.6131
  58   2.0000      -0.842185       -22.9170
  59   2.0000      -0.821997       -22.3677
  60   2.0000      -0.812057       -22.0972
  61   2.0000      -0.789409       -21.4809
  62   2.0000      -0.781318       -21.2607
  63   2.0000      -0.762524       -20.7493
  64   2.0000      -0.761347       -20.7173
  65   2.0000      -0.757688       -20.6177
  66   2.0000      -0.731989       -19.9184
  67   2.0000      -0.714279       -19.4365
  68   2.0000      -0.689073       -18.7506
  69   2.0000      -0.685338       -18.6490
  70   2.0000      -0.669514       -18.2184
  71   2.0000      -0.643001       -17.4969
  72   2.0000      -0.637090       -17.3361
  73   2.0000      -0.630251       -17.1500
  74   2.0000      -0.625679       -17.0256
  75   2.0000      -0.619424       -16.8554
  76   2.0000      -0.611755       -16.6467
  77   2.0000      -0.600915       -16.3517
  78   2.0000      -0.597153       -16.2494
  79   2.0000      -0.593179       -16.1412
  80   2.0000      -0.576235       -15.6801
  81   2.0000      -0.567172       -15.4335
  82   2.0000      -0.545234       -14.8366
  83   2.0000      -0.534056       -14.5324
  84   2.0000      -0.525468       -14.2987
  85   2.0000      -0.512440       -13.9442
  86   2.0000      -0.502818       -13.6824
  87   2.0000      -0.500111       -13.6087
  88   2.0000      -0.492970       -13.4144
  89   2.0000      -0.479948       -13.0600
  90   2.0000      -0.478730       -13.0269
  91   2.0000      -0.474515       -12.9122
  92   2.0000      -0.471617       -12.8333
  93   2.0000      -0.470808       -12.8113
  94   2.0000      -0.465086       -12.6556
  95   2.0000      -0.462471       -12.5845
  96   2.0000      -0.460149       -12.5213
  97   2.0000      -0.453922       -12.3518
  98   2.0000      -0.452134       -12.3032
  99   2.0000      -0.450720       -12.2647
 100   2.0000      -0.446522       -12.1505
 101   2.0000      -0.446215       -12.1421
 102   2.0000      -0.439216       -11.9517
 103   2.0000      -0.437068       -11.8932
 104   2.0000      -0.433476       -11.7955
 105   2.0000      -0.432870       -11.7790
 106   2.0000      -0.426628       -11.6091
 107   2.0000      -0.420986       -11.4556
 108   2.0000      -0.417215       -11.3530
 109   2.0000      -0.413907       -11.2630
 110   2.0000      -0.410740       -11.1768
 111   2.0000      -0.407994       -11.1021
 112   2.0000      -0.406769       -11.0687
 113   2.0000      -0.396755       -10.7963
 114   2.0000      -0.390817       -10.6347
 115   2.0000      -0.389817       -10.6075
 116   2.0000      -0.387187       -10.5359
 117   2.0000      -0.381723       -10.3872
 118   2.0000      -0.379666       -10.3312
 119   2.0000      -0.375218       -10.2102
 120   2.0000      -0.372582       -10.1385
 121   2.0000      -0.359832        -9.7915
 122   2.0000      -0.350769        -9.5449
 123   2.0000      -0.349765        -9.5176
 124   2.0000      -0.337763        -9.1910
 125   2.0000      -0.328189        -8.9305
 126   2.0000      -0.325437        -8.8556
 127   2.0000      -0.319400        -8.6913
 128   2.0000      -0.311520        -8.4769
 129   2.0000      -0.309715        -8.4278
 130   2.0000      -0.299901        -8.1607
 131   2.0000      -0.291466        -7.9312
 132   2.0000      -0.284383        -7.7384
 133   2.0000      -0.279820        -7.6143
 134   2.0000      -0.277756        -7.5581
 135   2.0000      -0.267910        -7.2902
 136   2.0000      -0.266344        -7.2476
 137   2.0000      -0.262793        -7.1510
 138   2.0000      -0.251953        -6.8560
 139   2.0000      -0.240868        -6.5544
 140   2.0000      -0.232778        -6.3342
 141   0.0000      -0.089614        -2.4385
 142   0.0000      -0.073589        -2.0025
 143   0.0000      -0.034986        -0.9520
 144   0.0000      -0.030333        -0.8254
 145   0.0000      -0.017188        -0.4677

MULLIKEN ATOMIC CHARGES
-----------------------
   0 C :   -0.542670
   1 C :    0.168592
   2 C :   -0.208428
   3 C :    0.172755
   4 C :   -0.194575
   5 C :   -0.136048
   6 C :   -0.072607
   7 Cl:   -0.008171
   8 C :   -0.153502
   9 C :    0.221054
  10 N :   -0.473611
  11 C :    0.348855
  12 N :   -0.620225
  13 C :   -0.254088
  14 C :    0.162661
  15 C :   -0.164530
  16 C :   -0.190419
  17 C :    0.354269
  18 O :   -0.545560
  19 C :    1.086299
  20 F :   -0.289566
  21 F :   -0.278842
  22 F :   -0.291538
  23 C :   -0.172305
  24 C :   -0.168516
  25 S :    1.218782
  26 O :   -0.546973
  27 O :   -0.535995
  28 C :   -0.131476
  29 C :   -0.146488
  30 C :   -0.139108
  31 C :    0.082965
  32 C :    0.529196
  33 O :   -0.442213
  34 O :   -0.623373
  35 C :   -0.147220
  36 C :   -0.150067
  37 H :    0.186821
  38 H :    0.203231
  39 H :    0.146329
  40 H :    0.145406
  41 H :    0.146364
  42 H :    0.156496
  43 H :    0.158704
  44 H :    0.178497
  45 H :    0.171052
  46 H :    0.158381
  47 H :    0.157062
  48 H :    0.149533
  49 H :    0.147991
  50 H :    0.192333
  51 H :    0.183539
  52 H :    0.435304
  53 H :    0.175590
  54 H :    0.190050
Sum of atomic charges:   -0.0000000

LOEWDIN ATOMIC CHARGES
----------------------
   0 C :   -0.362184
   1 C :   -0.013370
   2 C :   -0.092912
   3 C :   -0.024507
   4 C :   -0.112868
   5 C :   -0.130051
   6 C :   -0.085145
   7 Cl:    0.044128
   8 C :   -0.124149
   9 C :    0.015534
  10 N :   -0.135894
  11 C :    0.058338
  12 N :   -0.280166
  13 C :   -0.147219
  14 C :   -0.042176
  15 C :   -0.113567
  16 C :   -0.157156
  17 C :    0.087939
  18 O :   -0.159604
  19 C :    0.358864
  20 F :   -0.102828
  21 F :   -0.087261
  22 F :   -0.105116
  23 C :   -0.141088
  24 C :   -0.123205
  25 S :    1.262700
  26 O :   -0.576566
  27 O :   -0.566616
  28 C :   -0.174623
  29 C :   -0.100867
  30 C :   -0.084779
  31 C :   -0.037745
  32 C :    0.179618
  33 O :   -0.258275
  34 O :   -0.334059
  35 C :   -0.097907
  36 C :   -0.106013
  37 H :    0.150062
  38 H :    0.158190
  39 H :    0.128850
  40 H :    0.141461
  41 H :    0.140879
  42 H :    0.147178
  43 H :    0.153006
  44 H :    0.138603
  45 H :    0.141896
  46 H :    0.146007
  47 H :    0.144235
  48 H :    0.145616
  49 H :    0.141352
  50 H :    0.164571
  51 H :    0.161981
  52 H :    0.350652
  53 H :    0.156035
  54 H :    0.160221

  Mayer bond orders larger than 0.100000
B(  0-C ,  1-C ) :   1.0027 B(  0-C , 37-H ) :   0.9197 B(  0-C , 38-H ) :   0.9107
B(  0-C , 39-H ) :   0.9406 B(  1-C ,  2-C ) :   1.4711 B(  1-C , 11-C ) :   1.3021
B(  2-C ,  3-C ) :   1.2921 B(  2-C , 40-H ) :   0.9171 B(  3-C ,  4-C ) :   1.2769
B(  3-C ,  9-C ) :   1.2496 B(  4-C ,  5-C ) :   1.5121 B(  4-C ,  8-C ) :   0.1039
B(  4-C , 41-H ) :   0.9224 B(  5-C ,  6-C ) :   1.3168 B(  5-C , 42-H ) :   0.9233
B(  6-C ,  7-Cl) :   1.0190 B(  6-C ,  8-C ) :   1.4710 B(  8-C ,  9-C ) :   1.2963
B(  8-C , 43-H ) :   0.9130 B(  9-C , 10-N ) :   1.2457 B( 10-N , 11-C ) :   1.4329
B( 11-C , 12-N ) :   0.8986 B( 12-N , 13-C ) :   0.9206 B( 12-N , 25-S ) :   0.7919
B( 13-C , 14-C ) :   0.9522 B( 13-C , 44-H ) :   0.9177 B( 13-C , 45-H ) :   0.9217
B( 14-C , 15-C ) :   1.4281 B( 14-C , 24-C ) :   1.4349 B( 15-C , 16-C ) :   1.4338
B( 15-C , 46-H ) :   0.9147 B( 16-C , 17-C ) :   1.3886 B( 16-C , 47-H ) :   0.9088
B( 17-C , 18-O ) :   0.8263 B( 17-C , 23-C ) :   1.4206 B( 18-O , 19-C ) :   0.9890
B( 19-C , 20-F ) :   0.9705 B( 19-C , 21-F ) :   1.0083 B( 19-C , 22-F ) :   0.9687
B( 23-C , 24-C ) :   1.4332 B( 23-C , 48-H ) :   0.9180 B( 24-C , 49-H ) :   0.9189
B( 25-S , 26-O ) :   1.6310 B( 25-S , 27-O ) :   1.6551 B( 25-S , 28-C ) :   0.8103
B( 28-C , 29-C ) :   1.3926 B( 28-C , 36-C ) :   1.3840 B( 29-C , 30-C ) :   1.4183
B( 29-C , 50-H ) :   0.9076 B( 30-C , 31-C ) :   1.4022 B( 30-C , 51-H ) :   0.9087
B( 31-C , 32-C ) :   1.0072 B( 31-C , 35-C ) :   1.3838 B( 32-C , 33-O ) :   1.8643
B( 32-C , 34-O ) :   1.0263 B( 34-O , 52-H ) :   0.7411 B( 35-C , 36-C ) :   1.4276
B( 35-C , 53-H ) :   0.9143 B( 36-C , 54-H ) :   0.9038

FINAL SINGLE POINT ENERGY     -2605.856815666960

DIPOLE MOMENT
-------------

Method             : SCF
Type of density    : Electron Density
Multiplicity       :   1
Irrep              :   0
Energy             : -2605.8568156669603013 Eh
Relativity type    :
Basis              : AO
                                X                 Y                 Z
Electronic contribution:     20.544029159     -11.788512508       4.869095746
Nuclear contribution   :    -20.906265634      11.496644030      -3.622861347
                        -----------------------------------------
Total Dipole Moment    :     -0.362236475      -0.291868479       1.246234399
                        -----------------------------------------
Magnitude (a.u.)       :      1.330226541
Magnitude (Debye)      :      3.381167160

Rotational constants in cm-1:             0.002588             0.001922             0.001249
Rotational constants in MHz :            77.596061            57.618965            37.453689

                             ****ORCA TERMINATED NORMALLY****
TOTAL RUN TIME: 0 days 0 hours 11 minutes 42 seconds 587 msec
