                         Program Version 6.0.0  -   RELEASE  -
|  1> ! B3LYP 6-31G* SP
|  2>
|  3> * xyz 0 1
|  4> C 7.4394 2.0581 -2.0642
|  5> C 7.3144 1.0817 -0.9391
|  6> C 8.4774 0.5856 -0.2941
|  7> C 8.3533 -0.3212 0.7747
|  8> C 7.0674 -0.6913 1.1491
|  9> N 6.6900 -1.5214 2.1378
| 10> C 5.3296 -1.5032 2.0532
| 11> C 4.4650 -2.3200 2.9712
| 12> F 5.1927 -3.3814 3.4782
| 13> F 3.3731 -2.8228 2.2877
| 14> F 4.0316 -1.5353 4.0225
| 15> N 4.8632 -0.6833 1.0658
| 16> C 3.5090 -0.3949 0.6815
| 17> C 2.5868 0.0803 1.6233
| 18> C 1.2729 0.3692 1.2440
| 19> C 0.8572 0.1909 -0.0895
| 20> C -0.5352 0.4930 -0.5122
| 21> O -0.7880 0.6518 -1.7385
| 22> C -1.6456 0.6697 0.4912
| 23> N -2.9530 0.4406 -0.1239
| 24> C -3.4560 -0.7986 -0.5921
| 25> O -2.7380 -1.8144 -0.7890
| 26> N -4.8623 -0.7897 -0.7872
| 27> C -5.3789 0.5251 -0.3900
| 28> C -6.0100 1.2335 -1.6057
| 29> C -7.2910 0.5281 -2.0921
| 30> C -8.1732 -0.0341 -0.9511
| 31> F -9.5051 0.2054 -1.2450
| 32> F -7.9974 -1.4054 -0.8581
| 33> C -7.8437 0.6044 0.4038
| 34> C -6.3727 0.3818 0.8003
| 35> C -4.1187 1.2418 0.0371
| 36> O -4.0875 2.4195 0.4861
| 37> C 1.7946 -0.2663 -1.0340
| 38> C 3.1077 -0.5538 -0.6516
| 39> C 5.9798 -0.1979 0.5065
| 40> N 6.0730 0.6844 -0.5199
| 41> H 8.1054 1.6438 -2.8505
| 42> H 6.4444 2.2645 -2.5136
| 43> H 7.8669 3.0105 -1.6857
| 44> H 9.4615 0.9025 -0.6163
| 45> H 9.2239 -0.7106 1.2862
| 46> H 2.8910 0.2515 2.6467
| 47> H 0.5946 0.7517 1.9948
| 48> H -1.5225 -0.0452 1.3324
| 49> H -1.5908 1.7026 0.8956
| 50> H -5.4260 -1.6011 -1.1246
| 51> H -5.2799 1.2821 -2.4440
| 52> H -6.2616 2.2811 -1.3267
| 53> H -7.8770 1.2575 -2.6932
| 54> H -7.0121 -0.2993 -2.7808
| 55> H -8.5043 0.1760 1.1886
| 56> H -8.0519 1.6961 0.3533
| 57> H -6.1328 1.1092 1.6070
| 58> H -6.2723 -0.6284 1.2554
| 59> H 1.5109 -0.4109 -2.0691
| 60> H 3.8109 -0.9133 -1.3922
| 61> *
| 62>
| 63>                          ****END OF INPUT****

CARTESIAN COORDINATES (ANGSTROEM)
---------------------------------
  C      7.439400    2.058100   -2.064200
  C      7.314400    1.081700   -0.939100
  C      8.477400    0.585600   -0.294100
  C      8.353300   -0.321200    0.774700
  C      7.067400   -0.691300    1.149100
  N      6.690000   -1.521400    2.137800
  C      5.329600   -1.503200    2.053200
  C      4.465000   -2.320000    2.971200
  F      5.192700   -3.381400    3.478200
  F      3.373100   -2.822800    2.287700
  F      4.031600   -1.535300    4.022500
  N      4.863200   -0.683300    1.065800
  C      3.509000   -0.394900    0.681500
  C      2.586800    0.080300    1.623300
  C      1.272900    0.369200    1.244000
  C      0.857200    0.190900   -0.089500
  C     -0.535200    0.493000   -0.512200
  O     -0.788000    0.651800   -1.738500
  C     -1.645600    0.669700    0.491200
  N     -2.953000    0.440600   -0.123900
  C     -3.456000   -0.798600   -0.592100
  O     -2.738000   -1.814400   -0.789000
  N     -4.862300   -0.789700   -0.787200
  C     -5.378900    0.525100   -0.390000
  C     -6.010000    1.233500   -1.605700
  C     -7.291000    0.528100   -2.092100
  C     -8.173200   -0.034100   -0.951100
  F     -9.505100    0.205400   -1.245000
  F     -7.997400   -1.405400   -0.858100
  C     -7.843700    0.604400    0.403800
  C     -6.372700    0.381800    0.800300
  C     -4.118700    1.241800    0.037100
  O     -4.087500    2.419500    0.486100
  C      1.794600   -0.266300   -1.034000
  C      3.107700   -0.553800   -0.651600
  C      5.979800   -0.197900    0.506500
  N      6.073000    0.684400   -0.519900
  H      8.105400    1.643800   -2.850500
  H      6.444400    2.264500   -2.513600
  H      7.866900    3.010500   -1.685700
  H      9.461500    0.902500   -0.616300
  H      9.223900   -0.710600    1.286200
  H      2.891000    0.251500    2.646700
  H      0.594600    0.751700    1.994800
  H     -1.522500   -0.045200    1.332400
  H     -1.590800    1.702600    0.895600
  H     -5.426000   -1.601100   -1.124600
  H     -5.279900    1.282100   -2.444000
  H     -6.261600    2.281100   -1.326700
  H     -7.877000    1.257500   -2.693200
  H     -7.012100   -0.299300   -2.780800
  H     -8.504300    0.176000    1.188600
  H     -8.051900    1.696100    0.353300
  H     -6.132800    1.109200    1.607000
  H     -6.272300   -0.628400    1.255400
  H      1.510900   -0.410900   -2.069100
  H      3.810900   -0.913300   -1.392200

 Total Charge           Charge          ....    0
 Multiplicity           Mult            ....    1
 Number of Electrons    NEL             ....  268
 Basis Dimension        Dim             ....  558

ORBITAL ENERGIES
----------------

  NO   OCC          E(Eh)            E(eV)
   0   2.0000     -24.732241      -672.9985
   1   2.0000     -24.731799      -672.9865
   2   2.0000     -24.723880      -672.7710
   3   2.0000     -24.704656      -672.2479
   4   2.0000     -24.694192      -671.9631
   5   2.0000     -19.141992      -520.8801
   6   2.0000     -19.141929      -520.8784
   7   2.0000     -19.113496      -520.1047
   8   2.0000     -14.422664      -392.4607
   9   2.0000     -14.400360      -391.8537
  10   2.0000     -14.367268      -390.9532
  11   2.0000     -14.338309      -390.1652
  12   2.0000     -14.333414      -390.0320
  13   2.0000     -10.452240      -284.4199
  14   2.0000     -10.352646      -281.7098
  15   2.0000     -10.327308      -281.0203
  16   2.0000     -10.314564      -280.6736
  17   2.0000     -10.287621      -279.9404
  18   2.0000     -10.277715      -279.6709
  19   2.0000     -10.261818      -279.2383
  20   2.0000     -10.261816      -279.2382
  21   2.0000     -10.255700      -279.0718
  22   2.0000     -10.252641      -278.9886
  23   2.0000     -10.237393      -278.5736
  24   2.0000     -10.217435      -278.0305
  25   2.0000     -10.216578      -278.0072
  26   2.0000     -10.213531      -277.9243
  27   2.0000     -10.210334      -277.8373
  28   2.0000     -10.210253      -277.8351
  29   2.0000     -10.208773      -277.7948
  30   2.0000     -10.208136      -277.7775
  31   2.0000     -10.206785      -277.7407
  32   2.0000     -10.205816      -277.7144
  33   2.0000     -10.205135      -277.6958
  34   2.0000     -10.205034      -277.6931
  35   2.0000     -10.195280      -277.4277
  36   2.0000     -10.184608      -277.1373
  37   2.0000      -1.290669       -35.1209
  38   2.0000      -1.239524       -33.7292
  39   2.0000      -1.218469       -33.1562
  40   2.0000      -1.210888       -32.9499
  41   2.0000      -1.185787       -32.2669
  42   2.0000      -1.065887       -29.0043
  43   2.0000      -1.059169       -28.8215
  44   2.0000      -1.025320       -27.9004
  45   2.0000      -1.019544       -27.7432
  46   2.0000      -0.956779       -26.0353
  47   2.0000      -0.932600       -25.3773
  48   2.0000      -0.929636       -25.2967
  49   2.0000      -0.924032       -25.1442
  50   2.0000      -0.874183       -23.7877
  51   2.0000      -0.839469       -22.8431
  52   2.0000      -0.801530       -21.8108
  53   2.0000      -0.800170       -21.7737
  54   2.0000      -0.788348       -21.4520
  55   2.0000      -0.774537       -21.0762
  56   2.0000      -0.771635       -20.9973
  57   2.0000      -0.765939       -20.8422
  58   2.0000      -0.754596       -20.5336
  59   2.0000      -0.749077       -20.3834
  60   2.0000      -0.691984       -18.8298
  61   2.0000      -0.681968       -18.5573
  62   2.0000      -0.660872       -17.9833
  63   2.0000      -0.655773       -17.8445
  64   2.0000      -0.652492       -17.7552
  65   2.0000      -0.633352       -17.2344
  66   2.0000      -0.629330       -17.1249
  67   2.0000      -0.617026       -16.7901
  68   2.0000      -0.613115       -16.6837
  69   2.0000      -0.601072       -16.3560
  70   2.0000      -0.583691       -15.8830
  71   2.0000      -0.577468       -15.7137
  72   2.0000      -0.573430       -15.6038
  73   2.0000      -0.572316       -15.5735
  74   2.0000      -0.568224       -15.4622
  75   2.0000      -0.545174       -14.8349
  76   2.0000      -0.540695       -14.7131
  77   2.0000      -0.530868       -14.4457
  78   2.0000      -0.523974       -14.2580
  79   2.0000      -0.517919       -14.0933
  80   2.0000      -0.510877       -13.9017
  81   2.0000      -0.506878       -13.7929
  82   2.0000      -0.503409       -13.6985
  83   2.0000      -0.492863       -13.4115
  84   2.0000      -0.487868       -13.2756
  85   2.0000      -0.473877       -12.8949
  86   2.0000      -0.470838       -12.8122
  87   2.0000      -0.468791       -12.7565
  88   2.0000      -0.464269       -12.6334
  89   2.0000      -0.458503       -12.4765
  90   2.0000      -0.457148       -12.4396
  91   2.0000      -0.455594       -12.3974
  92   2.0000      -0.449798       -12.2396
  93   2.0000      -0.447066       -12.1653
  94   2.0000      -0.443589       -12.0707
  95   2.0000      -0.441964       -12.0265
  96   2.0000      -0.432769       -11.7762
  97   2.0000      -0.430812       -11.7230
  98   2.0000      -0.426528       -11.6064
  99   2.0000      -0.425525       -11.5791
 100   2.0000      -0.422093       -11.4857
 101   2.0000      -0.416943       -11.3456
 102   2.0000      -0.413234       -11.2447
 103   2.0000      -0.411447       -11.1960
 104   2.0000      -0.407019       -11.0756
 105   2.0000      -0.403484       -10.9794
 106   2.0000      -0.401019       -10.9123
 107   2.0000      -0.398772       -10.8511
 108   2.0000      -0.395382       -10.7589
 109   2.0000      -0.393709       -10.7134
 110   2.0000      -0.390802       -10.6343
 111   2.0000      -0.388859       -10.5814
 112   2.0000      -0.384638       -10.4665
 113   2.0000      -0.378576       -10.3016
 114   2.0000      -0.378087       -10.2883
 115   2.0000      -0.372718       -10.1422
 116   2.0000      -0.364463        -9.9175
 117   2.0000      -0.359116        -9.7720
 118   2.0000      -0.357321        -9.7232
 119   2.0000      -0.352588        -9.5944
 120   2.0000      -0.350332        -9.5330
 121   2.0000      -0.333024        -9.0620
 122   2.0000      -0.321438        -8.7468
 123   2.0000      -0.310943        -8.4612
 124   2.0000      -0.284019        -7.7285
 125   2.0000      -0.278545        -7.5796
 126   2.0000      -0.277336        -7.5467
 127   2.0000      -0.273656        -7.4465
 128   2.0000      -0.261422        -7.1136
 129   2.0000      -0.257651        -7.0110
 130   2.0000      -0.254404        -6.9227
 131   2.0000      -0.254049        -6.9130
 132   2.0000      -0.250001        -6.8029
 133   2.0000      -0.241794        -6.5795
 134   0.0000      -0.077301        -2.1035
 135   0.0000      -0.052099        -1.4177
 136   0.0000      -0.027200        -0.7402
 137   0.0000      -0.024478        -0.6661
 138   0.0000      -0.005383        -0.1465

MULLIKEN ATOMIC CHARGES
-----------------------
   0 C :   -0.518586
   1 C :    0.269257
   2 C :   -0.186773
   3 C :   -0.133828
   4 C :    0.214507
   5 N :   -0.436272
   6 C :    0.228000
   7 C :    0.942009
   8 F :   -0.286661
   9 F :   -0.295693
  10 F :   -0.294528
  11 N :   -0.514048
  12 C :    0.262020
  13 C :   -0.147528
  14 C :   -0.189972
  15 C :    0.099908
  16 C :    0.374050
  17 O :   -0.424200
  18 C :   -0.231598
  19 N :   -0.440494
  20 C :    0.701257
  21 O :   -0.491622
  22 N :   -0.651277
  23 C :    0.160919
  24 C :   -0.271767
  25 C :   -0.375695
  26 C :    0.734023
  27 F :   -0.339002
  28 F :   -0.338904
  29 C :   -0.359874
  30 C :   -0.301504
  31 C :    0.512419
  32 O :   -0.475715
  33 C :   -0.159621
  34 C :   -0.121112
  35 C :    0.381172
  36 N :   -0.465687
  37 H :    0.163719
  38 H :    0.176664
  39 H :    0.168351
  40 H :    0.134713
  41 H :    0.156262
  42 H :    0.159568
  43 H :    0.146947
  44 H :    0.189674
  45 H :    0.219762
  46 H :    0.356772
  47 H :    0.168994
  48 H :    0.167668
  49 H :    0.174817
  50 H :    0.166773
  51 H :    0.168821
  52 H :    0.164470
  53 H :    0.176586
  54 H :    0.169389
  55 H :    0.177428
  56 H :    0.165040
Sum of atomic charges:   -0.0000000

LOEWDIN ATOMIC CHARGES
----------------------
   0 C :   -0.358123
   1 C :    0.036455
   2 C :   -0.155096
   3 C :   -0.091088
   4 C :   -0.039399
   5 N :   -0.136550
   6 C :    0.002254
   7 C :    0.307297
   8 F :   -0.092493
   9 F :   -0.104311
  10 F :   -0.106788
  11 N :    0.051906
  12 C :    0.042510
  13 C :   -0.126534
  14 C :   -0.113927
  15 C :   -0.048075
  16 C :    0.138019
  17 O :   -0.217015
  18 C :   -0.166428
  19 N :   -0.046346
  20 C :    0.159285
  21 O :   -0.300564
  22 N :   -0.234975
  23 C :    0.003275
  24 C :   -0.219076
  25 C :   -0.258078
  26 C :    0.222594
  27 F :   -0.139815
  28 F :   -0.145783
  29 C :   -0.251946
  30 C :   -0.226089
  31 C :    0.157405
  32 O :   -0.268600
  33 C :   -0.080052
  34 C :   -0.107813
  35 C :    0.023098
  36 N :   -0.157905
  37 H :    0.139936
  38 H :    0.145528
  39 H :    0.142733
  40 H :    0.136855
  41 H :    0.149085
  42 H :    0.146529
  43 H :    0.140009
  44 H :    0.150481
  45 H :    0.175454
  46 H :    0.275852
  47 H :    0.143084
  48 H :    0.137300
  49 H :    0.148925
  50 H :    0.138679
  51 H :    0.144406
  52 H :    0.139527
  53 H :    0.145072
  54 H :    0.137857
  55 H :    0.158905
  56 H :    0.152554

  Mayer bond orders larger than 0.100000
B(  0-C ,  1-C ) :   1.0004 B(  0-C , 37-H ) :   0.9377 B(  0-C , 38-H ) :   0.9416
B(  0-C , 39-H ) :   0.9346 B(  1-C ,  2-C ) :   1.3277 B(  1-C , 36-N ) :   1.4597
B(  2-C ,  3-C ) :   1.4879 B(  2-C , 40-H ) :   0.9260 B(  3-C ,  4-C ) :   1.3368
B(  3-C , 41-H ) :   0.9176 B(  4-C ,  5-N ) :   1.2305 B(  4-C , 35-C ) :   1.2748
B(  5-N ,  6-C ) :   1.5199 B(  6-C ,  7-C ) :   0.9588 B(  6-C , 11-N ) :   1.1136
B(  7-C ,  8-F ) :   0.9708 B(  7-C ,  9-F ) :   0.9480 B(  7-C , 10-F ) :   0.9533
B( 11-N , 12-C ) :   0.8491 B( 11-N , 35-C ) :   1.0552 B( 12-C , 13-C ) :   1.4184
B( 12-C , 34-C ) :   1.4127 B( 13-C , 14-C ) :   1.4337 B( 13-C , 42-H ) :   0.9090
B( 14-C , 15-C ) :   1.3849 B( 14-C , 43-H ) :   0.9173 B( 15-C , 16-C ) :   0.9935
B( 15-C , 33-C ) :   1.3901 B( 16-C , 17-O ) :   1.8925 B( 16-C , 18-C ) :   0.9177
B( 18-C , 19-N ) :   0.9309 B( 18-C , 44-H ) :   0.9114 B( 18-C , 45-H ) :   0.8928
B( 19-N , 20-C ) :   0.9638 B( 19-N , 31-C ) :   1.0435 B( 20-C , 21-O ) :   1.8550
B( 20-C , 22-N ) :   1.0613 B( 22-N , 23-C ) :   0.9039 B( 22-N , 46-H ) :   0.8034
B( 23-C , 24-C ) :   0.9852 B( 23-C , 30-C ) :   0.9462 B( 23-C , 31-C ) :   0.9291
B( 24-C , 25-C ) :   0.9835 B( 24-C , 47-H ) :   0.9278 B( 24-C , 48-H ) :   0.9208
B( 25-C , 26-C ) :   0.9720 B( 25-C , 49-H ) :   0.9237 B( 25-C , 50-H ) :   0.9266
B( 26-C , 27-F ) :   0.9062 B( 26-C , 28-F ) :   0.8923 B( 26-C , 29-C ) :   0.9950
B( 29-C , 30-C ) :   0.9763 B( 29-C , 51-H ) :   0.9263 B( 29-C , 52-H ) :   0.9236
B( 30-C , 53-H ) :   0.9215 B( 30-C , 54-H ) :   0.9327 B( 31-C , 32-O ) :   1.8456
B( 33-C , 34-C ) :   1.4233 B( 33-C , 55-H ) :   0.9094 B( 34-C , 56-H ) :   0.9150
B( 35-C , 36-N ) :   1.3229

FINAL SINGLE POINT ENERGY     -1924.227987624581

DIPOLE MOMENT
-------------

Method             : SCF
Type of density    : Electron Density
Multiplicity       :   1
Irrep              :   0
Energy             : -1924.2279876245809191 Eh
Relativity type    :
Basis              : AO
                                X                 Y                 Z
Electronic contribution:     11.662936486     -23.530474771      19.546995392
Nuclear contribution   :    -11.643785157      24.608692685     -19.540766182
                        -----------------------------------------
Total Dipole Moment    :      0.019151329       1.078217913       0.006229210
                        -----------------------------------------
Magnitude (a.u.)       :      1.078405974
Magnitude (Debye)      :      2.741090148

Rotational constants in cm-1:             0.008998             0.001012             0.000949
Rotational constants in MHz :           269.762136            30.328828            28.464757

                             ****ORCA TERMINATED NORMALLY****
TOTAL RUN TIME: 0 days 0 hours 6 minutes 38 seconds 754 msec
