                         Program Version 6.0.0  -   RELEASE  -
|  1> ! B3LYP 6-31G* SP
|  2>
|  3> * xyz 0 1
|  4> O 1.4998 -1.9588 -1.5041
|  5> C 1.2175 -1.2760 -0.4812
|  6> N 2.2730 -0.6212 0.2438
|  7> C 3.6505 -1.0329 0.1932
|  8> C 4.6623 -0.0808 0.3861
|  9> C 6.0081 -0.4591 0.3678
| 10> C 6.3642 -1.8068 0.1677
| 11> O 7.6985 -2.2435 0.1365
| 12> C 8.8425 -1.4101 0.3107
| 13> F 8.8114 -0.8141 1.5586
| 14> F 9.9810 -2.1865 0.2160
| 15> F 8.8813 -0.4404 -0.6753
| 16> C 5.3529 -2.7592 -0.0036
| 17> C 4.0072 -2.3813 0.0157
| 18> N -0.1596 -1.1370 -0.0677
| 19> C -1.2330 -1.7220 -0.8873
| 20> C -2.5015 -0.8481 -0.8851
| 21> C -2.7768 -0.1000 0.4569
| 22> C -1.9614 -0.7298 1.6034
| 23> C -0.4606 -0.6647 1.2934
| 24> C -4.2822 -0.1390 0.8206
| 25> C -5.1397 0.6420 -0.1926
| 26> O -6.4386 0.7662 0.3318
| 27> C -4.5542 2.0110 -0.4728
| 28> C -5.3379 3.0188 -1.0636
| 29> C -4.7843 4.2716 -1.3435
| 30> C -3.4422 4.5256 -1.0533
| 31> C -2.6451 3.5237 -0.4938
| 32> F -1.3386 3.7728 -0.2279
| 33> C -3.1898 2.2635 -0.2181
| 34> O -2.3697 1.2672 0.3247
| 35> H 2.0491 0.2571 0.7618
| 36> H 4.4068 0.9599 0.5425
| 37> H 6.7592 0.3047 0.5109
| 38> H 5.6119 -3.8013 -0.1423
| 39> H 3.2493 -3.1468 -0.0835
| 40> H -1.4779 -2.7293 -0.4849
| 41> H -0.9082 -1.8546 -1.9421
| 42> H -2.4234 -0.1073 -1.7099
| 43> H -3.3516 -1.5142 -1.1471
| 44> H -2.1533 -0.1878 2.5557
| 45> H -2.2645 -1.7905 1.7503
| 46> H 0.0901 -1.2829 2.0353
| 47> H -0.1285 0.3901 1.3999
| 48> H -4.6404 -1.1904 0.8780
| 49> H -4.4254 0.3166 1.8261
| 50> H -5.1613 0.0728 -1.1520
| 51> H -7.0742 0.6702 -0.4252
| 52> H -6.3773 2.8391 -1.3065
| 53> H -5.3967 5.0455 -1.7878
| 54> H -3.0186 5.4979 -1.2685
| 55> *
| 56>
| 57>                          ****END OF INPUT****

CARTESIAN COORDINATES (ANGSTROEM)
---------------------------------
  O      1.499800   -1.958800   -1.504100
  C      1.217500   -1.276000   -0.481200
  N      2.273000   -0.621200    0.243800
  C      3.650500   -1.032900    0.193200
  C      4.662300   -0.080800    0.386100
  C      6.008100   -0.459100    0.367800
  C      6.364200   -1.806800    0.167700
  O      7.698500   -2.243500    0.136500
  C      8.842500   -1.410100    0.310700
  F      8.811400   -0.814100    1.558600
  F      9.981000   -2.186500    0.216000
  F      8.881300   -0.440400   -0.675300
  C      5.352900   -2.759200   -0.003600
  C      4.007200   -2.381300    0.015700
  N     -0.159600   -1.137000   -0.067700
  C     -1.233000   -1.722000   -0.887300
  C     -2.501500   -0.848100   -0.885100
  C     -2.776800   -0.100000    0.456900
  C     -1.961400   -0.729800    1.603400
  C     -0.460600   -0.664700    1.293400
  C     -4.282200   -0.139000    0.820600
  C     -5.139700    0.642000   -0.192600
  O     -6.438600    0.766200    0.331800
  C     -4.554200    2.011000   -0.472800
  C     -5.337900    3.018800   -1.063600
  C     -4.784300    4.271600   -1.343500
  C     -3.442200    4.525600   -1.053300
  C     -2.645100    3.523700   -0.493800
  F     -1.338600    3.772800   -0.227900
  C     -3.189800    2.263500   -0.218100
  O     -2.369700    1.267200    0.324700
  H      2.049100    0.257100    0.761800
  H      4.406800    0.959900    0.542500
  H      6.759200    0.304700    0.510900
  H      5.611900   -3.801300   -0.142300
  H      3.249300   -3.146800   -0.083500
  H     -1.477900   -2.729300   -0.484900
  H     -0.908200   -1.854600   -1.942100
  H     -2.423400   -0.107300   -1.709900
  H     -3.351600   -1.514200   -1.147100
  H     -2.153300   -0.187800    2.555700
  H     -2.264500   -1.790500    1.750300
  H      0.090100   -1.282900    2.035300
  H     -0.128500    0.390100    1.399900
  H     -4.640400   -1.190400    0.878000
  H     -4.425400    0.316600    1.826100
  H     -5.161300    0.072800   -1.152000
  H     -7.074200    0.670200   -0.425200
  H     -6.377300    2.839100   -1.306500
  H     -5.396700    5.045500   -1.787800
  H     -3.018600    5.497900   -1.268500

 Total Charge           Charge          ....    0
 Multiplicity           Mult            ....    1
 Number of Electrons    NEL             ....  228
 Basis Dimension        Dim             ....  474

ORBITAL ENERGIES
----------------

  NO   OCC          E(Eh)            E(eV)
   0   2.0000     -24.734012      -673.0467
   1   2.0000     -24.731767      -672.9856
   2   2.0000     -24.731388      -672.9753
   3   2.0000     -24.698198      -672.0721
   4   2.0000     -19.202125      -522.5164
   5   2.0000     -19.171865      -521.6930
   6   2.0000     -19.152848      -521.1755
   7   2.0000     -19.097317      -519.6644
   8   2.0000     -14.364840      -390.8872
   9   2.0000     -14.355701      -390.6385
  10   2.0000     -10.495640      -285.6009
  11   2.0000     -10.312714      -280.6232
  12   2.0000     -10.269867      -279.4573
  13   2.0000     -10.262931      -279.2686
  14   2.0000     -10.255709      -279.0720
  15   2.0000     -10.254669      -279.0437
  16   2.0000     -10.249806      -278.9114
  17   2.0000     -10.230920      -278.3975
  18   2.0000     -10.225808      -278.2584
  19   2.0000     -10.219750      -278.0935
  20   2.0000     -10.201926      -277.6085
  21   2.0000     -10.195495      -277.4335
  22   2.0000     -10.192267      -277.3457
  23   2.0000     -10.191351      -277.3208
  24   2.0000     -10.190849      -277.3071
  25   2.0000     -10.189435      -277.2686
  26   2.0000     -10.188901      -277.2541
  27   2.0000     -10.188608      -277.2461
  28   2.0000     -10.187430      -277.2141
  29   2.0000     -10.187309      -277.2108
  30   2.0000     -10.183930      -277.1188
  31   2.0000      -1.296713       -35.2854
  32   2.0000      -1.217569       -33.1317
  33   2.0000      -1.217143       -33.1201
  34   2.0000      -1.210889       -32.9500
  35   2.0000      -1.072181       -29.1755
  36   2.0000      -1.059117       -28.8200
  37   2.0000      -1.033533       -28.1239
  38   2.0000      -1.014516       -27.6064
  39   2.0000      -0.921783       -25.0830
  40   2.0000      -0.912442       -24.8288
  41   2.0000      -0.859965       -23.4008
  42   2.0000      -0.844621       -22.9833
  43   2.0000      -0.820320       -22.3220
  44   2.0000      -0.781477       -21.2651
  45   2.0000      -0.770121       -20.9560
  46   2.0000      -0.756866       -20.5954
  47   2.0000      -0.748120       -20.3574
  48   2.0000      -0.744573       -20.2609
  49   2.0000      -0.732919       -19.9437
  50   2.0000      -0.694978       -18.9113
  51   2.0000      -0.663880       -18.0651
  52   2.0000      -0.653736       -17.7891
  53   2.0000      -0.644635       -17.5414
  54   2.0000      -0.632154       -17.2018
  55   2.0000      -0.620235       -16.8774
  56   2.0000      -0.610089       -16.6014
  57   2.0000      -0.600950       -16.3527
  58   2.0000      -0.588796       -16.0220
  59   2.0000      -0.585942       -15.9443
  60   2.0000      -0.576093       -15.6763
  61   2.0000      -0.563522       -15.3342
  62   2.0000      -0.553461       -15.0605
  63   2.0000      -0.540655       -14.7120
  64   2.0000      -0.537974       -14.6390
  65   2.0000      -0.527861       -14.3638
  66   2.0000      -0.520502       -14.1636
  67   2.0000      -0.500788       -13.6271
  68   2.0000      -0.493907       -13.4399
  69   2.0000      -0.481324       -13.0975
  70   2.0000      -0.477008       -12.9800
  71   2.0000      -0.472535       -12.8583
  72   2.0000      -0.466584       -12.6964
  73   2.0000      -0.462551       -12.5867
  74   2.0000      -0.459241       -12.4966
  75   2.0000      -0.456983       -12.4352
  76   2.0000      -0.455185       -12.3862
  77   2.0000      -0.453841       -12.3497
  78   2.0000      -0.446274       -12.1437
  79   2.0000      -0.437888       -11.9155
  80   2.0000      -0.437336       -11.9005
  81   2.0000      -0.433348       -11.7920
  82   2.0000      -0.428847       -11.6695
  83   2.0000      -0.425582       -11.5807
  84   2.0000      -0.419959       -11.4277
  85   2.0000      -0.413566       -11.2537
  86   2.0000      -0.409312       -11.1379
  87   2.0000      -0.405694       -11.0395
  88   2.0000      -0.399266       -10.8646
  89   2.0000      -0.397914       -10.8278
  90   2.0000      -0.396028       -10.7765
  91   2.0000      -0.390536       -10.6270
  92   2.0000      -0.386490       -10.5169
  93   2.0000      -0.383905       -10.4466
  94   2.0000      -0.382664       -10.4128
  95   2.0000      -0.378483       -10.2990
  96   2.0000      -0.371325       -10.1043
  97   2.0000      -0.365074        -9.9342
  98   2.0000      -0.363638        -9.8951
  99   2.0000      -0.356251        -9.6941
 100   2.0000      -0.345031        -9.3888
 101   2.0000      -0.343697        -9.3525
 102   2.0000      -0.341407        -9.2901
 103   2.0000      -0.333261        -9.0685
 104   2.0000      -0.313867        -8.5407
 105   2.0000      -0.306922        -8.3518
 106   2.0000      -0.282500        -7.6872
 107   2.0000      -0.281442        -7.6584
 108   2.0000      -0.256528        -6.9805
 109   2.0000      -0.244985        -6.6664
 110   2.0000      -0.243036        -6.6133
 111   2.0000      -0.226588        -6.1658
 112   2.0000      -0.222486        -6.0541
 113   2.0000      -0.205913        -5.6032
 114   0.0000      -0.011195        -0.3046
 115   0.0000      -0.003824        -0.1040
 116   0.0000      -0.000596        -0.0162
 117   0.0000       0.004840         0.1317
 118   0.0000       0.042092         1.1454

MULLIKEN ATOMIC CHARGES
-----------------------
   0 O :   -0.496257
   1 C :    0.686066
   2 N :   -0.728859
   3 C :    0.352693
   4 C :   -0.188564
   5 C :   -0.191734
   6 C :    0.348113
   7 O :   -0.547975
   8 C :    1.084125
   9 F :   -0.293396
  10 F :   -0.280861
  11 F :   -0.292032
  12 C :   -0.182866
  13 C :   -0.133807
  14 N :   -0.446454
  15 C :   -0.124743
  16 C :   -0.310429
  17 C :    0.344814
  18 C :   -0.321044
  19 C :   -0.120458
  20 C :   -0.315560
  21 C :    0.061178
  22 O :   -0.618879
  23 C :    0.108287
  24 C :   -0.182929
  25 C :   -0.120893
  26 C :   -0.210538
  27 C :    0.353094
  28 F :   -0.313814
  29 C :    0.243513
  30 O :   -0.550767
  31 H :    0.331089
  32 H :    0.132358
  33 H :    0.150255
  34 H :    0.148574
  35 H :    0.157267
  36 H :    0.137963
  37 H :    0.189788
  38 H :    0.165481
  39 H :    0.137743
  40 H :    0.158322
  41 H :    0.152646
  42 H :    0.147632
  43 H :    0.156163
  44 H :    0.140278
  45 H :    0.157208
  46 H :    0.132271
  47 H :    0.402036
  48 H :    0.114371
  49 H :    0.133040
  50 H :    0.146491
Sum of atomic charges:    0.0000000

LOEWDIN ATOMIC CHARGES
----------------------
   0 O :   -0.312272
   1 C :    0.163918
   2 N :   -0.228305
   3 C :    0.039661
   4 C :   -0.144981
   5 C :   -0.157403
   6 C :    0.072988
   7 O :   -0.162515
   8 C :    0.358202
   9 F :   -0.106709
  10 F :   -0.089054
  11 F :   -0.105732
  12 C :   -0.137124
  13 C :   -0.121076
  14 N :   -0.126793
  15 C :   -0.145458
  16 C :   -0.242518
  17 C :    0.079720
  18 C :   -0.226224
  19 C :   -0.154433
  20 C :   -0.231504
  21 C :   -0.014736
  22 O :   -0.383339
  23 C :   -0.060299
  24 C :   -0.129358
  25 C :   -0.137608
  26 C :   -0.153433
  27 C :    0.097673
  28 F :   -0.101337
  29 C :    0.055918
  30 O :   -0.173099
  31 H :    0.256512
  32 H :    0.134414
  33 H :    0.141639
  34 H :    0.145736
  35 H :    0.150082
  36 H :    0.112009
  37 H :    0.154074
  38 H :    0.137877
  39 H :    0.125520
  40 H :    0.139198
  41 H :    0.132791
  42 H :    0.121100
  43 H :    0.122975
  44 H :    0.129320
  45 H :    0.134787
  46 H :    0.112752
  47 H :    0.318683
  48 H :    0.127566
  49 H :    0.134688
  50 H :    0.145504

  Mayer bond orders larger than 0.100000
B(  0-O ,  1-C ) :   1.7839 B(  1-C ,  2-N ) :   0.9930 B(  1-C , 14-N ) :   1.0658
B(  2-N ,  3-C ) :   0.8780 B(  2-N , 31-H ) :   0.8191 B(  3-C ,  4-C ) :   1.4065
B(  3-C , 13-C ) :   1.4158 B(  4-C ,  5-C ) :   1.4392 B(  4-C , 32-H ) :   0.9227
B(  5-C ,  6-C ) :   1.3981 B(  5-C , 33-H ) :   0.9096 B(  6-C ,  7-O ) :   0.8140
B(  6-C , 12-C ) :   1.4081 B(  7-O ,  8-C ) :   0.9978 B(  8-C ,  9-F ) :   0.9666
B(  8-C , 10-F ) :   1.0062 B(  8-C , 11-F ) :   0.9674 B( 12-C , 13-C ) :   1.4467
B( 12-C , 34-H ) :   0.9187 B( 13-C , 35-H ) :   0.9101 B( 14-N , 15-C ) :   0.9411
B( 14-N , 19-C ) :   0.9352 B( 15-C , 16-C ) :   0.9875 B( 15-C , 36-H ) :   0.9339
B( 15-C , 37-H ) :   0.9192 B( 16-C , 17-C ) :   0.9500 B( 16-C , 38-H ) :   0.9312
B( 16-C , 39-H ) :   0.9261 B( 17-C , 18-C ) :   0.9989 B( 17-C , 20-C ) :   0.9759
B( 17-C , 30-O ) :   0.8278 B( 18-C , 19-C ) :   1.0043 B( 18-C , 40-H ) :   0.9270
B( 18-C , 41-H ) :   0.9263 B( 19-C , 42-H ) :   0.9247 B( 19-C , 43-H ) :   0.9181
B( 20-C , 21-C ) :   0.9868 B( 20-C , 44-H ) :   0.9253 B( 20-C , 45-H ) :   0.9232
B( 21-C , 22-O ) :   0.9575 B( 21-C , 23-C ) :   0.9331 B( 21-C , 46-H ) :   0.9182
B( 22-O , 47-H ) :   0.7840 B( 23-C , 24-C ) :   1.4042 B( 23-C , 29-C ) :   1.3563
B( 24-C , 25-C ) :   1.4492 B( 24-C , 48-H ) :   0.9248 B( 25-C , 26-C ) :   1.4209
B( 25-C , 49-H ) :   0.9302 B( 26-C , 27-C ) :   1.4107 B( 26-C , 50-H ) :   0.9197
B( 27-C , 28-F ) :   0.9317 B( 27-C , 29-C ) :   1.2920 B( 29-C , 30-O ) :   0.9100

FINAL SINGLE POINT ENERGY     -1621.134037693036

DIPOLE MOMENT
-------------

Method             : SCF
Type of density    : Electron Density
Multiplicity       :   1
Irrep              :   0
Energy             : -1621.1340376930363618 Eh
Relativity type    :
Basis              : AO
                                X                 Y                 Z
Electronic contribution:     63.539348718       1.943483319       0.188596981
Nuclear contribution   :    -65.956882726      -1.657856258       0.263357797
                        -----------------------------------------
Total Dipole Moment    :     -2.417534007       0.285627061       0.451954778
                        -----------------------------------------
Magnitude (a.u.)       :      2.475947620
Magnitude (Debye)      :      6.293358708

Rotational constants in cm-1:             0.012820             0.001360             0.001276
Rotational constants in MHz :           384.332278            40.769072            38.240608

                             ****ORCA TERMINATED NORMALLY****
TOTAL RUN TIME: 0 days 0 hours 4 minutes 32 seconds 394 msec
