                         Program Version 6.0.0  -   RELEASE  -
|  1> ! B3LYP 6-31G* SP
|  2>
|  3> * xyz 0 1
|  4> C -4.4695 -0.9481 -1.1348
|  5> C -3.3934 -1.6275 -0.2656
|  6> C -4.0759 -2.2118 0.9886
|  7> C -2.7258 -2.7813 -1.0400
|  8> N -2.3789 -0.6411 0.1555
|  9> C -1.5513 0.1264 -0.7406
| 10> O -1.6107 -0.0653 -1.9848
| 11> N -0.6122 1.0884 -0.2224
| 12> C -0.9248 1.8356 1.0004
| 13> C -0.4872 3.2871 0.8510
| 14> C 0.9441 3.3827 0.4040
| 15> C 1.6864 4.5332 0.7170
| 16> C 2.9917 4.6829 0.2447
| 17> C 3.5605 3.6968 -0.5611
| 18> C 2.8272 2.5562 -0.8941
| 19> C 1.5173 2.3804 -0.4107
| 20> C 0.7480 1.1244 -0.7913
| 21> C 1.4964 -0.1288 -0.3770
| 22> C 1.9739 -0.2852 0.9359
| 23> C 2.6173 -1.4643 1.3206
| 24> C 2.8028 -2.5084 0.3991
| 25> C 3.4484 -3.8013 0.8296
| 26> F 4.0850 -4.4092 -0.2387
| 27> F 4.3885 -3.5722 1.8195
| 28> F 2.4769 -4.6538 1.3195
| 29> C 2.2904 -2.3675 -0.9014
| 30> C 1.6485 -1.1876 -1.2868
| 31> H -4.9022 -0.0761 -0.5988
| 32> H -5.2897 -1.6606 -1.3696
| 33> H -4.0505 -0.5923 -2.0979
| 34> H -4.5612 -1.4038 1.5779
| 35> H -3.3281 -2.7151 1.6390
| 36> H -4.8530 -2.9561 0.7093
| 37> H -2.3148 -2.4389 -2.0111
| 38> H -3.4623 -3.5854 -1.2553
| 39> H -1.8948 -3.2146 -0.4427
| 40> H -2.2063 -0.5202 1.1792
| 41> H -2.0191 1.8283 1.1982
| 42> H -0.4107 1.3680 1.8668
| 43> H -0.6251 3.8033 1.8262
| 44> H -1.1300 3.7897 0.0963
| 45> H 1.2507 5.3190 1.3218
| 46> H 3.5587 5.5704 0.4944
| 47> H 4.5695 3.8186 -0.9335
| 48> H 3.2815 1.8044 -1.5279
| 49> H 0.6608 1.1563 -1.9006
| 50> H 1.8482 0.5054 1.6642
| 51> H 2.9651 -1.5619 2.3414
| 52> H 2.3802 -3.1731 -1.6194
| 53> H 1.2595 -1.1058 -2.2941
| 54> *
| 55>
| 56>                          ****END OF INPUT****

CARTESIAN COORDINATES (ANGSTROEM)
---------------------------------
  C     -4.469500   -0.948100   -1.134800
  C     -3.393400   -1.627500   -0.265600
  C     -4.075900   -2.211800    0.988600
  C     -2.725800   -2.781300   -1.040000
  N     -2.378900   -0.641100    0.155500
  C     -1.551300    0.126400   -0.740600
  O     -1.610700   -0.065300   -1.984800
  N     -0.612200    1.088400   -0.222400
  C     -0.924800    1.835600    1.000400
  C     -0.487200    3.287100    0.851000
  C      0.944100    3.382700    0.404000
  C      1.686400    4.533200    0.717000
  C      2.991700    4.682900    0.244700
  C      3.560500    3.696800   -0.561100
  C      2.827200    2.556200   -0.894100
  C      1.517300    2.380400   -0.410700
  C      0.748000    1.124400   -0.791300
  C      1.496400   -0.128800   -0.377000
  C      1.973900   -0.285200    0.935900
  C      2.617300   -1.464300    1.320600
  C      2.802800   -2.508400    0.399100
  C      3.448400   -3.801300    0.829600
  F      4.085000   -4.409200   -0.238700
  F      4.388500   -3.572200    1.819500
  F      2.476900   -4.653800    1.319500
  C      2.290400   -2.367500   -0.901400
  C      1.648500   -1.187600   -1.286800
  H     -4.902200   -0.076100   -0.598800
  H     -5.289700   -1.660600   -1.369600
  H     -4.050500   -0.592300   -2.097900
  H     -4.561200   -1.403800    1.577900
  H     -3.328100   -2.715100    1.639000
  H     -4.853000   -2.956100    0.709300
  H     -2.314800   -2.438900   -2.011100
  H     -3.462300   -3.585400   -1.255300
  H     -1.894800   -3.214600   -0.442700
  H     -2.206300   -0.520200    1.179200
  H     -2.019100    1.828300    1.198200
  H     -0.410700    1.368000    1.866800
  H     -0.625100    3.803300    1.826200
  H     -1.130000    3.789700    0.096300
  H      1.250700    5.319000    1.321800
  H      3.558700    5.570400    0.494400
  H      4.569500    3.818600   -0.933500
  H      3.281500    1.804400   -1.527900
  H      0.660800    1.156300   -1.900600
  H      1.848200    0.505400    1.664200
  H      2.965100   -1.561900    2.341400
  H      2.380200   -3.173100   -1.619400
  H      1.259500   -1.105800   -2.294100

 Total Charge           Charge          ....    0
 Multiplicity           Mult            ....    1
 Number of Electrons    NEL             ....  198
 Basis Dimension        Dim             ....  424

ORBITAL ENERGIES
----------------

  NO   OCC          E(Eh)            E(eV)
   0   2.0000     -24.713991      -672.5019
   1   2.0000     -24.713567      -672.4903
   2   2.0000     -24.710213      -672.3991
   3   2.0000     -19.097966      -519.6821
   4   2.0000     -14.348763      -390.4497
   5   2.0000     -14.347633      -390.4189
   6   2.0000     -10.428491      -283.7737
   7   2.0000     -10.309739      -280.5423
   8   2.0000     -10.232377      -278.4371
   9   2.0000     -10.228061      -278.3197
  10   2.0000     -10.225242      -278.2430
  11   2.0000     -10.207071      -277.7485
  12   2.0000     -10.199719      -277.5485
  13   2.0000     -10.197601      -277.4908
  14   2.0000     -10.197410      -277.4856
  15   2.0000     -10.195800      -277.4418
  16   2.0000     -10.194340      -277.4021
  17   2.0000     -10.191935      -277.3366
  18   2.0000     -10.191878      -277.3351
  19   2.0000     -10.189016      -277.2572
  20   2.0000     -10.185193      -277.1532
  21   2.0000     -10.183529      -277.1079
  22   2.0000     -10.182958      -277.0924
  23   2.0000     -10.182533      -277.0808
  24   2.0000     -10.178521      -276.9716
  25   2.0000     -10.159335      -276.4496
  26   2.0000     -10.156621      -276.3757
  27   2.0000      -1.273627       -34.6572
  28   2.0000      -1.199177       -32.6313
  29   2.0000      -1.198008       -32.5995
  30   2.0000      -1.013144       -27.5690
  31   2.0000      -0.927905       -25.2496
  32   2.0000      -0.899733       -24.4830
  33   2.0000      -0.865616       -23.5546
  34   2.0000      -0.854647       -23.2561
  35   2.0000      -0.803599       -21.8670
  36   2.0000      -0.786496       -21.4016
  37   2.0000      -0.771434       -20.9918
  38   2.0000      -0.757352       -20.6086
  39   2.0000      -0.753554       -20.5052
  40   2.0000      -0.733105       -19.9488
  41   2.0000      -0.696168       -18.9437
  42   2.0000      -0.682260       -18.5652
  43   2.0000      -0.671983       -18.2856
  44   2.0000      -0.663192       -18.0464
  45   2.0000      -0.643140       -17.5007
  46   2.0000      -0.620214       -16.8769
  47   2.0000      -0.613432       -16.6923
  48   2.0000      -0.595456       -16.2032
  49   2.0000      -0.592512       -16.1231
  50   2.0000      -0.564578       -15.3630
  51   2.0000      -0.561176       -15.2704
  52   2.0000      -0.557664       -15.1748
  53   2.0000      -0.553893       -15.0722
  54   2.0000      -0.537425       -14.6241
  55   2.0000      -0.527562       -14.3557
  56   2.0000      -0.505057       -13.7433
  57   2.0000      -0.491346       -13.3702
  58   2.0000      -0.482986       -13.1427
  59   2.0000      -0.468170       -12.7396
  60   2.0000      -0.464281       -12.6337
  61   2.0000      -0.459510       -12.5039
  62   2.0000      -0.454475       -12.3669
  63   2.0000      -0.444038       -12.0829
  64   2.0000      -0.442293       -12.0354
  65   2.0000      -0.439460       -11.9583
  66   2.0000      -0.438170       -11.9232
  67   2.0000      -0.433252       -11.7894
  68   2.0000      -0.429981       -11.7004
  69   2.0000      -0.420192       -11.4340
  70   2.0000      -0.415224       -11.2988
  71   2.0000      -0.412625       -11.2281
  72   2.0000      -0.410365       -11.1666
  73   2.0000      -0.404286       -11.0012
  74   2.0000      -0.401169       -10.9164
  75   2.0000      -0.396361       -10.7855
  76   2.0000      -0.392616       -10.6836
  77   2.0000      -0.392294       -10.6749
  78   2.0000      -0.385332       -10.4854
  79   2.0000      -0.384180       -10.4541
  80   2.0000      -0.379559       -10.3283
  81   2.0000      -0.366165        -9.9638
  82   2.0000      -0.362861        -9.8740
  83   2.0000      -0.359001        -9.7689
  84   2.0000      -0.355398        -9.6709
  85   2.0000      -0.353922        -9.6307
  86   2.0000      -0.349524        -9.5110
  87   2.0000      -0.345204        -9.3935
  88   2.0000      -0.333151        -9.0655
  89   2.0000      -0.331146        -9.0110
  90   2.0000      -0.327296        -8.9062
  91   2.0000      -0.325163        -8.8481
  92   2.0000      -0.266612        -7.2549
  93   2.0000      -0.258800        -7.0423
  94   2.0000      -0.248971        -6.7748
  95   2.0000      -0.243592        -6.6285
  96   2.0000      -0.237607        -6.4656
  97   2.0000      -0.237156        -6.4533
  98   2.0000      -0.221720        -6.0333
  99   0.0000      -0.025467        -0.6930
 100   0.0000      -0.013719        -0.3733
 101   0.0000      -0.008220        -0.2237
 102   0.0000       0.002797         0.0761
 103   0.0000       0.031165         0.8480

MULLIKEN ATOMIC CHARGES
-----------------------
   0 C :   -0.441891
   1 C :    0.270711
   2 C :   -0.471323
   3 C :   -0.439955
   4 N :   -0.638494
   5 C :    0.694402
   6 O :   -0.504896
   7 N :   -0.451513
   8 C :   -0.154070
   9 C :   -0.332170
  10 C :    0.102440
  11 C :   -0.185513
  12 C :   -0.121528
  13 C :   -0.130691
  14 C :   -0.169450
  15 C :    0.091800
  16 C :   -0.112462
  17 C :    0.179995
  18 C :   -0.177981
  19 C :   -0.162331
  20 C :   -0.016654
  21 C :    0.893400
  22 F :   -0.306359
  23 F :   -0.307040
  24 F :   -0.298298
  25 C :   -0.161023
  26 C :   -0.185283
  27 H :    0.130135
  28 H :    0.130757
  29 H :    0.181862
  30 H :    0.139289
  31 H :    0.142769
  32 H :    0.157418
  33 H :    0.179663
  34 H :    0.127989
  35 H :    0.136478
  36 H :    0.320139
  37 H :    0.152908
  38 H :    0.130479
  39 H :    0.142105
  40 H :    0.168074
  41 H :    0.123205
  42 H :    0.127454
  43 H :    0.130485
  44 H :    0.134251
  45 H :    0.183281
  46 H :    0.139454
  47 H :    0.148335
  48 H :    0.151786
  49 H :    0.157859
Sum of atomic charges:   -0.0000000

LOEWDIN ATOMIC CHARGES
----------------------
   0 C :   -0.355928
   1 C :    0.023663
   2 C :   -0.351333
   3 C :   -0.357352
   4 N :   -0.242452
   5 C :    0.166753
   6 O :   -0.317492
   7 N :   -0.125306
   8 C :   -0.156160
   9 C :   -0.225684
  10 C :   -0.028872
  11 C :   -0.132183
  12 C :   -0.128564
  13 C :   -0.130052
  14 C :   -0.122994
  15 C :   -0.022562
  16 C :   -0.037929
  17 C :   -0.009740
  18 C :   -0.126753
  19 C :   -0.114783
  20 C :   -0.073747
  21 C :    0.309231
  22 F :   -0.114478
  23 F :   -0.115129
  24 F :   -0.115579
  25 C :   -0.111510
  26 C :   -0.128392
  27 H :    0.119164
  28 H :    0.120378
  29 H :    0.142432
  30 H :    0.120816
  31 H :    0.122493
  32 H :    0.134880
  33 H :    0.141502
  34 H :    0.118772
  35 H :    0.122518
  36 H :    0.246124
  37 H :    0.131250
  38 H :    0.105351
  39 H :    0.129636
  40 H :    0.140225
  41 H :    0.130029
  42 H :    0.131449
  43 H :    0.132974
  44 H :    0.135723
  45 H :    0.152422
  46 H :    0.136667
  47 H :    0.141485
  48 H :    0.143290
  49 H :    0.145749

  Mayer bond orders larger than 0.100000
B(  0-C ,  1-C ) :   0.9983 B(  0-C , 27-H ) :   0.9470 B(  0-C , 28-H ) :   0.9437
B(  0-C , 29-H ) :   0.9294 B(  1-C ,  2-C ) :   0.9953 B(  1-C ,  3-C ) :   0.9972
B(  1-C ,  4-N ) :   0.8887 B(  2-C , 30-H ) :   0.9432 B(  2-C , 31-H ) :   0.9422
B(  2-C , 32-H ) :   0.9446 B(  3-C , 33-H ) :   0.9290 B(  3-C , 34-H ) :   0.9429
B(  3-C , 35-H ) :   0.9460 B(  4-N ,  5-C ) :   1.0655 B(  4-N , 36-H ) :   0.8225
B(  5-C ,  6-O ) :   1.7496 B(  5-C ,  7-N ) :   1.0158 B(  7-N ,  8-C ) :   0.9517
B(  7-N , 16-C ) :   0.9336 B(  8-C ,  9-C ) :   0.9903 B(  8-C , 37-H ) :   0.9280
B(  8-C , 38-H ) :   0.9165 B(  9-C , 10-C ) :   0.9935 B(  9-C , 39-H ) :   0.9286
B(  9-C , 40-H ) :   0.9181 B( 10-C , 11-C ) :   1.4045 B( 10-C , 15-C ) :   1.4431
B( 11-C , 12-C ) :   1.4514 B( 11-C , 41-H ) :   0.9257 B( 12-C , 13-C ) :   1.4374
B( 12-C , 42-H ) :   0.9297 B( 13-C , 14-C ) :   1.4493 B( 13-C , 43-H ) :   0.9297
B( 14-C , 15-C ) :   1.3952 B( 14-C , 44-H ) :   0.9215 B( 15-C , 16-C ) :   0.9592
B( 16-C , 17-C ) :   0.9379 B( 16-C , 45-H ) :   0.8975 B( 17-C , 18-C ) :   1.4088
B( 17-C , 26-C ) :   1.4231 B( 18-C , 19-C ) :   1.4361 B( 18-C , 46-H ) :   0.9169
B( 19-C , 20-C ) :   1.4027 B( 19-C , 47-H ) :   0.9211 B( 20-C , 21-C ) :   0.9810
B( 20-C , 25-C ) :   1.4157 B( 21-C , 22-F ) :   0.9477 B( 21-C , 23-F ) :   0.9468
B( 21-C , 24-F ) :   0.9849 B( 25-C , 26-C ) :   1.4127 B( 25-C , 48-H ) :   0.9203
B( 26-C , 49-H ) :   0.9173

FINAL SINGLE POINT ENERGY     -1297.604288866196

DIPOLE MOMENT
-------------

Method             : SCF
Type of density    : Electron Density
Multiplicity       :   1
Irrep              :   0
Energy             : -1297.6042888661963843 Eh
Relativity type    :
Basis              : AO
                                X                 Y                 Z
Electronic contribution:     41.550094891     -20.932827539       4.579789856
Nuclear contribution   :    -42.079770124      21.984933823      -3.530487252
                        -----------------------------------------
Total Dipole Moment    :     -0.529675233       1.052106284       1.049302604
                        -----------------------------------------
Magnitude (a.u.)       :      1.577504180
Magnitude (Debye)      :      4.009696971

Rotational constants in cm-1:             0.005890             0.005078             0.003063
Rotational constants in MHz :           176.576860           152.221028            91.830910

                             ****ORCA TERMINATED NORMALLY****
TOTAL RUN TIME: 0 days 0 hours 4 minutes 16 seconds 174 msec
