                         Program Version 6.0.0  -   RELEASE  -
|  1> ! B3LYP 6-31G* SP
|  2>
|  3> * xyz 0 1
|  4> N 7.6274 3.5852 -1.6145
|  5> C 6.6513 3.0922 -1.2358
|  6> C 5.4364 2.4788 -0.7645
|  7> C 4.9372 2.8044 0.5026
|  8> C 3.7584 2.2133 0.9675
|  9> C 3.0653 1.2867 0.1648
| 10> O 1.8799 0.6664 0.5841
| 11> C 1.2486 0.8966 1.8436
| 12> C -0.0368 0.0592 1.9808
| 13> O -0.7045 0.2724 3.1974
| 14> C -0.9914 0.1331 0.7962
| 15> N -0.8429 -1.2983 0.4899
| 16> S -2.3287 -2.1693 0.8047
| 17> O -2.0329 -3.6428 0.8176
| 18> O -2.8909 -1.7626 2.1404
| 19> C -3.5206 -1.8410 -0.4606
| 20> C -3.1370 -1.1264 -1.6074
| 21> C -4.0632 -0.8563 -2.6176
| 22> C -5.3809 -1.3029 -2.4980
| 23> Cl -6.5417 -0.9635 -3.7686
| 24> C -5.7717 -2.0263 -1.3681
| 25> C -4.8505 -2.3021 -0.3499
| 26> Cl -5.4002 -3.2406 1.0344
| 27> C 0.0859 -1.4189 1.6235
| 28> C 3.5708 0.9662 -1.1008
| 29> C 4.7498 1.5568 -1.5670
| 30> F 5.2194 1.2295 -2.7980
| 31> H 5.4594 3.5156 1.1315
| 32> H 3.3956 2.4830 1.9499
| 33> H 1.9474 0.6211 2.6629
| 34> H 0.9855 1.9725 1.9365
| 35> H -0.1044 -0.0655 3.9123
| 36> H -0.6099 0.7503 -0.0462
| 37> H -2.0238 0.4390 1.0814
| 38> H -2.1204 -0.7787 -1.7290
| 39> H -3.7541 -0.3017 -3.4945
| 40> H -6.7922 -2.3783 -1.2827
| 41> H 1.0988 -1.7054 1.2661
| 42> H -0.2637 -2.0964 2.4359
| 43> H 3.0452 0.2549 -1.7256
| 44> *
| 45>
| 46>                          ****END OF INPUT****

CARTESIAN COORDINATES (ANGSTROEM)
---------------------------------
  N      7.627400    3.585200   -1.614500
  C      6.651300    3.092200   -1.235800
  C      5.436400    2.478800   -0.764500
  C      4.937200    2.804400    0.502600
  C      3.758400    2.213300    0.967500
  C      3.065300    1.286700    0.164800
  O      1.879900    0.666400    0.584100
  C      1.248600    0.896600    1.843600
  C     -0.036800    0.059200    1.980800
  O     -0.704500    0.272400    3.197400
  C     -0.991400    0.133100    0.796200
  N     -0.842900   -1.298300    0.489900
  S     -2.328700   -2.169300    0.804700
  O     -2.032900   -3.642800    0.817600
  O     -2.890900   -1.762600    2.140400
  C     -3.520600   -1.841000   -0.460600
  C     -3.137000   -1.126400   -1.607400
  C     -4.063200   -0.856300   -2.617600
  C     -5.380900   -1.302900   -2.498000
  Cl    -6.541700   -0.963500   -3.768600
  C     -5.771700   -2.026300   -1.368100
  C     -4.850500   -2.302100   -0.349900
  Cl    -5.400200   -3.240600    1.034400
  C      0.085900   -1.418900    1.623500
  C      3.570800    0.966200   -1.100800
  C      4.749800    1.556800   -1.567000
  F      5.219400    1.229500   -2.798000
  H      5.459400    3.515600    1.131500
  H      3.395600    2.483000    1.949900
  H      1.947400    0.621100    2.662900
  H      0.985500    1.972500    1.936500
  H     -0.104400   -0.065500    3.912300
  H     -0.609900    0.750300   -0.046200
  H     -2.023800    0.439000    1.081400
  H     -2.120400   -0.778700   -1.729000
  H     -3.754100   -0.301700   -3.494500
  H     -6.792200   -2.378300   -1.282700
  H      1.098800   -1.705400    1.266100
  H     -0.263700   -2.096400    2.435900
  H      3.045200    0.254900   -1.725600

 Total Charge           Charge          ....    0
 Multiplicity           Mult            ....    1
 Number of Electrons    NEL             ....  220
 Basis Dimension        Dim             ....  416

ORBITAL ENERGIES
----------------

  NO   OCC          E(Eh)            E(eV)
   0   2.0000    -101.554146     -2763.4288
   1   2.0000    -101.542807     -2763.1203
   2   2.0000     -89.097659     -2424.4706
   3   2.0000     -24.729383      -672.9207
   4   2.0000     -19.209073      -522.7055
   5   2.0000     -19.175213      -521.7841
   6   2.0000     -19.128480      -520.5124
   7   2.0000     -19.128043      -520.5005
   8   2.0000     -14.380324      -391.3085
   9   2.0000     -14.336942      -390.1280
  10   2.0000     -10.310895      -280.5737
  11   2.0000     -10.293990      -280.1137
  12   2.0000     -10.290929      -280.0304
  13   2.0000     -10.283152      -279.8188
  14   2.0000     -10.274730      -279.5896
  15   2.0000     -10.272102      -279.5181
  16   2.0000     -10.258812      -279.1565
  17   2.0000     -10.245884      -278.8047
  18   2.0000     -10.238578      -278.6059
  19   2.0000     -10.237196      -278.5683
  20   2.0000     -10.235608      -278.5251
  21   2.0000     -10.233276      -278.4616
  22   2.0000     -10.232619      -278.4437
  23   2.0000     -10.228635      -278.3353
  24   2.0000     -10.228180      -278.3229
  25   2.0000     -10.220988      -278.1272
  26   2.0000     -10.219951      -278.0990
  27   2.0000      -9.485893      -258.1243
  28   2.0000      -9.474256      -257.8076
  29   2.0000      -8.135884      -221.3887
  30   2.0000      -7.249089      -197.2577
  31   2.0000      -7.239470      -196.9960
  32   2.0000      -7.239037      -196.9842
  33   2.0000      -7.237909      -196.9535
  34   2.0000      -7.227728      -196.6765
  35   2.0000      -7.227020      -196.6572
  36   2.0000      -6.100384      -165.9999
  37   2.0000      -6.098936      -165.9605
  38   2.0000      -6.098316      -165.9436
  39   2.0000      -1.240726       -33.7619
  40   2.0000      -1.091703       -29.7068
  41   2.0000      -1.087192       -29.5840
  42   2.0000      -1.058132       -28.7932
  43   2.0000      -0.977935       -26.6110
  44   2.0000      -0.965246       -26.2657
  45   2.0000      -0.929516       -25.2934
  46   2.0000      -0.913042       -24.8451
  47   2.0000      -0.891737       -24.2654
  48   2.0000      -0.890400       -24.2290
  49   2.0000      -0.852767       -23.2050
  50   2.0000      -0.815672       -22.1956
  51   2.0000      -0.796266       -21.6675
  52   2.0000      -0.783953       -21.3325
  53   2.0000      -0.775942       -21.1144
  54   2.0000      -0.769150       -20.9296
  55   2.0000      -0.727112       -19.7857
  56   2.0000      -0.717878       -19.5345
  57   2.0000      -0.672933       -18.3114
  58   2.0000      -0.659872       -17.9560
  59   2.0000      -0.654668       -17.8144
  60   2.0000      -0.644962       -17.5503
  61   2.0000      -0.613795       -16.7022
  62   2.0000      -0.589944       -16.0532
  63   2.0000      -0.584917       -15.9164
  64   2.0000      -0.562187       -15.2979
  65   2.0000      -0.555339       -15.1115
  66   2.0000      -0.544186       -14.8081
  67   2.0000      -0.528789       -14.3891
  68   2.0000      -0.523620       -14.2484
  69   2.0000      -0.520186       -14.1550
  70   2.0000      -0.515064       -14.0156
  71   2.0000      -0.508858       -13.8467
  72   2.0000      -0.497833       -13.5467
  73   2.0000      -0.486082       -13.2270
  74   2.0000      -0.484775       -13.1914
  75   2.0000      -0.475549       -12.9404
  76   2.0000      -0.470754       -12.8099
  77   2.0000      -0.461301       -12.5526
  78   2.0000      -0.455448       -12.3934
  79   2.0000      -0.451263       -12.2795
  80   2.0000      -0.449432       -12.2297
  81   2.0000      -0.432160       -11.7597
  82   2.0000      -0.427508       -11.6331
  83   2.0000      -0.424814       -11.5598
  84   2.0000      -0.416244       -11.3266
  85   2.0000      -0.412164       -11.2156
  86   2.0000      -0.408263       -11.1094
  87   2.0000      -0.403018       -10.9667
  88   2.0000      -0.399059       -10.8590
  89   2.0000      -0.393914       -10.7189
  90   2.0000      -0.380656       -10.3582
  91   2.0000      -0.377718       -10.2782
  92   2.0000      -0.364197        -9.9103
  93   2.0000      -0.359673        -9.7872
  94   2.0000      -0.344867        -9.3843
  95   2.0000      -0.343147        -9.3375
  96   2.0000      -0.337971        -9.1967
  97   2.0000      -0.336402        -9.1540
  98   2.0000      -0.335935        -9.1412
  99   2.0000      -0.326962        -8.8971
 100   2.0000      -0.320466        -8.7203
 101   2.0000      -0.310694        -8.4544
 102   2.0000      -0.305655        -8.3173
 103   2.0000      -0.299064        -8.1380
 104   2.0000      -0.286736        -7.8025
 105   2.0000      -0.280762        -7.6399
 106   2.0000      -0.278101        -7.5675
 107   2.0000      -0.266713        -7.2576
 108   2.0000      -0.258690        -7.0393
 109   2.0000      -0.256889        -6.9903
 110   0.0000      -0.063924        -1.7395
 111   0.0000      -0.053704        -1.4614
 112   0.0000      -0.047048        -1.2802
 113   0.0000      -0.034827        -0.9477
 114   0.0000      -0.017419        -0.4740

MULLIKEN ATOMIC CHARGES
-----------------------
   0 N :   -0.299737
   1 C :    0.104572
   2 C :    0.023819
   3 C :   -0.123131
   4 C :   -0.210946
   5 C :    0.405742
   6 O :   -0.525732
   7 C :   -0.059767
   8 C :    0.296532
   9 O :   -0.617280
  10 C :   -0.201495
  11 N :   -0.505116
  12 S :    1.198193
  13 O :   -0.527318
  14 O :   -0.552623
  15 C :   -0.129818
  16 C :   -0.148391
  17 C :   -0.119542
  18 C :   -0.053104
  19 Cl:    0.019185
  20 C :   -0.123447
  21 C :   -0.075884
  22 Cl:    0.070431
  23 C :   -0.185214
  24 C :   -0.264720
  25 C :    0.406147
  26 F :   -0.292001
  27 H :    0.173116
  28 H :    0.152983
  29 H :    0.135931
  30 H :    0.160882
  31 H :    0.397923
  32 H :    0.169412
  33 H :    0.202782
  34 H :    0.186644
  35 H :    0.169859
  36 H :    0.189113
  37 H :    0.176317
  38 H :    0.203631
  39 H :    0.172052
Sum of atomic charges:    0.0000000

LOEWDIN ATOMIC CHARGES
----------------------
   0 N :   -0.088115
   1 C :   -0.007731
   2 C :   -0.093806
   3 C :   -0.082961
   4 C :   -0.175902
   5 C :    0.108524
   6 O :   -0.181627
   7 C :   -0.097740
   8 C :    0.033314
   9 O :   -0.352517
  10 C :   -0.162318
  11 N :   -0.309767
  12 S :    1.239040
  13 O :   -0.567233
  14 O :   -0.574576
  15 C :   -0.185382
  16 C :   -0.107057
  17 C :   -0.130320
  18 C :   -0.068489
  19 Cl:    0.064934
  20 C :   -0.129703
  21 C :   -0.051156
  22 Cl:    0.097549
  23 C :   -0.157171
  24 C :   -0.171304
  25 C :    0.152386
  26 F :   -0.082639
  27 H :    0.155895
  28 H :    0.144495
  29 H :    0.116177
  30 H :    0.128198
  31 H :    0.318955
  32 H :    0.133259
  33 H :    0.150993
  34 H :    0.160427
  35 H :    0.153821
  36 H :    0.165143
  37 H :    0.139243
  38 H :    0.153955
  39 H :    0.161207

  Mayer bond orders larger than 0.100000
B(  0-N ,  1-C ) :   3.0167 B(  1-C ,  2-C ) :   0.9806 B(  2-C ,  3-C ) :   1.3963
B(  2-C , 25-C ) :   1.3151 B(  3-C ,  4-C ) :   1.4445 B(  3-C , 27-H ) :   0.9193
B(  4-C ,  5-C ) :   1.3540 B(  4-C , 28-H ) :   0.9143 B(  5-C ,  6-O ) :   0.9193
B(  5-C , 24-C ) :   1.3679 B(  6-O ,  7-C ) :   0.8705 B(  7-C ,  8-C ) :   0.9717
B(  7-C , 29-H ) :   0.9137 B(  7-C , 30-H ) :   0.9124 B(  8-C ,  9-O ) :   0.9422
B(  8-C , 10-C ) :   0.9779 B(  8-C , 23-C ) :   0.9563 B(  9-O , 31-H ) :   0.7803
B( 10-C , 11-N ) :   0.9366 B( 10-C , 32-H ) :   0.9154 B( 10-C , 33-H ) :   0.8897
B( 11-N , 12-S ) :   0.7912 B( 11-N , 23-C ) :   0.9385 B( 12-S , 13-O ) :   1.6800
B( 12-S , 14-O ) :   1.5822 B( 12-S , 15-C ) :   0.8142 B( 15-C , 16-C ) :   1.3905
B( 15-C , 21-C ) :   1.3675 B( 16-C , 17-C ) :   1.4444 B( 16-C , 34-H ) :   0.9071
B( 17-C , 18-C ) :   1.4106 B( 17-C , 35-H ) :   0.9198 B( 18-C , 19-Cl) :   1.0412
B( 18-C , 20-C ) :   1.4023 B( 20-C , 21-C ) :   1.4156 B( 20-C , 36-H ) :   0.9118
B( 21-C , 22-Cl) :   1.0900 B( 23-C , 37-H ) :   0.9116 B( 23-C , 38-H ) :   0.8961
B( 24-C , 25-C ) :   1.3873 B( 24-C , 39-H ) :   0.9069 B( 25-C , 26-F ) :   0.9655

FINAL SINGLE POINT ENERGY     -2483.413674595616

DIPOLE MOMENT
-------------

Method             : SCF
Type of density    : Electron Density
Multiplicity       :   1
Irrep              :   0
Energy             : -2483.4136745956161576 Eh
Relativity type    :
Basis              : AO
                                X                 Y                 Z
Electronic contribution:    -18.140095563      -9.648979170     -15.246679741
Nuclear contribution   :     17.379241166      10.586738891      15.778743020
                        -----------------------------------------
Total Dipole Moment    :     -0.760854398       0.937759721       0.532063279
                        -----------------------------------------
Magnitude (a.u.)       :      1.319615111
Magnitude (Debye)      :      3.354195051

Rotational constants in cm-1:             0.009137             0.001825             0.001603
Rotational constants in MHz :           273.933525            54.718551            48.058743

                             ****ORCA TERMINATED NORMALLY****
TOTAL RUN TIME: 0 days 0 hours 6 minutes 16 seconds 239 msec
