                         Program Version 6.0.0  -   RELEASE  -
|  1> ! B3LYP 6-31G* SP
|  2>
|  3> * xyz 0 1
|  4> C -5.3822 -1.8257 -2.1068
|  5> O -5.2367 -2.1101 -0.7192
|  6> C -4.8029 -1.1823 0.2409
|  7> C -4.4848 0.1496 -0.0921
|  8> C -4.0529 1.0476 0.8968
|  9> C -3.6633 2.4531 0.5313
| 10> N -2.2246 2.5169 0.2912
| 11> C -1.6443 2.2110 -0.9837
| 12> O -2.3745 2.0824 -2.0039
| 13> C -0.1681 1.9841 -1.1012
| 14> C 0.1726 0.5342 -0.7324
| 15> C 1.6700 0.2241 -0.8835
| 16> C 2.5084 0.8080 0.2639
| 17> C 3.9674 0.4856 0.0932
| 18> C 4.4344 -0.7674 0.2303
| 19> C 5.8981 -1.1153 0.0781
| 20> C 6.7476 -0.4301 1.1553
| 21> C 6.4101 -0.7827 -1.3292
| 22> C -3.9185 0.6043 2.2203
| 23> C -4.2379 -0.7120 2.5570
| 24> C -4.6809 -1.6055 1.5726
| 25> O -4.9985 -2.9208 1.9094
| 26> H -6.1360 -1.0240 -2.2556
| 27> H -4.4062 -1.5186 -2.5380
| 28> H -5.7294 -2.7402 -2.6294
| 29> H -4.5672 0.4932 -1.1144
| 30> H -4.2242 2.8009 -0.3636
| 31> H -3.9258 3.1454 1.3610
| 32> H -1.5942 2.6185 1.1187
| 33> H 0.1567 2.1942 -2.1436
| 34> H 0.3577 2.6922 -0.4275
| 35> H -0.1562 0.3163 0.3081
| 36> H -0.3910 -0.1443 -1.4106
| 37> H 1.7897 -0.8811 -0.8901
| 38> H 2.0406 0.6067 -1.8595
| 39> H 2.1544 0.4116 1.2405
| 40> H 2.4012 1.9117 0.2826
| 41> H 4.6518 1.3020 -0.1180
| 42> H 3.7420 -1.5729 0.4611
| 43> H 5.9992 -2.2143 0.2203
| 44> H 7.8021 -0.7706 1.0819
| 45> H 6.7239 0.6744 1.0397
| 46> H 6.3677 -0.6946 2.1658
| 47> H 7.4555 -1.1401 -1.4469
| 48> H 5.7819 -1.2892 -2.0935
| 49> H 6.3887 0.3130 -1.5141
| 50> H -3.5670 1.2789 2.9915
| 51> H -4.1371 -1.0391 3.5842
| 52> H -4.9172 -3.2588 2.8611
| 53> *
| 54>
| 55>                          ****END OF INPUT****

CARTESIAN COORDINATES (ANGSTROEM)
---------------------------------
  C     -5.382200   -1.825700   -2.106800
  O     -5.236700   -2.110100   -0.719200
  C     -4.802900   -1.182300    0.240900
  C     -4.484800    0.149600   -0.092100
  C     -4.052900    1.047600    0.896800
  C     -3.663300    2.453100    0.531300
  N     -2.224600    2.516900    0.291200
  C     -1.644300    2.211000   -0.983700
  O     -2.374500    2.082400   -2.003900
  C     -0.168100    1.984100   -1.101200
  C      0.172600    0.534200   -0.732400
  C      1.670000    0.224100   -0.883500
  C      2.508400    0.808000    0.263900
  C      3.967400    0.485600    0.093200
  C      4.434400   -0.767400    0.230300
  C      5.898100   -1.115300    0.078100
  C      6.747600   -0.430100    1.155300
  C      6.410100   -0.782700   -1.329200
  C     -3.918500    0.604300    2.220300
  C     -4.237900   -0.712000    2.557000
  C     -4.680900   -1.605500    1.572600
  O     -4.998500   -2.920800    1.909400
  H     -6.136000   -1.024000   -2.255600
  H     -4.406200   -1.518600   -2.538000
  H     -5.729400   -2.740200   -2.629400
  H     -4.567200    0.493200   -1.114400
  H     -4.224200    2.800900   -0.363600
  H     -3.925800    3.145400    1.361000
  H     -1.594200    2.618500    1.118700
  H      0.156700    2.194200   -2.143600
  H      0.357700    2.692200   -0.427500
  H     -0.156200    0.316300    0.308100
  H     -0.391000   -0.144300   -1.410600
  H      1.789700   -0.881100   -0.890100
  H      2.040600    0.606700   -1.859500
  H      2.154400    0.411600    1.240500
  H      2.401200    1.911700    0.282600
  H      4.651800    1.302000   -0.118000
  H      3.742000   -1.572900    0.461100
  H      5.999200   -2.214300    0.220300
  H      7.802100   -0.770600    1.081900
  H      6.723900    0.674400    1.039700
  H      6.367700   -0.694600    2.165800
  H      7.455500   -1.140100   -1.446900
  H      5.781900   -1.289200   -2.093500
  H      6.388700    0.313000   -1.514100
  H     -3.567000    1.278900    2.991500
  H     -4.137100   -1.039100    3.584200
  H     -4.917200   -3.258800    2.861100

 Total Charge           Charge          ....    0
 Multiplicity           Mult            ....    1
 Number of Electrons    NEL             ....  166
 Basis Dimension        Dim             ....  362

ORBITAL ENERGIES
----------------

  NO   OCC          E(Eh)            E(eV)
   0   2.0000     -19.156110      -521.2642
   1   2.0000     -19.151738      -521.1453
   2   2.0000     -19.097441      -519.6678
   3   2.0000     -14.348413      -390.4402
   4   2.0000     -10.277783      -279.6727
   5   2.0000     -10.240483      -278.6577
   6   2.0000     -10.238225      -278.5963
   7   2.0000     -10.224793      -278.2308
   8   2.0000     -10.213214      -277.9157
   9   2.0000     -10.184796      -277.1424
  10   2.0000     -10.180252      -277.0187
  11   2.0000     -10.179866      -277.0082
  12   2.0000     -10.177574      -276.9459
  13   2.0000     -10.177445      -276.9424
  14   2.0000     -10.176822      -276.9254
  15   2.0000     -10.175894      -276.9002
  16   2.0000     -10.173350      -276.8309
  17   2.0000     -10.172268      -276.8015
  18   2.0000     -10.168960      -276.7115
  19   2.0000     -10.166959      -276.6570
  20   2.0000     -10.165219      -276.6097
  21   2.0000     -10.164649      -276.5942
  22   2.0000      -1.034629       -28.1537
  23   2.0000      -1.015541       -27.6343
  24   2.0000      -0.998029       -27.1578
  25   2.0000      -0.897459       -24.4211
  26   2.0000      -0.838700       -22.8222
  27   2.0000      -0.816528       -22.2189
  28   2.0000      -0.798373       -21.7248
  29   2.0000      -0.764856       -20.8128
  30   2.0000      -0.750849       -20.4316
  31   2.0000      -0.740431       -20.1481
  32   2.0000      -0.708105       -19.2685
  33   2.0000      -0.684759       -18.6332
  34   2.0000      -0.671945       -18.2845
  35   2.0000      -0.668085       -18.1795
  36   2.0000      -0.647802       -17.6276
  37   2.0000      -0.607363       -16.5272
  38   2.0000      -0.593478       -16.1494
  39   2.0000      -0.580343       -15.7919
  40   2.0000      -0.568784       -15.4774
  41   2.0000      -0.554879       -15.0990
  42   2.0000      -0.537207       -14.6182
  43   2.0000      -0.523653       -14.2493
  44   2.0000      -0.503271       -13.6947
  45   2.0000      -0.493060       -13.4168
  46   2.0000      -0.477275       -12.9873
  47   2.0000      -0.475154       -12.9296
  48   2.0000      -0.459467       -12.5027
  49   2.0000      -0.452734       -12.3195
  50   2.0000      -0.450030       -12.2459
  51   2.0000      -0.447347       -12.1729
  52   2.0000      -0.433902       -11.8071
  53   2.0000      -0.432095       -11.7579
  54   2.0000      -0.426735       -11.6121
  55   2.0000      -0.417848       -11.3702
  56   2.0000      -0.409487       -11.1427
  57   2.0000      -0.405291       -11.0285
  58   2.0000      -0.400382       -10.8949
  59   2.0000      -0.391717       -10.6592
  60   2.0000      -0.389837       -10.6080
  61   2.0000      -0.385202       -10.4819
  62   2.0000      -0.378336       -10.2950
  63   2.0000      -0.377028       -10.2595
  64   2.0000      -0.373089       -10.1523
  65   2.0000      -0.369547       -10.0559
  66   2.0000      -0.350758        -9.5446
  67   2.0000      -0.347695        -9.4613
  68   2.0000      -0.335517        -9.1299
  69   2.0000      -0.332989        -9.0611
  70   2.0000      -0.329899        -8.9770
  71   2.0000      -0.329245        -8.9592
  72   2.0000      -0.323941        -8.8149
  73   2.0000      -0.320674        -8.7260
  74   2.0000      -0.310946        -8.4613
  75   2.0000      -0.308183        -8.3861
  76   2.0000      -0.302947        -8.2436
  77   2.0000      -0.300616        -8.1802
  78   2.0000      -0.241680        -6.5764
  79   2.0000      -0.233532        -6.3547
  80   2.0000      -0.229805        -6.2533
  81   2.0000      -0.225982        -6.1493
  82   2.0000      -0.195347        -5.3157
  83   0.0000       0.008374         0.2279
  84   0.0000       0.016713         0.4548
  85   0.0000       0.019471         0.5298
  86   0.0000       0.026810         0.7295
  87   0.0000       0.056551         1.5388

MULLIKEN ATOMIC CHARGES
-----------------------
   0 C :   -0.194819
   1 O :   -0.504741
   2 C :    0.335837
   3 C :   -0.260724
   4 C :    0.173230
   5 C :   -0.234050
   6 N :   -0.581719
   7 C :    0.564094
   8 O :   -0.495805
   9 C :   -0.339327
  10 C :   -0.260777
  11 C :   -0.240809
  12 C :   -0.299963
  13 C :   -0.105050
  14 C :   -0.104158
  15 C :   -0.097755
  16 C :   -0.423873
  17 C :   -0.424219
  18 C :   -0.185859
  19 C :   -0.202071
  20 C :    0.338429
  21 O :   -0.663839
  22 H :    0.144535
  23 H :    0.153636
  24 H :    0.165622
  25 H :    0.161250
  26 H :    0.180808
  27 H :    0.145857
  28 H :    0.315561
  29 H :    0.170293
  30 H :    0.133646
  31 H :    0.133356
  32 H :    0.153765
  33 H :    0.136156
  34 H :    0.134158
  35 H :    0.139604
  36 H :    0.127741
  37 H :    0.120148
  38 H :    0.116989
  39 H :    0.116925
  40 H :    0.133685
  41 H :    0.137330
  42 H :    0.139624
  43 H :    0.133097
  44 H :    0.141533
  45 H :    0.137184
  46 H :    0.107792
  47 H :    0.116851
  48 H :    0.410820
Sum of atomic charges:    0.0000000

LOEWDIN ATOMIC CHARGES
----------------------
   0 C :   -0.198183
   1 O :   -0.188510
   2 C :    0.070491
   3 C :   -0.164492
   4 C :   -0.041746
   5 C :   -0.152193
   6 N :   -0.239858
   7 C :    0.143967
   8 O :   -0.307559
   9 C :   -0.245960
  10 C :   -0.222902
  11 C :   -0.221464
  12 C :   -0.231987
  13 C :   -0.143746
  14 C :   -0.135478
  15 C :   -0.130084
  16 C :   -0.346153
  17 C :   -0.346337
  18 C :   -0.151618
  19 C :   -0.170003
  20 C :    0.065522
  21 O :   -0.344595
  22 H :    0.115069
  23 H :    0.119472
  24 H :    0.133565
  25 H :    0.149318
  26 H :    0.146156
  27 H :    0.126678
  28 H :    0.245987
  29 H :    0.144986
  30 H :    0.121121
  31 H :    0.118611
  32 H :    0.130750
  33 H :    0.121670
  34 H :    0.120746
  35 H :    0.124413
  36 H :    0.117427
  37 H :    0.122226
  38 H :    0.121958
  39 H :    0.116325
  40 H :    0.118395
  41 H :    0.119773
  42 H :    0.122802
  43 H :    0.118180
  44 H :    0.123709
  45 H :    0.119709
  46 H :    0.122712
  47 H :    0.128810
  48 H :    0.332319

  Mayer bond orders larger than 0.100000
B(  0-C ,  1-O ) :   0.9196 B(  0-C , 22-H ) :   0.9309 B(  0-C , 23-H ) :   0.9295
B(  0-C , 24-H ) :   0.9455 B(  1-O ,  2-C ) :   0.9299 B(  2-C ,  3-C ) :   1.3627
B(  2-C , 20-C ) :   1.3267 B(  3-C ,  4-C ) :   1.4251 B(  3-C , 25-H ) :   0.9013
B(  4-C ,  5-C ) :   0.9518 B(  4-C , 18-C ) :   1.4283 B(  5-C ,  6-N ) :   0.9386
B(  5-C , 26-H ) :   0.9192 B(  5-C , 27-H ) :   0.9363 B(  6-N ,  7-C ) :   1.0746
B(  6-N , 28-H ) :   0.8326 B(  7-C ,  8-O ) :   1.8114 B(  7-C ,  9-C ) :   0.9714
B(  9-C , 10-C ) :   0.9955 B(  9-C , 29-H ) :   0.9274 B(  9-C , 30-H ) :   0.9217
B( 10-C , 11-C ) :   0.9869 B( 10-C , 31-H ) :   0.9352 B( 10-C , 32-H ) :   0.9353
B( 11-C , 12-C ) :   1.0031 B( 11-C , 33-H ) :   0.9379 B( 11-C , 34-H ) :   0.9379
B( 12-C , 13-C ) :   0.9990 B( 12-C , 35-H ) :   0.9356 B( 12-C , 36-H ) :   0.9376
B( 13-C , 14-C ) :   1.9278 B( 13-C , 37-H ) :   0.9305 B( 14-C , 15-C ) :   0.9950
B( 14-C , 38-H ) :   0.9311 B( 15-C , 16-C ) :   1.0064 B( 15-C , 17-C ) :   1.0077
B( 15-C , 39-H ) :   0.9344 B( 16-C , 40-H ) :   0.9463 B( 16-C , 41-H ) :   0.9463
B( 16-C , 42-H ) :   0.9517 B( 17-C , 43-H ) :   0.9464 B( 17-C , 44-H ) :   0.9513
B( 17-C , 45-H ) :   0.9462 B( 18-C , 19-C ) :   1.4251 B( 18-C , 46-H ) :   0.9265
B( 19-C , 20-C ) :   1.4003 B( 19-C , 47-H ) :   0.9250 B( 20-C , 21-O ) :   0.9205
B( 21-O , 48-H ) :   0.7702

FINAL SINGLE POINT ENERGY      -981.921726417135

DIPOLE MOMENT
-------------

Method             : SCF
Type of density    : Electron Density
Multiplicity       :   1
Irrep              :   0
Energy             :  -981.9217264171348916 Eh
Relativity type    :
Basis              : AO
                                X                 Y                 Z
Electronic contribution:    -40.784132887      -0.887774457       4.920392007
Nuclear contribution   :     41.514032902       0.995433797      -3.657724891
                        -----------------------------------------
Total Dipole Moment    :      0.729900015       0.107659340       1.262667116
                        -----------------------------------------
Magnitude (a.u.)       :      1.462420190
Magnitude (Debye)      :      3.717176714

Rotational constants in cm-1:             0.013060             0.002948             0.002772
Rotational constants in MHz :           391.524699            88.386771            83.096693

                             ****ORCA TERMINATED NORMALLY****
TOTAL RUN TIME: 0 days 0 hours 4 minutes 43 seconds 634 msec
