                         Program Version 6.0.0  -   RELEASE  -
|  1> ! B3LYP 6-31G* SP
|  2>
|  3> * xyz 0 1
|  4> C 5.0023 -1.6009 -0.9659
|  5> C 4.1299 -1.1904 0.2251
|  6> N 3.0011 -0.3845 -0.2489
|  7> C 1.6761 -0.5120 0.2917
|  8> O 1.4763 -1.2521 1.2931
|  9> N 0.5789 0.2303 -0.2759
| 10> C 0.5163 0.4932 -1.7179
| 11> C 0.3961 1.9946 -1.9530
| 12> C -0.7099 2.5893 -1.1204
| 13> C -1.2963 3.8014 -1.5099
| 14> C -2.2782 4.3922 -0.7148
| 15> C -2.6572 3.7735 0.4758
| 16> N -2.0722 2.6067 0.8528
| 17> C -1.1134 1.9992 0.0989
| 18> C -0.5235 0.6911 0.5874
| 19> C -1.5879 -0.3841 0.7067
| 20> C -1.6350 -1.1974 1.8512
| 21> C -2.5910 -2.2102 1.9657
| 22> C -3.5321 -2.4212 0.9446
| 23> C -4.5312 -3.5461 1.0467
| 24> F -5.6870 -3.2382 0.3499
| 25> F -4.8722 -3.7788 2.3679
| 26> F -3.9776 -4.6958 0.5152
| 27> C -3.4691 -1.6281 -0.2129
| 28> C -2.5127 -0.6160 -0.3282
| 29> C 4.9363 -0.4032 1.2695
| 30> F 5.9863 -1.1726 1.7389
| 31> F 5.4410 0.7609 0.7158
| 32> F 4.1212 -0.0730 2.3374
| 33> H 5.8348 -2.2547 -0.6298
| 34> H 5.4257 -0.7072 -1.4721
| 35> H 4.3909 -2.1674 -1.7003
| 36> H 3.7569 -2.1254 0.6990
| 37> H 3.2050 0.4213 -0.8825
| 38> H 1.4086 0.1028 -2.2505
| 39> H -0.3621 -0.0262 -2.1532
| 40> H 0.2058 2.1753 -3.0334
| 41> H 1.3541 2.4866 -1.6786
| 42> H -0.9905 4.2898 -2.4269
| 43> H -2.7366 5.3255 -1.0154
| 44> H -3.4153 4.2224 1.1035
| 45> H -0.1103 0.9128 1.5975
| 46> H -0.9271 -1.0521 2.6576
| 47> H -2.5922 -2.8310 2.8529
| 48> H -4.1599 -1.7911 -1.0306
| 49> H -2.5032 -0.0091 -1.2237
| 50> *
| 51>
| 52>                          ****END OF INPUT****

CARTESIAN COORDINATES (ANGSTROEM)
---------------------------------
  C      5.002300   -1.600900   -0.965900
  C      4.129900   -1.190400    0.225100
  N      3.001100   -0.384500   -0.248900
  C      1.676100   -0.512000    0.291700
  O      1.476300   -1.252100    1.293100
  N      0.578900    0.230300   -0.275900
  C      0.516300    0.493200   -1.717900
  C      0.396100    1.994600   -1.953000
  C     -0.709900    2.589300   -1.120400
  C     -1.296300    3.801400   -1.509900
  C     -2.278200    4.392200   -0.714800
  C     -2.657200    3.773500    0.475800
  N     -2.072200    2.606700    0.852800
  C     -1.113400    1.999200    0.098900
  C     -0.523500    0.691100    0.587400
  C     -1.587900   -0.384100    0.706700
  C     -1.635000   -1.197400    1.851200
  C     -2.591000   -2.210200    1.965700
  C     -3.532100   -2.421200    0.944600
  C     -4.531200   -3.546100    1.046700
  F     -5.687000   -3.238200    0.349900
  F     -4.872200   -3.778800    2.367900
  F     -3.977600   -4.695800    0.515200
  C     -3.469100   -1.628100   -0.212900
  C     -2.512700   -0.616000   -0.328200
  C      4.936300   -0.403200    1.269500
  F      5.986300   -1.172600    1.738900
  F      5.441000    0.760900    0.715800
  F      4.121200   -0.073000    2.337400
  H      5.834800   -2.254700   -0.629800
  H      5.425700   -0.707200   -1.472100
  H      4.390900   -2.167400   -1.700300
  H      3.756900   -2.125400    0.699000
  H      3.205000    0.421300   -0.882500
  H      1.408600    0.102800   -2.250500
  H     -0.362100   -0.026200   -2.153200
  H      0.205800    2.175300   -3.033400
  H      1.354100    2.486600   -1.678600
  H     -0.990500    4.289800   -2.426900
  H     -2.736600    5.325500   -1.015400
  H     -3.415300    4.222400    1.103500
  H     -0.110300    0.912800    1.597500
  H     -0.927100   -1.052100    2.657600
  H     -2.592200   -2.831000    2.852900
  H     -4.159900   -1.791100   -1.030600
  H     -2.503200   -0.009100   -1.223700

 Total Charge           Charge          ....    0
 Multiplicity           Mult            ....    1
 Number of Electrons    NEL             ....  214
 Basis Dimension        Dim             ....  440

ORBITAL ENERGIES
----------------

  NO   OCC          E(Eh)            E(eV)
   0   2.0000     -24.724276      -672.7818
   1   2.0000     -24.721271      -672.7000
   2   2.0000     -24.712568      -672.4632
   3   2.0000     -24.708592      -672.3550
   4   2.0000     -24.707923      -672.3368
   5   2.0000     -24.704399      -672.2409
   6   2.0000     -19.109763      -520.0031
   7   2.0000     -14.370471      -391.0404
   8   2.0000     -14.361890      -390.8069
   9   2.0000     -14.330934      -389.9645
  10   2.0000     -10.430700      -283.8338
  11   2.0000     -10.422528      -283.6114
  12   2.0000     -10.323958      -280.9292
  13   2.0000     -10.253458      -279.0108
  14   2.0000     -10.239507      -278.6311
  15   2.0000     -10.236645      -278.5533
  16   2.0000     -10.234529      -278.4957
  17   2.0000     -10.223926      -278.2072
  18   2.0000     -10.208565      -277.7892
  19   2.0000     -10.205455      -277.7045
  20   2.0000     -10.203912      -277.6626
  21   2.0000     -10.199819      -277.5512
  22   2.0000     -10.196515      -277.4613
  23   2.0000     -10.196283      -277.4550
  24   2.0000     -10.195635      -277.4373
  25   2.0000     -10.190663      -277.3020
  26   2.0000     -10.187438      -277.2143
  27   2.0000     -10.186969      -277.2015
  28   2.0000     -10.180701      -277.0310
  29   2.0000      -1.279553       -34.8184
  30   2.0000      -1.268000       -34.5040
  31   2.0000      -1.208377       -32.8816
  32   2.0000      -1.200578       -32.6694
  33   2.0000      -1.193705       -32.4824
  34   2.0000      -1.192250       -32.4428
  35   2.0000      -1.025753       -27.9122
  36   2.0000      -0.947241       -25.7757
  37   2.0000      -0.925247       -25.1773
  38   2.0000      -0.920169       -25.0391
  39   2.0000      -0.859279       -23.3822
  40   2.0000      -0.823113       -22.3980
  41   2.0000      -0.802928       -21.8488
  42   2.0000      -0.782893       -21.3036
  43   2.0000      -0.781291       -21.2600
  44   2.0000      -0.755545       -20.5594
  45   2.0000      -0.746379       -20.3100
  46   2.0000      -0.704585       -19.1727
  47   2.0000      -0.702328       -19.1113
  48   2.0000      -0.670800       -18.2534
  49   2.0000      -0.660677       -17.9779
  50   2.0000      -0.635940       -17.3048
  51   2.0000      -0.628069       -17.0906
  52   2.0000      -0.611374       -16.6363
  53   2.0000      -0.606477       -16.5031
  54   2.0000      -0.598692       -16.2912
  55   2.0000      -0.577908       -15.7257
  56   2.0000      -0.568414       -15.4673
  57   2.0000      -0.563765       -15.3408
  58   2.0000      -0.558852       -15.2071
  59   2.0000      -0.556262       -15.1366
  60   2.0000      -0.553174       -15.0526
  61   2.0000      -0.547891       -14.9089
  62   2.0000      -0.533241       -14.5102
  63   2.0000      -0.518195       -14.1008
  64   2.0000      -0.499099       -13.5812
  65   2.0000      -0.493187       -13.4203
  66   2.0000      -0.483121       -13.1464
  67   2.0000      -0.476194       -12.9579
  68   2.0000      -0.466396       -12.6913
  69   2.0000      -0.452692       -12.3184
  70   2.0000      -0.450392       -12.2558
  71   2.0000      -0.446970       -12.1627
  72   2.0000      -0.444750       -12.1023
  73   2.0000      -0.439664       -11.9639
  74   2.0000      -0.437269       -11.8987
  75   2.0000      -0.433336       -11.7917
  76   2.0000      -0.431290       -11.7360
  77   2.0000      -0.429095       -11.6763
  78   2.0000      -0.423836       -11.5332
  79   2.0000      -0.419045       -11.4028
  80   2.0000      -0.416816       -11.3421
  81   2.0000      -0.414312       -11.2740
  82   2.0000      -0.409904       -11.1541
  83   2.0000      -0.409227       -11.1356
  84   2.0000      -0.406981       -11.0745
  85   2.0000      -0.404250       -11.0002
  86   2.0000      -0.399392       -10.8680
  87   2.0000      -0.397235       -10.8093
  88   2.0000      -0.393474       -10.7070
  89   2.0000      -0.386882       -10.5276
  90   2.0000      -0.384297       -10.4573
  91   2.0000      -0.378828       -10.3084
  92   2.0000      -0.377497       -10.2722
  93   2.0000      -0.372513       -10.1366
  94   2.0000      -0.362875        -9.8743
  95   2.0000      -0.356872        -9.7110
  96   2.0000      -0.352992        -9.6054
  97   2.0000      -0.345575        -9.4036
  98   2.0000      -0.342270        -9.3137
  99   2.0000      -0.284887        -7.7522
 100   2.0000      -0.271490        -7.3876
 101   2.0000      -0.262569        -7.1449
 102   2.0000      -0.257016        -6.9938
 103   2.0000      -0.251452        -6.8424
 104   2.0000      -0.249422        -6.7871
 105   2.0000      -0.242359        -6.5949
 106   2.0000      -0.231130        -6.2894
 107   0.0000      -0.034838        -0.9480
 108   0.0000      -0.023153        -0.6300
 109   0.0000      -0.012399        -0.3374
 110   0.0000      -0.000641        -0.0174
 111   0.0000       0.020449         0.5565

MULLIKEN ATOMIC CHARGES
-----------------------
   0 C :   -0.467431
   1 C :   -0.066829
   2 N :   -0.625927
   3 C :    0.688863
   4 O :   -0.486646
   5 N :   -0.441134
   6 C :   -0.164625
   7 C :   -0.334305
   8 C :    0.109602
   9 C :   -0.146177
  10 C :   -0.134613
  11 C :    0.013048
  12 N :   -0.403481
  13 C :    0.195376
  14 C :   -0.113757
  15 C :    0.226145
  16 C :   -0.156625
  17 C :   -0.164511
  18 C :   -0.014438
  19 C :    0.891844
  20 F :   -0.307964
  21 F :   -0.306719
  22 F :   -0.298590
  23 C :   -0.163084
  24 C :   -0.181486
  25 C :    0.940090
  26 F :   -0.304579
  27 F :   -0.311253
  28 F :   -0.293227
  29 H :    0.171475
  30 H :    0.152146
  31 H :    0.166878
  32 H :    0.205106
  33 H :    0.326959
  34 H :    0.152866
  35 H :    0.159649
  36 H :    0.144259
  37 H :    0.154296
  38 H :    0.136286
  39 H :    0.135076
  40 H :    0.152802
  41 H :    0.187398
  42 H :    0.154258
  43 H :    0.150146
  44 H :    0.144771
  45 H :    0.128062
Sum of atomic charges:   -0.0000000

LOEWDIN ATOMIC CHARGES
----------------------
   0 C :   -0.361665
   1 C :   -0.093141
   2 N :   -0.248136
   3 C :    0.165060
   4 O :   -0.306392
   5 N :   -0.115805
   6 C :   -0.156174
   7 C :   -0.232717
   8 C :   -0.041299
   9 C :   -0.107070
  10 C :   -0.144065
  11 C :   -0.067066
  12 N :   -0.128333
  13 C :    0.023001
  14 C :   -0.038065
  15 C :    0.004231
  16 C :   -0.108231
  17 C :   -0.111914
  18 C :   -0.072477
  19 C :    0.309116
  20 F :   -0.116042
  21 F :   -0.114792
  22 F :   -0.115885
  23 C :   -0.116096
  24 C :   -0.131738
  25 C :    0.301148
  26 F :   -0.115301
  27 F :   -0.122091
  28 F :   -0.106743
  29 H :    0.140330
  30 H :    0.127901
  31 H :    0.138317
  32 H :    0.166860
  33 H :    0.250895
  34 H :    0.131211
  35 H :    0.124243
  36 H :    0.129433
  37 H :    0.131594
  38 H :    0.135654
  39 H :    0.136203
  40 H :    0.137009
  41 H :    0.159557
  42 H :    0.145721
  43 H :    0.142760
  44 H :    0.139988
  45 H :    0.131005

  Mayer bond orders larger than 0.100000
B(  0-C ,  1-C ) :   0.9879 B(  0-C , 29-H ) :   0.9376 B(  0-C , 30-H ) :   0.9423
B(  0-C , 31-H ) :   0.9419 B(  1-C ,  2-N ) :   0.9355 B(  1-C , 25-C ) :   0.9328
B(  1-C , 32-H ) :   0.8978 B(  2-N ,  3-C ) :   1.0240 B(  2-N , 33-H ) :   0.8174
B(  3-C ,  4-O ) :   1.7930 B(  3-C ,  5-N ) :   1.0358 B(  5-N ,  6-C ) :   0.9512
B(  5-N , 14-C ) :   0.9296 B(  6-C ,  7-C ) :   0.9803 B(  6-C , 34-H ) :   0.9291
B(  6-C , 35-H ) :   0.9182 B(  7-C ,  8-C ) :   0.9866 B(  7-C , 36-H ) :   0.9270
B(  7-C , 37-H ) :   0.9226 B(  8-C ,  9-C ) :   1.4188 B(  8-C , 13-C ) :   1.3961
B(  9-C , 10-C ) :   1.4525 B(  9-C , 38-H ) :   0.9248 B( 10-C , 11-C ) :   1.4114
B( 10-C , 39-H ) :   0.9243 B( 11-C , 12-N ) :   1.4388 B( 11-C , 40-H ) :   0.9293
B( 12-N , 13-C ) :   1.3593 B( 13-C , 14-C ) :   0.9620 B( 14-C , 15-C ) :   0.9348
B( 14-C , 41-H ) :   0.9014 B( 15-C , 16-C ) :   1.4291 B( 15-C , 24-C ) :   1.4104
B( 16-C , 17-C ) :   1.4222 B( 16-C , 42-H ) :   0.9157 B( 17-C , 18-C ) :   1.4083
B( 17-C , 43-H ) :   0.9208 B( 18-C , 19-C ) :   0.9810 B( 18-C , 23-C ) :   1.4111
B( 19-C , 20-F ) :   0.9459 B( 19-C , 21-F ) :   0.9475 B( 19-C , 22-F ) :   0.9847
B( 23-C , 24-C ) :   1.4308 B( 23-C , 44-H ) :   0.9213 B( 24-C , 45-H ) :   0.9185
B( 25-C , 26-F ) :   0.9579 B( 25-C , 27-F ) :   0.9543 B( 25-C , 28-F ) :   0.9878

FINAL SINGLE POINT ENERGY     -1571.978272539351

DIPOLE MOMENT
-------------

Method             : SCF
Type of density    : Electron Density
Multiplicity       :   1
Irrep              :   0
Energy             : -1571.9782725393513374 Eh
Relativity type    :
Basis              : AO
                                X                 Y                 Z
Electronic contribution:     -7.174780920     -20.271526933      19.560931674
Nuclear contribution   :      8.136200259      21.883620620     -21.800319804
                        -----------------------------------------
Total Dipole Moment    :      0.961419339       1.612093687      -2.239388130
                        -----------------------------------------
Magnitude (a.u.)       :      2.921991170
Magnitude (Debye)      :      7.427111313

Rotational constants in cm-1:             0.006373             0.002951             0.002246
Rotational constants in MHz :           191.044534            88.457564            67.329398

                             ****ORCA TERMINATED NORMALLY****
TOTAL RUN TIME: 0 days 0 hours 4 minutes 29 seconds 520 msec
