                         Program Version 6.0.0  -   RELEASE  -
|  1> ! B3LYP 6-31G* SP
|  2>
|  3> * xyz 0 1
|  4> C -3.7798 4.5450 1.8642
|  5> O -3.9577 3.2042 2.3063
|  6> C -3.2408 2.1047 1.8113
|  7> C -2.2765 2.2279 0.7940
|  8> C -1.5897 1.1011 0.3332
|  9> C -1.8411 -0.1660 0.8900
| 10> C -1.1302 -1.4057 0.3806
| 11> N 0.2683 -1.1094 0.0467
| 12> C 1.2255 -0.7320 1.0501
| 13> O 0.9476 -0.9014 2.2697
| 14> C 2.5412 -0.1601 0.6763
| 15> C 3.6237 -0.2431 1.5713
| 16> C 4.8690 0.2977 1.2380
| 17> C 5.0485 0.9391 0.0065
| 18> C 6.2842 1.4932 -0.3530
| 19> C 6.4253 2.1319 -1.5864
| 20> C 5.3292 2.2108 -2.4486
| 21> N 4.1352 1.6685 -2.0883
| 22> C 3.9668 1.0383 -0.8942
| 23> C 2.7226 0.4942 -0.5566
| 24> C -1.8547 -1.9563 -0.8367
| 25> N -2.1123 -1.0925 -1.8600
| 26> C -2.7402 -1.4712 -3.0005
| 27> C -3.1466 -2.7901 -3.1646
| 28> C -2.8920 -3.7132 -2.1543
| 29> C -2.2298 -3.3234 -0.9733
| 30> C -1.9560 -4.3529 0.1064
| 31> F -2.3381 -5.6245 -0.2862
| 32> F -2.6632 -4.0272 1.2493
| 33> F -0.6024 -4.3866 0.3917
| 34> C -2.8151 -0.2848 1.8944
| 35> C -3.5031 0.8418 2.3526
| 36> H -2.7394 4.8750 2.0616
| 37> H -4.4742 5.2065 2.4214
| 38> H -4.0068 4.6236 0.7809
| 39> H -2.0538 3.1883 0.3495
| 40> H -0.8629 1.2186 -0.4605
| 41> H -1.1233 -2.1469 1.2025
| 42> H 0.5886 -1.2156 -0.9417
| 43> H 3.5101 -0.7377 2.5277
| 44> H 5.6891 0.2138 1.9409
| 45> H 7.1338 1.4352 0.3163
| 46> H 7.3758 2.5640 -1.8718
| 47> H 5.4279 2.7053 -3.4056
| 48> H 1.8993 0.6068 -1.2494
| 49> H -2.9242 -0.7441 -3.7801
| 50> H -3.6524 -3.0969 -4.0711
| 51> H -3.2143 -4.7348 -2.3062
| 52> H -3.0439 -1.2516 2.3236
| 53> H -4.2471 0.7326 3.1320
| 54> *
| 55>
| 56>                          ****END OF INPUT****

CARTESIAN COORDINATES (ANGSTROEM)
---------------------------------
  C     -3.779800    4.545000    1.864200
  O     -3.957700    3.204200    2.306300
  C     -3.240800    2.104700    1.811300
  C     -2.276500    2.227900    0.794000
  C     -1.589700    1.101100    0.333200
  C     -1.841100   -0.166000    0.890000
  C     -1.130200   -1.405700    0.380600
  N      0.268300   -1.109400    0.046700
  C      1.225500   -0.732000    1.050100
  O      0.947600   -0.901400    2.269700
  C      2.541200   -0.160100    0.676300
  C      3.623700   -0.243100    1.571300
  C      4.869000    0.297700    1.238000
  C      5.048500    0.939100    0.006500
  C      6.284200    1.493200   -0.353000
  C      6.425300    2.131900   -1.586400
  C      5.329200    2.210800   -2.448600
  N      4.135200    1.668500   -2.088300
  C      3.966800    1.038300   -0.894200
  C      2.722600    0.494200   -0.556600
  C     -1.854700   -1.956300   -0.836700
  N     -2.112300   -1.092500   -1.860000
  C     -2.740200   -1.471200   -3.000500
  C     -3.146600   -2.790100   -3.164600
  C     -2.892000   -3.713200   -2.154300
  C     -2.229800   -3.323400   -0.973300
  C     -1.956000   -4.352900    0.106400
  F     -2.338100   -5.624500   -0.286200
  F     -2.663200   -4.027200    1.249300
  F     -0.602400   -4.386600    0.391700
  C     -2.815100   -0.284800    1.894400
  C     -3.503100    0.841800    2.352600
  H     -2.739400    4.875000    2.061600
  H     -4.474200    5.206500    2.421400
  H     -4.006800    4.623600    0.780900
  H     -2.053800    3.188300    0.349500
  H     -0.862900    1.218600   -0.460500
  H     -1.123300   -2.146900    1.202500
  H      0.588600   -1.215600   -0.941700
  H      3.510100   -0.737700    2.527700
  H      5.689100    0.213800    1.940900
  H      7.133800    1.435200    0.316300
  H      7.375800    2.564000   -1.871800
  H      5.427900    2.705300   -3.405600
  H      1.899300    0.606800   -1.249400
  H     -2.924200   -0.744100   -3.780100
  H     -3.652400   -3.096900   -4.071100
  H     -3.214300   -4.734800   -2.306200
  H     -3.043900   -1.251600    2.323600
  H     -4.247100    0.732600    3.132000

 Total Charge           Charge          ....    0
 Multiplicity           Mult            ....    1
 Number of Electrons    NEL             ....  226
 Basis Dimension        Dim             ....  484

ORBITAL ENERGIES
----------------

  NO   OCC          E(Eh)            E(eV)
   0   2.0000     -24.728704      -672.9022
   1   2.0000     -24.726237      -672.8351
   2   2.0000     -24.724160      -672.7786
   3   2.0000     -19.153412      -521.1908
   4   2.0000     -19.105368      -519.8835
   5   2.0000     -14.351471      -390.5234
   6   2.0000     -14.343707      -390.3121
   7   2.0000     -14.326042      -389.8314
   8   2.0000     -10.444233      -284.2020
   9   2.0000     -10.285508      -279.8829
  10   2.0000     -10.254713      -279.0449
  11   2.0000     -10.237934      -278.5884
  12   2.0000     -10.233379      -278.4644
  13   2.0000     -10.230176      -278.3772
  14   2.0000     -10.229764      -278.3660
  15   2.0000     -10.228266      -278.3253
  16   2.0000     -10.224163      -278.2136
  17   2.0000     -10.222029      -278.1556
  18   2.0000     -10.221916      -278.1525
  19   2.0000     -10.207826      -277.7691
  20   2.0000     -10.205684      -277.7108
  21   2.0000     -10.203688      -277.6565
  22   2.0000     -10.198314      -277.5102
  23   2.0000     -10.195770      -277.4410
  24   2.0000     -10.195004      -277.4202
  25   2.0000     -10.191957      -277.3372
  26   2.0000     -10.191246      -277.3179
  27   2.0000     -10.174011      -276.8489
  28   2.0000     -10.171708      -276.7863
  29   2.0000     -10.170135      -276.7434
  30   2.0000     -10.168655      -276.7032
  31   2.0000     -10.166786      -276.6523
  32   2.0000      -1.287358       -35.0308
  33   2.0000      -1.212488       -32.9935
  34   2.0000      -1.210883       -32.9498
  35   2.0000      -1.031458       -28.0674
  36   2.0000      -1.005166       -27.3519
  37   2.0000      -0.952042       -25.9064
  38   2.0000      -0.936548       -25.4848
  39   2.0000      -0.901408       -24.5286
  40   2.0000      -0.853048       -23.2126
  41   2.0000      -0.835597       -22.7377
  42   2.0000      -0.827926       -22.5290
  43   2.0000      -0.810497       -22.0547
  44   2.0000      -0.799947       -21.7677
  45   2.0000      -0.766787       -20.8653
  46   2.0000      -0.753459       -20.5026
  47   2.0000      -0.741443       -20.1757
  48   2.0000      -0.732806       -19.9407
  49   2.0000      -0.716864       -19.5068
  50   2.0000      -0.699519       -19.0349
  51   2.0000      -0.671053       -18.2603
  52   2.0000      -0.661074       -17.9887
  53   2.0000      -0.642258       -17.4767
  54   2.0000      -0.637294       -17.3417
  55   2.0000      -0.619832       -16.8665
  56   2.0000      -0.609597       -16.5880
  57   2.0000      -0.598364       -16.2823
  58   2.0000      -0.582244       -15.8437
  59   2.0000      -0.577562       -15.7163
  60   2.0000      -0.576363       -15.6836
  61   2.0000      -0.567039       -15.4299
  62   2.0000      -0.559972       -15.2376
  63   2.0000      -0.540591       -14.7102
  64   2.0000      -0.519662       -14.1407
  65   2.0000      -0.516861       -14.0645
  66   2.0000      -0.514927       -14.0119
  67   2.0000      -0.512962       -13.9584
  68   2.0000      -0.504144       -13.7185
  69   2.0000      -0.482106       -13.1188
  70   2.0000      -0.471488       -12.8299
  71   2.0000      -0.465308       -12.6617
  72   2.0000      -0.456922       -12.4335
  73   2.0000      -0.454946       -12.3797
  74   2.0000      -0.453308       -12.3351
  75   2.0000      -0.450337       -12.2543
  76   2.0000      -0.448222       -12.1967
  77   2.0000      -0.444938       -12.1074
  78   2.0000      -0.435018       -11.8374
  79   2.0000      -0.431676       -11.7465
  80   2.0000      -0.428162       -11.6509
  81   2.0000      -0.426297       -11.6001
  82   2.0000      -0.424182       -11.5426
  83   2.0000      -0.416036       -11.3209
  84   2.0000      -0.413480       -11.2514
  85   2.0000      -0.412596       -11.2273
  86   2.0000      -0.408152       -11.1064
  87   2.0000      -0.406534       -11.0624
  88   2.0000      -0.405239       -11.0271
  89   2.0000      -0.402525       -10.9533
  90   2.0000      -0.397220       -10.8089
  91   2.0000      -0.391850       -10.6628
  92   2.0000      -0.379213       -10.3189
  93   2.0000      -0.372810       -10.1447
  94   2.0000      -0.367511       -10.0005
  95   2.0000      -0.358164        -9.7461
  96   2.0000      -0.355925        -9.6852
  97   2.0000      -0.352622        -9.5953
  98   2.0000      -0.339896        -9.2490
  99   2.0000      -0.330657        -8.9976
 100   2.0000      -0.306377        -8.3369
 101   2.0000      -0.303441        -8.2570
 102   2.0000      -0.302246        -8.2245
 103   2.0000      -0.295274        -8.0348
 104   2.0000      -0.278883        -7.5888
 105   2.0000      -0.264355        -7.1935
 106   2.0000      -0.257990        -7.0203
 107   2.0000      -0.248300        -6.7566
 108   2.0000      -0.244594        -6.6557
 109   2.0000      -0.239111        -6.5065
 110   2.0000      -0.233935        -6.3657
 111   2.0000      -0.230000        -6.2586
 112   2.0000      -0.201624        -5.4865
 113   0.0000      -0.067449        -1.8354
 114   0.0000      -0.046422        -1.2632
 115   0.0000      -0.042599        -1.1592
 116   0.0000      -0.030957        -0.8424
 117   0.0000       0.012281         0.3342

MULLIKEN ATOMIC CHARGES
-----------------------
   0 C :   -0.192032
   1 O :   -0.514241
   2 C :    0.372033
   3 C :   -0.210890
   4 C :   -0.139542
   5 C :    0.159897
   6 C :   -0.054319
   7 N :   -0.644012
   8 C :    0.516569
   9 O :   -0.478200
  10 C :    0.079228
  11 C :   -0.155399
  12 C :   -0.208596
  13 C :    0.171109
  14 C :   -0.152989
  15 C :   -0.145161
  16 C :    0.014296
  17 N :   -0.435210
  18 C :    0.210791
  19 C :   -0.201055
  20 C :    0.190515
  21 N :   -0.396194
  22 C :    0.027652
  23 C :   -0.134824
  24 C :   -0.131991
  25 C :   -0.064543
  26 C :    0.919613
  27 F :   -0.304601
  28 F :   -0.296215
  29 F :   -0.296464
  30 C :   -0.168038
  31 C :   -0.176612
  32 H :    0.146394
  33 H :    0.164869
  34 H :    0.143147
  35 H :    0.126888
  36 H :    0.130861
  37 H :    0.179790
  38 H :    0.329411
  39 H :    0.163005
  40 H :    0.138642
  41 H :    0.143982
  42 H :    0.135679
  43 H :    0.150432
  44 H :    0.147076
  45 H :    0.160587
  46 H :    0.146522
  47 H :    0.167069
  48 H :    0.131488
  49 H :    0.133583
Sum of atomic charges:   -0.0000000

LOEWDIN ATOMIC CHARGES
----------------------
   0 C :   -0.199195
   1 O :   -0.196205
   2 C :    0.088745
   3 C :   -0.175248
   4 C :   -0.108769
   5 C :   -0.030837
   6 C :   -0.054006
   7 N :   -0.232428
   8 C :    0.146346
   9 O :   -0.279861
  10 C :   -0.041639
  11 C :   -0.099072
  12 C :   -0.119318
  13 C :   -0.022791
  14 C :   -0.093133
  15 C :   -0.146940
  16 C :   -0.064124
  17 N :   -0.131347
  18 C :    0.013034
  19 C :   -0.109681
  20 C :    0.049254
  21 N :   -0.122355
  22 C :   -0.053881
  23 C :   -0.142209
  24 C :   -0.090578
  25 C :   -0.081457
  26 C :    0.312319
  27 F :   -0.109441
  28 F :   -0.109448
  29 F :   -0.107256
  30 C :   -0.119190
  31 C :   -0.150125
  32 H :    0.115897
  33 H :    0.133067
  34 H :    0.114044
  35 H :    0.132837
  36 H :    0.134222
  37 H :    0.147563
  38 H :    0.252780
  39 H :    0.152335
  40 H :    0.136408
  41 H :    0.139083
  42 H :    0.136524
  43 H :    0.135949
  44 H :    0.144363
  45 H :    0.140601
  46 H :    0.141856
  47 H :    0.150124
  48 H :    0.134247
  49 H :    0.138935

  Mayer bond orders larger than 0.100000
B(  0-C ,  1-O ) :   0.9253 B(  0-C , 32-H ) :   0.9308 B(  0-C , 33-H ) :   0.9460
B(  0-C , 34-H ) :   0.9308 B(  1-O ,  2-C ) :   0.9148 B(  2-C ,  3-C ) :   1.3634
B(  2-C , 31-C ) :   1.4023 B(  3-C ,  4-C ) :   1.4277 B(  3-C , 35-H ) :   0.9198
B(  4-C ,  5-C ) :   1.4249 B(  4-C , 36-H ) :   0.9168 B(  5-C ,  6-C ) :   0.9473
B(  5-C , 30-C ) :   1.4192 B(  6-C ,  7-N ) :   0.8899 B(  6-C , 20-C ) :   0.9502
B(  6-C , 37-H ) :   0.8951 B(  7-N ,  8-C ) :   1.0367 B(  7-N , 38-H ) :   0.8163
B(  8-C ,  9-O ) :   1.7987 B(  8-C , 10-C ) :   0.9838 B( 10-C , 11-C ) :   1.3131
B( 10-C , 19-C ) :   1.4398 B( 11-C , 12-C ) :   1.4964 B( 11-C , 39-H ) :   0.9139
B( 12-C , 13-C ) :   1.2725 B( 12-C , 40-H ) :   0.9246 B( 13-C , 14-C ) :   1.3056
B( 13-C , 18-C ) :   1.2564 B( 14-C , 15-C ) :   1.5110 B( 14-C , 41-H ) :   0.9238
B( 15-C , 16-C ) :   1.3265 B( 15-C , 42-H ) :   0.9248 B( 16-C , 17-N ) :   1.5124
B( 16-C , 43-H ) :   0.9302 B( 17-N , 18-C ) :   1.2499 B( 18-C , 19-C ) :   1.2864
B( 19-C , 44-H ) :   0.9060 B( 20-C , 21-N ) :   1.3876 B( 20-C , 25-C ) :   1.3540
B( 21-N , 22-C ) :   1.4252 B( 22-C , 23-C ) :   1.4162 B( 22-C , 45-H ) :   0.9268
B( 23-C , 24-C ) :   1.4363 B( 23-C , 46-H ) :   0.9234 B( 24-C , 25-C ) :   1.4061
B( 24-C , 47-H ) :   0.9165 B( 25-C , 26-C ) :   0.9700 B( 26-C , 27-F ) :   0.9429
B( 26-C , 28-F ) :   0.9448 B( 26-C , 29-F ) :   0.9411 B( 30-C , 31-C ) :   1.4404
B( 30-C , 48-H ) :   0.9208 B( 31-C , 49-H ) :   0.9204

FINAL SINGLE POINT ENERGY     -1538.740915908485

DIPOLE MOMENT
-------------

Method             : SCF
Type of density    : Electron Density
Multiplicity       :   1
Irrep              :   0
Energy             : -1538.7409159084852490 Eh
Relativity type    :
Basis              : AO
                                X                 Y                 Z
Electronic contribution:     -5.185937153     -33.026640877       1.372966109
Nuclear contribution   :      5.738555596      33.345887287      -3.186861027
                        -----------------------------------------
Total Dipole Moment    :      0.552618443       0.319246410      -1.813894918
                        -----------------------------------------
Magnitude (a.u.)       :      1.922893702
Magnitude (Debye)      :      4.887607366

Rotational constants in cm-1:             0.004956             0.002773             0.002185
Rotational constants in MHz :           148.590462            83.138216            65.494929

                             ****ORCA TERMINATED NORMALLY****
TOTAL RUN TIME: 0 days 0 hours 5 minutes 3 seconds 60 msec
