                         Program Version 6.0.0  -   RELEASE  -
|  1> ! B3LYP 6-31G* SP
|  2>
|  3> * xyz 0 1
|  4> C 3.7653 -2.5454 1.0993
|  5> N 3.8453 -1.3061 0.3022
|  6> C 3.2542 -0.1614 0.7682
|  7> O 2.6376 -0.1955 1.8669
|  8> C 3.3438 1.0445 0.0322
|  9> C 2.7537 2.2878 0.4344
| 10> C 1.9186 2.4738 1.6883
| 11> C 0.5525 1.8677 1.5293
| 12> O -0.1174 2.1155 0.4895
| 13> N -0.0035 1.0623 2.5803
| 14> C -1.2250 0.3240 2.4531
| 15> N -1.9631 0.2679 1.3240
| 16> C -3.0634 -0.5213 1.4721
| 17> C -4.0043 -0.7504 0.3492
| 18> C -3.5173 -0.7169 -0.9665
| 19> C -4.3772 -0.9119 -2.0454
| 20> C -5.7349 -1.1519 -1.8323
| 21> F -6.5435 -1.2995 -2.9123
| 22> C -6.2502 -1.2147 -0.5213
| 23> C -7.7321 -1.4205 -0.2838
| 24> F -8.3570 -0.1891 -0.2203
| 25> F -7.9514 -2.0990 0.9022
| 26> F -8.3050 -2.1637 -1.3009
| 27> C -5.3811 -0.9735 0.5660
| 28> F -5.8878 -0.8926 1.8236
| 29> C -3.1867 -1.1138 2.7322
| 30> S -1.8860 -0.6158 3.6762
| 31> C 2.9119 3.4129 -0.3912
| 32> C 3.6444 3.3220 -1.5652
| 33> N 4.1989 2.1431 -1.9272
| 34> C 4.0726 1.0085 -1.1831
| 35> N 4.6570 -0.1528 -1.6150
| 36> C 5.4406 -0.1552 -2.8656
| 37> C 4.5762 -1.2895 -0.8557
| 38> O 5.1862 -2.3338 -1.2245
| 39> H 2.7920 -2.6212 1.6300
| 40> H 4.5895 -2.5637 1.8431
| 41> H 3.8334 -3.4493 0.4571
| 42> H 2.4506 2.0666 2.5721
| 43> H 1.7809 3.5530 1.9163
| 44> H 0.5193 0.9844 3.4813
| 45> H -2.4665 -0.5401 -1.1616
| 46> H -3.9887 -0.8708 -3.0550
| 47> H -3.9548 -1.8061 3.0484
| 48> H 2.4676 4.3653 -0.1284
| 49> H 3.7704 4.1916 -2.1963
| 50> H 6.4595 0.2390 -2.6677
| 51> H 5.5248 -1.1731 -3.3014
| 52> H 4.9501 0.4685 -3.6432
| 53> *
| 54>
| 55>                          ****END OF INPUT****

CARTESIAN COORDINATES (ANGSTROEM)
---------------------------------
  C      3.765300   -2.545400    1.099300
  N      3.845300   -1.306100    0.302200
  C      3.254200   -0.161400    0.768200
  O      2.637600   -0.195500    1.866900
  C      3.343800    1.044500    0.032200
  C      2.753700    2.287800    0.434400
  C      1.918600    2.473800    1.688300
  C      0.552500    1.867700    1.529300
  O     -0.117400    2.115500    0.489500
  N     -0.003500    1.062300    2.580300
  C     -1.225000    0.324000    2.453100
  N     -1.963100    0.267900    1.324000
  C     -3.063400   -0.521300    1.472100
  C     -4.004300   -0.750400    0.349200
  C     -3.517300   -0.716900   -0.966500
  C     -4.377200   -0.911900   -2.045400
  C     -5.734900   -1.151900   -1.832300
  F     -6.543500   -1.299500   -2.912300
  C     -6.250200   -1.214700   -0.521300
  C     -7.732100   -1.420500   -0.283800
  F     -8.357000   -0.189100   -0.220300
  F     -7.951400   -2.099000    0.902200
  F     -8.305000   -2.163700   -1.300900
  C     -5.381100   -0.973500    0.566000
  F     -5.887800   -0.892600    1.823600
  C     -3.186700   -1.113800    2.732200
  S     -1.886000   -0.615800    3.676200
  C      2.911900    3.412900   -0.391200
  C      3.644400    3.322000   -1.565200
  N      4.198900    2.143100   -1.927200
  C      4.072600    1.008500   -1.183100
  N      4.657000   -0.152800   -1.615000
  C      5.440600   -0.155200   -2.865600
  C      4.576200   -1.289500   -0.855700
  O      5.186200   -2.333800   -1.224500
  H      2.792000   -2.621200    1.630000
  H      4.589500   -2.563700    1.843100
  H      3.833400   -3.449300    0.457100
  H      2.450600    2.066600    2.572100
  H      1.780900    3.553000    1.916300
  H      0.519300    0.984400    3.481300
  H     -2.466500   -0.540100   -1.161600
  H     -3.988700   -0.870800   -3.055000
  H     -3.954800   -1.806100    3.048400
  H      2.467600    4.365300   -0.128400
  H      3.770400    4.191600   -2.196300
  H      6.459500    0.239000   -2.667700
  H      5.524800   -1.173100   -3.301400
  H      4.950100    0.468500   -3.643200

 Total Charge           Charge          ....    0
 Multiplicity           Mult            ....    1
 Number of Electrons    NEL             ....  260
 Basis Dimension        Dim             ....  522

ORBITAL ENERGIES
----------------

  NO   OCC          E(Eh)            E(eV)
   0   2.0000     -88.906827     -2419.2777
   1   2.0000     -24.720291      -672.6733
   2   2.0000     -24.713098      -672.4776
   3   2.0000     -24.713042      -672.4761
   4   2.0000     -24.712385      -672.4582
   5   2.0000     -24.711792      -672.4421
   6   2.0000     -19.125123      -520.4211
   7   2.0000     -19.119111      -520.2575
   8   2.0000     -19.117426      -520.2116
   9   2.0000     -14.408385      -392.0721
  10   2.0000     -14.406107      -392.0101
  11   2.0000     -14.393594      -391.6696
  12   2.0000     -14.344384      -390.3305
  13   2.0000     -14.327954      -389.8834
  14   2.0000     -10.437549      -284.0201
  15   2.0000     -10.333544      -281.1900
  16   2.0000     -10.307793      -280.4893
  17   2.0000     -10.305948      -280.4391
  18   2.0000     -10.297512      -280.2095
  19   2.0000     -10.293037      -280.0878
  20   2.0000     -10.291253      -280.0392
  21   2.0000     -10.290813      -280.0273
  22   2.0000     -10.245258      -278.7876
  23   2.0000     -10.243958      -278.7523
  24   2.0000     -10.231079      -278.4018
  25   2.0000     -10.226734      -278.2836
  26   2.0000     -10.225755      -278.2569
  27   2.0000     -10.225524      -278.2507
  28   2.0000     -10.222334      -278.1638
  29   2.0000     -10.216911      -278.0163
  30   2.0000     -10.215638      -277.9816
  31   2.0000     -10.210660      -277.8462
  32   2.0000     -10.208553      -277.7888
  33   2.0000     -10.204143      -277.6688
  34   2.0000     -10.201098      -277.5860
  35   2.0000      -7.984820      -217.2780
  36   2.0000      -5.947848      -161.8492
  37   2.0000      -5.943771      -161.7382
  38   2.0000      -5.941619      -161.6797
  39   2.0000      -1.275229       -34.7007
  40   2.0000      -1.232535       -33.5390
  41   2.0000      -1.225347       -33.3434
  42   2.0000      -1.199061       -32.6281
  43   2.0000      -1.197683       -32.5906
  44   2.0000      -1.078306       -29.3422
  45   2.0000      -1.034028       -28.1373
  46   2.0000      -1.023121       -27.8405
  47   2.0000      -0.991571       -26.9820
  48   2.0000      -0.976688       -26.5770
  49   2.0000      -0.950233       -25.8572
  50   2.0000      -0.931569       -25.3493
  51   2.0000      -0.915599       -24.9147
  52   2.0000      -0.881870       -23.9969
  53   2.0000      -0.843478       -22.9522
  54   2.0000      -0.815996       -22.2044
  55   2.0000      -0.800764       -21.7899
  56   2.0000      -0.798365       -21.7246
  57   2.0000      -0.778578       -21.1862
  58   2.0000      -0.763432       -20.7740
  59   2.0000      -0.744129       -20.2488
  60   2.0000      -0.724416       -19.7124
  61   2.0000      -0.718866       -19.5613
  62   2.0000      -0.697387       -18.9769
  63   2.0000      -0.673045       -18.3145
  64   2.0000      -0.671108       -18.2618
  65   2.0000      -0.646902       -17.6031
  66   2.0000      -0.638255       -17.3678
  67   2.0000      -0.630242       -17.1498
  68   2.0000      -0.611428       -16.6378
  69   2.0000      -0.604286       -16.4435
  70   2.0000      -0.579581       -15.7712
  71   2.0000      -0.572963       -15.5911
  72   2.0000      -0.566735       -15.4216
  73   2.0000      -0.566091       -15.4041
  74   2.0000      -0.559647       -15.2288
  75   2.0000      -0.554112       -15.0782
  76   2.0000      -0.534944       -14.5566
  77   2.0000      -0.534025       -14.5315
  78   2.0000      -0.526880       -14.3371
  79   2.0000      -0.516120       -14.0443
  80   2.0000      -0.511803       -13.9269
  81   2.0000      -0.499102       -13.5813
  82   2.0000      -0.496732       -13.5168
  83   2.0000      -0.494182       -13.4474
  84   2.0000      -0.490299       -13.3417
  85   2.0000      -0.481111       -13.0917
  86   2.0000      -0.472686       -12.8624
  87   2.0000      -0.468603       -12.7513
  88   2.0000      -0.464356       -12.6358
  89   2.0000      -0.463841       -12.6218
  90   2.0000      -0.457656       -12.4534
  91   2.0000      -0.452948       -12.3254
  92   2.0000      -0.443520       -12.0688
  93   2.0000      -0.440364       -11.9829
  94   2.0000      -0.434495       -11.8232
  95   2.0000      -0.432878       -11.7792
  96   2.0000      -0.428466       -11.6591
  97   2.0000      -0.423778       -11.5316
  98   2.0000      -0.422129       -11.4867
  99   2.0000      -0.417429       -11.3588
 100   2.0000      -0.413465       -11.2510
 101   2.0000      -0.411975       -11.2104
 102   2.0000      -0.405392       -11.0313
 103   2.0000      -0.403652       -10.9839
 104   2.0000      -0.402221       -10.9450
 105   2.0000      -0.399457       -10.8698
 106   2.0000      -0.396691       -10.7945
 107   2.0000      -0.394258       -10.7283
 108   2.0000      -0.391135       -10.6433
 109   2.0000      -0.387218       -10.5367
 110   2.0000      -0.385673       -10.4947
 111   2.0000      -0.379619       -10.3300
 112   2.0000      -0.373137       -10.1536
 113   2.0000      -0.363811        -9.8998
 114   2.0000      -0.358698        -9.7607
 115   2.0000      -0.354340        -9.6421
 116   2.0000      -0.325900        -8.8682
 117   2.0000      -0.310117        -8.4387
 118   2.0000      -0.295053        -8.0288
 119   2.0000      -0.289401        -7.8750
 120   2.0000      -0.286497        -7.7960
 121   2.0000      -0.284079        -7.7302
 122   2.0000      -0.277752        -7.5580
 123   2.0000      -0.274258        -7.4629
 124   2.0000      -0.268751        -7.3131
 125   2.0000      -0.256048        -6.9674
 126   2.0000      -0.252101        -6.8600
 127   2.0000      -0.244914        -6.6645
 128   2.0000      -0.239862        -6.5270
 129   2.0000      -0.214704        -5.8424
 130   0.0000      -0.074442        -2.0257
 131   0.0000      -0.040025        -1.0891
 132   0.0000      -0.035956        -0.9784
 133   0.0000      -0.031278        -0.8511
 134   0.0000      -0.021123        -0.5748

MULLIKEN ATOMIC CHARGES
-----------------------
   0 C :   -0.315668
   1 N :   -0.467572
   2 C :    0.510750
   3 O :   -0.513534
   4 C :    0.014122
   5 C :    0.169117
   6 C :   -0.436303
   7 C :    0.585312
   8 O :   -0.434748
   9 N :   -0.644870
  10 C :    0.255240
  11 N :   -0.374394
  12 C :    0.213192
  13 C :    0.020359
  14 C :   -0.129339
  15 C :   -0.213926
  16 C :    0.406700
  17 F :   -0.299136
  18 C :   -0.217101
  19 C :    0.928044
  20 F :   -0.293475
  21 F :   -0.301091
  22 F :   -0.298745
  23 C :    0.348591
  24 F :   -0.295269
  25 C :   -0.381089
  26 S :    0.254499
  27 C :   -0.193616
  28 C :    0.040611
  29 N :   -0.442412
  30 C :    0.423444
  31 N :   -0.475361
  32 C :   -0.316088
  33 C :    0.677531
  34 O :   -0.501298
  35 H :    0.193497
  36 H :    0.178584
  37 H :    0.200058
  38 H :    0.179431
  39 H :    0.180218
  40 H :    0.350587
  41 H :    0.184133
  42 H :    0.157563
  43 H :    0.191801
  44 H :    0.146448
  45 H :    0.164031
  46 H :    0.176237
  47 H :    0.202453
  48 H :    0.192483
Sum of atomic charges:    0.0000000

LOEWDIN ATOMIC CHARGES
----------------------
   0 C :   -0.258712
   1 N :   -0.020075
   2 C :    0.116638
   3 O :   -0.299466
   4 C :   -0.082441
   5 C :    0.068475
   6 C :   -0.242108
   7 C :    0.160253
   8 O :   -0.248353
   9 N :   -0.195998
  10 C :   -0.079045
  11 N :   -0.155749
  12 C :   -0.007652
  13 C :   -0.047646
  14 C :   -0.082365
  15 C :   -0.159065
  16 C :    0.137587
  17 F :   -0.089029
  18 C :   -0.126564
  19 C :    0.317233
  20 F :   -0.110981
  21 F :   -0.110832
  22 F :   -0.107995
  23 C :    0.142096
  24 F :   -0.084433
  25 C :   -0.338901
  26 S :    0.391635
  27 C :   -0.152798
  28 C :   -0.037302
  29 N :   -0.158593
  30 C :    0.082403
  31 N :   -0.017217
  32 C :   -0.259973
  33 C :    0.138308
  34 O :   -0.309749
  35 H :    0.151498
  36 H :    0.141173
  37 H :    0.155336
  38 H :    0.148428
  39 H :    0.150204
  40 H :    0.270292
  41 H :    0.161868
  42 H :    0.150952
  43 H :    0.165949
  44 H :    0.143194
  45 H :    0.143324
  46 H :    0.139587
  47 H :    0.156366
  48 H :    0.150241

  Mayer bond orders larger than 0.100000
B(  0-C ,  1-N ) :   0.9165 B(  0-C , 35-H ) :   0.9253 B(  0-C , 36-H ) :   0.9402
B(  0-C , 37-H ) :   0.9242 B(  1-N ,  2-C ) :   1.0085 B(  1-N , 33-C ) :   1.0327
B(  2-C ,  3-O ) :   1.7301 B(  2-C ,  4-C ) :   1.0581 B(  4-C ,  5-C ) :   1.3675
B(  4-C , 30-C ) :   1.2536 B(  5-C ,  6-C ) :   0.9991 B(  5-C , 27-C ) :   1.4294
B(  6-C ,  7-C ) :   0.9354 B(  6-C , 38-H ) :   0.9015 B(  6-C , 39-H ) :   0.9109
B(  7-C ,  8-O ) :   1.9024 B(  7-C ,  9-N ) :   0.9877 B(  9-N , 10-C ) :   0.9585
B(  9-N , 40-H ) :   0.8171 B( 10-C , 11-N ) :   1.5115 B( 10-C , 25-C ) :   0.1081
B( 10-C , 26-S ) :   1.1395 B( 11-N , 12-C ) :   1.2695 B( 12-C , 13-C ) :   1.0123
B( 12-C , 25-C ) :   1.5231 B( 13-C , 14-C ) :   1.4010 B( 13-C , 23-C ) :   1.3331
B( 14-C , 15-C ) :   1.4149 B( 14-C , 41-H ) :   0.9089 B( 15-C , 16-C ) :   1.3851
B( 15-C , 42-H ) :   0.9178 B( 16-C , 17-F ) :   0.9499 B( 16-C , 18-C ) :   1.3244
B( 18-C , 19-C ) :   0.9454 B( 18-C , 23-C ) :   1.3102 B( 19-C , 20-F ) :   0.9979
B( 19-C , 21-F ) :   0.9556 B( 19-C , 22-F ) :   0.9582 B( 23-C , 24-F ) :   0.9515
B( 25-C , 26-S ) :   1.1194 B( 25-C , 43-H ) :   0.9005 B( 27-C , 28-C ) :   1.3860
B( 27-C , 44-H ) :   0.9173 B( 28-C , 29-N ) :   1.4352 B( 28-C , 45-H ) :   0.9261
B( 29-N , 30-C ) :   1.3455 B( 30-C , 31-N ) :   1.0121 B( 31-N , 32-C ) :   0.9198
B( 31-N , 33-C ) :   1.0457 B( 32-C , 46-H ) :   0.9398 B( 32-C , 47-H ) :   0.9221
B( 32-C , 48-H ) :   0.9261 B( 33-C , 34-O ) :   1.7967

FINAL SINGLE POINT ENERGY     -2204.495259229631

DIPOLE MOMENT
-------------

Method             : SCF
Type of density    : Electron Density
Multiplicity       :   1
Irrep              :   0
Energy             : -2204.4952592296313014 Eh
Relativity type    :
Basis              : AO
                                X                 Y                 Z
Electronic contribution:    -68.599896386      -9.519344105       2.441622563
Nuclear contribution   :     70.868889374      10.312010190      -1.622661196
                        -----------------------------------------
Total Dipole Moment    :      2.268992988       0.792666086       0.818961367
                        -----------------------------------------
Magnitude (a.u.)       :      2.539162544
Magnitude (Debye)      :      6.454038275

Rotational constants in cm-1:             0.006508             0.001403             0.001335
Rotational constants in MHz :           195.094484            42.069963            40.015019

                             ****ORCA TERMINATED NORMALLY****
TOTAL RUN TIME: 0 days 0 hours 7 minutes 49 seconds 756 msec
