                         Program Version 6.0.0  -   RELEASE  -
|  1> ! B3LYP 6-31G* SP
|  2>
|  3> * xyz 0 1
|  4> C -3.7629 0.6498 3.0313
|  5> C -3.2115 0.9557 1.6345
|  6> N -2.2001 -0.0434 1.2727
|  7> C -2.1123 -0.6150 -0.0449
|  8> O -3.0694 -0.4579 -0.8528
|  9> N -0.9446 -1.3633 -0.4606
| 10> C -1.0549 -2.2290 -1.6446
| 11> C -0.2047 -3.4788 -1.4707
| 12> C 1.2142 -3.1056 -1.1665
| 13> C 2.2583 -3.9492 -1.5798
| 14> C 3.5795 -3.6554 -1.2391
| 15> C 3.8670 -2.5327 -0.4636
| 16> C 2.8350 -1.6967 -0.0321
| 17> C 1.4985 -1.9589 -0.3944
| 18> C 0.3834 -1.0578 0.1246
| 19> C 0.7248 0.4032 -0.1085
| 20> C 0.9697 1.2557 0.9801
| 21> C 1.2702 2.6042 0.7708
| 22> C 1.3540 3.1217 -0.5327
| 23> C 1.6167 4.5892 -0.7575
| 24> F 2.4009 5.1081 0.2584
| 25> F 2.2767 4.7885 -1.9581
| 26> F 0.4120 5.2666 -0.7875
| 27> C 1.0960 2.2714 -1.6209
| 28> C 0.7970 0.9227 -1.4114
| 29> C -2.6040 2.3647 1.5644
| 30> F -2.1100 2.5975 0.2932
| 31> F -1.5722 2.4946 2.4775
| 32> F -3.5727 3.3134 1.8411
| 33> H -4.2037 -0.3696 3.0450
| 34> H -4.5580 1.3764 3.3019
| 35> H -2.9563 0.6964 3.7937
| 36> H -4.0677 0.9112 0.9264
| 37> H -1.4673 -0.2653 1.9810
| 38> H -2.1066 -2.5548 -1.8012
| 39> H -0.7296 -1.6706 -2.5483
| 40> H -0.2605 -4.0821 -2.4034
| 41> H -0.6056 -4.0892 -0.6328
| 42> H 2.0480 -4.8396 -2.1595
| 43> H 4.3799 -4.3076 -1.5640
| 44> H 4.8905 -2.3150 -0.1868
| 45> H 3.0794 -0.8440 0.5888
| 46> H 0.3357 -1.2695 1.2136
| 47> H 0.9172 0.8805 1.9944
| 48> H 1.4299 3.2439 1.6295
| 49> H 1.1229 2.6505 -2.6348
| 50> H 0.6172 0.2852 -2.2665
| 51> *
| 52>
| 53>                          ****END OF INPUT****

CARTESIAN COORDINATES (ANGSTROEM)
---------------------------------
  C     -3.762900    0.649800    3.031300
  C     -3.211500    0.955700    1.634500
  N     -2.200100   -0.043400    1.272700
  C     -2.112300   -0.615000   -0.044900
  O     -3.069400   -0.457900   -0.852800
  N     -0.944600   -1.363300   -0.460600
  C     -1.054900   -2.229000   -1.644600
  C     -0.204700   -3.478800   -1.470700
  C      1.214200   -3.105600   -1.166500
  C      2.258300   -3.949200   -1.579800
  C      3.579500   -3.655400   -1.239100
  C      3.867000   -2.532700   -0.463600
  C      2.835000   -1.696700   -0.032100
  C      1.498500   -1.958900   -0.394400
  C      0.383400   -1.057800    0.124600
  C      0.724800    0.403200   -0.108500
  C      0.969700    1.255700    0.980100
  C      1.270200    2.604200    0.770800
  C      1.354000    3.121700   -0.532700
  C      1.616700    4.589200   -0.757500
  F      2.400900    5.108100    0.258400
  F      2.276700    4.788500   -1.958100
  F      0.412000    5.266600   -0.787500
  C      1.096000    2.271400   -1.620900
  C      0.797000    0.922700   -1.411400
  C     -2.604000    2.364700    1.564400
  F     -2.110000    2.597500    0.293200
  F     -1.572200    2.494600    2.477500
  F     -3.572700    3.313400    1.841100
  H     -4.203700   -0.369600    3.045000
  H     -4.558000    1.376400    3.301900
  H     -2.956300    0.696400    3.793700
  H     -4.067700    0.911200    0.926400
  H     -1.467300   -0.265300    1.981000
  H     -2.106600   -2.554800   -1.801200
  H     -0.729600   -1.670600   -2.548300
  H     -0.260500   -4.082100   -2.403400
  H     -0.605600   -4.089200   -0.632800
  H      2.048000   -4.839600   -2.159500
  H      4.379900   -4.307600   -1.564000
  H      4.890500   -2.315000   -0.186800
  H      3.079400   -0.844000    0.588800
  H      0.335700   -1.269500    1.213600
  H      0.917200    0.880500    1.994400
  H      1.429900    3.243900    1.629500
  H      1.122900    2.650500   -2.634800
  H      0.617200    0.285200   -2.266500

 Total Charge           Charge          ....    0
 Multiplicity           Mult            ....    1
 Number of Electrons    NEL             ....  214
 Basis Dimension        Dim             ....  442

ORBITAL ENERGIES
----------------

  NO   OCC          E(Eh)            E(eV)
   0   2.0000     -24.722249      -672.7266
   1   2.0000     -24.717743      -672.6040
   2   2.0000     -24.713480      -672.4880
   3   2.0000     -24.713071      -672.4768
   4   2.0000     -24.710551      -672.4083
   5   2.0000     -24.707917      -672.3366
   6   2.0000     -19.103052      -519.8205
   7   2.0000     -14.364051      -390.8657
   8   2.0000     -14.358210      -390.7068
   9   2.0000     -10.427990      -283.7600
  10   2.0000     -10.427090      -283.7355
  11   2.0000     -10.317063      -280.7415
  12   2.0000     -10.247684      -278.8537
  13   2.0000     -10.246037      -278.8089
  14   2.0000     -10.217939      -278.0443
  15   2.0000     -10.208025      -277.7745
  16   2.0000     -10.205247      -277.6989
  17   2.0000     -10.203740      -277.6579
  18   2.0000     -10.198973      -277.5282
  19   2.0000     -10.198374      -277.5119
  20   2.0000     -10.197295      -277.4825
  21   2.0000     -10.196253      -277.4542
  22   2.0000     -10.194106      -277.3957
  23   2.0000     -10.192128      -277.3419
  24   2.0000     -10.190901      -277.3085
  25   2.0000     -10.190059      -277.2856
  26   2.0000     -10.186904      -277.1998
  27   2.0000     -10.186533      -277.1897
  28   2.0000     -10.186206      -277.1807
  29   2.0000      -1.276847       -34.7448
  30   2.0000      -1.272500       -34.6265
  31   2.0000      -1.205657       -32.8076
  32   2.0000      -1.198692       -32.6181
  33   2.0000      -1.198096       -32.6019
  34   2.0000      -1.196108       -32.5477
  35   2.0000      -1.018186       -27.7062
  36   2.0000      -0.931318       -25.3425
  37   2.0000      -0.914763       -24.8920
  38   2.0000      -0.868356       -23.6292
  39   2.0000      -0.858757       -23.3680
  40   2.0000      -0.806779       -21.9536
  41   2.0000      -0.790505       -21.5107
  42   2.0000      -0.776484       -21.1292
  43   2.0000      -0.761533       -20.7224
  44   2.0000      -0.756845       -20.5948
  45   2.0000      -0.734802       -19.9950
  46   2.0000      -0.699215       -19.0266
  47   2.0000      -0.697949       -18.9922
  48   2.0000      -0.666946       -18.1485
  49   2.0000      -0.648869       -17.6566
  50   2.0000      -0.626790       -17.0558
  51   2.0000      -0.623845       -16.9757
  52   2.0000      -0.615711       -16.7543
  53   2.0000      -0.595848       -16.2138
  54   2.0000      -0.591591       -16.0980
  55   2.0000      -0.571166       -15.5422
  56   2.0000      -0.565254       -15.3813
  57   2.0000      -0.563136       -15.3237
  58   2.0000      -0.561417       -15.2769
  59   2.0000      -0.557163       -15.1612
  60   2.0000      -0.554983       -15.1018
  61   2.0000      -0.544951       -14.8289
  62   2.0000      -0.524700       -14.2778
  63   2.0000      -0.513006       -13.9596
  64   2.0000      -0.500119       -13.6089
  65   2.0000      -0.481879       -13.1126
  66   2.0000      -0.473793       -12.8926
  67   2.0000      -0.470846       -12.8124
  68   2.0000      -0.460997       -12.5444
  69   2.0000      -0.456833       -12.4311
  70   2.0000      -0.447897       -12.1879
  71   2.0000      -0.446667       -12.1544
  72   2.0000      -0.445369       -12.1191
  73   2.0000      -0.441497       -12.0137
  74   2.0000      -0.439916       -11.9707
  75   2.0000      -0.438307       -11.9269
  76   2.0000      -0.433405       -11.7935
  77   2.0000      -0.428405       -11.6575
  78   2.0000      -0.420134       -11.4324
  79   2.0000      -0.418454       -11.3867
  80   2.0000      -0.414534       -11.2800
  81   2.0000      -0.413072       -11.2403
  82   2.0000      -0.408958       -11.1283
  83   2.0000      -0.404372       -11.0035
  84   2.0000      -0.401727       -10.9316
  85   2.0000      -0.399818       -10.8796
  86   2.0000      -0.396677       -10.7941
  87   2.0000      -0.394182       -10.7262
  88   2.0000      -0.391218       -10.6456
  89   2.0000      -0.389404       -10.5962
  90   2.0000      -0.384512       -10.4631
  91   2.0000      -0.375664       -10.2223
  92   2.0000      -0.366986        -9.9862
  93   2.0000      -0.366190        -9.9645
  94   2.0000      -0.359659        -9.7868
  95   2.0000      -0.356987        -9.7141
  96   2.0000      -0.356206        -9.6929
  97   2.0000      -0.349061        -9.4984
  98   2.0000      -0.337182        -9.1752
  99   2.0000      -0.329697        -8.9715
 100   2.0000      -0.270605        -7.3635
 101   2.0000      -0.263528        -7.1710
 102   2.0000      -0.255585        -6.9548
 103   2.0000      -0.252060        -6.8589
 104   2.0000      -0.246870        -6.7177
 105   2.0000      -0.243052        -6.6138
 106   2.0000      -0.228823        -6.2266
 107   0.0000      -0.027508        -0.7485
 108   0.0000      -0.017987        -0.4894
 109   0.0000      -0.012579        -0.3423
 110   0.0000      -0.001015        -0.0276
 111   0.0000       0.031124         0.8469

MULLIKEN ATOMIC CHARGES
-----------------------
   0 C :   -0.469362
   1 C :   -0.071753
   2 N :   -0.630356
   3 C :    0.702671
   4 O :   -0.498187
   5 N :   -0.466579
   6 C :   -0.124640
   7 C :   -0.347409
   8 C :    0.108024
   9 C :   -0.185181
  10 C :   -0.121299
  11 C :   -0.129342
  12 C :   -0.175000
  13 C :    0.093230
  14 C :   -0.121343
  15 C :    0.193736
  16 C :   -0.192259
  17 C :   -0.151961
  18 C :   -0.015167
  19 C :    0.894436
  20 F :   -0.307144
  21 F :   -0.306688
  22 F :   -0.294419
  23 C :   -0.155609
  24 C :   -0.160501
  25 C :    0.949097
  26 F :   -0.295555
  27 F :   -0.313041
  28 F :   -0.305096
  29 H :    0.170615
  30 H :    0.169983
  31 H :    0.150157
  32 H :    0.208185
  33 H :    0.324091
  34 H :    0.178484
  35 H :    0.146357
  36 H :    0.148230
  37 H :    0.159905
  38 H :    0.126518
  39 H :    0.129556
  40 H :    0.131855
  41 H :    0.134349
  42 H :    0.144265
  43 H :    0.122842
  44 H :    0.152166
  45 H :    0.154115
  46 H :    0.145020
Sum of atomic charges:    0.0000000

LOEWDIN ATOMIC CHARGES
----------------------
   0 C :   -0.361062
   1 C :   -0.093222
   2 N :   -0.248313
   3 C :    0.170980
   4 O :   -0.315548
   5 N :   -0.125360
   6 C :   -0.140348
   7 C :   -0.228492
   8 C :   -0.024295
   9 C :   -0.131922
  10 C :   -0.125716
  11 C :   -0.130775
  12 C :   -0.124535
  13 C :   -0.027206
  14 C :   -0.042616
  15 C :   -0.010443
  16 C :   -0.139917
  17 C :   -0.107927
  18 C :   -0.069383
  19 C :    0.310230
  20 F :   -0.115005
  21 F :   -0.114872
  22 F :   -0.112333
  23 C :   -0.106512
  24 C :   -0.114185
  25 C :    0.300839
  26 F :   -0.106019
  27 F :   -0.120546
  28 F :   -0.115253
  29 H :    0.140250
  30 H :    0.139725
  31 H :    0.126501
  32 H :    0.168069
  33 H :    0.246620
  34 H :    0.146974
  35 H :    0.115705
  36 H :    0.133050
  37 H :    0.135941
  38 H :    0.131565
  39 H :    0.132375
  40 H :    0.133654
  41 H :    0.136098
  42 H :    0.126116
  43 H :    0.128154
  44 H :    0.143877
  45 H :    0.144680
  46 H :    0.140401

  Mayer bond orders larger than 0.100000
B(  0-C ,  1-C ) :   0.9896 B(  0-C , 29-H ) :   0.9413 B(  0-C , 30-H ) :   0.9383
B(  0-C , 31-H ) :   0.9425 B(  1-C ,  2-N ) :   0.9386 B(  1-C , 25-C ) :   0.9328
B(  1-C , 32-H ) :   0.8932 B(  2-N ,  3-C ) :   1.0159 B(  2-N , 33-H ) :   0.8126
B(  3-C ,  4-O ) :   1.7894 B(  3-C ,  5-N ) :   1.0368 B(  5-N ,  6-C ) :   0.9339
B(  5-N , 14-C ) :   0.9184 B(  6-C ,  7-C ) :   0.9844 B(  6-C , 34-H ) :   0.9215
B(  6-C , 35-H ) :   0.9242 B(  7-C ,  8-C ) :   0.9866 B(  7-C , 36-H ) :   0.9296
B(  7-C , 37-H ) :   0.9193 B(  8-C ,  9-C ) :   1.4089 B(  8-C , 13-C ) :   1.4414
B(  9-C , 10-C ) :   1.4497 B(  9-C , 38-H ) :   0.9248 B( 10-C , 11-C ) :   1.4387
B( 10-C , 39-H ) :   0.9292 B( 11-C , 12-C ) :   1.4498 B( 11-C , 40-H ) :   0.9296
B( 12-C , 13-C ) :   1.3967 B( 12-C , 41-H ) :   0.9178 B( 13-C , 14-C ) :   0.9690
B( 14-C , 15-C ) :   0.9400 B( 14-C , 42-H ) :   0.9079 B( 15-C , 16-C ) :   1.4075
B( 15-C , 24-C ) :   1.4138 B( 16-C , 17-C ) :   1.4134 B( 16-C , 43-H ) :   0.9242
B( 17-C , 18-C ) :   1.4219 B( 17-C , 44-H ) :   0.9191 B( 18-C , 19-C ) :   0.9801
B( 18-C , 23-C ) :   1.3989 B( 19-C , 20-F ) :   0.9458 B( 19-C , 21-F ) :   0.9468
B( 19-C , 22-F ) :   0.9893 B( 23-C , 24-C ) :   1.4387 B( 23-C , 45-H ) :   0.9198
B( 24-C , 46-H ) :   0.9168 B( 25-C , 26-F ) :   0.9766 B( 25-C , 27-F ) :   0.9401
B( 25-C , 28-F ) :   0.9581

FINAL SINGLE POINT ENERGY     -1555.945845506568

DIPOLE MOMENT
-------------

Method             : SCF
Type of density    : Electron Density
Multiplicity       :   1
Irrep              :   0
Energy             : -1555.9458455065675935 Eh
Relativity type    :
Basis              : AO
                                X                 Y                 Z
Electronic contribution:      0.398405778      44.867683355       0.424885790
Nuclear contribution   :      0.217919551     -46.724667831       0.486539358
                        -----------------------------------------
Total Dipole Moment    :      0.616325329      -1.856984476       0.911425148
                        -----------------------------------------
Magnitude (a.u.)       :      2.158458722
Magnitude (Debye)      :      5.486366062

Rotational constants in cm-1:             0.006405             0.004377             0.002986
Rotational constants in MHz :           192.031336           131.210190            89.508766

                             ****ORCA TERMINATED NORMALLY****
TOTAL RUN TIME: 0 days 0 hours 6 minutes 33 seconds 671 msec
