                         Program Version 6.0.0  -   RELEASE  -
|  1> ! B3LYP 6-31G* SP
|  2>
|  3> * xyz 0 1
|  4> C -4.7169 1.7692 -0.1399
|  5> O -4.7729 0.3708 -0.0010
|  6> N -3.4990 -0.0877 -0.1454
|  7> C -3.0792 -0.5681 -1.4621
|  8> C -2.7170 -0.3384 1.0386
|  9> O -3.3070 -0.4190 2.1495
| 10> C -1.2460 -0.4913 1.0038
| 11> S -0.1980 0.1628 -0.1410
| 12> C 1.1913 -0.4139 0.6184
| 13> C 2.5782 -0.1276 0.2006
| 14> C 3.5010 0.2807 1.1798
| 15> C 4.8043 0.6355 0.8244
| 16> C 5.2030 0.5849 -0.5112
| 17> C 4.3057 0.1588 -1.4921
| 18> C 3.0021 -0.2209 -1.1483
| 19> O 2.1777 -0.7179 -2.1593
| 20> N 0.8823 -1.0582 1.7661
| 21> C -0.4608 -1.1076 1.9787
| 22> O -0.9985 -1.7323 3.0995
| 23> H -5.7404 2.1806 -0.0236
| 24> H -4.0734 2.2211 0.6472
| 25> H -4.3450 2.0530 -1.1493
| 26> H -2.3496 0.1364 -1.9091
| 27> H -2.6328 -1.5818 -1.3788
| 28> H -3.9549 -0.6272 -2.1426
| 29> H 3.2040 0.3517 2.2193
| 30> H 5.5028 0.9602 1.5849
| 31> H 6.2115 0.8660 -0.7856
| 32> H 4.6316 0.0997 -2.5230
| 33> H 1.2926 -1.1709 -1.9772
| 34> H -0.3967 -2.1685 3.7875
| 35> *
| 36>
| 37>                          ****END OF INPUT****

CARTESIAN COORDINATES (ANGSTROEM)
---------------------------------
  C     -4.716900    1.769200   -0.139900
  O     -4.772900    0.370800   -0.001000
  N     -3.499000   -0.087700   -0.145400
  C     -3.079200   -0.568100   -1.462100
  C     -2.717000   -0.338400    1.038600
  O     -3.307000   -0.419000    2.149500
  C     -1.246000   -0.491300    1.003800
  S     -0.198000    0.162800   -0.141000
  C      1.191300   -0.413900    0.618400
  C      2.578200   -0.127600    0.200600
  C      3.501000    0.280700    1.179800
  C      4.804300    0.635500    0.824400
  C      5.203000    0.584900   -0.511200
  C      4.305700    0.158800   -1.492100
  C      3.002100   -0.220900   -1.148300
  O      2.177700   -0.717900   -2.159300
  N      0.882300   -1.058200    1.766100
  C     -0.460800   -1.107600    1.978700
  O     -0.998500   -1.732300    3.099500
  H     -5.740400    2.180600   -0.023600
  H     -4.073400    2.221100    0.647200
  H     -4.345000    2.053000   -1.149300
  H     -2.349600    0.136400   -1.909100
  H     -2.632800   -1.581800   -1.378800
  H     -3.954900   -0.627200   -2.142600
  H      3.204000    0.351700    2.219300
  H      5.502800    0.960200    1.584900
  H      6.211500    0.866000   -0.785600
  H      4.631600    0.099700   -2.523000
  H      1.292600   -1.170900   -1.977200
  H     -0.396700   -2.168500    3.787500

 Total Charge           Charge          ....    0
 Multiplicity           Mult            ....    1
 Number of Electrons    NEL             ....  146
 Basis Dimension        Dim             ....  294

ORBITAL ENERGIES
----------------

  NO   OCC          E(Eh)            E(eV)
   0   2.0000     -88.913735     -2419.4657
   1   2.0000     -19.187720      -522.1244
   2   2.0000     -19.177641      -521.8501
   3   2.0000     -19.176753      -521.8260
   4   2.0000     -19.102285      -519.7996
   5   2.0000     -14.394036      -391.6816
   6   2.0000     -14.343229      -390.2991
   7   2.0000     -10.293795      -280.1084
   8   2.0000     -10.292887      -280.0837
   9   2.0000     -10.268944      -279.4322
  10   2.0000     -10.266304      -279.3603
  11   2.0000     -10.225011      -278.2367
  12   2.0000     -10.224056      -278.2107
  13   2.0000     -10.223599      -278.1983
  14   2.0000     -10.212481      -277.8957
  15   2.0000     -10.196960      -277.4734
  16   2.0000     -10.196014      -277.4476
  17   2.0000     -10.190918      -277.3090
  18   2.0000     -10.186088      -277.1776
  19   2.0000      -7.990850      -217.4421
  20   2.0000      -5.953785      -162.0107
  21   2.0000      -5.949742      -161.9007
  22   2.0000      -5.947986      -161.8529
  23   2.0000      -1.109333       -30.1865
  24   2.0000      -1.047599       -28.5066
  25   2.0000      -1.042962       -28.3804
  26   2.0000      -0.994416       -27.0594
  27   2.0000      -0.969686       -26.3865
  28   2.0000      -0.867103       -23.5951
  29   2.0000      -0.860993       -23.4288
  30   2.0000      -0.822582       -22.3836
  31   2.0000      -0.788395       -21.4533
  32   2.0000      -0.750001       -20.4086
  33   2.0000      -0.734820       -19.9955
  34   2.0000      -0.710907       -19.3448
  35   2.0000      -0.684406       -18.6236
  36   2.0000      -0.647233       -17.6121
  37   2.0000      -0.622467       -16.9382
  38   2.0000      -0.611697       -16.6451
  39   2.0000      -0.593412       -16.1476
  40   2.0000      -0.566324       -15.4105
  41   2.0000      -0.547383       -14.8950
  42   2.0000      -0.526215       -14.3190
  43   2.0000      -0.514241       -13.9932
  44   2.0000      -0.503973       -13.7138
  45   2.0000      -0.490219       -13.3395
  46   2.0000      -0.485200       -13.2030
  47   2.0000      -0.477270       -12.9872
  48   2.0000      -0.454438       -12.3659
  49   2.0000      -0.443588       -12.0706
  50   2.0000      -0.438076       -11.9207
  51   2.0000      -0.434073       -11.8117
  52   2.0000      -0.426924       -11.6172
  53   2.0000      -0.418307       -11.3827
  54   2.0000      -0.408583       -11.1181
  55   2.0000      -0.399915       -10.8822
  56   2.0000      -0.386708       -10.5229
  57   2.0000      -0.380431       -10.3521
  58   2.0000      -0.376258       -10.2385
  59   2.0000      -0.370269       -10.0755
  60   2.0000      -0.361339        -9.8325
  61   2.0000      -0.358905        -9.7663
  62   2.0000      -0.354504        -9.6466
  63   2.0000      -0.344115        -9.3638
  64   2.0000      -0.334590        -9.1047
  65   2.0000      -0.292098        -7.9484
  66   2.0000      -0.289393        -7.8748
  67   2.0000      -0.280054        -7.6207
  68   2.0000      -0.266481        -7.2513
  69   2.0000      -0.242360        -6.5949
  70   2.0000      -0.237558        -6.4643
  71   2.0000      -0.225454        -6.1349
  72   2.0000      -0.219944        -5.9850
  73   0.0000      -0.064777        -1.7627
  74   0.0000      -0.010212        -0.2779
  75   0.0000      -0.001637        -0.0445
  76   0.0000       0.014390         0.3916
  77   0.0000       0.021152         0.5756

MULLIKEN ATOMIC CHARGES
-----------------------
   0 C :   -0.179806
   1 O :   -0.334052
   2 N :   -0.202213
   3 C :   -0.332159
   4 C :    0.516683
   5 O :   -0.441713
   6 C :   -0.270970
   7 S :    0.262458
   8 C :   -0.064222
   9 C :    0.082829
  10 C :   -0.146185
  11 C :   -0.139110
  12 C :   -0.112574
  13 C :   -0.168630
  14 C :    0.323715
  15 O :   -0.672061
  16 N :   -0.398490
  17 C :    0.504639
  18 O :   -0.616205
  19 H :    0.158630
  20 H :    0.155528
  21 H :    0.131594
  22 H :    0.165369
  23 H :    0.171491
  24 H :    0.183551
  25 H :    0.154862
  26 H :    0.133538
  27 H :    0.139438
  28 H :    0.146763
  29 H :    0.422223
  30 H :    0.425079
Sum of atomic charges:    0.0000000

LOEWDIN ATOMIC CHARGES
----------------------
   0 C :   -0.209839
   1 O :   -0.142460
   2 N :   -0.027435
   3 C :   -0.285182
   4 C :    0.123271
   5 O :   -0.255558
   6 C :   -0.280816
   7 S :    0.395218
   8 C :   -0.116412
   9 C :   -0.072944
  10 C :   -0.096022
  11 C :   -0.147063
  12 C :   -0.109553
  13 C :   -0.148793
  14 C :    0.095909
  15 O :   -0.347569
  16 N :   -0.177558
  17 C :    0.111885
  18 O :   -0.311571
  19 H :    0.128278
  20 H :    0.119923
  21 H :    0.106210
  22 H :    0.123327
  23 H :    0.135506
  24 H :    0.146725
  25 H :    0.146645
  26 H :    0.134842
  27 H :    0.137879
  28 H :    0.145115
  29 H :    0.333251
  30 H :    0.344791

  Mayer bond orders larger than 0.100000
B(  0-C ,  1-O ) :   0.9095 B(  0-C , 19-H ) :   0.9452 B(  0-C , 20-H ) :   0.9340
B(  0-C , 21-H ) :   0.9371 B(  1-O ,  2-N ) :   0.9593 B(  2-N ,  3-C ) :   0.9354
B(  2-N ,  4-C ) :   0.9826 B(  3-C , 22-H ) :   0.9242 B(  3-C , 23-H ) :   0.9354
B(  3-C , 24-H ) :   0.9353 B(  4-C ,  5-O ) :   1.8656 B(  4-C ,  6-C ) :   0.9625
B(  6-C ,  7-S ) :   1.0611 B(  6-C ,  8-C ) :   0.1206 B(  6-C , 17-C ) :   1.4218
B(  7-S ,  8-C ) :   1.1550 B(  8-C ,  9-C ) :   0.9675 B(  8-C , 16-N ) :   1.4583
B(  9-C , 10-C ) :   1.4041 B(  9-C , 14-C ) :   1.3198 B( 10-C , 11-C ) :   1.4468
B( 10-C , 25-H ) :   0.9182 B( 11-C , 12-C ) :   1.4333 B( 11-C , 26-H ) :   0.9289
B( 12-C , 13-C ) :   1.4564 B( 12-C , 27-H ) :   0.9287 B( 13-C , 14-C ) :   1.3938
B( 13-C , 28-H ) :   0.9180 B( 14-C , 15-O ) :   0.9368 B( 15-O , 29-H ) :   0.7344
B( 16-N , 17-C ) :   1.2957 B( 17-C , 18-O ) :   1.0230 B( 18-O , 30-H ) :   0.7540

FINAL SINGLE POINT ENERGY     -1272.405593805937

DIPOLE MOMENT
-------------

Method             : SCF
Type of density    : Electron Density
Multiplicity       :   1
Irrep              :   0
Energy             : -1272.4055938059370874 Eh
Relativity type    :
Basis              : AO
                                X                 Y                 Z
Electronic contribution:      3.407216949      -4.583055669       5.914635054
Nuclear contribution   :     -2.292772641       4.902007547      -6.954852765
                        -----------------------------------------
Total Dipole Moment    :      1.114444309       0.318951878      -1.040217711
                        -----------------------------------------
Magnitude (a.u.)       :      1.557488139
Magnitude (Debye)      :      3.958820238

Rotational constants in cm-1:             0.024713             0.005934             0.005177
Rotational constants in MHz :           740.872674           177.887334           155.203638

                             ****ORCA TERMINATED NORMALLY****
TOTAL RUN TIME: 0 days 0 hours 2 minutes 18 seconds 265 msec
