                         Program Version 6.0.0  -   RELEASE  -
|  1> ! B3LYP 6-31G* SP
|  2>
|  3> * xyz 0 1
|  4> C -1.9965 -0.2900 2.1661
|  5> C -0.9003 -0.7793 1.2260
|  6> N -1.4706 -1.2213 -0.0491
|  7> C -1.4147 -0.5989 -1.2564
|  8> N -0.6822 0.6075 -1.4911
|  9> C 0.6350 0.5392 -2.1257
| 10> C 1.6513 0.0174 -1.1475
| 11> C 2.3627 0.9032 -0.3249
| 12> C 3.2427 0.4149 0.6443
| 13> C 3.4350 -0.9682 0.8006
| 14> C 4.3419 -1.4855 1.8882
| 15> F 3.6535 -1.4976 3.0873
| 16> F 5.4539 -0.6709 2.0141
| 17> F 4.7755 -2.7695 1.6049
| 18> C 2.7004 -1.8542 -0.0070
| 19> C 1.8221 -1.3647 -0.9775
| 20> S -1.4760 2.1377 -1.2976
| 21> O -2.7604 1.9611 -0.5367
| 22> O -1.7995 2.7053 -2.6513
| 23> C -0.4266 3.2380 -0.4098
| 24> C 0.3600 4.1755 -1.0959
| 25> C 1.2259 5.0166 -0.3897
| 26> C 1.3119 4.9237 1.0025
| 27> C 0.5311 3.9904 1.6900
| 28> C -0.3366 3.1495 0.9866
| 29> N -2.0168 -1.2881 -2.2598
| 30> C -2.4781 -2.3836 -1.6295
| 31> C -3.1727 -3.4527 -2.1904
| 32> C -3.5313 -4.5187 -1.3438
| 33> F -4.2085 -5.5800 -1.8468
| 34> C -3.1826 -4.4921 0.0260
| 35> C -2.4763 -3.3990 0.5615
| 36> C -2.1481 -2.3535 -0.3041
| 37> H -2.5755 0.5272 1.6901
| 38> H -2.6888 -1.1184 2.4219
| 39> H -1.5395 0.0934 3.1024
| 40> H -0.3485 -1.6194 1.6997
| 41> H -0.1755 0.0441 1.0595
| 42> H 0.5872 -0.1199 -3.0200
| 43> H 0.9433 1.5436 -2.4885
| 44> H 2.2282 1.9722 -0.4236
| 45> H 3.7668 1.1181 1.2795
| 46> H 2.7957 -2.9253 0.1180
| 47> H 1.2566 -2.0641 -1.5812
| 48> H 0.3137 4.2481 -2.1748
| 49> H 1.8341 5.7364 -0.9221
| 50> H 1.9851 5.5726 1.5474
| 51> H 0.6004 3.9163 2.7677
| 52> H -0.9320 2.4290 1.5299
| 53> H -3.4240 -3.4657 -3.2431
| 54> H -3.4562 -5.3197 0.6676
| 55> H -2.1960 -3.3811 1.6060
| 56> *
| 57>
| 58>                          ****END OF INPUT****

CARTESIAN COORDINATES (ANGSTROEM)
---------------------------------
  C     -1.996500   -0.290000    2.166100
  C     -0.900300   -0.779300    1.226000
  N     -1.470600   -1.221300   -0.049100
  C     -1.414700   -0.598900   -1.256400
  N     -0.682200    0.607500   -1.491100
  C      0.635000    0.539200   -2.125700
  C      1.651300    0.017400   -1.147500
  C      2.362700    0.903200   -0.324900
  C      3.242700    0.414900    0.644300
  C      3.435000   -0.968200    0.800600
  C      4.341900   -1.485500    1.888200
  F      3.653500   -1.497600    3.087300
  F      5.453900   -0.670900    2.014100
  F      4.775500   -2.769500    1.604900
  C      2.700400   -1.854200   -0.007000
  C      1.822100   -1.364700   -0.977500
  S     -1.476000    2.137700   -1.297600
  O     -2.760400    1.961100   -0.536700
  O     -1.799500    2.705300   -2.651300
  C     -0.426600    3.238000   -0.409800
  C      0.360000    4.175500   -1.095900
  C      1.225900    5.016600   -0.389700
  C      1.311900    4.923700    1.002500
  C      0.531100    3.990400    1.690000
  C     -0.336600    3.149500    0.986600
  N     -2.016800   -1.288100   -2.259800
  C     -2.478100   -2.383600   -1.629500
  C     -3.172700   -3.452700   -2.190400
  C     -3.531300   -4.518700   -1.343800
  F     -4.208500   -5.580000   -1.846800
  C     -3.182600   -4.492100    0.026000
  C     -2.476300   -3.399000    0.561500
  C     -2.148100   -2.353500   -0.304100
  H     -2.575500    0.527200    1.690100
  H     -2.688800   -1.118400    2.421900
  H     -1.539500    0.093400    3.102400
  H     -0.348500   -1.619400    1.699700
  H     -0.175500    0.044100    1.059500
  H      0.587200   -0.119900   -3.020000
  H      0.943300    1.543600   -2.488500
  H      2.228200    1.972200   -0.423600
  H      3.766800    1.118100    1.279500
  H      2.795700   -2.925300    0.118000
  H      1.256600   -2.064100   -1.581200
  H      0.313700    4.248100   -2.174800
  H      1.834100    5.736400   -0.922100
  H      1.985100    5.572600    1.547400
  H      0.600400    3.916300    2.767700
  H     -0.932000    2.429000    1.529900
  H     -3.424000   -3.465700   -3.243100
  H     -3.456200   -5.319700    0.667600
  H     -2.196000   -3.381100    1.606000

 Total Charge           Charge          ....    0
 Multiplicity           Mult            ....    1
 Number of Electrons    NEL             ....  246
 Basis Dimension        Dim             ....  504

ORBITAL ENERGIES
----------------

  NO   OCC          E(Eh)            E(eV)
   0   2.0000     -89.104029     -2424.6439
   1   2.0000     -24.728034      -672.8840
   2   2.0000     -24.727071      -672.8578
   3   2.0000     -24.725254      -672.8084
   4   2.0000     -24.690828      -671.8716
   5   2.0000     -19.133863      -520.6589
   6   2.0000     -19.127303      -520.4804
   7   2.0000     -14.400515      -391.8579
   8   2.0000     -14.385354      -391.4454
   9   2.0000     -14.318102      -389.6154
  10   2.0000     -10.443525      -284.1828
  11   2.0000     -10.288939      -279.9763
  12   2.0000     -10.264295      -279.3057
  13   2.0000     -10.247045      -278.8363
  14   2.0000     -10.246372      -278.8180
  15   2.0000     -10.244720      -278.7730
  16   2.0000     -10.228720      -278.3376
  17   2.0000     -10.227701      -278.3099
  18   2.0000     -10.225173      -278.2411
  19   2.0000     -10.223336      -278.1911
  20   2.0000     -10.221401      -278.1385
  21   2.0000     -10.220993      -278.1274
  22   2.0000     -10.218188      -278.0510
  23   2.0000     -10.215330      -277.9733
  24   2.0000     -10.214862      -277.9605
  25   2.0000     -10.214637      -277.9544
  26   2.0000     -10.209800      -277.8228
  27   2.0000     -10.209099      -277.8037
  28   2.0000     -10.201810      -277.6054
  29   2.0000     -10.196652      -277.4650
  30   2.0000     -10.190605      -277.3005
  31   2.0000     -10.187864      -277.2259
  32   2.0000     -10.181938      -277.0646
  33   2.0000      -8.139969      -221.4998
  34   2.0000      -6.105057      -166.1271
  35   2.0000      -6.102920      -166.0689
  36   2.0000      -6.102561      -166.0591
  37   2.0000      -1.287634       -35.0383
  38   2.0000      -1.212875       -33.0040
  39   2.0000      -1.212366       -32.9902
  40   2.0000      -1.204107       -32.7654
  41   2.0000      -1.089959       -29.6593
  42   2.0000      -1.047731       -28.5102
  43   2.0000      -0.967272       -26.3208
  44   2.0000      -0.946830       -25.7646
  45   2.0000      -0.907988       -24.7076
  46   2.0000      -0.894026       -24.3277
  47   2.0000      -0.884104       -24.0577
  48   2.0000      -0.844984       -22.9932
  49   2.0000      -0.809832       -22.0366
  50   2.0000      -0.801235       -21.8027
  51   2.0000      -0.784428       -21.3454
  52   2.0000      -0.782445       -21.2914
  53   2.0000      -0.772612       -21.0238
  54   2.0000      -0.748820       -20.3764
  55   2.0000      -0.742029       -20.1916
  56   2.0000      -0.732725       -19.9385
  57   2.0000      -0.697733       -18.9863
  58   2.0000      -0.681265       -18.5382
  59   2.0000      -0.662078       -18.0161
  60   2.0000      -0.642827       -17.4922
  61   2.0000      -0.642157       -17.4740
  62   2.0000      -0.635727       -17.2990
  63   2.0000      -0.620844       -16.8940
  64   2.0000      -0.613456       -16.6930
  65   2.0000      -0.601771       -16.3750
  66   2.0000      -0.582797       -15.8587
  67   2.0000      -0.578840       -15.7510
  68   2.0000      -0.575594       -15.6627
  69   2.0000      -0.571504       -15.5514
  70   2.0000      -0.559012       -15.2115
  71   2.0000      -0.538966       -14.6660
  72   2.0000      -0.532194       -14.4817
  73   2.0000      -0.528150       -14.3717
  74   2.0000      -0.515690       -14.0326
  75   2.0000      -0.499955       -13.6045
  76   2.0000      -0.491036       -13.3618
  77   2.0000      -0.489214       -13.3122
  78   2.0000      -0.483309       -13.1515
  79   2.0000      -0.478296       -13.0151
  80   2.0000      -0.473757       -12.8916
  81   2.0000      -0.472521       -12.8580
  82   2.0000      -0.465437       -12.6652
  83   2.0000      -0.460492       -12.5306
  84   2.0000      -0.457105       -12.4384
  85   2.0000      -0.456147       -12.4124
  86   2.0000      -0.454924       -12.3791
  87   2.0000      -0.452434       -12.3113
  88   2.0000      -0.449049       -12.2192
  89   2.0000      -0.445087       -12.1114
  90   2.0000      -0.438326       -11.9275
  91   2.0000      -0.431476       -11.7411
  92   2.0000      -0.429499       -11.6873
  93   2.0000      -0.423189       -11.5156
  94   2.0000      -0.416236       -11.3264
  95   2.0000      -0.412454       -11.2235
  96   2.0000      -0.410325       -11.1655
  97   2.0000      -0.406421       -11.0593
  98   2.0000      -0.404383       -11.0038
  99   2.0000      -0.401602       -10.9282
 100   2.0000      -0.397573       -10.8185
 101   2.0000      -0.393447       -10.7062
 102   2.0000      -0.388577       -10.5737
 103   2.0000      -0.381626       -10.3846
 104   2.0000      -0.379454       -10.3255
 105   2.0000      -0.370483       -10.0814
 106   2.0000      -0.368376       -10.0240
 107   2.0000      -0.367434        -9.9984
 108   2.0000      -0.350719        -9.5436
 109   2.0000      -0.335846        -9.1388
 110   2.0000      -0.326082        -8.8732
 111   2.0000      -0.316771        -8.6198
 112   2.0000      -0.307430        -8.3656
 113   2.0000      -0.304460        -8.2848
 114   2.0000      -0.291714        -7.9379
 115   2.0000      -0.287209        -7.8154
 116   2.0000      -0.283002        -7.7009
 117   2.0000      -0.278782        -7.5860
 118   2.0000      -0.276878        -7.5342
 119   2.0000      -0.274677        -7.4744
 120   2.0000      -0.259283        -7.0555
 121   2.0000      -0.226658        -6.1677
 122   2.0000      -0.221828        -6.0362
 123   0.0000      -0.065474        -1.7816
 124   0.0000      -0.045128        -1.2280
 125   0.0000      -0.040602        -1.1048
 126   0.0000      -0.033794        -0.9196
 127   0.0000      -0.026425        -0.7191

MULLIKEN ATOMIC CHARGES
-----------------------
   0 C :   -0.466926
   1 C :   -0.173564
   2 N :   -0.410336
   3 C :    0.541577
   4 N :   -0.640474
   5 C :   -0.246995
   6 C :    0.170779
   7 C :   -0.180083
   8 C :   -0.163173
   9 C :   -0.015556
  10 C :    0.897351
  11 F :   -0.298988
  12 F :   -0.304180
  13 F :   -0.303891
  14 C :   -0.165063
  15 C :   -0.176190
  16 S :    1.199374
  17 O :   -0.544811
  18 O :   -0.525654
  19 C :   -0.143771
  20 C :   -0.148891
  21 C :   -0.117880
  22 C :   -0.120458
  23 C :   -0.120365
  24 C :   -0.136648
  25 N :   -0.426751
  26 C :    0.223209
  27 C :   -0.278479
  28 C :    0.402681
  29 F :   -0.320993
  30 C :   -0.225795
  31 C :   -0.173449
  32 C :    0.292921
  33 H :    0.202458
  34 H :    0.161932
  35 H :    0.144613
  36 H :    0.166936
  37 H :    0.175045
  38 H :    0.195752
  39 H :    0.176079
  40 H :    0.147646
  41 H :    0.153185
  42 H :    0.159100
  43 H :    0.158906
  44 H :    0.186479
  45 H :    0.155252
  46 H :    0.152844
  47 H :    0.152997
  48 H :    0.177704
  49 H :    0.154834
  50 H :    0.142582
  51 H :    0.137128
Sum of atomic charges:   -0.0000000

LOEWDIN ATOMIC CHARGES
----------------------
   0 C :   -0.376145
   1 C :   -0.154431
   2 N :    0.035127
   3 C :    0.072015
   4 N :   -0.286398
   5 C :   -0.143270
   6 C :   -0.022899
   7 C :   -0.131764
   8 C :   -0.111446
   9 C :   -0.070466
  10 C :    0.310494
  11 F :   -0.115620
  12 F :   -0.113267
  13 F :   -0.111728
  14 C :   -0.112588
  15 C :   -0.128766
  16 S :    1.262785
  17 O :   -0.570961
  18 O :   -0.564278
  19 C :   -0.193119
  20 C :   -0.106770
  21 C :   -0.123381
  22 C :   -0.104461
  23 C :   -0.121990
  24 C :   -0.102049
  25 N :   -0.155322
  26 C :   -0.015866
  27 C :   -0.156155
  28 C :    0.109608
  29 F :   -0.106337
  30 C :   -0.162382
  31 C :   -0.148170
  32 C :   -0.012282
  33 H :    0.148734
  34 H :    0.132513
  35 H :    0.127747
  36 H :    0.134455
  37 H :    0.141944
  38 H :    0.148984
  39 H :    0.144078
  40 H :    0.141612
  41 H :    0.143728
  42 H :    0.146563
  43 H :    0.145069
  44 H :    0.159701
  45 H :    0.144685
  46 H :    0.142635
  47 H :    0.143692
  48 H :    0.154693
  49 H :    0.152848
  50 H :    0.142941
  51 H :    0.135661

  Mayer bond orders larger than 0.100000
B(  0-C ,  1-C ) :   0.9997 B(  0-C , 33-H ) :   0.9203 B(  0-C , 34-H ) :   0.9420
B(  0-C , 35-H ) :   0.9431 B(  1-C ,  2-N ) :   0.9287 B(  1-C , 36-H ) :   0.9268
B(  1-C , 37-H ) :   0.9180 B(  2-N ,  3-C ) :   1.1567 B(  2-N , 32-C ) :   1.0369
B(  3-C ,  4-N ) :   0.9021 B(  3-C , 25-N ) :   1.5124 B(  4-N ,  5-C ) :   0.9163
B(  4-N , 16-S ) :   0.7954 B(  5-C ,  6-C ) :   0.9418 B(  5-C , 38-H ) :   0.9161
B(  5-C , 39-H ) :   0.9199 B(  6-C ,  7-C ) :   1.4199 B(  6-C , 15-C ) :   1.4288
B(  7-C ,  8-C ) :   1.4324 B(  7-C , 40-H ) :   0.9142 B(  8-C ,  9-C ) :   1.4063
B(  8-C , 41-H ) :   0.9202 B(  9-C , 10-C ) :   0.9794 B(  9-C , 14-C ) :   1.4137
B( 10-C , 11-F ) :   0.9820 B( 10-C , 12-F ) :   0.9516 B( 10-C , 13-F ) :   0.9488
B( 14-C , 15-C ) :   1.4199 B( 14-C , 42-H ) :   0.9185 B( 15-C , 43-H ) :   0.9179
B( 16-S , 17-O ) :   1.6036 B( 16-S , 18-O ) :   1.6703 B( 16-S , 19-C ) :   0.8158
B( 19-C , 20-C ) :   1.3936 B( 19-C , 24-C ) :   1.3896 B( 20-C , 21-C ) :   1.4347
B( 20-C , 44-H ) :   0.9079 B( 21-C , 22-C ) :   1.4463 B( 21-C , 45-H ) :   0.9262
B( 22-C , 23-C ) :   1.4412 B( 22-C , 46-H ) :   0.9263 B( 23-C , 24-C ) :   1.4522
B( 23-C , 47-H ) :   0.9264 B( 24-C , 48-H ) :   0.9067 B( 25-N , 26-C ) :   1.2501
B( 26-C , 27-C ) :   1.2999 B( 26-C , 32-C ) :   1.2901 B( 27-C , 28-C ) :   1.4198
B( 27-C , 31-C ) :   0.1081 B( 27-C , 49-H ) :   0.9139 B( 28-C , 29-F ) :   0.9013
B( 28-C , 30-C ) :   1.3292 B( 30-C , 31-C ) :   1.4563 B( 30-C , 50-H ) :   0.9222
B( 31-C , 32-C ) :   1.3410 B( 31-C , 51-H ) :   0.9177

FINAL SINGLE POINT ENERGY     -1999.108881474517

DIPOLE MOMENT
-------------

Method             : SCF
Type of density    : Electron Density
Multiplicity       :   1
Irrep              :   0
Energy             : -1999.1088814745173750 Eh
Relativity type    :
Basis              : AO
                                X                 Y                 Z
Electronic contribution:     12.935835630     -18.263260958      -1.181215328
Nuclear contribution   :    -10.647141892      19.294782061       2.957044487
                        -----------------------------------------
Total Dipole Moment    :      2.288693739       1.031521104       1.775829158
                        -----------------------------------------
Magnitude (a.u.)       :      3.075016100
Magnitude (Debye)      :      7.816069773

Rotational constants in cm-1:             0.004454             0.003356             0.002227
Rotational constants in MHz :           133.519676           100.621836            66.750591

                             ****ORCA TERMINATED NORMALLY****
TOTAL RUN TIME: 0 days 0 hours 11 minutes 9 seconds 376 msec
