                         Program Version 6.0.0  -   RELEASE  -
|  1> ! B3LYP 6-31G* SP
|  2>
|  3> * xyz -1 1
|  4> O -0.4335 6.4514 2.4711
|  5> C -0.7715 6.2853 1.2686
|  6> O -0.5543 7.3143 0.3592
|  7> C -1.3897 5.0150 0.8296
|  8> C -1.6048 3.9681 1.7438
|  9> C -2.1828 2.7674 1.3223
| 10> C -2.5492 2.5913 -0.0179
| 11> S -3.2283 1.0579 -0.5604
| 12> O -4.0111 0.4443 0.5674
| 13> O -4.1607 1.2913 -1.7159
| 14> N -1.9585 -0.0232 -1.0521
| 15> C -0.9587 0.4275 -2.0247
| 16> C 0.4092 0.4116 -1.4021
| 17> C 1.1476 -0.7789 -1.3542
| 18> C 2.3864 -0.8159 -0.7103
| 19> C 2.9012 0.3326 -0.0807
| 20> C 4.2615 0.2945 0.5838
| 21> F 4.5640 -1.0012 0.9820
| 22> F 4.2490 1.0792 1.7241
| 23> C 5.3156 0.8606 -0.3865
| 24> C 6.7475 0.3875 -0.1809
| 25> C 5.9375 -0.1281 -1.3625
| 26> C 2.1644 1.5328 -0.1490
| 27> F 2.6435 2.6759 0.4042
| 28> C 0.9253 1.5653 -0.7947
| 29> C -2.1391 -1.4294 -0.8389
| 30> N -2.6418 -2.1616 -1.8667
| 31> C -2.8858 -3.4879 -1.7734
| 32> C -2.6436 -4.1615 -0.5778
| 33> C -2.9239 -5.5334 -0.4782
| 34> C -2.6992 -6.2108 0.7189
| 35> C -2.1991 -5.5259 1.8241
| 36> C -1.9128 -4.1610 1.7387
| 37> C -2.1193 -3.4496 0.5320
| 38> C -1.8263 -2.0583 0.4002
| 39> C -1.1876 -1.2939 1.5576
| 40> F -0.0251 -1.9329 1.9516
| 41> F -2.0699 -1.2468 2.6217
| 42> F -0.8426 0.0010 1.2370
| 43> C -2.3482 3.6350 -0.9303
| 44> C -1.7712 4.8373 -0.5114
| 45> H -1.3248 4.0754 2.7843
| 46> H -2.3398 1.9752 2.0428
| 47> H -0.9770 -0.2282 -2.9227
| 48> H -1.1976 1.4500 -2.3854
| 49> H 0.7597 -1.6818 -1.8097
| 50> H 2.9396 -1.7464 -0.7030
| 51> H 5.2161 1.9015 -0.7628
| 52> H 6.9169 -0.3682 0.6145
| 53> H 7.5232 1.1306 -0.4624
| 54> H 6.2323 0.3146 -2.3372
| 55> H 5.6179 -1.1872 -1.2673
| 56> H 0.3671 2.4921 -0.8183
| 57> H -3.2854 -4.0108 -2.6337
| 58> H -3.3206 -6.0804 -1.3255
| 59> H -2.9188 -7.2682 0.7918
| 60> H -2.0343 -6.0543 2.7544
| 61> H -1.5416 -3.6811 2.6317
| 62> H -2.6265 3.5154 -1.9695
| 63> H -1.6203 5.6246 -1.2391
| 64> *
| 65>
| 66>                          ****END OF INPUT****

CARTESIAN COORDINATES (ANGSTROEM)
---------------------------------
  O     -0.433500    6.451400    2.471100
  C     -0.771500    6.285300    1.268600
  O     -0.554300    7.314300    0.359200
  C     -1.389700    5.015000    0.829600
  C     -1.604800    3.968100    1.743800
  C     -2.182800    2.767400    1.322300
  C     -2.549200    2.591300   -0.017900
  S     -3.228300    1.057900   -0.560400
  O     -4.011100    0.444300    0.567400
  O     -4.160700    1.291300   -1.715900
  N     -1.958500   -0.023200   -1.052100
  C     -0.958700    0.427500   -2.024700
  C      0.409200    0.411600   -1.402100
  C      1.147600   -0.778900   -1.354200
  C      2.386400   -0.815900   -0.710300
  C      2.901200    0.332600   -0.080700
  C      4.261500    0.294500    0.583800
  F      4.564000   -1.001200    0.982000
  F      4.249000    1.079200    1.724100
  C      5.315600    0.860600   -0.386500
  C      6.747500    0.387500   -0.180900
  C      5.937500   -0.128100   -1.362500
  C      2.164400    1.532800   -0.149000
  F      2.643500    2.675900    0.404200
  C      0.925300    1.565300   -0.794700
  C     -2.139100   -1.429400   -0.838900
  N     -2.641800   -2.161600   -1.866700
  C     -2.885800   -3.487900   -1.773400
  C     -2.643600   -4.161500   -0.577800
  C     -2.923900   -5.533400   -0.478200
  C     -2.699200   -6.210800    0.718900
  C     -2.199100   -5.525900    1.824100
  C     -1.912800   -4.161000    1.738700
  C     -2.119300   -3.449600    0.532000
  C     -1.826300   -2.058300    0.400200
  C     -1.187600   -1.293900    1.557600
  F     -0.025100   -1.932900    1.951600
  F     -2.069900   -1.246800    2.621700
  F     -0.842600    0.001000    1.237000
  C     -2.348200    3.635000   -0.930300
  C     -1.771200    4.837300   -0.511400
  H     -1.324800    4.075400    2.784300
  H     -2.339800    1.975200    2.042800
  H     -0.977000   -0.228200   -2.922700
  H     -1.197600    1.450000   -2.385400
  H      0.759700   -1.681800   -1.809700
  H      2.939600   -1.746400   -0.703000
  H      5.216100    1.901500   -0.762800
  H      6.916900   -0.368200    0.614500
  H      7.523200    1.130600   -0.462400
  H      6.232300    0.314600   -2.337200
  H      5.617900   -1.187200   -1.267300
  H      0.367100    2.492100   -0.818300
  H     -3.285400   -4.010800   -2.633700
  H     -3.320600   -6.080400   -1.325500
  H     -2.918800   -7.268200    0.791800
  H     -2.034300   -6.054300    2.754400
  H     -1.541600   -3.681100    2.631700
  H     -2.626500    3.515400   -1.969500
  H     -1.620300    5.624600   -1.239100

 Total Charge           Charge          ....   -1
 Multiplicity           Mult            ....    1
 Number of Electrons    NEL             ....  304
 Basis Dimension        Dim             ....  616

ORBITAL ENERGIES
----------------

  NO   OCC          E(Eh)            E(eV)
   0   2.0000     -89.002685     -2421.8862
   1   2.0000     -24.653585      -670.8582
   2   2.0000     -24.648999      -670.7334
   3   2.0000     -24.648926      -670.7314
   4   2.0000     -24.639725      -670.4810
   5   2.0000     -24.625753      -670.1008
   6   2.0000     -24.616411      -669.8466
   7   2.0000     -19.032923      -517.9122
   8   2.0000     -19.028950      -517.8041
   9   2.0000     -18.907413      -514.4969
  10   2.0000     -18.887110      -513.9444
  11   2.0000     -14.287319      -388.7777
  12   2.0000     -14.279165      -388.5558
  13   2.0000     -10.371967      -282.2356
  14   2.0000     -10.286103      -279.8991
  15   2.0000     -10.213543      -277.9246
  16   2.0000     -10.204495      -277.6784
  17   2.0000     -10.178722      -276.9771
  18   2.0000     -10.164308      -276.5849
  19   2.0000     -10.163978      -276.5759
  20   2.0000     -10.158777      -276.4344
  21   2.0000     -10.152467      -276.2627
  22   2.0000     -10.149459      -276.1808
  23   2.0000     -10.148067      -276.1429
  24   2.0000     -10.147161      -276.1183
  25   2.0000     -10.143929      -276.0304
  26   2.0000     -10.141497      -275.9642
  27   2.0000     -10.135831      -275.8100
  28   2.0000     -10.133324      -275.7418
  29   2.0000     -10.130610      -275.6679
  30   2.0000     -10.130601      -275.6677
  31   2.0000     -10.130263      -275.6585
  32   2.0000     -10.120626      -275.3962
  33   2.0000     -10.119760      -275.3727
  34   2.0000     -10.117093      -275.3001
  35   2.0000     -10.096908      -274.7508
  36   2.0000     -10.094913      -274.6966
  37   2.0000     -10.092876      -274.6411
  38   2.0000     -10.077184      -274.2141
  39   2.0000     -10.076257      -274.1889
  40   2.0000     -10.076018      -274.1824
  41   2.0000      -8.038703      -218.7442
  42   2.0000      -6.004172      -163.3818
  43   2.0000      -6.001663      -163.3136
  44   2.0000      -6.000823      -163.2907
  45   2.0000      -1.213899       -33.0319
  46   2.0000      -1.169173       -31.8148
  47   2.0000      -1.138591       -30.9826
  48   2.0000      -1.138244       -30.9732
  49   2.0000      -1.134887       -30.8818
  50   2.0000      -1.111462       -30.2444
  51   2.0000      -0.990291       -26.9472
  52   2.0000      -0.902237       -24.5511
  53   2.0000      -0.868459       -23.6320
  54   2.0000      -0.849067       -23.1043
  55   2.0000      -0.816640       -22.2219
  56   2.0000      -0.814194       -22.1554
  57   2.0000      -0.804726       -21.8977
  58   2.0000      -0.792866       -21.5750
  59   2.0000      -0.760078       -20.6828
  60   2.0000      -0.755493       -20.5580
  61   2.0000      -0.729030       -19.8379
  62   2.0000      -0.719221       -19.5710
  63   2.0000      -0.698202       -18.9990
  64   2.0000      -0.692093       -18.8328
  65   2.0000      -0.681649       -18.5486
  66   2.0000      -0.669699       -18.2234
  67   2.0000      -0.656266       -17.8579
  68   2.0000      -0.645702       -17.5704
  69   2.0000      -0.638282       -17.3685
  70   2.0000      -0.606843       -16.5131
  71   2.0000      -0.596829       -16.2406
  72   2.0000      -0.593912       -16.1612
  73   2.0000      -0.564545       -15.3620
  74   2.0000      -0.556302       -15.1377
  75   2.0000      -0.552777       -15.0418
  76   2.0000      -0.537613       -14.6292
  77   2.0000      -0.532747       -14.4968
  78   2.0000      -0.522225       -14.2105
  79   2.0000      -0.507323       -13.8050
  80   2.0000      -0.506448       -13.7811
  81   2.0000      -0.504822       -13.7369
  82   2.0000      -0.501674       -13.6512
  83   2.0000      -0.494016       -13.4429
  84   2.0000      -0.477654       -12.9976
  85   2.0000      -0.471335       -12.8257
  86   2.0000      -0.467269       -12.7150
  87   2.0000      -0.462209       -12.5773
  88   2.0000      -0.458986       -12.4896
  89   2.0000      -0.446279       -12.1439
  90   2.0000      -0.444912       -12.1067
  91   2.0000      -0.437583       -11.9073
  92   2.0000      -0.425768       -11.5857
  93   2.0000      -0.419739       -11.4217
  94   2.0000      -0.414916       -11.2904
  95   2.0000      -0.410369       -11.1667
  96   2.0000      -0.398174       -10.8349
  97   2.0000      -0.391441       -10.6516
  98   2.0000      -0.390625       -10.6295
  99   2.0000      -0.385409       -10.4875
 100   2.0000      -0.380979       -10.3670
 101   2.0000      -0.377588       -10.2747
 102   2.0000      -0.375927       -10.2295
 103   2.0000      -0.374858       -10.2004
 104   2.0000      -0.373747       -10.1702
 105   2.0000      -0.362089        -9.8530
 106   2.0000      -0.361205        -9.8289
 107   2.0000      -0.360006        -9.7963
 108   2.0000      -0.348942        -9.4952
 109   2.0000      -0.345365        -9.3978
 110   2.0000      -0.343533        -9.3480
 111   2.0000      -0.342138        -9.3101
 112   2.0000      -0.338151        -9.2016
 113   2.0000      -0.337346        -9.1796
 114   2.0000      -0.331942        -9.0326
 115   2.0000      -0.330823        -9.0022
 116   2.0000      -0.328147        -8.9293
 117   2.0000      -0.322301        -8.7703
 118   2.0000      -0.320649        -8.7253
 119   2.0000      -0.318581        -8.6690
 120   2.0000      -0.316492        -8.6122
 121   2.0000      -0.312340        -8.4992
 122   2.0000      -0.304399        -8.2831
 123   2.0000      -0.299771        -8.1572
 124   2.0000      -0.296696        -8.0735
 125   2.0000      -0.293341        -7.9822
 126   2.0000      -0.288462        -7.8495
 127   2.0000      -0.284967        -7.7543
 128   2.0000      -0.274978        -7.4825
 129   2.0000      -0.265210        -7.2167
 130   2.0000      -0.248658        -6.7663
 131   2.0000      -0.246239        -6.7005
 132   2.0000      -0.238690        -6.4951
 133   2.0000      -0.235767        -6.4155
 134   2.0000      -0.230677        -6.2770
 135   2.0000      -0.230181        -6.2635
 136   2.0000      -0.221899        -6.0382
 137   2.0000      -0.214199        -5.8286
 138   2.0000      -0.208707        -5.6792
 139   2.0000      -0.201912        -5.4943
 140   2.0000      -0.197647        -5.3782
 141   2.0000      -0.187336        -5.0977
 142   2.0000      -0.185913        -5.0589
 143   2.0000      -0.184368        -5.0169
 144   2.0000      -0.178908        -4.8683
 145   2.0000      -0.173632        -4.7248
 146   2.0000      -0.158361        -4.3092
 147   2.0000      -0.152212        -4.1419
 148   2.0000      -0.133174        -3.6238
 149   2.0000      -0.061558        -1.6751
 150   2.0000      -0.039843        -1.0842
 151   2.0000      -0.023376        -0.6361
 152   0.0000      -0.015101        -0.4109
 153   0.0000       0.019471         0.5298
 154   0.0000       0.048027         1.3069
 155   0.0000       0.057031         1.5519
 156   0.0000       0.063437         1.7262

MULLIKEN ATOMIC CHARGES
-----------------------
   0 O :   -0.547867
   1 C :    0.413805
   2 O :   -0.655835
   3 C :    0.106281
   4 C :   -0.157795
   5 C :   -0.140982
   6 C :   -0.158261
   7 S :    1.188058
   8 O :   -0.571514
   9 O :   -0.545595
  10 N :   -0.591051
  11 C :   -0.255981
  12 C :    0.199253
  13 C :   -0.188920
  14 C :   -0.153793
  15 C :   -0.065583
  16 C :    0.694232
  17 F :   -0.343353
  18 F :   -0.328371
  19 C :   -0.173359
  20 C :   -0.315266
  21 C :   -0.310355
  22 C :    0.378985
  23 F :   -0.299659
  24 C :   -0.255451
  25 C :    0.353080
  26 N :   -0.374907
  27 C :   -0.043393
  28 C :    0.134615
  29 C :   -0.203621
  30 C :   -0.125569
  31 C :   -0.123242
  32 C :   -0.186228
  33 C :    0.116281
  34 C :   -0.085245
  35 C :    0.948169
  36 F :   -0.309871
  37 F :   -0.301895
  38 F :   -0.282619
  39 C :   -0.166813
  40 C :   -0.154855
  41 H :    0.152522
  42 H :    0.152280
  43 H :    0.169406
  44 H :    0.180742
  45 H :    0.124381
  46 H :    0.135344
  47 H :    0.177032
  48 H :    0.162479
  49 H :    0.145962
  50 H :    0.145523
  51 H :    0.156652
  52 H :    0.183115
  53 H :    0.151413
  54 H :    0.132375
  55 H :    0.125849
  56 H :    0.133495
  57 H :    0.157362
  58 H :    0.144671
  59 H :    0.153885
Sum of atomic charges:   -1.0000000

LOEWDIN ATOMIC CHARGES
----------------------
   0 O :   -0.373240
   1 C :    0.071843
   2 O :   -0.503616
   3 C :   -0.000403
   4 C :   -0.111671
   5 C :   -0.114636
   6 C :   -0.218378
   7 S :    1.258034
   8 O :   -0.592442
   9 O :   -0.585426
  10 N :   -0.286530
  11 C :   -0.145703
  12 C :   -0.018351
  13 C :   -0.149770
  14 C :   -0.118615
  15 C :   -0.078112
  16 C :    0.241933
  17 F :   -0.133459
  18 F :   -0.128971
  19 C :   -0.157492
  20 C :   -0.254695
  21 C :   -0.255866
  22 C :    0.129814
  23 F :   -0.090304
  24 C :   -0.145862
  25 C :    0.067262
  26 N :   -0.118217
  27 C :   -0.046712
  28 C :   -0.030985
  29 C :   -0.116005
  30 C :   -0.130601
  31 C :   -0.119800
  32 C :   -0.118937
  33 C :    0.009650
  34 C :   -0.059749
  35 C :    0.315366
  36 F :   -0.114368
  37 F :   -0.107316
  38 F :   -0.081163
  39 C :   -0.135422
  40 C :   -0.113524
  41 H :    0.149520
  42 H :    0.143370
  43 H :    0.135215
  44 H :    0.147456
  45 H :    0.129732
  46 H :    0.135940
  47 H :    0.151605
  48 H :    0.138405
  49 H :    0.131025
  50 H :    0.131245
  51 H :    0.134773
  52 H :    0.162708
  53 H :    0.136767
  54 H :    0.134282
  55 H :    0.130779
  56 H :    0.134898
  57 H :    0.145682
  58 H :    0.138011
  59 H :    0.151022

  Mayer bond orders larger than 0.100000
B(  0-O ,  1-C ) :   1.7087 B(  0-O ,  2-O ) :   0.1500 B(  1-C ,  2-O ) :   1.5462
B(  1-C ,  3-C ) :   0.9272 B(  3-C ,  4-C ) :   1.3839 B(  3-C , 40-C ) :   1.3975
B(  4-C ,  5-C ) :   1.4145 B(  4-C , 41-H ) :   0.9065 B(  5-C ,  6-C ) :   1.3699
B(  5-C , 42-H ) :   0.9157 B(  6-C ,  7-S ) :   0.8428 B(  6-C , 39-C ) :   1.3523
B(  7-S ,  8-O ) :   1.6032 B(  7-S ,  9-O ) :   1.6637 B(  7-S , 10-N ) :   0.7611
B( 10-N , 11-C ) :   0.9326 B( 10-N , 25-C ) :   0.9571 B( 11-C , 12-C ) :   0.9392
B( 11-C , 43-H ) :   0.9189 B( 11-C , 44-H ) :   0.9161 B( 12-C , 13-C ) :   1.4276
B( 12-C , 24-C ) :   1.4048 B( 13-C , 14-C ) :   1.4268 B( 13-C , 45-H ) :   0.9239
B( 14-C , 15-C ) :   1.4046 B( 14-C , 46-H ) :   0.9225 B( 15-C , 16-C ) :   0.9604
B( 15-C , 22-C ) :   1.3235 B( 16-C , 17-F ) :   0.8625 B( 16-C , 18-F ) :   0.9116
B( 16-C , 19-C ) :   0.9999 B( 19-C , 20-C ) :   0.9408 B( 19-C , 21-C ) :   0.9309
B( 19-C , 47-H ) :   0.9208 B( 20-C , 21-C ) :   0.9617 B( 20-C , 48-H ) :   0.9383
B( 20-C , 49-H ) :   0.9459 B( 21-C , 50-H ) :   0.9444 B( 21-C , 51-H ) :   0.9394
B( 22-C , 23-F ) :   0.9437 B( 22-C , 24-C ) :   1.3797 B( 24-C , 52-H ) :   0.8948
B( 25-C , 26-N ) :   1.2818 B( 25-C , 34-C ) :   1.4046 B( 26-N , 27-C ) :   1.4939
B( 27-C , 28-C ) :   1.2367 B( 27-C , 34-C ) :   0.1001 B( 27-C , 53-H ) :   0.9262
B( 28-C , 29-C ) :   1.2819 B( 28-C , 33-C ) :   1.2934 B( 29-C , 30-C ) :   1.5160
B( 29-C , 32-C ) :   0.1050 B( 29-C , 54-H ) :   0.9243 B( 30-C , 31-C ) :   1.3513
B( 30-C , 55-H ) :   0.9308 B( 31-C , 32-C ) :   1.5101 B( 31-C , 56-H ) :   0.9297
B( 32-C , 33-C ) :   1.3041 B( 32-C , 57-H ) :   0.9005 B( 33-C , 34-C ) :   1.2523
B( 34-C , 35-C ) :   0.9538 B( 35-C , 36-F ) :   0.9228 B( 35-C , 37-F ) :   0.9304
B( 35-C , 38-F ) :   0.9221 B( 39-C , 40-C ) :   1.3989 B( 39-C , 58-H ) :   0.9190
B( 40-C , 59-H ) :   0.9008

FINAL SINGLE POINT ENERGY     -2484.790377693186

DIPOLE MOMENT
-------------

Method             : SCF
Type of density    : Electron Density
Multiplicity       :   1
Irrep              :   0
Energy             : -2484.7903776931857465 Eh
Relativity type    :
Basis              : AO
                                X                 Y                 Z
Electronic contribution:     -5.392954986       1.739257803      16.866125299
Nuclear contribution   :      7.541695159     -12.451288521     -19.100756262
                        -----------------------------------------
Total Dipole Moment    :      2.148740173     -10.712030719      -2.234630963
                        -----------------------------------------
Magnitude (a.u.)       :     11.151603561
Magnitude (Debye)      :     28.345123629

Rotational constants in cm-1:             0.003035             0.002362             0.001571
Rotational constants in MHz :            90.984717            70.800630            47.090071

                             ****ORCA TERMINATED NORMALLY****
TOTAL RUN TIME: 0 days 0 hours 9 minutes 2 seconds 496 msec
