                         Program Version 6.0.0  -   RELEASE  -
|  1> ! B3LYP 6-31G* SP
|  2>
|  3> * xyz 0 1
|  4> C 3.4456 -1.0210 0.1679
|  5> C 2.2857 -0.1603 -0.3495
|  6> C 1.2098 -1.0275 -1.0504
|  7> C 0.0489 -1.3679 -0.1083
|  8> C -0.7097 -0.0938 0.3827
|  9> C -1.9778 0.2067 -0.4928
| 10> C -2.6081 1.5791 -0.1823
| 11> C -3.0690 -0.8684 -0.3041
| 12> C 0.2565 1.1327 0.4868
| 13> O -0.1892 1.9987 1.4999
| 14> C 1.6977 0.6950 0.7978
| 15> H 3.0797 -1.7722 0.9003
| 16> H 3.9351 -1.5519 -0.6763
| 17> H 4.2077 -0.3796 0.6602
| 18> H 2.7057 0.5325 -1.1131
| 19> H 1.6519 -1.9672 -1.4485
| 20> H 0.8032 -0.4727 -1.9246
| 21> H 0.4588 -1.9095 0.7728
| 22> H -0.6140 -2.0868 -0.6243
| 23> H -1.0661 -0.3176 1.4143
| 24> H -1.6792 0.2115 -1.5644
| 25> H -1.9339 2.4080 -0.4793
| 26> H -2.8445 1.6642 0.9000
| 27> H -3.5468 1.7176 -0.7605
| 28> H -3.3385 -0.9676 0.7693
| 29> H -2.7532 -1.8570 -0.6878
| 30> H -3.9848 -0.5957 -0.8712
| 31> H 0.2731 1.6695 -0.4918
| 32> H 0.2204 2.8857 1.3227
| 33> H 1.6962 0.1238 1.7534
| 34> H 2.3388 1.5916 0.9468
| 35> *
| 36>
| 37>                          ****END OF INPUT****

CARTESIAN COORDINATES (ANGSTROEM)
---------------------------------
  C      3.445600   -1.021000    0.167900
  C      2.285700   -0.160300   -0.349500
  C      1.209800   -1.027500   -1.050400
  C      0.048900   -1.367900   -0.108300
  C     -0.709700   -0.093800    0.382700
  C     -1.977800    0.206700   -0.492800
  C     -2.608100    1.579100   -0.182300
  C     -3.069000   -0.868400   -0.304100
  C      0.256500    1.132700    0.486800
  O     -0.189200    1.998700    1.499900
  C      1.697700    0.695000    0.797800
  H      3.079700   -1.772200    0.900300
  H      3.935100   -1.551900   -0.676300
  H      4.207700   -0.379600    0.660200
  H      2.705700    0.532500   -1.113100
  H      1.651900   -1.967200   -1.448500
  H      0.803200   -0.472700   -1.924600
  H      0.458800   -1.909500    0.772800
  H     -0.614000   -2.086800   -0.624300
  H     -1.066100   -0.317600    1.414300
  H     -1.679200    0.211500   -1.564400
  H     -1.933900    2.408000   -0.479300
  H     -2.844500    1.664200    0.900000
  H     -3.546800    1.717600   -0.760500
  H     -3.338500   -0.967600    0.769300
  H     -2.753200   -1.857000   -0.687800
  H     -3.984800   -0.595700   -0.871200
  H      0.273100    1.669500   -0.491800
  H      0.220400    2.885700    1.322700
  H      1.696200    0.123800    1.753400
  H      2.338800    1.591600    0.946800

 Total Charge           Charge          ....    0
 Multiplicity           Mult            ....    1
 Number of Electrons    NEL             ....   88
 Basis Dimension        Dim             ....  194

ORBITAL ENERGIES
----------------

  NO   OCC          E(Eh)            E(eV)
   0   2.0000     -19.130382      -520.5642
   1   2.0000     -10.220086      -278.1027
   2   2.0000     -10.175523      -276.8900
   3   2.0000     -10.174941      -276.8742
   4   2.0000     -10.173846      -276.8444
   5   2.0000     -10.167314      -276.6667
   6   2.0000     -10.166911      -276.6557
   7   2.0000     -10.164283      -276.5842
   8   2.0000     -10.162897      -276.5465
   9   2.0000     -10.158794      -276.4348
  10   2.0000     -10.153148      -276.2812
  11   2.0000      -1.011135       -27.5144
  12   2.0000      -0.822675       -22.3861
  13   2.0000      -0.783954       -21.3325
  14   2.0000      -0.730597       -19.8806
  15   2.0000      -0.717442       -19.5226
  16   2.0000      -0.663492       -18.0545
  17   2.0000      -0.660827       -17.9820
  18   2.0000      -0.606809       -16.5121
  19   2.0000      -0.584522       -15.9056
  20   2.0000      -0.548821       -14.9342
  21   2.0000      -0.520279       -14.1575
  22   2.0000      -0.498585       -13.5672
  23   2.0000      -0.473056       -12.8725
  24   2.0000      -0.449106       -12.2208
  25   2.0000      -0.440707       -11.9922
  26   2.0000      -0.424453       -11.5500
  27   2.0000      -0.409036       -11.1304
  28   2.0000      -0.393567       -10.7095
  29   2.0000      -0.384651       -10.4669
  30   2.0000      -0.377633       -10.2759
  31   2.0000      -0.375485       -10.2175
  32   2.0000      -0.369008       -10.0412
  33   2.0000      -0.364358        -9.9147
  34   2.0000      -0.353242        -9.6122
  35   2.0000      -0.342141        -9.3101
  36   2.0000      -0.330870        -9.0034
  37   2.0000      -0.319660        -8.6984
  38   2.0000      -0.314439        -8.5563
  39   2.0000      -0.313097        -8.5198
  40   2.0000      -0.298876        -8.1328
  41   2.0000      -0.291784        -7.9398
  42   2.0000      -0.282142        -7.6775
  43   2.0000      -0.244942        -6.6652
  44   0.0000       0.064836         1.7643
  45   0.0000       0.082004         2.2314
  46   0.0000       0.098146         2.6707
  47   0.0000       0.107128         2.9151
  48   0.0000       0.129592         3.5264

MULLIKEN ATOMIC CHARGES
-----------------------
   0 C :   -0.442529
   1 C :   -0.060645
   2 C :   -0.270084
   3 C :   -0.281341
   4 C :   -0.064679
   5 C :   -0.077057
   6 C :   -0.422174
   7 C :   -0.444664
   8 C :    0.139390
   9 O :   -0.631932
  10 C :   -0.277524
  11 H :    0.138787
  12 H :    0.135230
  13 H :    0.135921
  14 H :    0.113309
  15 H :    0.127629
  16 H :    0.126907
  17 H :    0.128788
  18 H :    0.134595
  19 H :    0.127122
  20 H :    0.111884
  21 H :    0.127760
  22 H :    0.150831
  23 H :    0.124229
  24 H :    0.138701
  25 H :    0.138129
  26 H :    0.136169
  27 H :    0.099576
  28 H :    0.389784
  29 H :    0.134093
  30 H :    0.113795
Sum of atomic charges:    0.0000000

LOEWDIN ATOMIC CHARGES
----------------------
   0 C :   -0.351997
   1 C :   -0.128177
   2 C :   -0.229949
   3 C :   -0.228594
   4 C :   -0.117853
   5 C :   -0.121326
   6 C :   -0.352022
   7 C :   -0.355597
   8 C :   -0.018041
   9 O :   -0.390699
  10 C :   -0.236154
  11 H :    0.119378
  12 H :    0.118808
  13 H :    0.120025
  14 H :    0.111707
  15 H :    0.118817
  16 H :    0.113239
  17 H :    0.115513
  18 H :    0.122017
  19 H :    0.123877
  20 H :    0.109558
  21 H :    0.115482
  22 H :    0.127860
  23 H :    0.113752
  24 H :    0.121058
  25 H :    0.117637
  26 H :    0.120534
  27 H :    0.094472
  28 H :    0.311639
  29 H :    0.120923
  30 H :    0.114113

  Mayer bond orders larger than 0.100000
B(  0-C ,  1-C ) :   1.0076 B(  0-C , 11-H ) :   0.9473 B(  0-C , 12-H ) :   0.9490
B(  0-C , 13-H ) :   0.9500 B(  1-C ,  2-C ) :   0.9892 B(  1-C , 10-C ) :   0.9795
B(  1-C , 14-H ) :   0.9372 B(  2-C ,  3-C ) :   1.0143 B(  2-C , 15-H ) :   0.9396
B(  2-C , 16-H ) :   0.9394 B(  3-C ,  4-C ) :   0.9789 B(  3-C , 17-H ) :   0.9383
B(  3-C , 18-H ) :   0.9324 B(  4-C ,  5-C ) :   0.9938 B(  4-C ,  8-C ) :   0.9760
B(  4-C , 19-H ) :   0.9178 B(  5-C ,  6-C ) :   1.0102 B(  5-C ,  7-C ) :   1.0019
B(  5-C , 20-H ) :   0.9296 B(  6-C , 21-H ) :   0.9464 B(  6-C , 22-H ) :   0.9456
B(  6-C , 23-H ) :   0.9444 B(  7-C , 24-H ) :   0.9477 B(  7-C , 25-H ) :   0.9435
B(  7-C , 26-H ) :   0.9483 B(  8-C ,  9-O ) :   0.9046 B(  8-C , 10-C ) :   0.9874
B(  8-C , 27-H ) :   0.9217 B(  9-O , 28-H ) :   0.7904 B( 10-C , 29-H ) :   0.9321
B( 10-C , 30-H ) :   0.9380

FINAL SINGLE POINT ENERGY      -467.995489863215

DIPOLE MOMENT
-------------

Method             : SCF
Type of density    : Electron Density
Multiplicity       :   1
Irrep              :   0
Energy             :  -467.9954898632148570 Eh
Relativity type    :
Basis              : AO
                                X                 Y                 Z
Electronic contribution:      1.166529959       3.559066332       2.514173862
Nuclear contribution   :     -0.794577210      -3.354403153      -2.902202034
                        -----------------------------------------
Total Dipole Moment    :      0.371952749       0.204663179      -0.388028172
                        -----------------------------------------
Magnitude (a.u.)       :      0.575153655
Magnitude (Debye)      :      1.461924409

Rotational constants in cm-1:             0.057938             0.024135             0.018841
Rotational constants in MHz :          1736.935772           723.546100           564.837355

                             ****ORCA TERMINATED NORMALLY****
TOTAL RUN TIME: 0 days 0 hours 1 minutes 13 seconds 885 msec
