                         Program Version 6.0.0  -   RELEASE  -
|  1> ! B3LYP 6-31G* SP
|  2>
|  3> * xyz 0 1
|  4> O -4.6880 -2.6982 1.1118
|  5> C -4.4573 -1.4936 0.8213
|  6> C -3.2571 -0.8023 1.4055
|  7> C -2.7085 0.2930 0.4493
|  8> C -2.0182 -0.3575 -0.7890
|  9> C -0.5171 -0.6096 -0.5863
| 10> N 0.1817 0.6167 -0.1709
| 11> C 1.6143 0.7304 -0.3058
| 12> O 2.1424 1.8758 -0.3478
| 13> N 2.4434 -0.4423 -0.4130
| 14> C 3.8780 -0.4193 -0.3100
| 15> C 4.6358 -1.3282 -1.0613
| 16> C 6.0299 -1.3475 -0.9560
| 17> C 6.6912 -0.4719 -0.0872
| 18> O 8.0931 -0.5375 -0.0192
| 19> C 8.9169 0.2741 0.8153
| 20> F 8.5988 0.0662 2.1459
| 21> F 8.7525 1.6093 0.4935
| 22> F 10.2390 -0.0730 0.6142
| 23> C 5.9318 0.4285 0.6846
| 24> C 4.5372 0.4486 0.5781
| 25> C -0.5951 1.7451 0.3611
| 26> C -1.7316 1.2129 1.2359
| 27> O -3.7951 1.1059 -0.0207
| 28> C -5.0337 0.5758 -0.4059
| 29> C -5.9205 1.3530 -1.1606
| 30> F -5.5854 2.6187 -1.5136
| 31> C -7.1488 0.8198 -1.5645
| 32> C -7.4965 -0.4875 -1.2104
| 33> C -6.6213 -1.2633 -0.4441
| 34> C -5.3885 -0.7311 -0.0311
| 35> H -3.5742 -0.3391 2.3651
| 36> H -2.4627 -1.5472 1.6317
| 37> H -2.5131 -1.3109 -1.0724
| 38> H -2.1287 0.3216 -1.6635
| 39> H -0.3661 -1.3996 0.1804
| 40> H -0.1035 -0.9669 -1.5546
| 41> H 1.9987 -1.3600 -0.6359
| 42> H 4.1448 -2.0181 -1.7364
| 43> H 6.6004 -2.0508 -1.5497
| 44> H 6.4049 1.1098 1.3774
| 45> H 3.9759 1.1225 1.2115
| 46> H 0.0464 2.4040 0.9872
| 47> H -1.0037 2.3485 -0.4785
| 48> H -1.2651 0.6563 2.0795
| 49> H -2.2861 2.0669 1.6818
| 50> H -7.8317 1.4179 -2.1536
| 51> H -8.4479 -0.8973 -1.5241
| 52> H -6.9119 -2.2687 -0.1657
| 53> *
| 54>
| 55>                          ****END OF INPUT****

CARTESIAN COORDINATES (ANGSTROEM)
---------------------------------
  O     -4.688000   -2.698200    1.111800
  C     -4.457300   -1.493600    0.821300
  C     -3.257100   -0.802300    1.405500
  C     -2.708500    0.293000    0.449300
  C     -2.018200   -0.357500   -0.789000
  C     -0.517100   -0.609600   -0.586300
  N      0.181700    0.616700   -0.170900
  C      1.614300    0.730400   -0.305800
  O      2.142400    1.875800   -0.347800
  N      2.443400   -0.442300   -0.413000
  C      3.878000   -0.419300   -0.310000
  C      4.635800   -1.328200   -1.061300
  C      6.029900   -1.347500   -0.956000
  C      6.691200   -0.471900   -0.087200
  O      8.093100   -0.537500   -0.019200
  C      8.916900    0.274100    0.815300
  F      8.598800    0.066200    2.145900
  F      8.752500    1.609300    0.493500
  F     10.239000   -0.073000    0.614200
  C      5.931800    0.428500    0.684600
  C      4.537200    0.448600    0.578100
  C     -0.595100    1.745100    0.361100
  C     -1.731600    1.212900    1.235900
  O     -3.795100    1.105900   -0.020700
  C     -5.033700    0.575800   -0.405900
  C     -5.920500    1.353000   -1.160600
  F     -5.585400    2.618700   -1.513600
  C     -7.148800    0.819800   -1.564500
  C     -7.496500   -0.487500   -1.210400
  C     -6.621300   -1.263300   -0.444100
  C     -5.388500   -0.731100   -0.031100
  H     -3.574200   -0.339100    2.365100
  H     -2.462700   -1.547200    1.631700
  H     -2.513100   -1.310900   -1.072400
  H     -2.128700    0.321600   -1.663500
  H     -0.366100   -1.399600    0.180400
  H     -0.103500   -0.966900   -1.554600
  H      1.998700   -1.360000   -0.635900
  H      4.144800   -2.018100   -1.736400
  H      6.600400   -2.050800   -1.549700
  H      6.404900    1.109800    1.377400
  H      3.975900    1.122500    1.211500
  H      0.046400    2.404000    0.987200
  H     -1.003700    2.348500   -0.478500
  H     -1.265100    0.656300    2.079500
  H     -2.286100    2.066900    1.681800
  H     -7.831700    1.417900   -2.153600
  H     -8.447900   -0.897300   -1.524100
  H     -6.911900   -2.268700   -0.165700

 Total Charge           Charge          ....    0
 Multiplicity           Mult            ....    1
 Number of Electrons    NEL             ....  226
 Basis Dimension        Dim             ....  470

ORBITAL ENERGIES
----------------

  NO   OCC          E(Eh)            E(eV)
   0   2.0000     -24.736243      -673.1074
   1   2.0000     -24.733766      -673.0400
   2   2.0000     -24.733170      -673.0238
   3   2.0000     -24.710291      -672.4012
   4   2.0000     -19.205903      -522.6192
   5   2.0000     -19.188272      -522.1394
   6   2.0000     -19.136676      -520.7354
   7   2.0000     -19.102975      -519.8184
   8   2.0000     -14.371698      -391.0738
   9   2.0000     -14.358915      -390.7259
  10   2.0000     -10.498362      -285.6750
  11   2.0000     -10.319268      -280.8016
  12   2.0000     -10.285667      -279.8872
  13   2.0000     -10.281473      -279.7731
  14   2.0000     -10.275653      -279.6147
  15   2.0000     -10.275572      -279.6125
  16   2.0000     -10.260148      -279.1928
  17   2.0000     -10.240626      -278.6616
  18   2.0000     -10.234714      -278.5007
  19   2.0000     -10.223204      -278.1875
  20   2.0000     -10.211815      -277.8776
  21   2.0000     -10.209965      -277.8273
  22   2.0000     -10.207637      -277.7639
  23   2.0000     -10.205603      -277.7086
  24   2.0000     -10.204114      -277.6680
  25   2.0000     -10.201850      -277.6065
  26   2.0000     -10.201311      -277.5918
  27   2.0000     -10.195100      -277.4228
  28   2.0000     -10.194273      -277.4003
  29   2.0000     -10.191065      -277.3130
  30   2.0000     -10.188013      -277.2299
  31   2.0000      -1.298718       -35.3399
  32   2.0000      -1.223014       -33.2799
  33   2.0000      -1.219488       -33.1839
  34   2.0000      -1.219150       -33.1748
  35   2.0000      -1.075717       -29.2717
  36   2.0000      -1.073443       -29.2099
  37   2.0000      -1.020156       -27.7599
  38   2.0000      -1.020065       -27.7574
  39   2.0000      -0.929799       -25.3011
  40   2.0000      -0.918411       -24.9912
  41   2.0000      -0.876879       -23.8611
  42   2.0000      -0.849622       -23.1194
  43   2.0000      -0.828222       -22.5371
  44   2.0000      -0.788721       -21.4622
  45   2.0000      -0.778890       -21.1947
  46   2.0000      -0.762138       -20.7388
  47   2.0000      -0.759032       -20.6543
  48   2.0000      -0.754455       -20.5298
  49   2.0000      -0.744196       -20.2506
  50   2.0000      -0.698083       -18.9958
  51   2.0000      -0.667803       -18.1718
  52   2.0000      -0.665311       -18.1040
  53   2.0000      -0.655412       -17.8347
  54   2.0000      -0.634180       -17.2569
  55   2.0000      -0.630640       -17.1606
  56   2.0000      -0.616037       -16.7632
  57   2.0000      -0.595336       -16.1999
  58   2.0000      -0.590751       -16.0751
  59   2.0000      -0.586129       -15.9494
  60   2.0000      -0.573553       -15.6072
  61   2.0000      -0.567763       -15.4496
  62   2.0000      -0.559052       -15.2126
  63   2.0000      -0.548675       -14.9302
  64   2.0000      -0.537021       -14.6131
  65   2.0000      -0.526038       -14.3142
  66   2.0000      -0.516612       -14.0577
  67   2.0000      -0.510924       -13.9030
  68   2.0000      -0.493995       -13.4423
  69   2.0000      -0.486059       -13.2264
  70   2.0000      -0.478433       -13.0188
  71   2.0000      -0.473235       -12.8774
  72   2.0000      -0.470602       -12.8057
  73   2.0000      -0.465824       -12.6757
  74   2.0000      -0.464616       -12.6428
  75   2.0000      -0.461829       -12.5670
  76   2.0000      -0.459480       -12.5031
  77   2.0000      -0.450890       -12.2693
  78   2.0000      -0.447825       -12.1860
  79   2.0000      -0.445562       -12.1244
  80   2.0000      -0.440467       -11.9857
  81   2.0000      -0.439928       -11.9711
  82   2.0000      -0.431302       -11.7363
  83   2.0000      -0.424369       -11.5477
  84   2.0000      -0.421876       -11.4798
  85   2.0000      -0.413356       -11.2480
  86   2.0000      -0.411288       -11.1917
  87   2.0000      -0.408106       -11.1051
  88   2.0000      -0.407801       -11.0968
  89   2.0000      -0.404492       -11.0068
  90   2.0000      -0.400845       -10.9075
  91   2.0000      -0.397698       -10.8219
  92   2.0000      -0.395839       -10.7713
  93   2.0000      -0.392696       -10.6858
  94   2.0000      -0.383447       -10.4341
  95   2.0000      -0.381384       -10.3780
  96   2.0000      -0.377365       -10.2686
  97   2.0000      -0.375094       -10.2068
  98   2.0000      -0.368895       -10.0381
  99   2.0000      -0.361177        -9.8281
 100   2.0000      -0.348539        -9.4842
 101   2.0000      -0.344537        -9.3753
 102   2.0000      -0.343436        -9.3454
 103   2.0000      -0.329052        -8.9540
 104   2.0000      -0.320791        -8.7292
 105   2.0000      -0.283867        -7.7244
 106   2.0000      -0.264499        -7.1974
 107   2.0000      -0.261890        -7.1264
 108   2.0000      -0.253367        -6.8945
 109   2.0000      -0.250605        -6.8193
 110   2.0000      -0.239759        -6.5242
 111   2.0000      -0.231060        -6.2875
 112   2.0000      -0.213481        -5.8091
 113   0.0000      -0.072436        -1.9711
 114   0.0000      -0.009688        -0.2636
 115   0.0000      -0.008587        -0.2337
 116   0.0000      -0.006821        -0.1856
 117   0.0000       0.025833         0.7029

MULLIKEN ATOMIC CHARGES
-----------------------
   0 O :   -0.442705
   1 C :    0.355797
   2 C :   -0.393940
   3 C :    0.345594
   4 C :   -0.329290
   5 C :   -0.142696
   6 N :   -0.441270
   7 C :    0.685726
   8 O :   -0.492354
   9 N :   -0.730120
  10 C :    0.343018
  11 C :   -0.179110
  12 C :   -0.174644
  13 C :    0.351041
  14 O :   -0.548791
  15 C :    1.085476
  16 F :   -0.292744
  17 F :   -0.290780
  18 F :   -0.280598
  19 C :   -0.201265
  20 C :   -0.129682
  21 C :   -0.124768
  22 C :   -0.322089
  23 O :   -0.543535
  24 C :    0.239519
  25 C :    0.358385
  26 F :   -0.306823
  27 C :   -0.198568
  28 C :   -0.124859
  29 C :   -0.167667
  30 C :    0.051970
  31 H :    0.182620
  32 H :    0.174676
  33 H :    0.161692
  34 H :    0.173919
  35 H :    0.141368
  36 H :    0.153162
  37 H :    0.328668
  38 H :    0.130545
  39 H :    0.147311
  40 H :    0.154685
  41 H :    0.159637
  42 H :    0.178658
  43 H :    0.158911
  44 H :    0.154409
  45 H :    0.169880
  46 H :    0.159047
  47 H :    0.145347
  48 H :    0.167238
Sum of atomic charges:    0.0000000

LOEWDIN ATOMIC CHARGES
----------------------
   0 O :   -0.236815
   1 C :    0.127327
   2 C :   -0.251500
   3 C :    0.083484
   4 C :   -0.239059
   5 C :   -0.156940
   6 N :   -0.134957
   7 C :    0.165865
   8 O :   -0.309257
   9 N :   -0.230744
  10 C :    0.034252
  11 C :   -0.141897
  12 C :   -0.140152
  13 C :    0.077180
  14 O :   -0.162736
  15 C :    0.359056
  16 F :   -0.106327
  17 F :   -0.104435
  18 F :   -0.088897
  19 C :   -0.155462
  20 C :   -0.115380
  21 C :   -0.143251
  22 C :   -0.233562
  23 O :   -0.165625
  24 C :    0.076546
  25 C :    0.096880
  26 F :   -0.095409
  27 C :   -0.131033
  28 C :   -0.136788
  29 C :   -0.092774
  30 C :   -0.089900
  31 H :    0.153772
  32 H :    0.149337
  33 H :    0.138075
  34 H :    0.141516
  35 H :    0.110402
  36 H :    0.127337
  37 H :    0.253422
  38 H :    0.134337
  39 H :    0.145166
  40 H :    0.143616
  41 H :    0.150990
  42 H :    0.148001
  43 H :    0.124006
  44 H :    0.132255
  45 H :    0.145264
  46 H :    0.151146
  47 H :    0.140353
  48 H :    0.153314

  Mayer bond orders larger than 0.100000
B(  0-O ,  1-C ) :   1.8659 B(  1-C ,  2-C ) :   0.9575 B(  1-C , 30-C ) :   1.0119
B(  2-C ,  3-C ) :   0.9524 B(  2-C , 31-H ) :   0.9094 B(  2-C , 32-H ) :   0.9164
B(  3-C ,  4-C ) :   0.9742 B(  3-C , 22-C ) :   0.9719 B(  3-C , 23-O ) :   0.8339
B(  4-C ,  5-C ) :   1.0009 B(  4-C , 33-H ) :   0.9248 B(  4-C , 34-H ) :   0.9234
B(  5-C ,  6-N ) :   0.9454 B(  5-C , 35-H ) :   0.9176 B(  5-C , 36-H ) :   0.9244
B(  6-N ,  7-C ) :   1.0511 B(  6-N , 21-C ) :   0.9391 B(  7-C ,  8-O ) :   1.7856
B(  7-C ,  9-N ) :   1.0013 B(  9-N , 10-C ) :   0.8645 B(  9-N , 37-H ) :   0.8183
B( 10-C , 11-C ) :   1.4101 B( 10-C , 20-C ) :   1.4207 B( 11-C , 12-C ) :   1.4416
B( 11-C , 38-H ) :   0.9236 B( 12-C , 13-C ) :   1.4240 B( 12-C , 39-H ) :   0.9181
B( 13-C , 14-O ) :   0.8166 B( 13-C , 19-C ) :   1.3829 B( 14-O , 15-C ) :   0.9944
B( 15-C , 16-F ) :   0.9667 B( 15-C , 17-F ) :   0.9695 B( 15-C , 18-F ) :   1.0062
B( 19-C , 20-C ) :   1.4386 B( 19-C , 40-H ) :   0.9094 B( 20-C , 41-H ) :   0.9097
B( 21-C , 22-C ) :   0.9907 B( 21-C , 42-H ) :   0.9222 B( 21-C , 43-H ) :   0.9260
B( 22-C , 44-H ) :   0.9273 B( 22-C , 45-H ) :   0.9221 B( 23-O , 24-C ) :   0.9279
B( 24-C , 25-C ) :   1.2908 B( 24-C , 30-C ) :   1.2941 B( 25-C , 26-F ) :   0.9379
B( 25-C , 27-C ) :   1.4099 B( 27-C , 28-C ) :   1.3984 B( 27-C , 46-H ) :   0.9180
B( 28-C , 29-C ) :   1.4471 B( 28-C , 47-H ) :   0.9293 B( 29-C , 30-C ) :   1.3754
B( 29-C , 48-H ) :   0.9117

FINAL SINGLE POINT ENERGY     -1619.949636475619

DIPOLE MOMENT
-------------

Method             : SCF
Type of density    : Electron Density
Multiplicity       :   1
Irrep              :   0
Energy             : -1619.9496364756191724 Eh
Relativity type    :
Basis              : AO
                                X                 Y                 Z
Electronic contribution:     43.688612094       7.438915550       2.511898306
Nuclear contribution   :    -45.346061198      -8.230469186      -2.702693837
                        -----------------------------------------
Total Dipole Moment    :     -1.657449104      -0.791553637      -0.190795530
                        -----------------------------------------
Magnitude (a.u.)       :      1.846644965
Magnitude (Debye)      :      4.693798478

Rotational constants in cm-1:             0.017478             0.001188             0.001160
Rotational constants in MHz :           523.967006            35.629454            34.773000

                             ****ORCA TERMINATED NORMALLY****
TOTAL RUN TIME: 0 days 0 hours 6 minutes 10 seconds 383 msec
