                         Program Version 6.0.0  -   RELEASE  -
|  1> ! B3LYP 6-31G* SP
|  2>
|  3> * xyz 0 1
|  4> O 1.3348 0.9266 2.5502
|  5> S 1.2065 -0.1936 1.5567
|  6> O 1.0534 -1.4817 2.3170
|  7> C 2.6436 -0.2896 0.5473
|  8> C 3.4357 0.8442 0.3331
|  9> C 4.5537 0.7749 -0.5037
| 10> C 4.8928 -0.4322 -1.1435
| 11> C 6.0707 -0.5259 -2.0391
| 12> N 6.4329 -1.6421 -2.7011
| 13> N 7.5220 -1.3068 -3.3777
| 14> N 7.8240 -0.0389 -3.1462
| 15> N 6.9332 0.4695 -2.3144
| 16> C 4.0875 -1.5647 -0.9263
| 17> C 2.9717 -1.4924 -0.0886
| 18> N -0.1798 0.0666 0.5436
| 19> C -0.3295 1.3245 -0.1922
| 20> C -0.7790 2.4221 0.7325
| 21> C 0.1086 3.4393 1.1161
| 22> C -0.3039 4.4362 2.0048
| 23> C -1.6024 4.4324 2.5283
| 24> O -1.9555 5.4467 3.4337
| 25> C -3.2156 5.5618 4.0901
| 26> F -4.2236 5.7402 3.1587
| 27> F -3.1843 6.6588 4.9298
| 28> F -3.4649 4.4298 4.8453
| 29> C -2.4965 3.4185 2.1334
| 30> C -2.0865 2.4244 1.2394
| 31> C -1.2184 -0.9218 0.5076
| 32> N -1.9594 -1.0958 1.6287
| 33> C -2.9713 -1.9831 1.7025
| 34> C -3.3247 -2.7384 0.5870
| 35> C -4.4104 -3.6241 0.6869
| 36> C -4.8202 -4.3629 -0.4162
| 37> C -4.1658 -4.2078 -1.6310
| 38> C -3.0811 -3.3339 -1.7479
| 39> C -2.5973 -2.5958 -0.6336
| 40> C -1.4572 -1.7053 -0.6579
| 41> C -0.3874 -1.5511 -1.7648
| 42> C -0.8455 -1.3852 -3.1990
| 43> C -0.1073 -2.6589 -2.7629
| 44> H 3.1852 1.7849 0.8069
| 45> H 5.1403 1.6707 -0.6484
| 46> H 6.9391 1.4521 -1.9661
| 47> H 4.3164 -2.5075 -1.4074
| 48> H 2.3564 -2.3720 0.0540
| 49> H -1.0770 1.2099 -1.0082
| 50> H 0.6351 1.5841 -0.6796
| 51> H 1.1226 3.4569 0.7361
| 52> H 0.3929 5.2128 2.2961
| 53> H -3.5073 3.3809 2.5185
| 54> H -2.7853 1.6477 0.9532
| 55> H -3.5186 -2.0754 2.6329
| 56> H -4.9489 -3.7387 1.6206
| 57> H -5.6602 -5.0414 -0.3343
| 58> H -4.5074 -4.7619 -2.4968
| 59> H -2.6891 -3.2534 -2.7389
| 60> H 0.5358 -0.9803 -1.5387
| 61> H -0.2197 -0.6671 -3.7703
| 62> H -1.9419 -1.3879 -3.3333
| 63> H -0.6322 -3.6044 -2.5515
| 64> H 0.9600 -2.6943 -3.0715
| 65> *
| 66>
| 67>                          ****END OF INPUT****

CARTESIAN COORDINATES (ANGSTROEM)
---------------------------------
  O      1.334800    0.926600    2.550200
  S      1.206500   -0.193600    1.556700
  O      1.053400   -1.481700    2.317000
  C      2.643600   -0.289600    0.547300
  C      3.435700    0.844200    0.333100
  C      4.553700    0.774900   -0.503700
  C      4.892800   -0.432200   -1.143500
  C      6.070700   -0.525900   -2.039100
  N      6.432900   -1.642100   -2.701100
  N      7.522000   -1.306800   -3.377700
  N      7.824000   -0.038900   -3.146200
  N      6.933200    0.469500   -2.314400
  C      4.087500   -1.564700   -0.926300
  C      2.971700   -1.492400   -0.088600
  N     -0.179800    0.066600    0.543600
  C     -0.329500    1.324500   -0.192200
  C     -0.779000    2.422100    0.732500
  C      0.108600    3.439300    1.116100
  C     -0.303900    4.436200    2.004800
  C     -1.602400    4.432400    2.528300
  O     -1.955500    5.446700    3.433700
  C     -3.215600    5.561800    4.090100
  F     -4.223600    5.740200    3.158700
  F     -3.184300    6.658800    4.929800
  F     -3.464900    4.429800    4.845300
  C     -2.496500    3.418500    2.133400
  C     -2.086500    2.424400    1.239400
  C     -1.218400   -0.921800    0.507600
  N     -1.959400   -1.095800    1.628700
  C     -2.971300   -1.983100    1.702500
  C     -3.324700   -2.738400    0.587000
  C     -4.410400   -3.624100    0.686900
  C     -4.820200   -4.362900   -0.416200
  C     -4.165800   -4.207800   -1.631000
  C     -3.081100   -3.333900   -1.747900
  C     -2.597300   -2.595800   -0.633600
  C     -1.457200   -1.705300   -0.657900
  C     -0.387400   -1.551100   -1.764800
  C     -0.845500   -1.385200   -3.199000
  C     -0.107300   -2.658900   -2.762900
  H      3.185200    1.784900    0.806900
  H      5.140300    1.670700   -0.648400
  H      6.939100    1.452100   -1.966100
  H      4.316400   -2.507500   -1.407400
  H      2.356400   -2.372000    0.054000
  H     -1.077000    1.209900   -1.008200
  H      0.635100    1.584100   -0.679600
  H      1.122600    3.456900    0.736100
  H      0.392900    5.212800    2.296100
  H     -3.507300    3.380900    2.518500
  H     -2.785300    1.647700    0.953200
  H     -3.518600   -2.075400    2.632900
  H     -4.948900   -3.738700    1.620600
  H     -5.660200   -5.041400   -0.334300
  H     -4.507400   -4.761900   -2.496800
  H     -2.689100   -3.253400   -2.738900
  H      0.535800   -0.980300   -1.538700
  H     -0.219700   -0.667100   -3.770300
  H     -1.941900   -1.387900   -3.333300
  H     -0.632200   -3.604400   -2.551500
  H      0.960000   -2.694300   -3.071500

 Total Charge           Charge          ....    0
 Multiplicity           Mult            ....    1
 Number of Electrons    NEL             ....  292
 Basis Dimension        Dim             ....  606

ORBITAL ENERGIES
----------------

  NO   OCC          E(Eh)            E(eV)
   0   2.0000     -89.098334     -2424.4889
   1   2.0000     -24.735517      -673.0876
   2   2.0000     -24.733469      -673.0319
   3   2.0000     -24.731950      -672.9906
   4   2.0000     -19.205762      -522.6153
   5   2.0000     -19.124603      -520.4069
   6   2.0000     -19.123276      -520.3708
   7   2.0000     -14.461030      -393.5046
   8   2.0000     -14.410310      -392.1245
   9   2.0000     -14.401512      -391.8851
  10   2.0000     -14.374653      -391.1542
  11   2.0000     -14.372094      -391.0846
  12   2.0000     -14.329113      -389.9150
  13   2.0000     -10.497629      -285.6550
  14   2.0000     -10.288908      -279.9754
  15   2.0000     -10.262877      -279.2671
  16   2.0000     -10.260880      -279.2127
  17   2.0000     -10.249682      -278.9080
  18   2.0000     -10.247806      -278.8570
  19   2.0000     -10.240331      -278.6536
  20   2.0000     -10.234639      -278.4987
  21   2.0000     -10.233521      -278.4683
  22   2.0000     -10.229466      -278.3579
  23   2.0000     -10.224914      -278.2340
  24   2.0000     -10.223660      -278.1999
  25   2.0000     -10.223605      -278.1984
  26   2.0000     -10.221376      -278.1378
  27   2.0000     -10.210448      -277.8404
  28   2.0000     -10.204822      -277.6873
  29   2.0000     -10.203740      -277.6579
  30   2.0000     -10.201601      -277.5997
  31   2.0000     -10.201481      -277.5964
  32   2.0000     -10.200896      -277.5805
  33   2.0000     -10.200490      -277.5694
  34   2.0000     -10.197709      -277.4938
  35   2.0000     -10.191484      -277.3244
  36   2.0000     -10.191059      -277.3128
  37   2.0000     -10.189298      -277.2649
  38   2.0000     -10.188767      -277.2504
  39   2.0000     -10.188078      -277.2317
  40   2.0000      -8.133755      -221.3307
  41   2.0000      -6.098827      -165.9575
  42   2.0000      -6.096728      -165.9004
  43   2.0000      -6.096510      -165.8945
  44   2.0000      -1.297848       -35.3163
  45   2.0000      -1.218951       -33.1693
  46   2.0000      -1.217999       -33.1434
  47   2.0000      -1.156717       -31.4759
  48   2.0000      -1.082501       -29.4563
  49   2.0000      -1.075619       -29.2691
  50   2.0000      -0.974860       -26.5273
  51   2.0000      -0.964553       -26.2468
  52   2.0000      -0.960004       -26.1230
  53   2.0000      -0.917212       -24.9586
  54   2.0000      -0.912864       -24.8403
  55   2.0000      -0.883437       -24.0395
  56   2.0000      -0.875123       -23.8133
  57   2.0000      -0.864580       -23.5264
  58   2.0000      -0.856378       -23.3032
  59   2.0000      -0.808641       -22.0042
  60   2.0000      -0.792968       -21.5778
  61   2.0000      -0.789724       -21.4895
  62   2.0000      -0.784354       -21.3434
  63   2.0000      -0.774784       -21.0829
  64   2.0000      -0.751511       -20.4497
  65   2.0000      -0.743209       -20.2237
  66   2.0000      -0.727145       -19.7866
  67   2.0000      -0.708657       -19.2835
  68   2.0000      -0.695527       -18.9263
  69   2.0000      -0.680378       -18.5140
  70   2.0000      -0.672941       -18.3116
  71   2.0000      -0.661125       -17.9901
  72   2.0000      -0.647079       -17.6079
  73   2.0000      -0.638074       -17.3629
  74   2.0000      -0.627251       -17.0684
  75   2.0000      -0.623895       -16.9771
  76   2.0000      -0.617972       -16.8159
  77   2.0000      -0.613050       -16.6819
  78   2.0000      -0.601097       -16.3567
  79   2.0000      -0.594817       -16.1858
  80   2.0000      -0.589960       -16.0536
  81   2.0000      -0.585659       -15.9366
  82   2.0000      -0.583188       -15.8694
  83   2.0000      -0.567994       -15.4559
  84   2.0000      -0.560979       -15.2650
  85   2.0000      -0.532709       -14.4958
  86   2.0000      -0.528050       -14.3690
  87   2.0000      -0.519257       -14.1297
  88   2.0000      -0.518304       -14.1038
  89   2.0000      -0.512299       -13.9404
  90   2.0000      -0.500951       -13.6316
  91   2.0000      -0.497077       -13.5261
  92   2.0000      -0.494918       -13.4674
  93   2.0000      -0.488083       -13.2814
  94   2.0000      -0.481589       -13.1047
  95   2.0000      -0.475939       -12.9510
  96   2.0000      -0.474863       -12.9217
  97   2.0000      -0.468978       -12.7615
  98   2.0000      -0.463769       -12.6198
  99   2.0000      -0.463294       -12.6069
 100   2.0000      -0.461653       -12.5622
 101   2.0000      -0.454600       -12.3703
 102   2.0000      -0.445295       -12.1171
 103   2.0000      -0.441850       -12.0233
 104   2.0000      -0.438966       -11.9449
 105   2.0000      -0.437135       -11.8951
 106   2.0000      -0.430558       -11.7161
 107   2.0000      -0.428114       -11.6496
 108   2.0000      -0.426502       -11.6057
 109   2.0000      -0.422226       -11.4894
 110   2.0000      -0.419773       -11.4226
 111   2.0000      -0.417998       -11.3743
 112   2.0000      -0.412606       -11.2276
 113   2.0000      -0.410416       -11.1680
 114   2.0000      -0.409730       -11.1493
 115   2.0000      -0.399978       -10.8840
 116   2.0000      -0.398830       -10.8527
 117   2.0000      -0.390508       -10.6263
 118   2.0000      -0.388582       -10.5739
 119   2.0000      -0.380671       -10.3586
 120   2.0000      -0.379216       -10.3190
 121   2.0000      -0.375029       -10.2051
 122   2.0000      -0.373279       -10.1574
 123   2.0000      -0.359112        -9.7719
 124   2.0000      -0.352856        -9.6017
 125   2.0000      -0.351313        -9.5597
 126   2.0000      -0.343912        -9.3583
 127   2.0000      -0.341392        -9.2898
 128   2.0000      -0.339610        -9.2413
 129   2.0000      -0.330450        -8.9920
 130   2.0000      -0.321920        -8.7599
 131   2.0000      -0.310957        -8.4616
 132   2.0000      -0.308785        -8.4025
 133   2.0000      -0.304729        -8.2921
 134   2.0000      -0.297028        -8.0826
 135   2.0000      -0.296289        -8.0624
 136   2.0000      -0.290206        -7.8969
 137   2.0000      -0.283770        -7.7218
 138   2.0000      -0.276913        -7.5352
 139   2.0000      -0.273698        -7.4477
 140   2.0000      -0.268446        -7.3048
 141   2.0000      -0.255777        -6.9600
 142   2.0000      -0.250344        -6.8122
 143   2.0000      -0.246411        -6.7052
 144   2.0000      -0.232055        -6.3145
 145   2.0000      -0.219071        -5.9612
 146   0.0000      -0.086706        -2.3594
 147   0.0000      -0.063843        -1.7372
 148   0.0000      -0.045452        -1.2368
 149   0.0000      -0.034400        -0.9361
 150   0.0000      -0.016185        -0.4404

MULLIKEN ATOMIC CHARGES
-----------------------
   0 O :   -0.527951
   1 S :    1.205333
   2 O :   -0.532873
   3 C :   -0.132324
   4 C :   -0.152993
   5 C :   -0.171814
   6 C :    0.155774
   7 C :    0.432611
   8 N :   -0.309822
   9 N :   -0.075628
  10 N :   -0.048044
  11 N :   -0.470462
  12 C :   -0.163360
  13 C :   -0.145492
  14 N :   -0.597216
  15 C :   -0.277428
  16 C :    0.194837
  17 C :   -0.137463
  18 C :   -0.170756
  19 C :    0.355377
  20 O :   -0.546632
  21 C :    1.085651
  22 F :   -0.293463
  23 F :   -0.280612
  24 F :   -0.289594
  25 C :   -0.190002
  26 C :   -0.149162
  27 C :    0.301845
  28 N :   -0.352604
  29 C :   -0.055398
  30 C :    0.138521
  31 C :   -0.199471
  32 C :   -0.125468
  33 C :   -0.122849
  34 C :   -0.224716
  35 C :    0.102182
  36 C :    0.102606
  37 C :   -0.186270
  38 C :   -0.313955
  39 C :   -0.313952
  40 H :    0.187107
  41 H :    0.124966
  42 H :    0.380521
  43 H :    0.187453
  44 H :    0.193879
  45 H :    0.181441
  46 H :    0.147899
  47 H :    0.119656
  48 H :    0.142974
  49 H :    0.150682
  50 H :    0.140771
  51 H :    0.157022
  52 H :    0.143605
  53 H :    0.137334
  54 H :    0.139127
  55 H :    0.147321
  56 H :    0.154539
  57 H :    0.154568
  58 H :    0.166613
  59 H :    0.170439
  60 H :    0.155119
Sum of atomic charges:   -0.0000000

LOEWDIN ATOMIC CHARGES
----------------------
   0 O :   -0.561083
   1 S :    1.266022
   2 O :   -0.561399
   3 C :   -0.184855
   4 C :   -0.105036
   5 C :   -0.128102
   6 C :   -0.013639
   7 C :    0.014228
   8 N :   -0.127196
   9 N :   -0.061189
  10 N :   -0.087193
  11 N :   -0.057752
  12 C :   -0.101999
  13 C :   -0.095755
  14 N :   -0.279409
  15 C :   -0.147740
  16 C :   -0.036049
  17 C :   -0.112231
  18 C :   -0.139520
  19 C :    0.088637
  20 O :   -0.160219
  21 C :    0.359328
  22 F :   -0.106993
  23 F :   -0.088974
  24 F :   -0.103447
  25 C :   -0.155528
  26 C :   -0.108756
  27 C :    0.029225
  28 N :   -0.107674
  29 C :   -0.059475
  30 C :   -0.026377
  31 C :   -0.109653
  32 C :   -0.126402
  33 C :   -0.120079
  34 C :   -0.136982
  35 C :   -0.005590
  36 C :   -0.006887
  37 C :   -0.143150
  38 C :   -0.250037
  39 C :   -0.251339
  40 H :    0.158495
  41 H :    0.130268
  42 H :    0.289087
  43 H :    0.161889
  44 H :    0.163748
  45 H :    0.147134
  46 H :    0.123829
  47 H :    0.128070
  48 H :    0.142970
  49 H :    0.141379
  50 H :    0.139163
  51 H :    0.139687
  52 H :    0.139588
  53 H :    0.136016
  54 H :    0.137146
  55 H :    0.142402
  56 H :    0.137579
  57 H :    0.135836
  58 H :    0.137592
  59 H :    0.141608
  60 H :    0.136780

  Mayer bond orders larger than 0.100000
B(  0-O ,  1-S ) :   1.6525 B(  1-S ,  2-O ) :   1.6404 B(  1-S ,  3-C ) :   0.8093
B(  1-S , 14-N ) :   0.7977 B(  3-C ,  4-C ) :   1.3948 B(  3-C , 13-C ) :   1.3774
B(  4-C ,  5-C ) :   1.4327 B(  4-C , 40-H ) :   0.9038 B(  5-C ,  6-C ) :   1.3762
B(  5-C , 41-H ) :   0.9234 B(  6-C ,  7-C ) :   1.0612 B(  6-C , 12-C ) :   1.3926
B(  7-C ,  8-N ) :   1.4213 B(  7-C , 11-N ) :   1.0453 B(  8-N ,  9-N ) :   1.3117
B(  9-N , 10-N ) :   1.4780 B( 10-N , 11-N ) :   1.2108 B( 11-N , 42-H ) :   0.8003
B( 12-C , 13-C ) :   1.4220 B( 12-C , 43-H ) :   0.9073 B( 13-C , 44-H ) :   0.9062
B( 14-N , 15-C ) :   0.9262 B( 14-N , 27-C ) :   0.9021 B( 15-C , 16-C ) :   0.9445
B( 15-C , 45-H ) :   0.9201 B( 15-C , 46-H ) :   0.9261 B( 16-C , 17-C ) :   1.4379
B( 16-C , 26-C ) :   1.4278 B( 17-C , 18-C ) :   1.4393 B( 17-C , 47-H ) :   0.9208
B( 18-C , 19-C ) :   1.4240 B( 18-C , 48-H ) :   0.9185 B( 19-C , 20-O ) :   0.8209
B( 19-C , 25-C ) :   1.3888 B( 20-O , 21-C ) :   0.9933 B( 21-C , 22-F ) :   0.9658
B( 21-C , 23-F ) :   1.0062 B( 21-C , 24-F ) :   0.9711 B( 25-C , 26-C ) :   1.4402
B( 25-C , 49-H ) :   0.9097 B( 26-C , 50-H ) :   0.9178 B( 27-C , 28-N ) :   1.2932
B( 27-C , 36-C ) :   1.4140 B( 28-N , 29-C ) :   1.4991 B( 29-C , 30-C ) :   1.2299
B( 29-C , 51-H ) :   0.9258 B( 30-C , 31-C ) :   1.2831 B( 30-C , 35-C ) :   1.2905
B( 31-C , 32-C ) :   1.5138 B( 31-C , 34-C ) :   0.1027 B( 31-C , 52-H ) :   0.9227
B( 32-C , 33-C ) :   1.3604 B( 32-C , 53-H ) :   0.9281 B( 33-C , 34-C ) :   1.5167
B( 33-C , 54-H ) :   0.9283 B( 34-C , 35-C ) :   1.2698 B( 34-C , 55-H ) :   0.9120
B( 35-C , 36-C ) :   1.2300 B( 36-C , 37-C ) :   1.0402 B( 37-C , 38-C ) :   0.9125
B( 37-C , 39-C ) :   0.9283 B( 37-C , 56-H ) :   0.9138 B( 38-C , 39-C ) :   0.9590
B( 38-C , 57-H ) :   0.9417 B( 38-C , 58-H ) :   0.9337 B( 39-C , 59-H ) :   0.9290
B( 39-C , 60-H ) :   0.9398

FINAL SINGLE POINT ENERGY     -2292.076168943502

DIPOLE MOMENT
-------------

Method             : SCF
Type of density    : Electron Density
Multiplicity       :   1
Irrep              :   0
Energy             : -2292.0761689435021253 Eh
Relativity type    :
Basis              : AO
                                X                 Y                 Z
Electronic contribution:     -3.660162836      34.435404028      31.682316864
Nuclear contribution   :      2.617856959     -34.124994646     -33.686431006
                        -----------------------------------------
Total Dipole Moment    :     -1.042305878       0.310409383      -2.004114142
                        -----------------------------------------
Magnitude (a.u.)       :      2.280181796
Magnitude (Debye)      :      5.795761528

Rotational constants in cm-1:             0.003007             0.001675             0.001173
Rotational constants in MHz :            90.151310            50.228646            35.160449

                             ****ORCA TERMINATED NORMALLY****
TOTAL RUN TIME: 0 days 0 hours 13 minutes 40 seconds 494 msec
