                         Program Version 6.0.0  -   RELEASE  -
|  1> ! B3LYP 6-31G* SP
|  2>
|  3> * xyz 0 1
|  4> C -1.1946 1.5802 1.8152
|  5> C -0.2691 1.7852 0.6044
|  6> C -0.2650 3.2056 0.0660
|  7> C -1.4432 3.9683 -0.0541
|  8> C -1.4008 5.2593 -0.5896
|  9> C -0.1938 5.7952 -1.0362
| 10> C 0.9780 5.0380 -0.9549
| 11> Cl 2.4910 5.7011 -1.5376
| 12> C 0.9436 3.7518 -0.4054
| 13> N -0.5414 0.8250 -0.4826
| 14> C -1.8934 0.5968 -1.0154
| 15> C -2.3799 -0.7719 -0.6153
| 16> C -1.8470 -1.9148 -1.2306
| 17> C -2.2398 -3.1872 -0.8153
| 18> C -3.1801 -3.3326 0.2068
| 19> C -3.7394 -2.2003 0.8249
| 20> C -4.7354 -2.3488 1.9059
| 21> O -5.0102 -3.4879 2.3662
| 22> O -5.3854 -1.2301 2.4221
| 23> C -3.3328 -0.9213 0.4060
| 24> C 0.5772 0.3102 -1.2261
| 25> O 0.7236 0.6492 -2.4311
| 26> C 1.5457 -0.6195 -0.5983
| 27> C 1.2288 -1.2931 0.5939
| 28> N 2.1120 -2.1612 1.1515
| 29> C 3.3247 -2.4074 0.5901
| 30> C 4.2078 -3.3078 1.1963
| 31> C 5.4549 -3.5597 0.6170
| 32> C 5.8277 -2.9096 -0.5631
| 33> C 4.9503 -2.0102 -1.1770
| 34> C 3.6938 -1.7573 -0.6063
| 35> C 2.7907 -0.8657 -1.1994
| 36> H -2.2599 1.7551 1.5739
| 37> H -0.9036 2.2758 2.6299
| 38> H -1.0952 0.5420 2.1948
| 39> H 0.7497 1.5809 1.0062
| 40> H -2.3979 3.5795 0.2658
| 41> H -2.3112 5.8414 -0.6681
| 42> H -0.1700 6.7942 -1.4542
| 43> H 1.8593 3.1752 -0.3526
| 44> H -2.5971 1.3762 -0.6599
| 45> H -1.8893 0.6826 -2.1246
| 46> H -1.1130 -1.8228 -2.0223
| 47> H -1.8148 -4.0636 -1.2888
| 48> H -3.4679 -4.3314 0.5103
| 49> H -6.0794 -1.3203 3.1556
| 50> H -3.7497 -0.0410 0.8756
| 51> H 0.2713 -1.1501 1.0722
| 52> H 3.9304 -3.8106 2.1152
| 53> H 6.1336 -4.2574 1.0863
| 54> H 6.7960 -3.1066 -1.0057
| 55> H 5.2497 -1.5194 -2.0957
| 56> H 3.0604 -0.3592 -2.1192
| 57> *
| 58>
| 59>                          ****END OF INPUT****

CARTESIAN COORDINATES (ANGSTROEM)
---------------------------------
  C     -1.194600    1.580200    1.815200
  C     -0.269100    1.785200    0.604400
  C     -0.265000    3.205600    0.066000
  C     -1.443200    3.968300   -0.054100
  C     -1.400800    5.259300   -0.589600
  C     -0.193800    5.795200   -1.036200
  C      0.978000    5.038000   -0.954900
  Cl     2.491000    5.701100   -1.537600
  C      0.943600    3.751800   -0.405400
  N     -0.541400    0.825000   -0.482600
  C     -1.893400    0.596800   -1.015400
  C     -2.379900   -0.771900   -0.615300
  C     -1.847000   -1.914800   -1.230600
  C     -2.239800   -3.187200   -0.815300
  C     -3.180100   -3.332600    0.206800
  C     -3.739400   -2.200300    0.824900
  C     -4.735400   -2.348800    1.905900
  O     -5.010200   -3.487900    2.366200
  O     -5.385400   -1.230100    2.422100
  C     -3.332800   -0.921300    0.406000
  C      0.577200    0.310200   -1.226100
  O      0.723600    0.649200   -2.431100
  C      1.545700   -0.619500   -0.598300
  C      1.228800   -1.293100    0.593900
  N      2.112000   -2.161200    1.151500
  C      3.324700   -2.407400    0.590100
  C      4.207800   -3.307800    1.196300
  C      5.454900   -3.559700    0.617000
  C      5.827700   -2.909600   -0.563100
  C      4.950300   -2.010200   -1.177000
  C      3.693800   -1.757300   -0.606300
  C      2.790700   -0.865700   -1.199400
  H     -2.259900    1.755100    1.573900
  H     -0.903600    2.275800    2.629900
  H     -1.095200    0.542000    2.194800
  H      0.749700    1.580900    1.006200
  H     -2.397900    3.579500    0.265800
  H     -2.311200    5.841400   -0.668100
  H     -0.170000    6.794200   -1.454200
  H      1.859300    3.175200   -0.352600
  H     -2.597100    1.376200   -0.659900
  H     -1.889300    0.682600   -2.124600
  H     -1.113000   -1.822800   -2.022300
  H     -1.814800   -4.063600   -1.288800
  H     -3.467900   -4.331400    0.510300
  H     -6.079400   -1.320300    3.155600
  H     -3.749700   -0.041000    0.875600
  H      0.271300   -1.150100    1.072200
  H      3.930400   -3.810600    2.115200
  H      6.133600   -4.257400    1.086300
  H      6.796000   -3.106600   -1.005700
  H      5.249700   -1.519400   -2.095700
  H      3.060400   -0.359200   -2.119200

 Total Charge           Charge          ....    0
 Multiplicity           Mult            ....    1
 Number of Electrons    NEL             ....  232
 Basis Dimension        Dim             ....  494

ORBITAL ENERGIES
----------------

  NO   OCC          E(Eh)            E(eV)
   0   2.0000    -101.525987     -2762.6625
   1   2.0000     -19.184709      -522.0425
   2   2.0000     -19.128474      -520.5122
   3   2.0000     -19.123401      -520.3742
   4   2.0000     -14.342649      -390.2833
   5   2.0000     -14.328490      -389.8980
   6   2.0000     -10.320934      -280.8469
   7   2.0000     -10.296919      -280.1934
   8   2.0000     -10.246136      -278.8115
   9   2.0000     -10.238816      -278.6124
  10   2.0000     -10.228190      -278.3232
  11   2.0000     -10.225598      -278.2527
  12   2.0000     -10.224320      -278.2179
  13   2.0000     -10.211881      -277.8794
  14   2.0000     -10.210195      -277.8335
  15   2.0000     -10.207505      -277.7603
  16   2.0000     -10.202385      -277.6210
  17   2.0000     -10.202218      -277.6165
  18   2.0000     -10.200369      -277.5661
  19   2.0000     -10.198800      -277.5234
  20   2.0000     -10.198396      -277.5125
  21   2.0000     -10.197520      -277.4886
  22   2.0000     -10.196779      -277.4685
  23   2.0000     -10.196127      -277.4507
  24   2.0000     -10.195911      -277.4449
  25   2.0000     -10.195495      -277.4335
  26   2.0000     -10.195179      -277.4249
  27   2.0000     -10.194679      -277.4113
  28   2.0000     -10.193606      -277.3821
  29   2.0000     -10.192043      -277.3396
  30   2.0000     -10.190968      -277.3103
  31   2.0000     -10.184680      -277.1392
  32   2.0000      -9.457947      -257.3638
  33   2.0000      -7.220938      -196.4917
  34   2.0000      -7.211567      -196.2367
  35   2.0000      -7.211254      -196.2282
  36   2.0000      -1.068779       -29.0830
  37   2.0000      -1.024131       -27.8680
  38   2.0000      -0.982557       -26.7367
  39   2.0000      -0.941155       -25.6101
  40   2.0000      -0.926388       -25.2083
  41   2.0000      -0.886845       -24.1323
  42   2.0000      -0.866373       -23.5752
  43   2.0000      -0.855057       -23.2673
  44   2.0000      -0.836667       -22.7669
  45   2.0000      -0.817325       -22.2405
  46   2.0000      -0.793412       -21.5898
  47   2.0000      -0.774667       -21.0798
  48   2.0000      -0.769198       -20.9309
  49   2.0000      -0.761266       -20.7151
  50   2.0000      -0.745891       -20.2967
  51   2.0000      -0.742956       -20.2169
  52   2.0000      -0.725825       -19.7507
  53   2.0000      -0.696719       -18.9587
  54   2.0000      -0.664468       -18.0811
  55   2.0000      -0.661989       -18.0136
  56   2.0000      -0.645015       -17.5518
  57   2.0000      -0.635815       -17.3014
  58   2.0000      -0.615787       -16.7564
  59   2.0000      -0.612008       -16.6536
  60   2.0000      -0.610781       -16.6202
  61   2.0000      -0.589082       -16.0297
  62   2.0000      -0.582305       -15.8453
  63   2.0000      -0.558754       -15.2045
  64   2.0000      -0.533425       -14.5152
  65   2.0000      -0.530508       -14.4359
  66   2.0000      -0.527186       -14.3455
  67   2.0000      -0.517946       -14.0940
  68   2.0000      -0.512911       -13.9570
  69   2.0000      -0.495729       -13.4895
  70   2.0000      -0.486725       -13.2445
  71   2.0000      -0.481106       -13.0916
  72   2.0000      -0.475436       -12.9373
  73   2.0000      -0.465637       -12.6706
  74   2.0000      -0.461029       -12.5452
  75   2.0000      -0.453701       -12.3458
  76   2.0000      -0.448394       -12.2014
  77   2.0000      -0.447391       -12.1741
  78   2.0000      -0.439945       -11.9715
  79   2.0000      -0.438481       -11.9317
  80   2.0000      -0.431035       -11.7290
  81   2.0000      -0.430640       -11.7183
  82   2.0000      -0.428497       -11.6600
  83   2.0000      -0.426860       -11.6154
  84   2.0000      -0.419684       -11.4202
  85   2.0000      -0.418871       -11.3980
  86   2.0000      -0.405875       -11.0444
  87   2.0000      -0.400741       -10.9047
  88   2.0000      -0.396271       -10.7831
  89   2.0000      -0.390304       -10.6207
  90   2.0000      -0.385788       -10.4978
  91   2.0000      -0.381590       -10.3836
  92   2.0000      -0.376020       -10.2320
  93   2.0000      -0.372515       -10.1367
  94   2.0000      -0.368477       -10.0268
  95   2.0000      -0.365295        -9.9402
  96   2.0000      -0.361315        -9.8319
  97   2.0000      -0.357106        -9.7173
  98   2.0000      -0.353863        -9.6291
  99   2.0000      -0.350141        -9.5278
 100   2.0000      -0.348088        -9.4720
 101   2.0000      -0.338331        -9.2065
 102   2.0000      -0.328183        -8.9303
 103   2.0000      -0.309509        -8.4222
 104   2.0000      -0.306908        -8.3514
 105   2.0000      -0.305173        -8.3042
 106   2.0000      -0.273480        -7.4418
 107   2.0000      -0.265237        -7.2175
 108   2.0000      -0.261349        -7.1117
 109   2.0000      -0.259853        -7.0710
 110   2.0000      -0.256840        -6.9890
 111   2.0000      -0.256117        -6.9693
 112   2.0000      -0.244965        -6.6658
 113   2.0000      -0.243261        -6.6195
 114   2.0000      -0.232251        -6.3199
 115   2.0000      -0.219438        -5.9712
 116   0.0000      -0.079633        -2.1669
 117   0.0000      -0.053257        -1.4492
 118   0.0000      -0.044872        -1.2210
 119   0.0000      -0.016473        -0.4482
 120   0.0000      -0.013198        -0.3591

MULLIKEN ATOMIC CHARGES
-----------------------
   0 C :   -0.459178
   1 C :   -0.091466
   2 C :    0.209119
   3 C :   -0.180425
   4 C :   -0.120201
   5 C :   -0.130097
   6 C :   -0.062920
   7 Cl:   -0.018119
   8 C :   -0.176868
   9 N :   -0.411451
  10 C :   -0.254180
  11 C :    0.173536
  12 C :   -0.170060
  13 C :   -0.127865
  14 C :   -0.150391
  15 C :    0.084043
  16 C :    0.518849
  17 O :   -0.451993
  18 O :   -0.628612
  19 C :   -0.215323
  20 C :    0.438555
  21 O :   -0.444723
  22 C :    0.058320
  23 C :   -0.029172
  24 N :   -0.432263
  25 C :    0.216268
  26 C :   -0.143881
  27 C :   -0.126656
  28 C :   -0.131440
  29 C :   -0.196592
  30 C :    0.161454
  31 C :   -0.182458
  32 H :    0.147905
  33 H :    0.158178
  34 H :    0.164856
  35 H :    0.152821
  36 H :    0.127650
  37 H :    0.139124
  38 H :    0.150207
  39 H :    0.147789
  40 H :    0.151782
  41 H :    0.181214
  42 H :    0.153968
  43 H :    0.143848
  44 H :    0.166305
  45 H :    0.428562
  46 H :    0.149830
  47 H :    0.171820
  48 H :    0.148114
  49 H :    0.140580
  50 H :    0.138222
  51 H :    0.141756
  52 H :    0.171658
Sum of atomic charges:   -0.0000000

LOEWDIN ATOMIC CHARGES
----------------------
   0 C :   -0.359255
   1 C :   -0.049912
   2 C :   -0.014499
   3 C :   -0.136827
   4 C :   -0.120063
   5 C :   -0.134465
   6 C :   -0.083951
   7 Cl:    0.037471
   8 C :   -0.131895
   9 N :   -0.127008
  10 C :   -0.145069
  11 C :   -0.029772
  12 C :   -0.113220
  13 C :   -0.123591
  14 C :   -0.091160
  15 C :   -0.055928
  16 C :    0.177361
  17 O :   -0.268005
  18 O :   -0.340920
  19 C :   -0.111623
  20 C :    0.140842
  21 O :   -0.246017
  22 C :   -0.085557
  23 C :   -0.057144
  24 N :   -0.129567
  25 C :    0.021680
  26 C :   -0.115259
  27 C :   -0.114412
  28 C :   -0.126851
  29 C :   -0.112644
  30 C :   -0.031893
  31 C :   -0.053591
  32 H :    0.121773
  33 H :    0.134912
  34 H :    0.133488
  35 H :    0.134518
  36 H :    0.130324
  37 H :    0.137330
  38 H :    0.143761
  39 H :    0.142562
  40 H :    0.129702
  41 H :    0.143741
  42 H :    0.142300
  43 H :    0.139413
  44 H :    0.153035
  45 H :    0.345906
  46 H :    0.141620
  47 H :    0.144905
  48 H :    0.146234
  49 H :    0.138113
  50 H :    0.136499
  51 H :    0.137696
  52 H :    0.154913

  Mayer bond orders larger than 0.100000
B(  0-C ,  1-C ) :   0.9993 B(  0-C , 32-H ) :   0.9342 B(  0-C , 33-H ) :   0.9409
B(  0-C , 34-H ) :   0.9362 B(  1-C ,  2-C ) :   0.9389 B(  1-C ,  9-N ) :   0.9689
B(  1-C , 35-H ) :   0.9170 B(  2-C ,  3-C ) :   1.4202 B(  2-C ,  8-C ) :   1.4151
B(  3-C ,  4-C ) :   1.4369 B(  3-C , 36-H ) :   0.9206 B(  4-C ,  5-C ) :   1.4533
B(  4-C , 37-H ) :   0.9275 B(  5-C ,  6-C ) :   1.4175 B(  5-C , 38-H ) :   0.9238
B(  6-C ,  7-Cl) :   1.0113 B(  6-C ,  8-C ) :   1.4077 B(  8-C , 39-H ) :   0.9169
B(  9-N , 10-C ) :   0.9408 B(  9-N , 20-C ) :   0.9898 B( 10-C , 11-C ) :   0.9425
B( 10-C , 40-H ) :   0.9251 B( 10-C , 41-H ) :   0.9149 B( 11-C , 12-C ) :   1.4222
B( 11-C , 19-C ) :   1.4130 B( 12-C , 13-C ) :   1.4292 B( 12-C , 42-H ) :   0.9164
B( 13-C , 14-C ) :   1.4299 B( 13-C , 43-H ) :   0.9275 B( 14-C , 15-C ) :   1.4080
B( 14-C , 44-H ) :   0.9127 B( 15-C , 16-C ) :   1.0109 B( 15-C , 19-C ) :   1.3691
B( 16-C , 17-O ) :   1.8611 B( 16-C , 18-O ) :   1.0134 B( 18-O , 45-H ) :   0.7451
B( 19-C , 46-H ) :   0.9088 B( 20-C , 21-O ) :   1.8442 B( 20-C , 22-C ) :   0.9846
B( 22-C , 23-C ) :   1.2554 B( 22-C , 31-C ) :   1.4249 B( 23-C , 24-N ) :   1.5046
B( 23-C , 47-H ) :   0.9111 B( 24-N , 25-C ) :   1.2502 B( 25-C , 26-C ) :   1.3125
B( 25-C , 30-C ) :   1.2464 B( 26-C , 27-C ) :   1.5120 B( 26-C , 29-C ) :   0.1071
B( 26-C , 48-H ) :   0.9167 B( 27-C , 28-C ) :   1.3452 B( 27-C , 49-H ) :   0.9288
B( 28-C , 29-C ) :   1.5158 B( 28-C , 50-H ) :   0.9292 B( 29-C , 30-C ) :   1.2750
B( 29-C , 51-H ) :   0.9235 B( 30-C , 31-C ) :   1.2699 B( 31-C , 52-H ) :   0.9090

FINAL SINGLE POINT ENERGY     -1797.886556462596

DIPOLE MOMENT
-------------

Method             : SCF
Type of density    : Electron Density
Multiplicity       :   1
Irrep              :   0
Energy             : -1797.8865564625955358 Eh
Relativity type    :
Basis              : AO
                                X                 Y                 Z
Electronic contribution:      7.097751247      10.209503404      -6.164184497
Nuclear contribution   :     -6.934458121      -9.932076023       6.446427811
                        -----------------------------------------
Total Dipole Moment    :      0.163293126       0.277427382       0.282243314
                        -----------------------------------------
Magnitude (a.u.)       :      0.428126016
Magnitude (Debye)      :      1.088209851

Rotational constants in cm-1:             0.003853             0.003301             0.001954
Rotational constants in MHz :           115.512179            98.971377            58.591433

                             ****ORCA TERMINATED NORMALLY****
TOTAL RUN TIME: 0 days 0 hours 8 minutes 13 seconds 28 msec
