                         Program Version 6.0.0  -   RELEASE  -
|  1> ! B3LYP 6-31G* SP
|  2>
|  3> * xyz 0 1
|  4> N -0.1194 1.6316 -3.4962
|  5> C 0.5106 1.6284 -2.2144
|  6> O 1.5526 2.3158 -2.0400
|  7> C -0.1019 0.8442 -1.0718
|  8> C -0.3158 -0.6257 -1.4094
|  9> C 0.5437 -1.3307 -2.2777
| 10> C 0.3279 -2.6858 -2.5443
| 11> C -0.7502 -3.3526 -1.9600
| 12> C -1.6221 -2.6628 -1.1165
| 13> C -1.4119 -1.3076 -0.8473
| 14> N 0.6173 1.0769 0.2146
| 15> C 0.4760 2.3811 0.8177
| 16> O 1.5103 3.0668 1.0465
| 17> C -0.8519 2.9350 1.1756
| 18> C -1.0346 4.3267 1.2724
| 19> C -2.2815 4.8544 1.6221
| 20> C -3.3546 4.0004 1.8866
| 21> C -3.1815 2.6169 1.8057
| 22> C -1.9367 2.0852 1.4566
| 23> C 1.6530 0.1897 0.8081
| 24> C 2.8619 -0.0768 -0.1187
| 25> C 3.1081 -1.5985 -0.1120
| 26> C 1.9540 -2.1501 0.6395
| 27> C 1.6771 -3.4998 0.8732
| 28> F 2.4693 -4.4700 0.3538
| 29> C 0.5647 -3.8360 1.6595
| 30> C -0.2362 -2.8239 2.2199
| 31> Cl -1.6150 -3.2474 3.2166
| 32> C 0.0668 -1.4741 1.9820
| 33> C 1.1483 -1.1628 1.1527
| 34> H -1.0014 1.0966 -3.6584
| 35> H 0.2946 2.1753 -4.2856
| 36> H -1.1216 1.2737 -0.9756
| 37> H 1.3836 -0.8404 -2.7501
| 38> H 1.0001 -3.2202 -3.2030
| 39> H -0.9118 -4.4032 -2.1636
| 40> H -2.4591 -3.1796 -0.6652
| 41> H -2.0972 -0.7940 -0.1860
| 42> H -0.2166 5.0062 1.0676
| 43> H -2.4155 5.9264 1.6880
| 44> H -4.3188 4.4104 2.1577
| 45> H -4.0115 1.9552 2.0174
| 46> H -1.8222 1.0121 1.4143
| 47> H 2.0356 0.6261 1.7592
| 48> H 2.6796 0.2628 -1.1537
| 49> H 3.7604 0.4597 0.2570
| 50> H 4.0528 -1.8406 0.4207
| 51> H 3.1378 -2.0084 -1.1440
| 52> H 0.3324 -4.8770 1.8440
| 53> H -0.5295 -0.6895 2.4262
| 54> *
| 55>
| 56>                          ****END OF INPUT****

CARTESIAN COORDINATES (ANGSTROEM)
---------------------------------
  N     -0.119400    1.631600   -3.496200
  C      0.510600    1.628400   -2.214400
  O      1.552600    2.315800   -2.040000
  C     -0.101900    0.844200   -1.071800
  C     -0.315800   -0.625700   -1.409400
  C      0.543700   -1.330700   -2.277700
  C      0.327900   -2.685800   -2.544300
  C     -0.750200   -3.352600   -1.960000
  C     -1.622100   -2.662800   -1.116500
  C     -1.411900   -1.307600   -0.847300
  N      0.617300    1.076900    0.214600
  C      0.476000    2.381100    0.817700
  O      1.510300    3.066800    1.046500
  C     -0.851900    2.935000    1.175600
  C     -1.034600    4.326700    1.272400
  C     -2.281500    4.854400    1.622100
  C     -3.354600    4.000400    1.886600
  C     -3.181500    2.616900    1.805700
  C     -1.936700    2.085200    1.456600
  C      1.653000    0.189700    0.808100
  C      2.861900   -0.076800   -0.118700
  C      3.108100   -1.598500   -0.112000
  C      1.954000   -2.150100    0.639500
  C      1.677100   -3.499800    0.873200
  F      2.469300   -4.470000    0.353800
  C      0.564700   -3.836000    1.659500
  C     -0.236200   -2.823900    2.219900
  Cl    -1.615000   -3.247400    3.216600
  C      0.066800   -1.474100    1.982000
  C      1.148300   -1.162800    1.152700
  H     -1.001400    1.096600   -3.658400
  H      0.294600    2.175300   -4.285600
  H     -1.121600    1.273700   -0.975600
  H      1.383600   -0.840400   -2.750100
  H      1.000100   -3.220200   -3.203000
  H     -0.911800   -4.403200   -2.163600
  H     -2.459100   -3.179600   -0.665200
  H     -2.097200   -0.794000   -0.186000
  H     -0.216600    5.006200    1.067600
  H     -2.415500    5.926400    1.688000
  H     -4.318800    4.410400    2.157700
  H     -4.011500    1.955200    2.017400
  H     -1.822200    1.012100    1.414300
  H      2.035600    0.626100    1.759200
  H      2.679600    0.262800   -1.153700
  H      3.760400    0.459700    0.257000
  H      4.052800   -1.840600    0.420700
  H      3.137800   -2.008400   -1.144000
  H      0.332400   -4.877000    1.844000
  H     -0.529500   -0.689500    2.426200

 Total Charge           Charge          ....    0
 Multiplicity           Mult            ....    1
 Number of Electrons    NEL             ....  220
 Basis Dimension        Dim             ....  464

ORBITAL ENERGIES
----------------

  NO   OCC          E(Eh)            E(eV)
   0   2.0000    -101.529580     -2762.7603
   1   2.0000     -24.704186      -672.2351
   2   2.0000     -19.113140      -520.0950
   3   2.0000     -19.111309      -520.0452
   4   2.0000     -14.356821      -390.6690
   5   2.0000     -14.344518      -390.3342
   6   2.0000     -10.292410      -280.0707
   7   2.0000     -10.284019      -279.8424
   8   2.0000     -10.271841      -279.5110
   9   2.0000     -10.248558      -278.8774
  10   2.0000     -10.246957      -278.8339
  11   2.0000     -10.222302      -278.1630
  12   2.0000     -10.207078      -277.7487
  13   2.0000     -10.200310      -277.5645
  14   2.0000     -10.196516      -277.4613
  15   2.0000     -10.195363      -277.4299
  16   2.0000     -10.194541      -277.4076
  17   2.0000     -10.193898      -277.3901
  18   2.0000     -10.193282      -277.3733
  19   2.0000     -10.192019      -277.3389
  20   2.0000     -10.191794      -277.3328
  21   2.0000     -10.191404      -277.3222
  22   2.0000     -10.191125      -277.3146
  23   2.0000     -10.191007      -277.3114
  24   2.0000     -10.190408      -277.2951
  25   2.0000     -10.190081      -277.2862
  26   2.0000     -10.189153      -277.2610
  27   2.0000     -10.186906      -277.1998
  28   2.0000     -10.177840      -276.9531
  29   2.0000     -10.166647      -276.6485
  30   2.0000      -9.461365      -257.4568
  31   2.0000      -7.224364      -196.5849
  32   2.0000      -7.214992      -196.3299
  33   2.0000      -7.214708      -196.3222
  34   2.0000      -1.216238       -33.0955
  35   2.0000      -1.014957       -27.6184
  36   2.0000      -1.004500       -27.3338
  37   2.0000      -0.918606       -24.9965
  38   2.0000      -0.889673       -24.2092
  39   2.0000      -0.881912       -23.9980
  40   2.0000      -0.860691       -23.4206
  41   2.0000      -0.860236       -23.4082
  42   2.0000      -0.854191       -23.2437
  43   2.0000      -0.799605       -21.7584
  44   2.0000      -0.779966       -21.2240
  45   2.0000      -0.764225       -20.7956
  46   2.0000      -0.756483       -20.5850
  47   2.0000      -0.752093       -20.4655
  48   2.0000      -0.750916       -20.4335
  49   2.0000      -0.719694       -19.5839
  50   2.0000      -0.705992       -19.2110
  51   2.0000      -0.686188       -18.6721
  52   2.0000      -0.635415       -17.2905
  53   2.0000      -0.619511       -16.8577
  54   2.0000      -0.617167       -16.7940
  55   2.0000      -0.610864       -16.6225
  56   2.0000      -0.605685       -16.4815
  57   2.0000      -0.586965       -15.9721
  58   2.0000      -0.583294       -15.8722
  59   2.0000      -0.575295       -15.6546
  60   2.0000      -0.550550       -14.9812
  61   2.0000      -0.533222       -14.5097
  62   2.0000      -0.531119       -14.4525
  63   2.0000      -0.520418       -14.1613
  64   2.0000      -0.515047       -14.0151
  65   2.0000      -0.501823       -13.6553
  66   2.0000      -0.490326       -13.3424
  67   2.0000      -0.486896       -13.2491
  68   2.0000      -0.483767       -13.1640
  69   2.0000      -0.472077       -12.8459
  70   2.0000      -0.468088       -12.7373
  71   2.0000      -0.456244       -12.4150
  72   2.0000      -0.453868       -12.3504
  73   2.0000      -0.448502       -12.2044
  74   2.0000      -0.442457       -12.0399
  75   2.0000      -0.438417       -11.9299
  76   2.0000      -0.436860       -11.8876
  77   2.0000      -0.431372       -11.7382
  78   2.0000      -0.426812       -11.6141
  79   2.0000      -0.420732       -11.4487
  80   2.0000      -0.413450       -11.2505
  81   2.0000      -0.407062       -11.0767
  82   2.0000      -0.401866       -10.9353
  83   2.0000      -0.397603       -10.8193
  84   2.0000      -0.389766       -10.6061
  85   2.0000      -0.388127       -10.5615
  86   2.0000      -0.374039       -10.1781
  87   2.0000      -0.369166       -10.0455
  88   2.0000      -0.366420        -9.9708
  89   2.0000      -0.361632        -9.8405
  90   2.0000      -0.358577        -9.7574
  91   2.0000      -0.356313        -9.6958
  92   2.0000      -0.350717        -9.5435
  93   2.0000      -0.350186        -9.5290
  94   2.0000      -0.346485        -9.4283
  95   2.0000      -0.343270        -9.3409
  96   2.0000      -0.341061        -9.2807
  97   2.0000      -0.331376        -9.0172
  98   2.0000      -0.312553        -8.5050
  99   2.0000      -0.308877        -8.4050
 100   2.0000      -0.272626        -7.4185
 101   2.0000      -0.265024        -7.2117
 102   2.0000      -0.258637        -7.0379
 103   2.0000      -0.257877        -7.0172
 104   2.0000      -0.256303        -6.9743
 105   2.0000      -0.247152        -6.7254
 106   2.0000      -0.245045        -6.6680
 107   2.0000      -0.234680        -6.3860
 108   2.0000      -0.230726        -6.2784
 109   2.0000      -0.219440        -5.9713
 110   0.0000      -0.049934        -1.3588
 111   0.0000      -0.027926        -0.7599
 112   0.0000      -0.019637        -0.5343
 113   0.0000      -0.010737        -0.2922
 114   0.0000      -0.000005        -0.0001

MULLIKEN ATOMIC CHARGES
-----------------------
   0 N :   -0.764313
   1 C :    0.558418
   2 O :   -0.457329
   3 C :   -0.140902
   4 C :    0.112811
   5 C :   -0.171767
   6 C :   -0.132087
   7 C :   -0.120717
   8 C :   -0.121187
   9 C :   -0.165313
  10 N :   -0.426105
  11 C :    0.456268
  12 O :   -0.437620
  13 C :    0.079566
  14 C :   -0.145783
  15 C :   -0.131885
  16 C :   -0.116198
  17 C :   -0.134102
  18 C :   -0.182111
  19 C :   -0.050201
  20 C :   -0.301134
  21 C :   -0.345590
  22 C :    0.036187
  23 C :    0.372663
  24 F :   -0.311642
  25 C :   -0.217305
  26 C :   -0.058662
  27 Cl:   -0.024959
  28 C :   -0.196049
  29 C :    0.141320
  30 H :    0.333691
  31 H :    0.352282
  32 H :    0.170343
  33 H :    0.148357
  34 H :    0.136535
  35 H :    0.134869
  36 H :    0.139688
  37 H :    0.134779
  38 H :    0.164833
  39 H :    0.138319
  40 H :    0.135775
  41 H :    0.133693
  42 H :    0.150940
  43 H :    0.183391
  44 H :    0.172145
  45 H :    0.155367
  46 H :    0.157634
  47 H :    0.149152
  48 H :    0.155187
  49 H :    0.148749
Sum of atomic charges:    0.0000000

LOEWDIN ATOMIC CHARGES
----------------------
   0 N :   -0.404182
   1 C :    0.126475
   2 O :   -0.271866
   3 C :   -0.069986
   4 C :   -0.033698
   5 C :   -0.129641
   6 C :   -0.129770
   7 C :   -0.121608
   8 C :   -0.122732
   9 C :   -0.118368
  10 N :   -0.112334
  11 C :    0.148905
  12 O :   -0.239110
  13 C :   -0.054525
  14 C :   -0.091046
  15 C :   -0.127597
  16 C :   -0.114726
  17 C :   -0.131920
  18 C :   -0.126757
  19 C :   -0.036242
  20 C :   -0.231074
  21 C :   -0.225412
  22 C :   -0.042698
  23 C :    0.121639
  24 F :   -0.099499
  25 C :   -0.167118
  26 C :   -0.086456
  27 Cl:    0.031883
  28 C :   -0.145956
  29 C :   -0.015967
  30 H :    0.252052
  31 H :    0.266180
  32 H :    0.151751
  33 H :    0.139254
  34 H :    0.135122
  35 H :    0.134705
  36 H :    0.136800
  37 H :    0.132290
  38 H :    0.151926
  39 H :    0.136217
  40 H :    0.134723
  41 H :    0.133955
  42 H :    0.134952
  43 H :    0.153821
  44 H :    0.138711
  45 H :    0.134377
  46 H :    0.134576
  47 H :    0.129496
  48 H :    0.150149
  49 H :    0.140326

  Mayer bond orders larger than 0.100000
B(  0-N ,  1-C ) :   1.0698 B(  0-N , 30-H ) :   0.8273 B(  0-N , 31-H ) :   0.8224
B(  1-C ,  2-O ) :   1.8405 B(  1-C ,  3-C ) :   0.8886 B(  3-C ,  4-C ) :   0.9697
B(  3-C , 10-N ) :   0.9794 B(  3-C , 32-H ) :   0.8884 B(  4-C ,  5-C ) :   1.4308
B(  4-C ,  9-C ) :   1.4128 B(  5-C ,  6-C ) :   1.4290 B(  5-C , 33-H ) :   0.9132
B(  6-C ,  7-C ) :   1.4535 B(  6-C , 34-H ) :   0.9283 B(  7-C ,  8-C ) :   1.4473
B(  7-C , 35-H ) :   0.9290 B(  8-C ,  9-C ) :   1.4452 B(  8-C , 36-H ) :   0.9271
B(  9-C , 37-H ) :   0.9198 B( 10-N , 11-C ) :   0.9853 B( 10-N , 19-C ) :   0.9408
B( 11-C , 12-O ) :   1.8434 B( 11-C , 13-C ) :   0.9857 B( 13-C , 14-C ) :   1.3986
B( 13-C , 18-C ) :   1.3870 B( 14-C , 15-C ) :   1.4350 B( 14-C , 38-H ) :   0.9138
B( 15-C , 16-C ) :   1.4387 B( 15-C , 39-H ) :   0.9294 B( 16-C , 17-C ) :   1.4504
B( 16-C , 40-H ) :   0.9296 B( 17-C , 18-C ) :   1.4347 B( 17-C , 41-H ) :   0.9297
B( 18-C , 42-H ) :   0.9048 B( 19-C , 20-C ) :   0.9696 B( 19-C , 29-C ) :   0.9558
B( 19-C , 43-H ) :   0.9155 B( 20-C , 21-C ) :   0.9703 B( 20-C , 44-H ) :   0.9239
B( 20-C , 45-H ) :   0.9443 B( 21-C , 22-C ) :   0.9755 B( 21-C , 46-H ) :   0.9302
B( 21-C , 47-H ) :   0.9309 B( 22-C , 23-C ) :   1.3118 B( 22-C , 29-C ) :   1.4648
B( 23-C , 24-F ) :   0.9423 B( 23-C , 25-C ) :   1.3876 B( 25-C , 26-C ) :   1.3758
B( 25-C , 48-H ) :   0.9156 B( 26-C , 27-Cl) :   1.0050 B( 26-C , 28-C ) :   1.4056
B( 28-C , 29-C ) :   1.3938 B( 28-C , 49-H ) :   0.9124

FINAL SINGLE POINT ENERGY     -1745.715846192966

DIPOLE MOMENT
-------------

Method             : SCF
Type of density    : Electron Density
Multiplicity       :   1
Irrep              :   0
Energy             : -1745.7158461929664099 Eh
Relativity type    :
Basis              : AO
                                X                 Y                 Z
Electronic contribution:      1.129276222     -15.488455323      13.079802585
Nuclear contribution   :     -2.832167146      14.959784592     -14.271119952
                        -----------------------------------------
Total Dipole Moment    :     -1.702890924      -0.528670731      -1.191317367
                        -----------------------------------------
Magnitude (a.u.)       :      2.144427036
Magnitude (Debye)      :      5.450700351

Rotational constants in cm-1:             0.007023             0.004138             0.003444
Rotational constants in MHz :           210.539690           124.042184           103.258294

                             ****ORCA TERMINATED NORMALLY****
TOTAL RUN TIME: 0 days 0 hours 6 minutes 52 seconds 806 msec
