                         Program Version 6.0.0  -   RELEASE  -
|  1> ! B3LYP 6-31G* SP
|  2>
|  3> * xyz 0 1
|  4> C -6.0962 -0.8508 -0.1136
|  5> C -4.6270 -1.0091 -0.3068
|  6> N -3.7129 -0.1087 0.1002
|  7> C -2.5626 -0.7088 -0.2702
|  8> C -1.2154 -0.1465 -0.0612
|  9> S 0.2002 -0.9292 -0.5270
| 10> C 1.2167 0.2926 0.0301
| 11> C 2.6958 0.2934 -0.0473
| 12> C 3.3917 -0.7864 -0.6234
| 13> C 4.7884 -0.7734 -0.6904
| 14> C 5.5049 0.3134 -0.1850
| 15> C 4.8262 1.3908 0.3890
| 16> F 5.5228 2.4456 0.8795
| 17> C 3.4292 1.3829 0.4585
| 18> N 0.4967 1.3010 0.5719
| 19> C -0.8437 1.0720 0.5278
| 20> O -1.7315 2.0144 1.0444
| 21> N -2.7753 -1.9028 -0.8595
| 22> O -4.0643 -2.0532 -0.8606
| 23> H -6.6435 -1.4711 -0.8538
| 24> H -6.3711 -1.1759 0.9111
| 25> H -6.3826 0.2129 -0.2509
| 26> H 2.8621 -1.6413 -1.0228
| 27> H 5.3157 -1.6076 -1.1349
| 28> H 6.5860 0.3197 -0.2387
| 29> H 2.9235 2.2285 0.9077
| 30> H -2.7338 1.8973 1.0357
| 31> *
| 32>
| 33>                          ****END OF INPUT****

CARTESIAN COORDINATES (ANGSTROEM)
---------------------------------
  C     -6.096200   -0.850800   -0.113600
  C     -4.627000   -1.009100   -0.306800
  N     -3.712900   -0.108700    0.100200
  C     -2.562600   -0.708800   -0.270200
  C     -1.215400   -0.146500   -0.061200
  S      0.200200   -0.929200   -0.527000
  C      1.216700    0.292600    0.030100
  C      2.695800    0.293400   -0.047300
  C      3.391700   -0.786400   -0.623400
  C      4.788400   -0.773400   -0.690400
  C      5.504900    0.313400   -0.185000
  C      4.826200    1.390800    0.389000
  F      5.522800    2.445600    0.879500
  C      3.429200    1.382900    0.458500
  N      0.496700    1.301000    0.571900
  C     -0.843700    1.072000    0.527800
  O     -1.731500    2.014400    1.044400
  N     -2.775300   -1.902800   -0.859500
  O     -4.064300   -2.053200   -0.860600
  H     -6.643500   -1.471100   -0.853800
  H     -6.371100   -1.175900    0.911100
  H     -6.382600    0.212900   -0.250900
  H      2.862100   -1.641300   -1.022800
  H      5.315700   -1.607600   -1.134900
  H      6.586000    0.319700   -0.238700
  H      2.923500    2.228500    0.907700
  H     -2.733800    1.897300    1.035700

 Total Charge           Charge          ....    0
 Multiplicity           Mult            ....    1
 Number of Electrons    NEL             ....  142
 Basis Dimension        Dim             ....  286

ORBITAL ENERGIES
----------------

  NO   OCC          E(Eh)            E(eV)
   0   2.0000     -88.902474     -2419.1593
   1   2.0000     -24.699724      -672.1137
   2   2.0000     -19.271374      -524.4007
   3   2.0000     -19.169282      -521.6227
   4   2.0000     -14.384127      -391.4120
   5   2.0000     -14.352359      -390.5475
   6   2.0000     -14.334229      -390.0542
   7   2.0000     -10.304755      -280.4066
   8   2.0000     -10.289676      -279.9963
   9   2.0000     -10.273466      -279.5552
  10   2.0000     -10.267346      -279.3887
  11   2.0000     -10.260527      -279.2031
  12   2.0000     -10.223121      -278.1853
  13   2.0000     -10.219865      -278.0967
  14   2.0000     -10.218458      -278.0584
  15   2.0000     -10.198600      -277.5180
  16   2.0000     -10.196116      -277.4504
  17   2.0000     -10.195250      -277.4268
  18   2.0000     -10.193895      -277.3900
  19   2.0000      -7.979375      -217.1298
  20   2.0000      -5.942298      -161.6981
  21   2.0000      -5.938330      -161.5902
  22   2.0000      -5.936462      -161.5393
  23   2.0000      -1.226644       -33.3787
  24   2.0000      -1.212899       -33.0047
  25   2.0000      -1.039250       -28.2794
  26   2.0000      -0.963436       -26.2164
  27   2.0000      -0.953206       -25.9381
  28   2.0000      -0.885607       -24.0986
  29   2.0000      -0.866595       -23.5813
  30   2.0000      -0.815157       -22.1816
  31   2.0000      -0.786016       -21.3886
  32   2.0000      -0.756018       -20.5723
  33   2.0000      -0.753132       -20.4938
  34   2.0000      -0.732155       -19.9230
  35   2.0000      -0.678043       -18.4505
  36   2.0000      -0.648124       -17.6364
  37   2.0000      -0.630371       -17.1533
  38   2.0000      -0.614274       -16.7153
  39   2.0000      -0.588468       -16.0130
  40   2.0000      -0.569977       -15.5099
  41   2.0000      -0.550441       -14.9783
  42   2.0000      -0.529857       -14.4181
  43   2.0000      -0.523796       -14.2532
  44   2.0000      -0.507860       -13.8196
  45   2.0000      -0.499768       -13.5994
  46   2.0000      -0.482203       -13.1214
  47   2.0000      -0.459832       -12.5127
  48   2.0000      -0.456080       -12.4106
  49   2.0000      -0.444835       -12.1046
  50   2.0000      -0.442081       -12.0296
  51   2.0000      -0.439389       -11.9564
  52   2.0000      -0.437911       -11.9162
  53   2.0000      -0.433982       -11.8093
  54   2.0000      -0.415443       -11.3048
  55   2.0000      -0.406988       -11.0747
  56   2.0000      -0.395705       -10.7677
  57   2.0000      -0.379314       -10.3217
  58   2.0000      -0.377134       -10.2623
  59   2.0000      -0.358694        -9.7606
  60   2.0000      -0.351497        -9.5647
  61   2.0000      -0.347118        -9.4456
  62   2.0000      -0.344811        -9.3828
  63   2.0000      -0.336606        -9.1595
  64   2.0000      -0.302408        -8.2289
  65   2.0000      -0.300496        -8.1769
  66   2.0000      -0.273876        -7.4525
  67   2.0000      -0.272487        -7.4147
  68   2.0000      -0.263066        -7.1584
  69   2.0000      -0.250112        -6.8059
  70   2.0000      -0.211859        -5.7650
  71   0.0000      -0.066331        -1.8050
  72   0.0000      -0.023523        -0.6401
  73   0.0000      -0.007659        -0.2084
  74   0.0000       0.007131         0.1941
  75   0.0000       0.034634         0.9424

MULLIKEN ATOMIC CHARGES
-----------------------
   0 C :   -0.529076
   1 C :    0.497105
   2 N :   -0.477071
   3 C :    0.357140
   4 C :   -0.267442
   5 S :    0.295142
   6 C :   -0.012225
   7 C :    0.152794
   8 C :   -0.196428
   9 C :   -0.121939
  10 C :   -0.199878
  11 C :    0.419148
  12 F :   -0.315547
  13 C :   -0.244757
  14 N :   -0.402748
  15 C :    0.496694
  16 O :   -0.653884
  17 N :   -0.174805
  18 O :   -0.272350
  19 H :    0.185187
  20 H :    0.196611
  21 H :    0.198817
  22 H :    0.151978
  23 H :    0.144828
  24 H :    0.147928
  25 H :    0.180439
  26 H :    0.444340
Sum of atomic charges:   -0.0000000

LOEWDIN ATOMIC CHARGES
----------------------
   0 C :   -0.361201
   1 C :    0.088505
   2 N :   -0.188571
   3 C :    0.010644
   4 C :   -0.266289
   5 S :    0.422138
   6 C :   -0.112872
   7 C :   -0.020848
   8 C :   -0.132556
   9 C :   -0.118116
  10 C :   -0.150520
  11 C :    0.119539
  12 F :   -0.100797
  13 C :   -0.133875
  14 N :   -0.160395
  15 C :    0.105428
  16 O :   -0.335665
  17 N :   -0.106778
  18 O :    0.030284
  19 H :    0.153082
  20 H :    0.159868
  21 H :    0.162396
  22 H :    0.141954
  23 H :    0.140008
  24 H :    0.144861
  25 H :    0.162456
  26 H :    0.347319

  Mayer bond orders larger than 0.100000
B(  0-C ,  1-C ) :   1.0300 B(  0-C , 19-H ) :   0.9309 B(  0-C , 20-H ) :   0.9221
B(  0-C , 21-H ) :   0.9296 B(  1-C ,  2-N ) :   1.5058 B(  1-C , 17-N ) :   0.1052
B(  1-C , 18-O ) :   1.1222 B(  2-N ,  3-C ) :   1.2903 B(  3-C ,  4-C ) :   1.0481
B(  3-C , 17-N ) :   1.4760 B(  4-C ,  5-S ) :   1.0814 B(  4-C ,  6-C ) :   0.1216
B(  4-C , 15-C ) :   1.3744 B(  5-S ,  6-C ) :   1.1542 B(  6-C ,  7-C ) :   1.0268
B(  6-C , 14-N ) :   1.4343 B(  7-C ,  8-C ) :   1.3921 B(  7-C , 13-C ) :   1.3760
B(  8-C ,  9-C ) :   1.4477 B(  8-C , 22-H ) :   0.9155 B(  9-C , 10-C ) :   1.4268
B(  9-C , 23-H ) :   0.9283 B( 10-C , 11-C ) :   1.3855 B( 10-C , 24-H ) :   0.9205
B( 11-C , 12-F ) :   0.9122 B( 11-C , 13-C ) :   1.3726 B( 13-C , 25-H ) :   0.9017
B( 14-N , 15-C ) :   1.3165 B( 15-C , 16-O ) :   1.0174 B( 16-O , 26-H ) :   0.7165
B( 17-N , 18-O ) :   1.0219

FINAL SINGLE POINT ENERGY     -1274.212929824058

DIPOLE MOMENT
-------------

Method             : SCF
Type of density    : Electron Density
Multiplicity       :   1
Irrep              :   0
Energy             : -1274.2129298240581647 Eh
Relativity type    :
Basis              : AO
                                X                 Y                 Z
Electronic contribution:      9.460621118       2.886370833       0.841515692
Nuclear contribution   :    -10.752781473      -3.654237434      -1.137115439
                        -----------------------------------------
Total Dipole Moment    :     -1.292160355      -0.767866602      -0.295599747
                        -----------------------------------------
Magnitude (a.u.)       :      1.531886651
Magnitude (Debye)      :      3.893746425

Rotational constants in cm-1:             0.039692             0.004602             0.004127
Rotational constants in MHz :          1189.935888           137.964047           123.731172

                             ****ORCA TERMINATED NORMALLY****
TOTAL RUN TIME: 0 days 0 hours 3 minutes 17 seconds 891 msec
