                         Program Version 6.0.0  -   RELEASE  -
|  1> ! B3LYP 6-31G* SP
|  2>
|  3> * xyz 0 1
|  4> C -2.6671 -1.5311 3.0133
|  5> C -2.3107 -1.9719 1.6091
|  6> C -1.1800 -1.4260 0.9571
|  7> N -0.3985 -0.3838 1.5584
|  8> C -0.9545 0.9669 1.6996
|  9> C -0.3471 1.9023 0.6940
| 10> C -0.4720 1.6617 -0.6816
| 11> C 0.1592 2.5146 -1.5887
| 12> C 0.9151 3.6022 -1.1233
| 13> C 1.5912 4.5410 -2.0865
| 14> F 2.7557 5.0473 -1.5377
| 15> F 1.9182 3.8898 -3.2579
| 16> F 0.7377 5.5833 -2.3752
| 17> C 0.9649 3.8393 0.2613
| 18> N 0.3518 2.9872 1.1251
| 19> S 1.2755 -0.6827 1.9212
| 20> O 1.5213 -2.1627 2.0152
| 21> O 1.6123 -0.0660 3.2503
| 22> C 2.2966 -0.0033 0.6557
| 23> C 3.0140 1.1792 0.8799
| 24> C 3.7558 1.7625 -0.1524
| 25> C 3.7982 1.1658 -1.4229
| 26> C 4.5626 1.7957 -2.5228
| 27> O 4.6613 1.2248 -3.6435
| 28> O 5.1786 3.0263 -2.3306
| 29> C 3.0982 -0.0351 -1.6337
| 30> C 2.3538 -0.6142 -0.6011
| 31> N -0.8219 -1.8758 -0.2753
| 32> C -1.5226 -2.8279 -0.9364
| 33> C -2.6767 -3.3708 -0.3685
| 34> C -3.4214 -4.3363 -1.0636
| 35> C -4.5903 -4.8567 -0.5061
| 36> C -5.0294 -4.4110 0.7391
| 37> C -4.2945 -3.4556 1.4470
| 38> C -3.0961 -2.9296 0.9127
| 39> H -3.5195 -0.8238 2.9749
| 40> H -1.8186 -1.0376 3.5259
| 41> H -2.9319 -2.4041 3.6435
| 42> H -2.0574 0.9548 1.5559
| 43> H -0.7605 1.3356 2.7302
| 44> H -1.0379 0.8151 -1.0488
| 45> H 0.0650 2.3184 -2.6508
| 46> H 1.5074 4.6871 0.6569
| 47> H 2.9777 1.6687 1.8447
| 48> H 4.2833 2.6866 0.0412
| 49> H 5.7060 3.4641 -3.0788
| 50> H 3.1167 -0.5222 -2.5996
| 51> H 1.8135 -1.5327 -0.7875
| 52> H -1.1866 -3.1421 -1.9167
| 53> H -3.1023 -4.6842 -2.0374
| 54> H -5.1636 -5.5994 -1.0457
| 55> H -5.9452 -4.8069 1.1600
| 56> H -4.6853 -3.1267 2.4009
| 57> *
| 58>
| 59>                          ****END OF INPUT****

CARTESIAN COORDINATES (ANGSTROEM)
---------------------------------
  C     -2.667100   -1.531100    3.013300
  C     -2.310700   -1.971900    1.609100
  C     -1.180000   -1.426000    0.957100
  N     -0.398500   -0.383800    1.558400
  C     -0.954500    0.966900    1.699600
  C     -0.347100    1.902300    0.694000
  C     -0.472000    1.661700   -0.681600
  C      0.159200    2.514600   -1.588700
  C      0.915100    3.602200   -1.123300
  C      1.591200    4.541000   -2.086500
  F      2.755700    5.047300   -1.537700
  F      1.918200    3.889800   -3.257900
  F      0.737700    5.583300   -2.375200
  C      0.964900    3.839300    0.261300
  N      0.351800    2.987200    1.125100
  S      1.275500   -0.682700    1.921200
  O      1.521300   -2.162700    2.015200
  O      1.612300   -0.066000    3.250300
  C      2.296600   -0.003300    0.655700
  C      3.014000    1.179200    0.879900
  C      3.755800    1.762500   -0.152400
  C      3.798200    1.165800   -1.422900
  C      4.562600    1.795700   -2.522800
  O      4.661300    1.224800   -3.643500
  O      5.178600    3.026300   -2.330600
  C      3.098200   -0.035100   -1.633700
  C      2.353800   -0.614200   -0.601100
  N     -0.821900   -1.875800   -0.275300
  C     -1.522600   -2.827900   -0.936400
  C     -2.676700   -3.370800   -0.368500
  C     -3.421400   -4.336300   -1.063600
  C     -4.590300   -4.856700   -0.506100
  C     -5.029400   -4.411000    0.739100
  C     -4.294500   -3.455600    1.447000
  C     -3.096100   -2.929600    0.912700
  H     -3.519500   -0.823800    2.974900
  H     -1.818600   -1.037600    3.525900
  H     -2.931900   -2.404100    3.643500
  H     -2.057400    0.954800    1.555900
  H     -0.760500    1.335600    2.730200
  H     -1.037900    0.815100   -1.048800
  H      0.065000    2.318400   -2.650800
  H      1.507400    4.687100    0.656900
  H      2.977700    1.668700    1.844700
  H      4.283300    2.686600    0.041200
  H      5.706000    3.464100   -3.078800
  H      3.116700   -0.522200   -2.599600
  H      1.813500   -1.532700   -0.787500
  H     -1.186600   -3.142100   -1.916700
  H     -3.102300   -4.684200   -2.037400
  H     -5.163600   -5.599400   -1.045700
  H     -5.945200   -4.806900    1.160000
  H     -4.685300   -3.126700    2.400900

 Total Charge           Charge          ....    0
 Multiplicity           Mult            ....    1
 Number of Electrons    NEL             ....  258
 Basis Dimension        Dim             ....  530

ORBITAL ENERGIES
----------------

  NO   OCC          E(Eh)            E(eV)
   0   2.0000     -89.097019     -2424.4531
   1   2.0000     -24.728722      -672.9027
   2   2.0000     -24.726892      -672.8529
   3   2.0000     -24.724253      -672.7811
   4   2.0000     -19.190049      -522.1878
   5   2.0000     -19.131205      -520.5866
   6   2.0000     -19.125116      -520.4209
   7   2.0000     -19.123686      -520.3820
   8   2.0000     -14.378887      -391.2694
   9   2.0000     -14.344040      -390.3212
  10   2.0000     -14.340831      -390.2339
  11   2.0000     -10.442949      -284.1671
  12   2.0000     -10.328486      -281.0524
  13   2.0000     -10.268212      -279.4123
  14   2.0000     -10.245010      -278.7809
  15   2.0000     -10.242538      -278.7136
  16   2.0000     -10.241600      -278.6881
  17   2.0000     -10.234238      -278.4878
  18   2.0000     -10.233294      -278.4621
  19   2.0000     -10.224632      -278.2264
  20   2.0000     -10.223808      -278.2040
  21   2.0000     -10.222515      -278.1688
  22   2.0000     -10.215981      -277.9910
  23   2.0000     -10.213890      -277.9341
  24   2.0000     -10.211350      -277.8650
  25   2.0000     -10.209462      -277.8136
  26   2.0000     -10.208662      -277.7918
  27   2.0000     -10.208643      -277.7913
  28   2.0000     -10.208261      -277.7809
  29   2.0000     -10.206651      -277.7371
  30   2.0000     -10.203738      -277.6578
  31   2.0000     -10.203669      -277.6559
  32   2.0000     -10.201829      -277.6059
  33   2.0000     -10.201023      -277.5839
  34   2.0000     -10.189115      -277.2599
  35   2.0000      -8.132571      -221.2985
  36   2.0000      -6.097858      -165.9312
  37   2.0000      -6.095504      -165.8671
  38   2.0000      -6.095092      -165.8559
  39   2.0000      -1.289338       -35.0847
  40   2.0000      -1.213935       -33.0329
  41   2.0000      -1.212448       -32.9924
  42   2.0000      -1.082248       -29.4495
  43   2.0000      -1.074940       -29.2506
  44   2.0000      -0.988128       -26.8883
  45   2.0000      -0.971294       -26.4302
  46   2.0000      -0.960275       -26.1304
  47   2.0000      -0.949488       -25.8369
  48   2.0000      -0.919091       -25.0097
  49   2.0000      -0.882320       -24.0091
  50   2.0000      -0.870827       -23.6964
  51   2.0000      -0.830866       -22.6090
  52   2.0000      -0.815207       -22.1829
  53   2.0000      -0.802453       -21.8359
  54   2.0000      -0.798132       -21.7183
  55   2.0000      -0.781820       -21.2744
  56   2.0000      -0.767496       -20.8846
  57   2.0000      -0.751575       -20.4514
  58   2.0000      -0.740683       -20.1550
  59   2.0000      -0.712699       -19.3935
  60   2.0000      -0.703376       -19.1398
  61   2.0000      -0.682614       -18.5749
  62   2.0000      -0.654550       -17.8112
  63   2.0000      -0.652675       -17.7602
  64   2.0000      -0.650113       -17.6905
  65   2.0000      -0.632525       -17.2119
  66   2.0000      -0.629541       -17.1307
  67   2.0000      -0.612713       -16.6728
  68   2.0000      -0.602838       -16.4040
  69   2.0000      -0.590719       -16.0743
  70   2.0000      -0.579313       -15.7639
  71   2.0000      -0.577821       -15.7233
  72   2.0000      -0.567878       -15.4527
  73   2.0000      -0.559332       -15.2202
  74   2.0000      -0.540732       -14.7141
  75   2.0000      -0.536963       -14.6115
  76   2.0000      -0.528359       -14.3774
  77   2.0000      -0.511403       -13.9160
  78   2.0000      -0.505220       -13.7477
  79   2.0000      -0.501233       -13.6392
  80   2.0000      -0.488295       -13.2872
  81   2.0000      -0.480500       -13.0751
  82   2.0000      -0.473334       -12.8801
  83   2.0000      -0.466443       -12.6926
  84   2.0000      -0.463015       -12.5993
  85   2.0000      -0.457830       -12.4582
  86   2.0000      -0.456868       -12.4320
  87   2.0000      -0.455299       -12.3893
  88   2.0000      -0.453358       -12.3365
  89   2.0000      -0.453160       -12.3311
  90   2.0000      -0.442539       -12.0421
  91   2.0000      -0.439480       -11.9589
  92   2.0000      -0.439156       -11.9501
  93   2.0000      -0.437204       -11.8969
  94   2.0000      -0.428079       -11.6486
  95   2.0000      -0.425655       -11.5827
  96   2.0000      -0.424768       -11.5585
  97   2.0000      -0.421860       -11.4794
  98   2.0000      -0.419135       -11.4053
  99   2.0000      -0.410538       -11.1713
 100   2.0000      -0.409226       -11.1356
 101   2.0000      -0.406247       -11.0545
 102   2.0000      -0.405228       -11.0268
 103   2.0000      -0.404454       -11.0058
 104   2.0000      -0.400884       -10.9086
 105   2.0000      -0.387496       -10.5443
 106   2.0000      -0.379813       -10.3352
 107   2.0000      -0.378234       -10.2923
 108   2.0000      -0.374804       -10.1989
 109   2.0000      -0.373334       -10.1589
 110   2.0000      -0.360614        -9.8128
 111   2.0000      -0.358867        -9.7653
 112   2.0000      -0.357821        -9.7368
 113   2.0000      -0.326490        -8.8842
 114   2.0000      -0.317149        -8.6301
 115   2.0000      -0.305322        -8.3082
 116   2.0000      -0.301456        -8.2030
 117   2.0000      -0.299149        -8.1403
 118   2.0000      -0.298315        -8.1176
 119   2.0000      -0.287950        -7.8355
 120   2.0000      -0.279364        -7.6019
 121   2.0000      -0.272842        -7.4244
 122   2.0000      -0.269727        -7.3396
 123   2.0000      -0.267636        -7.2827
 124   2.0000      -0.265830        -7.2336
 125   2.0000      -0.262909        -7.1541
 126   2.0000      -0.261115        -7.1053
 127   2.0000      -0.255873        -6.9627
 128   2.0000      -0.226191        -6.1550
 129   0.0000      -0.077346        -2.1047
 130   0.0000      -0.068194        -1.8557
 131   0.0000      -0.048486        -1.3194
 132   0.0000      -0.041432        -1.1274
 133   0.0000      -0.034398        -0.9360

MULLIKEN ATOMIC CHARGES
-----------------------
   0 C :   -0.547071
   1 C :    0.092043
   2 C :    0.341934
   3 N :   -0.620318
   4 C :   -0.218956
   5 C :    0.242200
   6 C :   -0.144202
   7 C :   -0.130126
   8 C :   -0.031521
   9 C :    0.901451
  10 F :   -0.303295
  11 F :   -0.301660
  12 F :   -0.293483
  13 C :   -0.016731
  14 N :   -0.393280
  15 S :    1.215285
  16 O :   -0.533922
  17 O :   -0.537866
  18 C :   -0.139656
  19 C :   -0.139644
  20 C :   -0.153646
  21 C :    0.083557
  22 C :    0.526967
  23 O :   -0.449106
  24 O :   -0.620292
  25 C :   -0.148886
  26 C :   -0.129424
  27 N :   -0.405292
  28 C :   -0.048403
  29 C :    0.134412
  30 C :   -0.202000
  31 C :   -0.126717
  32 C :   -0.119294
  33 C :   -0.198919
  34 C :    0.122924
  35 H :    0.158099
  36 H :    0.197811
  37 H :    0.170062
  38 H :    0.183082
  39 H :    0.205146
  40 H :    0.160040
  41 H :    0.167536
  42 H :    0.170847
  43 H :    0.192205
  44 H :    0.171507
  45 H :    0.433303
  46 H :    0.174560
  47 H :    0.192958
  48 H :    0.154045
  49 H :    0.140966
  50 H :    0.138660
  51 H :    0.140590
  52 H :    0.141521
Sum of atomic charges:    0.0000000

LOEWDIN ATOMIC CHARGES
----------------------
   0 C :   -0.362265
   1 C :   -0.014893
   2 C :    0.033495
   3 N :   -0.279914
   4 C :   -0.151974
   5 C :    0.016913
   6 C :   -0.127722
   7 C :   -0.086201
   8 C :   -0.083505
   9 C :    0.304576
  10 F :   -0.110535
  11 F :   -0.107388
  12 F :   -0.108578
  13 C :   -0.053685
  14 N :   -0.130927
  15 S :    1.272269
  16 O :   -0.562806
  17 O :   -0.568427
  18 C :   -0.176734
  19 C :   -0.098649
  20 C :   -0.104198
  21 C :   -0.041363
  22 C :    0.177575
  23 O :   -0.264849
  24 O :   -0.330607
  25 C :   -0.092480
  26 C :   -0.097505
  27 N :   -0.140348
  28 C :   -0.058596
  29 C :   -0.030111
  30 C :   -0.110398
  31 C :   -0.125938
  32 C :   -0.114618
  33 C :   -0.123875
  34 C :   -0.003728
  35 H :    0.135325
  36 H :    0.152003
  37 H :    0.141122
  38 H :    0.151955
  39 H :    0.155446
  40 H :    0.148590
  41 H :    0.150257
  42 H :    0.145462
  43 H :    0.163222
  44 H :    0.153775
  45 H :    0.349581
  46 H :    0.157540
  47 H :    0.163433
  48 H :    0.137752
  49 H :    0.138082
  50 H :    0.136776
  51 H :    0.137900
  52 H :    0.139768

  Mayer bond orders larger than 0.100000
B(  0-C ,  1-C ) :   0.9998 B(  0-C , 35-H ) :   0.9266 B(  0-C , 36-H ) :   0.9261
B(  0-C , 37-H ) :   0.9291 B(  1-C ,  2-C ) :   1.4426 B(  1-C , 28-C ) :   0.1010
B(  1-C , 34-C ) :   1.2662 B(  2-C ,  3-N ) :   0.8812 B(  2-C , 27-N ) :   1.2593
B(  3-N ,  4-C ) :   0.9236 B(  3-N , 15-S ) :   0.7813 B(  4-C ,  5-C ) :   0.9615
B(  4-C , 38-H ) :   0.9166 B(  4-C , 39-H ) :   0.9094 B(  5-C ,  6-C ) :   1.3872
B(  5-C , 14-N ) :   1.4024 B(  6-C ,  7-C ) :   1.4450 B(  6-C , 40-H ) :   0.9072
B(  7-C ,  8-C ) :   1.3996 B(  7-C , 41-H ) :   0.9178 B(  8-C ,  9-C ) :   0.9750
B(  8-C , 13-C ) :   1.3698 B(  9-C , 10-F ) :   0.9470 B(  9-C , 11-F ) :   0.9461
B(  9-C , 12-F ) :   0.9887 B( 13-C , 14-N ) :   1.4124 B( 13-C , 42-H ) :   0.9220
B( 15-S , 16-O ) :   1.6567 B( 15-S , 17-O ) :   1.6421 B( 15-S , 18-C ) :   0.8125
B( 18-C , 19-C ) :   1.3998 B( 18-C , 26-C ) :   1.3816 B( 19-C , 20-C ) :   1.4031
B( 19-C , 43-H ) :   0.9051 B( 20-C , 21-C ) :   1.3877 B( 20-C , 44-H ) :   0.9143
B( 21-C , 22-C ) :   1.0064 B( 21-C , 25-C ) :   1.3961 B( 22-C , 23-O ) :   1.8590
B( 22-C , 24-O ) :   1.0257 B( 24-O , 45-H ) :   0.7423 B( 25-C , 26-C ) :   1.4261
B( 25-C , 46-H ) :   0.9115 B( 26-C , 47-H ) :   0.8965 B( 27-N , 28-C ) :   1.4852
B( 28-C , 29-C ) :   1.2432 B( 28-C , 48-H ) :   0.9251 B( 29-C , 30-C ) :   1.2836
B( 29-C , 34-C ) :   1.2887 B( 30-C , 31-C ) :   1.5130 B( 30-C , 33-C ) :   0.1063
B( 30-C , 49-H ) :   0.9231 B( 31-C , 32-C ) :   1.3537 B( 31-C , 50-H ) :   0.9287
B( 32-C , 33-C ) :   1.5086 B( 32-C , 51-H ) :   0.9285 B( 33-C , 34-C ) :   1.2933
B( 33-C , 52-H ) :   0.9166

FINAL SINGLE POINT ENERGY     -2087.173640476388

DIPOLE MOMENT
-------------

Method             : SCF
Type of density    : Electron Density
Multiplicity       :   1
Irrep              :   0
Energy             : -2087.1736404763883002 Eh
Relativity type    :
Basis              : AO
                                X                 Y                 Z
Electronic contribution:     21.697603391      28.379109959     -14.600422825
Nuclear contribution   :    -23.972171511     -28.320167562      13.566429813
                        -----------------------------------------
Total Dipole Moment    :     -2.274568121       0.058942398      -1.033993012
                        -----------------------------------------
Magnitude (a.u.)       :      2.499255067
Magnitude (Debye)      :      6.352601532

Rotational constants in cm-1:             0.006881             0.002120             0.002076
Rotational constants in MHz :           206.297465            63.545654            62.249474

                             ****ORCA TERMINATED NORMALLY****
TOTAL RUN TIME: 0 days 0 hours 12 minutes 10 seconds 963 msec
