                         Program Version 6.0.0  -   RELEASE  -
|  1> ! B3LYP 6-31G* SP
|  2>
|  3> * xyz 0 1
|  4> C -2.3595 -3.4262 0.3780
|  5> N -3.1131 -2.1796 0.4552
|  6> N -4.1551 -1.9118 -0.3243
|  7> C -4.6018 -0.6953 0.0411
|  8> C -3.8505 -0.1868 1.0543
|  9> C -2.8974 -1.1562 1.3216
| 10> C -1.7682 -1.0882 2.3147
| 11> C -0.4924 -0.6862 1.6369
| 12> O 0.4709 -1.4982 1.6080
| 13> N -0.3762 0.6085 1.0252
| 14> C 0.8056 1.0754 0.3627
| 15> N 1.9748 0.4010 0.3291
| 16> C 2.9360 1.0751 -0.3631
| 17> C 4.3078 0.5267 -0.5157
| 18> C 5.1910 1.0187 -1.4940
| 19> C 6.4797 0.4909 -1.6200
| 20> C 6.9134 -0.5418 -0.7687
| 21> O 8.1999 -1.1004 -0.8483
| 22> C 9.2108 -0.7133 -1.7776
| 23> F 8.7783 -0.9358 -3.0730
| 24> F 9.5290 0.6230 -1.6088
| 25> F 10.3423 -1.4723 -1.5495
| 26> C 6.0332 -1.0385 0.1991
| 27> F 6.4315 -2.0359 1.0272
| 28> C 4.7432 -0.5138 0.3235
| 29> C 2.5182 2.3067 -0.8793
| 30> S 0.9079 2.5387 -0.4513
| 31> C -4.1395 1.0691 1.5738
| 32> O -3.4649 1.5372 2.5316
| 33> N -5.1780 1.7831 1.0196
| 34> C -5.5234 3.1096 1.5572
| 35> C -5.9419 1.2315 0.0041
| 36> O -6.9118 1.8839 -0.4768
| 37> N -5.6588 -0.0231 -0.4901
| 38> C -6.4385 -0.5905 -1.5982
| 39> H -2.7056 -4.0300 -0.4878
| 40> H -2.5120 -4.0143 1.3072
| 41> H -1.2788 -3.2100 0.2480
| 42> H -1.9954 -0.3677 3.1248
| 43> H -1.6460 -2.0818 2.7966
| 44> H -1.2021 1.2460 1.0453
| 45> H 4.8888 1.8003 -2.1771
| 46> H 7.1270 0.8939 -2.3855
| 47> H 4.0894 -0.9160 1.0870
| 48> H 3.1166 3.0145 -1.4354
| 49> H -4.6308 3.6230 1.9736
| 50> H -6.2854 2.9999 2.3569
| 51> H -5.9222 3.7738 0.7611
| 52> H -6.1368 -0.1065 -2.5507
| 53> H -7.5240 -0.4235 -1.4307
| 54> H -6.2855 -1.6871 -1.6888
| 55> *
| 56>
| 57>                          ****END OF INPUT****

CARTESIAN COORDINATES (ANGSTROEM)
---------------------------------
  C     -2.359500   -3.426200    0.378000
  N     -3.113100   -2.179600    0.455200
  N     -4.155100   -1.911800   -0.324300
  C     -4.601800   -0.695300    0.041100
  C     -3.850500   -0.186800    1.054300
  C     -2.897400   -1.156200    1.321600
  C     -1.768200   -1.088200    2.314700
  C     -0.492400   -0.686200    1.636900
  O      0.470900   -1.498200    1.608000
  N     -0.376200    0.608500    1.025200
  C      0.805600    1.075400    0.362700
  N      1.974800    0.401000    0.329100
  C      2.936000    1.075100   -0.363100
  C      4.307800    0.526700   -0.515700
  C      5.191000    1.018700   -1.494000
  C      6.479700    0.490900   -1.620000
  C      6.913400   -0.541800   -0.768700
  O      8.199900   -1.100400   -0.848300
  C      9.210800   -0.713300   -1.777600
  F      8.778300   -0.935800   -3.073000
  F      9.529000    0.623000   -1.608800
  F     10.342300   -1.472300   -1.549500
  C      6.033200   -1.038500    0.199100
  F      6.431500   -2.035900    1.027200
  C      4.743200   -0.513800    0.323500
  C      2.518200    2.306700   -0.879300
  S      0.907900    2.538700   -0.451300
  C     -4.139500    1.069100    1.573800
  O     -3.464900    1.537200    2.531600
  N     -5.178000    1.783100    1.019600
  C     -5.523400    3.109600    1.557200
  C     -5.941900    1.231500    0.004100
  O     -6.911800    1.883900   -0.476800
  N     -5.658800   -0.023100   -0.490100
  C     -6.438500   -0.590500   -1.598200
  H     -2.705600   -4.030000   -0.487800
  H     -2.512000   -4.014300    1.307200
  H     -1.278800   -3.210000    0.248000
  H     -1.995400   -0.367700    3.124800
  H     -1.646000   -2.081800    2.796600
  H     -1.202100    1.246000    1.045300
  H      4.888800    1.800300   -2.177100
  H      7.127000    0.893900   -2.385500
  H      4.089400   -0.916000    1.087000
  H      3.116600    3.014500   -1.435400
  H     -4.630800    3.623000    1.973600
  H     -6.285400    2.999900    2.356900
  H     -5.922200    3.773800    0.761100
  H     -6.136800   -0.106500   -2.550700
  H     -7.524000   -0.423500   -1.430700
  H     -6.285500   -1.687100   -1.688800

 Total Charge           Charge          ....    0
 Multiplicity           Mult            ....    1
 Number of Electrons    NEL             ....  262
 Basis Dimension        Dim             ....  526

ORBITAL ENERGIES
----------------

  NO   OCC          E(Eh)            E(eV)
   0   2.0000     -88.911711     -2419.4107
   1   2.0000     -24.739975      -673.2089
   2   2.0000     -24.738656      -673.1731
   3   2.0000     -24.738510      -673.1691
   4   2.0000     -24.700554      -672.1362
   5   2.0000     -19.213043      -522.8135
   6   2.0000     -19.128682      -520.5179
   7   2.0000     -19.123373      -520.3734
   8   2.0000     -19.115469      -520.1584
   9   2.0000     -14.442064      -392.9885
  10   2.0000     -14.403096      -391.9282
  11   2.0000     -14.402055      -391.8998
  12   2.0000     -14.398679      -391.8080
  13   2.0000     -14.359803      -390.7501
  14   2.0000     -14.329826      -389.9344
  15   2.0000     -10.503824      -285.8236
  16   2.0000     -10.331141      -281.1246
  17   2.0000     -10.313745      -280.6513
  18   2.0000     -10.304138      -280.3899
  19   2.0000     -10.294559      -280.1292
  20   2.0000     -10.277777      -279.6725
  21   2.0000     -10.271262      -279.4953
  22   2.0000     -10.261076      -279.2181
  23   2.0000     -10.254429      -279.0372
  24   2.0000     -10.245151      -278.7847
  25   2.0000     -10.230727      -278.3922
  26   2.0000     -10.228390      -278.3286
  27   2.0000     -10.225092      -278.2389
  28   2.0000     -10.220604      -278.1168
  29   2.0000     -10.213930      -277.9352
  30   2.0000     -10.208060      -277.7754
  31   2.0000     -10.201633      -277.6006
  32   2.0000     -10.197515      -277.4885
  33   2.0000     -10.195530      -277.4345
  34   2.0000     -10.193473      -277.3785
  35   2.0000      -7.989377      -217.4020
  36   2.0000      -5.952457      -161.9746
  37   2.0000      -5.948343      -161.8626
  38   2.0000      -5.946196      -161.8042
  39   2.0000      -1.303231       -35.4627
  40   2.0000      -1.224300       -33.3149
  41   2.0000      -1.223265       -33.2867
  42   2.0000      -1.213629       -33.0245
  43   2.0000      -1.090400       -29.6713
  44   2.0000      -1.082179       -29.4476
  45   2.0000      -1.067001       -29.0346
  46   2.0000      -1.031531       -28.0694
  47   2.0000      -1.028986       -28.0001
  48   2.0000      -0.980091       -26.6696
  49   2.0000      -0.973356       -26.4864
  50   2.0000      -0.946040       -25.7431
  51   2.0000      -0.920937       -25.0600
  52   2.0000      -0.868850       -23.6426
  53   2.0000      -0.862426       -23.4678
  54   2.0000      -0.844060       -22.9681
  55   2.0000      -0.817540       -22.2464
  56   2.0000      -0.790531       -21.5114
  57   2.0000      -0.779698       -21.2167
  58   2.0000      -0.757480       -20.6121
  59   2.0000      -0.748655       -20.3719
  60   2.0000      -0.734385       -19.9836
  61   2.0000      -0.730012       -19.8646
  62   2.0000      -0.719048       -19.5663
  63   2.0000      -0.699372       -19.0309
  64   2.0000      -0.659995       -17.9594
  65   2.0000      -0.653568       -17.7845
  66   2.0000      -0.648032       -17.6338
  67   2.0000      -0.634042       -17.2532
  68   2.0000      -0.622277       -16.9330
  69   2.0000      -0.606337       -16.4993
  70   2.0000      -0.604630       -16.4528
  71   2.0000      -0.595597       -16.2070
  72   2.0000      -0.591272       -16.0893
  73   2.0000      -0.581949       -15.8357
  74   2.0000      -0.571420       -15.5491
  75   2.0000      -0.558323       -15.1927
  76   2.0000      -0.547732       -14.9045
  77   2.0000      -0.534360       -14.5407
  78   2.0000      -0.521296       -14.1852
  79   2.0000      -0.512910       -13.9570
  80   2.0000      -0.510320       -13.8865
  81   2.0000      -0.501185       -13.6379
  82   2.0000      -0.498761       -13.5720
  83   2.0000      -0.493380       -13.4255
  84   2.0000      -0.488373       -13.2893
  85   2.0000      -0.477755       -13.0004
  86   2.0000      -0.471541       -12.8313
  87   2.0000      -0.471517       -12.8306
  88   2.0000      -0.469138       -12.7659
  89   2.0000      -0.462425       -12.5832
  90   2.0000      -0.460790       -12.5387
  91   2.0000      -0.460059       -12.5189
  92   2.0000      -0.456771       -12.4294
  93   2.0000      -0.445616       -12.1258
  94   2.0000      -0.440962       -11.9992
  95   2.0000      -0.438958       -11.9446
  96   2.0000      -0.437119       -11.8946
  97   2.0000      -0.434330       -11.8187
  98   2.0000      -0.432607       -11.7718
  99   2.0000      -0.429045       -11.6749
 100   2.0000      -0.426053       -11.5935
 101   2.0000      -0.423640       -11.5278
 102   2.0000      -0.421333       -11.4651
 103   2.0000      -0.415562       -11.3080
 104   2.0000      -0.414425       -11.2771
 105   2.0000      -0.403527       -10.9805
 106   2.0000      -0.398510       -10.8440
 107   2.0000      -0.397553       -10.8180
 108   2.0000      -0.397259       -10.8100
 109   2.0000      -0.394117       -10.7245
 110   2.0000      -0.386102       -10.5064
 111   2.0000      -0.384713       -10.4686
 112   2.0000      -0.382408       -10.4059
 113   2.0000      -0.379910       -10.3379
 114   2.0000      -0.361167        -9.8279
 115   2.0000      -0.355700        -9.6791
 116   2.0000      -0.352150        -9.5825
 117   2.0000      -0.329509        -8.9664
 118   2.0000      -0.313571        -8.5327
 119   2.0000      -0.308004        -8.3812
 120   2.0000      -0.294222        -8.0062
 121   2.0000      -0.289372        -7.8742
 122   2.0000      -0.279332        -7.6010
 123   2.0000      -0.274155        -7.4601
 124   2.0000      -0.270254        -7.3540
 125   2.0000      -0.257892        -7.0176
 126   2.0000      -0.255461        -6.9515
 127   2.0000      -0.249158        -6.7799
 128   2.0000      -0.244032        -6.6404
 129   2.0000      -0.229614        -6.2481
 130   2.0000      -0.213623        -5.8130
 131   0.0000      -0.049872        -1.3571
 132   0.0000      -0.039033        -1.0622
 133   0.0000      -0.024952        -0.6790
 134   0.0000      -0.008947        -0.2434
 135   0.0000       0.008464         0.2303

MULLIKEN ATOMIC CHARGES
-----------------------
   0 C :   -0.343354
   1 N :   -0.253329
   2 N :   -0.342330
   3 C :    0.461504
   4 C :   -0.065385
   5 C :    0.291703
   6 C :   -0.426932
   7 C :    0.565380
   8 O :   -0.431422
   9 N :   -0.661848
  10 C :    0.253466
  11 N :   -0.376796
  12 C :    0.215731
  13 C :    0.130834
  14 C :   -0.182519
  15 C :   -0.190143
  16 C :    0.283654
  17 O :   -0.537728
  18 C :    1.088589
  19 F :   -0.291249
  20 F :   -0.291587
  21 F :   -0.277273
  22 C :    0.378182
  23 F :   -0.305819
  24 C :   -0.263420
  25 C :   -0.394864
  26 S :    0.258274
  27 C :    0.499615
  28 O :   -0.517602
  29 N :   -0.486618
  30 C :   -0.315870
  31 C :    0.676037
  32 O :   -0.505633
  33 N :   -0.492003
  34 C :   -0.323368
  35 H :    0.201826
  36 H :    0.183700
  37 H :    0.212926
  38 H :    0.223932
  39 H :    0.188539
  40 H :    0.361068
  41 H :    0.134016
  42 H :    0.159636
  43 H :    0.191777
  44 H :    0.183623
  45 H :    0.191713
  46 H :    0.180095
  47 H :    0.196219
  48 H :    0.178243
  49 H :    0.192482
  50 H :    0.194330
Sum of atomic charges:    0.0000000

LOEWDIN ATOMIC CHARGES
----------------------
   0 C :   -0.272181
   1 N :    0.079406
   2 N :   -0.170249
   3 C :    0.027011
   4 C :   -0.130663
   5 C :    0.027569
   6 C :   -0.249462
   7 C :    0.153061
   8 O :   -0.247989
   9 N :   -0.204987
  10 C :   -0.080823
  11 N :   -0.154382
  12 C :   -0.001897
  13 C :   -0.017384
  14 C :   -0.127134
  15 C :   -0.153475
  16 C :    0.059585
  17 O :   -0.154459
  18 C :    0.361160
  19 F :   -0.105052
  20 F :   -0.105323
  21 F :   -0.085720
  22 C :    0.107954
  23 F :   -0.093547
  24 C :   -0.132584
  25 C :   -0.347249
  26 S :    0.394463
  27 C :    0.111413
  28 O :   -0.314221
  29 N :   -0.031461
  30 C :   -0.260538
  31 C :    0.144217
  32 O :   -0.312175
  33 N :   -0.025030
  34 C :   -0.258467
  35 H :    0.159086
  36 H :    0.143511
  37 H :    0.158650
  38 H :    0.177700
  39 H :    0.159549
  40 H :    0.273296
  41 H :    0.135658
  42 H :    0.146228
  43 H :    0.168815
  44 H :    0.161315
  45 H :    0.150907
  46 H :    0.141301
  47 H :    0.153030
  48 H :    0.139511
  49 H :    0.150261
  50 H :    0.151796

  Mayer bond orders larger than 0.100000
B(  0-C ,  1-N ) :   0.9215 B(  0-C , 35-H ) :   0.9322 B(  0-C , 36-H ) :   0.9313
B(  0-C , 37-H ) :   0.9151 B(  1-N ,  2-N ) :   1.1882 B(  1-N ,  4-C ) :   0.1046
B(  1-N ,  5-C ) :   1.1370 B(  2-N ,  3-C ) :   1.3920 B(  3-C ,  4-C ) :   1.2876
B(  3-C , 33-N ) :   0.9583 B(  4-C ,  5-C ) :   1.3609 B(  4-C , 27-C ) :   1.0755
B(  5-C ,  6-C ) :   0.9944 B(  6-C ,  7-C ) :   0.9554 B(  6-C , 38-H ) :   0.8830
B(  6-C , 39-H ) :   0.9092 B(  7-C ,  8-O ) :   1.8670 B(  7-C ,  9-N ) :   1.0042
B(  9-N , 10-C ) :   0.9532 B(  9-N , 40-H ) :   0.7923 B( 10-C , 11-N ) :   1.5094
B( 10-C , 25-C ) :   0.1085 B( 10-C , 26-S ) :   1.1429 B( 11-N , 12-C ) :   1.2667
B( 12-C , 13-C ) :   1.0517 B( 12-C , 25-C ) :   1.5131 B( 13-C , 14-C ) :   1.4028
B( 13-C , 24-C ) :   1.3726 B( 14-C , 15-C ) :   1.4387 B( 14-C , 41-H ) :   0.9193
B( 15-C , 16-C ) :   1.3811 B( 15-C , 42-H ) :   0.9085 B( 16-C , 17-O ) :   0.8317
B( 16-C , 22-C ) :   1.3203 B( 17-O , 18-C ) :   0.9873 B( 18-C , 19-F ) :   0.9693
B( 18-C , 20-F ) :   0.9678 B( 18-C , 21-F ) :   1.0095 B( 22-C , 23-F ) :   0.9391
B( 22-C , 24-C ) :   1.3700 B( 24-C , 43-H ) :   0.8975 B( 25-C , 26-S ) :   1.1166
B( 25-C , 44-H ) :   0.9020 B( 27-C , 28-O ) :   1.7357 B( 27-C , 29-N ) :   0.9947
B( 29-N , 30-C ) :   0.9183 B( 29-N , 31-C ) :   1.0165 B( 30-C , 45-H ) :   0.9247
B( 30-C , 46-H ) :   0.9403 B( 30-C , 47-H ) :   0.9260 B( 31-C , 32-O ) :   1.7936
B( 31-C , 33-N ) :   1.0690 B( 33-N , 34-C ) :   0.9307 B( 34-C , 48-H ) :   0.9385
B( 34-C , 49-H ) :   0.9303 B( 34-C , 50-H ) :   0.9239

FINAL SINGLE POINT ENERGY     -2197.699282694097

DIPOLE MOMENT
-------------

Method             : SCF
Type of density    : Electron Density
Multiplicity       :   1
Irrep              :   0
Energy             : -2197.6992826940968371 Eh
Relativity type    :
Basis              : AO
                                X                 Y                 Z
Electronic contribution:     70.441835588      -3.355287178      -8.209735173
Nuclear contribution   :    -71.776537309       3.528922740       7.640743633
                        -----------------------------------------
Total Dipole Moment    :     -1.334701721       0.173635562      -0.568991540
                        -----------------------------------------
Magnitude (a.u.)       :      1.461276621
Magnitude (Debye)      :      3.714269994

Rotational constants in cm-1:             0.009351             0.001072             0.001033
Rotational constants in MHz :           280.324195            32.130124            30.964588

                             ****ORCA TERMINATED NORMALLY****
TOTAL RUN TIME: 0 days 0 hours 9 minutes 2 seconds 88 msec
