                         Program Version 6.0.0  -   RELEASE  -
|  1> ! B3LYP 6-31G* SP
|  2>
|  3> * xyz 0 1
|  4> C -7.9869 2.6013 -1.1648
|  5> C -6.5311 2.1443 -1.1589
|  6> C -6.3153 0.9967 -0.1606
|  7> C -4.8468 0.5460 -0.0950
|  8> C -4.4484 -0.3282 -1.2918
|  9> C -3.0038 -0.7402 -1.1874
| 10> C -2.0038 0.0368 -1.7847
| 11> C -0.6568 -0.3312 -1.6790
| 12> O 0.3199 0.4591 -2.2864
| 13> C -0.2911 -1.4902 -0.9609
| 14> C 1.1669 -1.8825 -0.8569
| 15> C 1.7562 -1.4206 0.4532
| 16> C 3.0566 -1.5874 0.7788
| 17> C 4.0248 -2.2556 -0.1688
| 18> C 3.5543 -1.0993 2.1251
| 19> C 3.5910 0.4344 2.2101
| 20> C 4.4569 1.0446 1.1322
| 21> C 5.7943 1.2179 1.2257
| 22> C 6.5679 0.8488 2.4707
| 23> C 6.5202 1.8194 0.0515
| 24> C -1.3006 -2.2410 -0.3090
| 25> O -1.0075 -3.3490 0.4895
| 26> C -2.6421 -1.8689 -0.4430
| 27> H -8.1114 3.4357 -1.8862
| 28> H -8.6516 1.7655 -1.4696
| 29> H -8.2852 2.9580 -0.1555
| 30> H -6.2608 1.8202 -2.1861
| 31> H -5.8864 3.0071 -0.8806
| 32> H -6.9669 0.1336 -0.4225
| 33> H -6.6131 1.3473 0.8522
| 34> H -4.1785 1.4336 -0.0287
| 35> H -4.7080 -0.0477 0.8367
| 36> H -4.6086 0.2207 -2.2432
| 37> H -5.0922 -1.2335 -1.3212
| 38> H -2.2714 0.9316 -2.3342
| 39> H 0.0816 1.3012 -2.7976
| 40> H 1.2713 -2.9837 -0.9567
| 41> H 1.7476 -1.4461 -1.6977
| 42> H 1.0960 -0.9396 1.1720
| 43> H 4.1018 -1.6678 -1.1068
| 44> H 3.6800 -3.2846 -0.4026
| 45> H 5.0419 -2.3238 0.2707
| 46> H 4.5636 -1.5056 2.3397
| 47> H 2.8857 -1.4907 2.9236
| 48> H 2.5586 0.8301 2.0953
| 49> H 3.9351 0.7468 3.2190
| 50> H 3.9509 1.3525 0.2202
| 51> H 6.4714 -0.2353 2.6764
| 52> H 7.6494 1.0733 2.3574
| 53> H 6.1927 1.4290 3.3389
| 54> H 6.3988 1.1642 -0.8362
| 55> H 6.0990 2.8216 -0.1773
| 56> H 7.6061 1.9349 0.2527
| 57> H -0.0662 -3.6483 0.7046
| 58> H -3.4063 -2.4552 0.0543
| 59> *
| 60>
| 61>                          ****END OF INPUT****

CARTESIAN COORDINATES (ANGSTROEM)
---------------------------------
  C     -7.986900    2.601300   -1.164800
  C     -6.531100    2.144300   -1.158900
  C     -6.315300    0.996700   -0.160600
  C     -4.846800    0.546000   -0.095000
  C     -4.448400   -0.328200   -1.291800
  C     -3.003800   -0.740200   -1.187400
  C     -2.003800    0.036800   -1.784700
  C     -0.656800   -0.331200   -1.679000
  O      0.319900    0.459100   -2.286400
  C     -0.291100   -1.490200   -0.960900
  C      1.166900   -1.882500   -0.856900
  C      1.756200   -1.420600    0.453200
  C      3.056600   -1.587400    0.778800
  C      4.024800   -2.255600   -0.168800
  C      3.554300   -1.099300    2.125100
  C      3.591000    0.434400    2.210100
  C      4.456900    1.044600    1.132200
  C      5.794300    1.217900    1.225700
  C      6.567900    0.848800    2.470700
  C      6.520200    1.819400    0.051500
  C     -1.300600   -2.241000   -0.309000
  O     -1.007500   -3.349000    0.489500
  C     -2.642100   -1.868900   -0.443000
  H     -8.111400    3.435700   -1.886200
  H     -8.651600    1.765500   -1.469600
  H     -8.285200    2.958000   -0.155500
  H     -6.260800    1.820200   -2.186100
  H     -5.886400    3.007100   -0.880600
  H     -6.966900    0.133600   -0.422500
  H     -6.613100    1.347300    0.852200
  H     -4.178500    1.433600   -0.028700
  H     -4.708000   -0.047700    0.836700
  H     -4.608600    0.220700   -2.243200
  H     -5.092200   -1.233500   -1.321200
  H     -2.271400    0.931600   -2.334200
  H      0.081600    1.301200   -2.797600
  H      1.271300   -2.983700   -0.956700
  H      1.747600   -1.446100   -1.697700
  H      1.096000   -0.939600    1.172000
  H      4.101800   -1.667800   -1.106800
  H      3.680000   -3.284600   -0.402600
  H      5.041900   -2.323800    0.270700
  H      4.563600   -1.505600    2.339700
  H      2.885700   -1.490700    2.923600
  H      2.558600    0.830100    2.095300
  H      3.935100    0.746800    3.219000
  H      3.950900    1.352500    0.220200
  H      6.471400   -0.235300    2.676400
  H      7.649400    1.073300    2.357400
  H      6.192700    1.429000    3.338900
  H      6.398800    1.164200   -0.836200
  H      6.099000    2.821600   -0.177300
  H      7.606100    1.934900    0.252700
  H     -0.066200   -3.648300    0.704600
  H     -3.406300   -2.455200    0.054300

 Total Charge           Charge          ....    0
 Multiplicity           Mult            ....    1
 Number of Electrons    NEL             ....  174
 Basis Dimension        Dim             ....  386

ORBITAL ENERGIES
----------------

  NO   OCC          E(Eh)            E(eV)
   0   2.0000     -19.159869      -521.3665
   1   2.0000     -19.156880      -521.2852
   2   2.0000     -10.237477      -278.5759
   3   2.0000     -10.237043      -278.5641
   4   2.0000     -10.178035      -276.9584
   5   2.0000     -10.175517      -276.8899
   6   2.0000     -10.174156      -276.8529
   7   2.0000     -10.173382      -276.8318
   8   2.0000     -10.172617      -276.8110
   9   2.0000     -10.171239      -276.7735
  10   2.0000     -10.170426      -276.7514
  11   2.0000     -10.168929      -276.7106
  12   2.0000     -10.168790      -276.7068
  13   2.0000     -10.168407      -276.6964
  14   2.0000     -10.168387      -276.6959
  15   2.0000     -10.167894      -276.6825
  16   2.0000     -10.166786      -276.6523
  17   2.0000     -10.165679      -276.6222
  18   2.0000     -10.162697      -276.5410
  19   2.0000     -10.160759      -276.4883
  20   2.0000     -10.158627      -276.4303
  21   2.0000     -10.158139      -276.4170
  22   2.0000     -10.154153      -276.3086
  23   2.0000      -1.023903       -27.8618
  24   2.0000      -1.019192       -27.7336
  25   2.0000      -0.838941       -22.8288
  26   2.0000      -0.815653       -22.1951
  27   2.0000      -0.799613       -21.7586
  28   2.0000      -0.791894       -21.5485
  29   2.0000      -0.770493       -20.9662
  30   2.0000      -0.745090       -20.2749
  31   2.0000      -0.726771       -19.7765
  32   2.0000      -0.721555       -19.6345
  33   2.0000      -0.696985       -18.9659
  34   2.0000      -0.682547       -18.5730
  35   2.0000      -0.669056       -18.2059
  36   2.0000      -0.658940       -17.9307
  37   2.0000      -0.627227       -17.0677
  38   2.0000      -0.609092       -16.5742
  39   2.0000      -0.599338       -16.3088
  40   2.0000      -0.589806       -16.0494
  41   2.0000      -0.578804       -15.7501
  42   2.0000      -0.558318       -15.1926
  43   2.0000      -0.526313       -14.3217
  44   2.0000      -0.510214       -13.8836
  45   2.0000      -0.494086       -13.4448
  46   2.0000      -0.489756       -13.3269
  47   2.0000      -0.479199       -13.0397
  48   2.0000      -0.469351       -12.7717
  49   2.0000      -0.457377       -12.4459
  50   2.0000      -0.455271       -12.3886
  51   2.0000      -0.443603       -12.0711
  52   2.0000      -0.430782       -11.7222
  53   2.0000      -0.427593       -11.6354
  54   2.0000      -0.422281       -11.4908
  55   2.0000      -0.417308       -11.3555
  56   2.0000      -0.415480       -11.3058
  57   2.0000      -0.411937       -11.2094
  58   2.0000      -0.399978       -10.8840
  59   2.0000      -0.394517       -10.7354
  60   2.0000      -0.389872       -10.6090
  61   2.0000      -0.387168       -10.5354
  62   2.0000      -0.384043       -10.4503
  63   2.0000      -0.380672       -10.3586
  64   2.0000      -0.374425       -10.1886
  65   2.0000      -0.371197       -10.1008
  66   2.0000      -0.366613        -9.9760
  67   2.0000      -0.361457        -9.8357
  68   2.0000      -0.356381        -9.6976
  69   2.0000      -0.353093        -9.6082
  70   2.0000      -0.350750        -9.5444
  71   2.0000      -0.349723        -9.5164
  72   2.0000      -0.344794        -9.3823
  73   2.0000      -0.336484        -9.1562
  74   2.0000      -0.331446        -9.0191
  75   2.0000      -0.326965        -8.8972
  76   2.0000      -0.323179        -8.7941
  77   2.0000      -0.321123        -8.7382
  78   2.0000      -0.317508        -8.6398
  79   2.0000      -0.306252        -8.3335
  80   2.0000      -0.304588        -8.2883
  81   2.0000      -0.301220        -8.1966
  82   2.0000      -0.282905        -7.6982
  83   2.0000      -0.220252        -5.9934
  84   2.0000      -0.211349        -5.7511
  85   2.0000      -0.208035        -5.6609
  86   2.0000      -0.201762        -5.4902
  87   0.0000       0.017560         0.4778
  88   0.0000       0.018531         0.5043
  89   0.0000       0.025520         0.6944
  90   0.0000       0.032742         0.8909
  91   0.0000       0.053107         1.4451

MULLIKEN ATOMIC CHARGES
-----------------------
   0 C :   -0.429971
   1 C :   -0.242643
   2 C :   -0.239156
   3 C :   -0.242585
   4 C :   -0.351728
   5 C :    0.186668
   6 C :   -0.264808
   7 C :    0.343314
   8 O :   -0.681366
   9 C :    0.034826
  10 C :   -0.393343
  11 C :   -0.159909
  12 C :    0.165878
  13 C :   -0.506993
  14 C :   -0.315385
  15 C :   -0.285382
  16 C :   -0.146025
  17 C :    0.154176
  18 C :   -0.511800
  19 C :   -0.501398
  20 C :    0.331121
  21 O :   -0.681255
  22 C :   -0.229147
  23 H :    0.135387
  24 H :    0.138209
  25 H :    0.137966
  26 H :    0.129885
  27 H :    0.126286
  28 H :    0.124095
  29 H :    0.124086
  30 H :    0.130490
  31 H :    0.132879
  32 H :    0.137533
  33 H :    0.138543
  34 H :    0.099106
  35 H :    0.414184
  36 H :    0.131848
  37 H :    0.176388
  38 H :    0.127266
  39 H :    0.161265
  40 H :    0.148640
  41 H :    0.145607
  42 H :    0.130522
  43 H :    0.134759
  44 H :    0.136109
  45 H :    0.127602
  46 H :    0.119394
  47 H :    0.159011
  48 H :    0.141883
  49 H :    0.160516
  50 H :    0.157959
  51 H :    0.157891
  52 H :    0.137762
  53 H :    0.421462
  54 H :    0.122375
Sum of atomic charges:    0.0000000

LOEWDIN ATOMIC CHARGES
----------------------
   0 C :   -0.357359
   1 C :   -0.232269
   2 C :   -0.229142
   3 C :   -0.221969
   4 C :   -0.219707
   5 C :   -0.003992
   6 C :   -0.201839
   7 C :    0.085799
   8 O :   -0.353605
   9 C :   -0.084779
  10 C :   -0.226665
  11 C :   -0.168379
  12 C :   -0.031715
  13 C :   -0.356314
  14 C :   -0.219270
  15 C :   -0.224742
  16 C :   -0.159477
  17 C :   -0.043746
  18 C :   -0.359074
  19 C :   -0.355768
  20 C :    0.091342
  21 O :   -0.351330
  22 C :   -0.179312
  23 H :    0.120149
  24 H :    0.120083
  25 H :    0.119722
  26 H :    0.114467
  27 H :    0.114646
  28 H :    0.114949
  29 H :    0.116154
  30 H :    0.118297
  31 H :    0.120141
  32 H :    0.121397
  33 H :    0.124225
  34 H :    0.120809
  35 H :    0.334317
  36 H :    0.119791
  37 H :    0.145829
  38 H :    0.126819
  39 H :    0.135760
  40 H :    0.129560
  41 H :    0.126701
  42 H :    0.117151
  43 H :    0.122415
  44 H :    0.123387
  45 H :    0.118757
  46 H :    0.124232
  47 H :    0.132308
  48 H :    0.124938
  49 H :    0.135029
  50 H :    0.134065
  51 H :    0.134107
  52 H :    0.121858
  53 H :    0.336445
  54 H :    0.134805

  Mayer bond orders larger than 0.100000
B(  0-C ,  1-C ) :   1.0164 B(  0-C , 23-H ) :   0.9530 B(  0-C , 24-H ) :   0.9526
B(  0-C , 25-H ) :   0.9523 B(  1-C ,  2-C ) :   1.0155 B(  1-C , 26-H ) :   0.9400
B(  1-C , 27-H ) :   0.9429 B(  2-C ,  3-C ) :   0.9931 B(  2-C , 28-H ) :   0.9375
B(  2-C , 29-H ) :   0.9411 B(  3-C ,  4-C ) :   0.9982 B(  3-C , 30-H ) :   0.9373
B(  3-C , 31-H ) :   0.9399 B(  4-C ,  5-C ) :   0.9753 B(  4-C , 32-H ) :   0.9306
B(  4-C , 33-H ) :   0.9328 B(  5-C ,  6-C ) :   1.4231 B(  5-C , 22-C ) :   1.4233
B(  6-C ,  7-C ) :   1.3488 B(  6-C , 34-H ) :   0.9198 B(  7-C ,  8-O ) :   0.8897
B(  7-C ,  9-C ) :   1.3854 B(  8-O , 35-H ) :   0.7680 B(  9-C , 10-C ) :   0.9634
B(  9-C , 20-C ) :   1.3447 B( 10-C , 11-C ) :   0.9872 B( 10-C , 36-H ) :   0.9172
B( 10-C , 37-H ) :   0.9109 B( 11-C , 12-C ) :   1.8860 B( 11-C , 38-H ) :   0.9258
B( 12-C , 13-C ) :   1.0126 B( 12-C , 14-C ) :   0.9994 B( 13-C , 39-H ) :   0.9338
B( 13-C , 40-H ) :   0.9353 B( 13-C , 41-H ) :   0.9453 B( 14-C , 15-C ) :   0.9905
B( 14-C , 42-H ) :   0.9287 B( 14-C , 43-H ) :   0.9332 B( 15-C , 16-C ) :   1.0152
B( 15-C , 44-H ) :   0.9341 B( 15-C , 45-H ) :   0.9266 B( 16-C , 17-C ) :   1.9095
B( 16-C , 46-H ) :   0.9296 B( 17-C , 18-C ) :   1.0134 B( 17-C , 19-C ) :   0.9986
B( 18-C , 47-H ) :   0.9347 B( 18-C , 48-H ) :   0.9458 B( 18-C , 49-H ) :   0.9371
B( 19-C , 50-H ) :   0.9447 B( 19-C , 51-H ) :   0.9451 B( 19-C , 52-H ) :   0.9474
B( 20-C , 21-O ) :   0.9149 B( 20-C , 22-C ) :   1.3760 B( 21-O , 53-H ) :   0.7511
B( 22-C , 54-H ) :   0.9164

FINAL SINGLE POINT ENERGY      -969.239876266271

DIPOLE MOMENT
-------------

Method             : SCF
Type of density    : Electron Density
Multiplicity       :   1
Irrep              :   0
Energy             :  -969.2398762662712670 Eh
Relativity type    :
Basis              : AO
                                X                 Y                 Z
Electronic contribution:     -0.263417272     -13.353247911      -5.856181385
Nuclear contribution   :      0.696512837      13.831440186       5.662155001
                        -----------------------------------------
Total Dipole Moment    :      0.433095565       0.478192275      -0.194026384
                        -----------------------------------------
Magnitude (a.u.)       :      0.673710515
Magnitude (Debye)      :      1.712436040

Rotational constants in cm-1:             0.014510             0.002643             0.002467
Rotational constants in MHz :           434.984226            79.229254            73.968676

                             ****ORCA TERMINATED NORMALLY****
TOTAL RUN TIME: 0 days 0 hours 5 minutes 26 seconds 515 msec
