                         Program Version 6.0.0  -   RELEASE  -
|  1> ! B3LYP 6-31G* SP
|  2>
|  3> * xyz 0 1
|  4> O 2.9101 -1.1841 -1.1335
|  5> C 2.0395 -1.0980 -0.2246
|  6> N 2.2807 -0.2382 0.8966
|  7> C 2.7160 1.1264 0.7645
|  8> C 2.5956 1.8225 -0.4547
|  9> C 2.9658 3.1679 -0.5387
| 10> C 3.4554 3.8321 0.5888
| 11> F 3.8109 5.1378 0.5055
| 12> C 3.5698 3.1524 1.8042
| 13> C 3.1963 1.8080 1.8938
| 14> N 0.8033 -1.8394 -0.3272
| 15> C 0.6761 -2.8754 -1.3612
| 16> C -0.1736 -4.0353 -0.8557
| 17> F -0.3491 -4.9352 -1.8950
| 18> F 0.4864 -4.6743 0.1798
| 19> C -1.5023 -3.5362 -0.3548
| 20> C -2.6302 -4.3760 -0.3999
| 21> C -3.8496 -3.9540 0.1318
| 22> C -3.9509 -2.7039 0.7396
| 23> C -2.8337 -1.8709 0.8159
| 24> C -1.6020 -2.2662 0.2578
| 25> C -0.3889 -1.3574 0.4070
| 26> C -0.7189 0.0614 -0.0250
| 27> C -0.6665 1.1134 0.9043
| 28> C -0.8938 2.4304 0.4980
| 29> C -1.2061 2.7192 -0.8407
| 30> C -1.3784 4.1477 -1.2906
| 31> F -0.1438 4.6683 -1.6310
| 32> F -2.2165 4.2182 -2.3899
| 33> F -1.9277 4.9149 -0.2779
| 34> C -1.2568 1.6670 -1.7707
| 35> C -1.0271 0.3498 -1.3645
| 36> H 2.0642 -0.6056 1.8502
| 37> H 2.1887 1.3408 -1.3336
| 38> H 2.8635 3.6975 -1.4771
| 39> H 3.9421 3.6682 2.6800
| 40> H 3.2788 1.2967 2.8446
| 41> H 0.2162 -2.4362 -2.2721
| 42> H 1.6733 -3.2787 -1.6428
| 43> H -2.5664 -5.3639 -0.8384
| 44> H -4.7135 -4.6045 0.0868
| 45> H -4.8935 -2.3848 1.1653
| 46> H -2.9284 -0.9156 1.3170
| 47> H -0.1451 -1.3721 1.4917
| 48> H -0.4195 0.9193 1.9406
| 49> H -0.8121 3.2253 1.2286
| 50> H -1.4640 1.8636 -2.8150
| 51> H -1.0744 -0.4427 -2.0989
| 52> *
| 53>
| 54>                          ****END OF INPUT****

CARTESIAN COORDINATES (ANGSTROEM)
---------------------------------
  O      2.910100   -1.184100   -1.133500
  C      2.039500   -1.098000   -0.224600
  N      2.280700   -0.238200    0.896600
  C      2.716000    1.126400    0.764500
  C      2.595600    1.822500   -0.454700
  C      2.965800    3.167900   -0.538700
  C      3.455400    3.832100    0.588800
  F      3.810900    5.137800    0.505500
  C      3.569800    3.152400    1.804200
  C      3.196300    1.808000    1.893800
  N      0.803300   -1.839400   -0.327200
  C      0.676100   -2.875400   -1.361200
  C     -0.173600   -4.035300   -0.855700
  F     -0.349100   -4.935200   -1.895000
  F      0.486400   -4.674300    0.179800
  C     -1.502300   -3.536200   -0.354800
  C     -2.630200   -4.376000   -0.399900
  C     -3.849600   -3.954000    0.131800
  C     -3.950900   -2.703900    0.739600
  C     -2.833700   -1.870900    0.815900
  C     -1.602000   -2.266200    0.257800
  C     -0.388900   -1.357400    0.407000
  C     -0.718900    0.061400   -0.025000
  C     -0.666500    1.113400    0.904300
  C     -0.893800    2.430400    0.498000
  C     -1.206100    2.719200   -0.840700
  C     -1.378400    4.147700   -1.290600
  F     -0.143800    4.668300   -1.631000
  F     -2.216500    4.218200   -2.389900
  F     -1.927700    4.914900   -0.277900
  C     -1.256800    1.667000   -1.770700
  C     -1.027100    0.349800   -1.364500
  H      2.064200   -0.605600    1.850200
  H      2.188700    1.340800   -1.333600
  H      2.863500    3.697500   -1.477100
  H      3.942100    3.668200    2.680000
  H      3.278800    1.296700    2.844600
  H      0.216200   -2.436200   -2.272100
  H      1.673300   -3.278700   -1.642800
  H     -2.566400   -5.363900   -0.838400
  H     -4.713500   -4.604500    0.086800
  H     -4.893500   -2.384800    1.165300
  H     -2.928400   -0.915600    1.317000
  H     -0.145100   -1.372100    1.491700
  H     -0.419500    0.919300    1.940600
  H     -0.812100    3.225300    1.228600
  H     -1.464000    1.863600   -2.815000
  H     -1.074400   -0.442700   -2.098900

 Total Charge           Charge          ....    0
 Multiplicity           Mult            ....    1
 Number of Electrons    NEL             ....  230
 Basis Dimension        Dim             ....  480

ORBITAL ENERGIES
----------------

  NO   OCC          E(Eh)            E(eV)
   0   2.0000     -24.721311      -672.7011
   1   2.0000     -24.720706      -672.6846
   2   2.0000     -24.717165      -672.5883
   3   2.0000     -24.704763      -672.2508
   4   2.0000     -24.697137      -672.0433
   5   2.0000     -24.689915      -671.8468
   6   2.0000     -19.118888      -520.2514
   7   2.0000     -14.378097      -391.2479
   8   2.0000     -14.370148      -391.0316
   9   2.0000     -10.436464      -283.9906
  10   2.0000     -10.354877      -281.7705
  11   2.0000     -10.328220      -281.0452
  12   2.0000     -10.259992      -279.1886
  13   2.0000     -10.258050      -279.1357
  14   2.0000     -10.237097      -278.5656
  15   2.0000     -10.235699      -278.5275
  16   2.0000     -10.223159      -278.1863
  17   2.0000     -10.217987      -278.0456
  18   2.0000     -10.216332      -278.0005
  19   2.0000     -10.212373      -277.8928
  20   2.0000     -10.209191      -277.8062
  21   2.0000     -10.208403      -277.7848
  22   2.0000     -10.205878      -277.7161
  23   2.0000     -10.205867      -277.7158
  24   2.0000     -10.204045      -277.6662
  25   2.0000     -10.202848      -277.6336
  26   2.0000     -10.202547      -277.6254
  27   2.0000     -10.199486      -277.5421
  28   2.0000     -10.192645      -277.3560
  29   2.0000     -10.190001      -277.2840
  30   2.0000     -10.187362      -277.2122
  31   2.0000     -10.186925      -277.2003
  32   2.0000      -1.280658       -34.8485
  33   2.0000      -1.240247       -33.7488
  34   2.0000      -1.206373       -32.8271
  35   2.0000      -1.204716       -32.7820
  36   2.0000      -1.203682       -32.7539
  37   2.0000      -1.187407       -32.3110
  38   2.0000      -1.032047       -28.0834
  39   2.0000      -0.948222       -25.8024
  40   2.0000      -0.922721       -25.1085
  41   2.0000      -0.879507       -23.9326
  42   2.0000      -0.873714       -23.7750
  43   2.0000      -0.846354       -23.0305
  44   2.0000      -0.815614       -22.1940
  45   2.0000      -0.794351       -21.6154
  46   2.0000      -0.773835       -21.0571
  47   2.0000      -0.767325       -20.8800
  48   2.0000      -0.756065       -20.5736
  49   2.0000      -0.752884       -20.4870
  50   2.0000      -0.736327       -20.0365
  51   2.0000      -0.709458       -19.3053
  52   2.0000      -0.678841       -18.4722
  53   2.0000      -0.664499       -18.0819
  54   2.0000      -0.635832       -17.3019
  55   2.0000      -0.631253       -17.1773
  56   2.0000      -0.627051       -17.0629
  57   2.0000      -0.618517       -16.8307
  58   2.0000      -0.609038       -16.5728
  59   2.0000      -0.594062       -16.1653
  60   2.0000      -0.571728       -15.5575
  61   2.0000      -0.569869       -15.5069
  62   2.0000      -0.568079       -15.4582
  63   2.0000      -0.565808       -15.3964
  64   2.0000      -0.552492       -15.0341
  65   2.0000      -0.545543       -14.8450
  66   2.0000      -0.542262       -14.7557
  67   2.0000      -0.534373       -14.5410
  68   2.0000      -0.526276       -14.3207
  69   2.0000      -0.509747       -13.8709
  70   2.0000      -0.507294       -13.8042
  71   2.0000      -0.495540       -13.4843
  72   2.0000      -0.479196       -13.0396
  73   2.0000      -0.475536       -12.9400
  74   2.0000      -0.470249       -12.7961
  75   2.0000      -0.468047       -12.7362
  76   2.0000      -0.458598       -12.4791
  77   2.0000      -0.452985       -12.3263
  78   2.0000      -0.449573       -12.2335
  79   2.0000      -0.449156       -12.2222
  80   2.0000      -0.447270       -12.1708
  81   2.0000      -0.446801       -12.1581
  82   2.0000      -0.444241       -12.0884
  83   2.0000      -0.438830       -11.9412
  84   2.0000      -0.428988       -11.6734
  85   2.0000      -0.422265       -11.4904
  86   2.0000      -0.421082       -11.4582
  87   2.0000      -0.420113       -11.4319
  88   2.0000      -0.413142       -11.2422
  89   2.0000      -0.410917       -11.1816
  90   2.0000      -0.408026       -11.1030
  91   2.0000      -0.404859       -11.0168
  92   2.0000      -0.400177       -10.8894
  93   2.0000      -0.399299       -10.8655
  94   2.0000      -0.397929       -10.8282
  95   2.0000      -0.391353       -10.6492
  96   2.0000      -0.386312       -10.5121
  97   2.0000      -0.383762       -10.4427
  98   2.0000      -0.374866       -10.2006
  99   2.0000      -0.371908       -10.1201
 100   2.0000      -0.368433       -10.0256
 101   2.0000      -0.366274        -9.9668
 102   2.0000      -0.360713        -9.8155
 103   2.0000      -0.352212        -9.5842
 104   2.0000      -0.341892        -9.3034
 105   2.0000      -0.333287        -9.0692
 106   2.0000      -0.300986        -8.1903
 107   2.0000      -0.282134        -7.6773
 108   2.0000      -0.270538        -7.3617
 109   2.0000      -0.268523        -7.3069
 110   2.0000      -0.265973        -7.2375
 111   2.0000      -0.257792        -7.0149
 112   2.0000      -0.253372        -6.8946
 113   2.0000      -0.244958        -6.6656
 114   2.0000      -0.209041        -5.6883
 115   0.0000      -0.039216        -1.0671
 116   0.0000      -0.030464        -0.8290
 117   0.0000      -0.027422        -0.7462
 118   0.0000      -0.019815        -0.5392
 119   0.0000      -0.010103        -0.2749

MULLIKEN ATOMIC CHARGES
-----------------------
   0 O :   -0.465193
   1 C :    0.672043
   2 N :   -0.718694
   3 C :    0.352244
   4 C :   -0.144658
   5 C :   -0.215446
   6 C :    0.404515
   7 F :   -0.321832
   8 C :   -0.211574
   9 C :   -0.183129
  10 N :   -0.461541
  11 C :   -0.216539
  12 C :    0.669969
  13 F :   -0.333124
  14 F :   -0.323149
  15 C :   -0.010533
  16 C :   -0.171653
  17 C :   -0.123229
  18 C :   -0.121200
  19 C :   -0.176210
  20 C :    0.101188
  21 C :   -0.101868
  22 C :    0.184006
  23 C :   -0.181021
  24 C :   -0.149926
  25 C :   -0.015960
  26 C :    0.897361
  27 F :   -0.294407
  28 F :   -0.305183
  29 F :   -0.305017
  30 C :   -0.160939
  31 C :   -0.171028
  32 H :    0.328409
  33 H :    0.157652
  34 H :    0.151577
  35 H :    0.143826
  36 H :    0.127738
  37 H :    0.165350
  38 H :    0.206770
  39 H :    0.154707
  40 H :    0.139653
  41 H :    0.140859
  42 H :    0.140695
  43 H :    0.156485
  44 H :    0.129744
  45 H :    0.157507
  46 H :    0.156894
  47 H :    0.143861
Sum of atomic charges:   -0.0000000

LOEWDIN ATOMIC CHARGES
----------------------
   0 O :   -0.281080
   1 C :    0.164955
   2 N :   -0.229502
   3 C :    0.040916
   4 C :   -0.131228
   5 C :   -0.147345
   6 C :    0.101407
   7 F :   -0.108130
   8 C :   -0.153974
   9 C :   -0.153313
  10 N :   -0.111389
  11 C :   -0.164414
  12 C :    0.219333
  13 F :   -0.128439
  14 F :   -0.132765
  15 C :   -0.057915
  16 C :   -0.109961
  17 C :   -0.124575
  18 C :   -0.116025
  19 C :   -0.125037
  20 C :   -0.014564
  21 C :   -0.041571
  22 C :   -0.012157
  23 C :   -0.129429
  24 C :   -0.104783
  25 C :   -0.068712
  26 C :    0.310773
  27 F :   -0.112292
  28 F :   -0.113258
  29 F :   -0.113195
  30 C :   -0.110254
  31 C :   -0.122184
  32 H :    0.255562
  33 H :    0.148000
  34 H :    0.147163
  35 H :    0.143502
  36 H :    0.131809
  37 H :    0.131211
  38 H :    0.164923
  39 H :    0.144838
  40 H :    0.137264
  41 H :    0.137860
  42 H :    0.139512
  43 H :    0.134567
  44 H :    0.132568
  45 H :    0.146472
  46 H :    0.145783
  47 H :    0.139073

  Mayer bond orders larger than 0.100000
B(  0-O ,  1-C ) :   1.8219 B(  1-C ,  2-N ) :   0.9891 B(  1-C , 10-N ) :   1.0503
B(  2-N ,  3-C ) :   0.8849 B(  2-N , 32-H ) :   0.8241 B(  3-C ,  4-C ) :   1.4098
B(  3-C ,  9-C ) :   1.4013 B(  4-C ,  5-C ) :   1.4313 B(  4-C , 33-H ) :   0.9072
B(  5-C ,  6-C ) :   1.3846 B(  5-C , 34-H ) :   0.9188 B(  6-C ,  7-F ) :   0.9122
B(  6-C ,  8-C ) :   1.3984 B(  8-C ,  9-C ) :   1.4288 B(  8-C , 35-H ) :   0.9207
B(  9-C , 36-H ) :   0.9248 B( 10-N , 11-C ) :   0.9193 B( 10-N , 21-C ) :   0.9072
B( 11-C , 12-C ) :   0.9466 B( 11-C , 37-H ) :   0.9113 B( 11-C , 38-H ) :   0.9025
B( 12-C , 13-F ) :   0.8816 B( 12-C , 14-F ) :   0.9408 B( 12-C , 15-C ) :   0.9684
B( 15-C , 16-C ) :   1.3948 B( 15-C , 20-C ) :   1.4217 B( 16-C , 17-C ) :   1.4461
B( 16-C , 39-H ) :   0.9185 B( 17-C , 18-C ) :   1.4354 B( 17-C , 40-H ) :   0.9286
B( 18-C , 19-C ) :   1.4495 B( 18-C , 41-H ) :   0.9282 B( 19-C , 20-C ) :   1.4011
B( 19-C , 42-H ) :   0.9176 B( 20-C , 21-C ) :   0.9682 B( 21-C , 22-C ) :   0.9410
B( 21-C , 43-H ) :   0.9081 B( 22-C , 23-C ) :   1.4099 B( 22-C , 31-C ) :   1.4114
B( 23-C , 24-C ) :   1.4167 B( 23-C , 44-H ) :   0.9238 B( 24-C , 25-C ) :   1.4169
B( 24-C , 45-H ) :   0.9182 B( 25-C , 26-C ) :   0.9793 B( 25-C , 30-C ) :   1.4030
B( 26-C , 27-F ) :   0.9861 B( 26-C , 28-F ) :   0.9478 B( 26-C , 29-F ) :   0.9485
B( 30-C , 31-C ) :   1.4342 B( 30-C , 46-H ) :   0.9191 B( 31-C , 47-H ) :   0.9178

FINAL SINGLE POINT ENERGY     -1668.970305446189

DIPOLE MOMENT
-------------

Method             : SCF
Type of density    : Electron Density
Multiplicity       :   1
Irrep              :   0
Energy             : -1668.9703054461888314 Eh
Relativity type    :
Basis              : AO
                                X                 Y                 Z
Electronic contribution:      1.541769792      15.375235808      -8.407660228
Nuclear contribution   :     -3.212523966     -16.166292842       9.627132811
                        -----------------------------------------
Total Dipole Moment    :     -1.670754174      -0.791057034       1.219472583
                        -----------------------------------------
Magnitude (a.u.)       :      2.214566351
Magnitude (Debye)      :      5.628980321

Rotational constants in cm-1:             0.006888             0.003030             0.002388
Rotational constants in MHz :           206.485077            90.844297            71.600780

                             ****ORCA TERMINATED NORMALLY****
TOTAL RUN TIME: 0 days 0 hours 8 minutes 6 seconds 452 msec
