                         Program Version 6.0.0  -   RELEASE  -
|  1> ! B3LYP 6-31G* SP
|  2>
|  3> * xyz 0 1
|  4> O 6.5956 1.1529 -0.4599
|  5> C 5.6550 0.7147 -1.1767
|  6> O 5.8504 0.5789 -2.5487
|  7> C 4.3570 0.3488 -0.5684
|  8> C 4.1506 0.4812 0.8170
|  9> C 2.9207 0.1380 1.3863
| 10> C 1.8809 -0.3431 0.5803
| 11> S 0.3106 -0.7408 1.2713
| 12> O 0.0952 -2.2209 1.1253
| 13> O 0.2718 -0.3793 2.7302
| 14> N -0.9211 0.1606 0.4281
| 15> C -2.3324 -0.2128 0.5954
| 16> C -2.5967 -1.6521 0.2219
| 17> C -2.1310 -2.1771 -0.9947
| 18> C -2.4163 -3.4966 -1.3492
| 19> C -3.1707 -4.3059 -0.4975
| 20> C -3.6348 -3.8060 0.7313
| 21> C -4.4962 -4.6582 1.6295
| 22> F -4.2079 -6.0018 1.4590
| 23> F -4.2798 -4.3351 2.9584
| 24> F -5.8271 -4.4406 1.3234
| 25> C -3.3656 -2.4678 1.0702
| 26> C -0.6124 1.5259 0.0984
| 27> N -0.0062 2.3122 1.0302
| 28> C 0.3294 3.6053 0.7855
| 29> C 0.0448 4.1859 -0.4586
| 30> C 0.4612 5.6022 -0.7635
| 31> F 1.7331 5.5965 -1.3051
| 32> F 0.4650 6.3708 0.3878
| 33> F -0.4120 6.1814 -1.6680
| 34> C -0.5464 3.3860 -1.4471
| 35> C -0.8856 2.0573 -1.1757
| 36> Cl -1.5831 1.0881 -2.4635
| 37> C 2.0809 -0.4796 -0.7982
| 38> C 3.3090 -0.1363 -1.3702
| 39> H 6.7348 0.8276 -2.9756
| 40> H 4.9381 0.8528 1.4611
| 41> H 2.7818 0.2547 2.4533
| 42> H -2.6210 -0.0220 1.6518
| 43> H -2.9830 0.4286 -0.0369
| 44> H -1.5357 -1.5736 -1.6641
| 45> H -2.0546 -3.8924 -2.2896
| 46> H -3.3935 -5.3209 -0.8015
| 47> H -3.7563 -2.0598 1.9946
| 48> H 0.8217 4.1756 1.5623
| 49> H -0.7353 3.7902 -2.4341
| 50> H 1.2813 -0.8447 -1.4312
| 51> H 3.4355 -0.2486 -2.4396
| 52> *
| 53>
| 54>                          ****END OF INPUT****

CARTESIAN COORDINATES (ANGSTROEM)
---------------------------------
  O      6.595600    1.152900   -0.459900
  C      5.655000    0.714700   -1.176700
  O      5.850400    0.578900   -2.548700
  C      4.357000    0.348800   -0.568400
  C      4.150600    0.481200    0.817000
  C      2.920700    0.138000    1.386300
  C      1.880900   -0.343100    0.580300
  S      0.310600   -0.740800    1.271300
  O      0.095200   -2.220900    1.125300
  O      0.271800   -0.379300    2.730200
  N     -0.921100    0.160600    0.428100
  C     -2.332400   -0.212800    0.595400
  C     -2.596700   -1.652100    0.221900
  C     -2.131000   -2.177100   -0.994700
  C     -2.416300   -3.496600   -1.349200
  C     -3.170700   -4.305900   -0.497500
  C     -3.634800   -3.806000    0.731300
  C     -4.496200   -4.658200    1.629500
  F     -4.207900   -6.001800    1.459000
  F     -4.279800   -4.335100    2.958400
  F     -5.827100   -4.440600    1.323400
  C     -3.365600   -2.467800    1.070200
  C     -0.612400    1.525900    0.098400
  N     -0.006200    2.312200    1.030200
  C      0.329400    3.605300    0.785500
  C      0.044800    4.185900   -0.458600
  C      0.461200    5.602200   -0.763500
  F      1.733100    5.596500   -1.305100
  F      0.465000    6.370800    0.387800
  F     -0.412000    6.181400   -1.668000
  C     -0.546400    3.386000   -1.447100
  C     -0.885600    2.057300   -1.175700
  Cl    -1.583100    1.088100   -2.463500
  C      2.080900   -0.479600   -0.798200
  C      3.309000   -0.136300   -1.370200
  H      6.734800    0.827600   -2.975600
  H      4.938100    0.852800    1.461100
  H      2.781800    0.254700    2.453300
  H     -2.621000   -0.022000    1.651800
  H     -2.983000    0.428600   -0.036900
  H     -1.535700   -1.573600   -1.664100
  H     -2.054600   -3.892400   -2.289600
  H     -3.393500   -5.320900   -0.801500
  H     -3.756300   -2.059800    1.994600
  H      0.821700    4.175600    1.562300
  H     -0.735300    3.790200   -2.434100
  H      1.281300   -0.844700   -1.431200
  H      3.435500   -0.248600   -2.439600

 Total Charge           Charge          ....    0
 Multiplicity           Mult            ....    1
 Number of Electrons    NEL             ....  272
 Basis Dimension        Dim             ....  524

ORBITAL ENERGIES
----------------

  NO   OCC          E(Eh)            E(eV)
   0   2.0000    -101.567474     -2763.7915
   1   2.0000     -89.108482     -2424.7651
   2   2.0000     -24.742320      -673.2728
   3   2.0000     -24.742143      -673.2679
   4   2.0000     -24.738501      -673.1688
   5   2.0000     -24.711638      -672.4379
   6   2.0000     -24.710368      -672.4033
   7   2.0000     -24.708648      -672.3565
   8   2.0000     -19.202487      -522.5262
   9   2.0000     -19.144510      -520.9486
  10   2.0000     -19.135012      -520.6901
  11   2.0000     -19.127214      -520.4779
  12   2.0000     -14.396512      -391.7490
  13   2.0000     -14.372427      -391.0936
  14   2.0000     -10.460866      -284.6546
  15   2.0000     -10.426739      -283.7260
  16   2.0000     -10.341971      -281.4193
  17   2.0000     -10.310917      -280.5743
  18   2.0000     -10.293214      -280.0926
  19   2.0000     -10.266015      -279.3525
  20   2.0000     -10.253075      -279.0004
  21   2.0000     -10.252358      -278.9808
  22   2.0000     -10.250298      -278.9248
  23   2.0000     -10.249582      -278.9053
  24   2.0000     -10.240211      -278.6503
  25   2.0000     -10.230658      -278.3903
  26   2.0000     -10.227628      -278.3079
  27   2.0000     -10.225933      -278.2618
  28   2.0000     -10.224685      -278.2278
  29   2.0000     -10.206864      -277.7429
  30   2.0000     -10.205685      -277.7108
  31   2.0000     -10.197319      -277.4832
  32   2.0000     -10.195156      -277.4243
  33   2.0000     -10.192073      -277.3404
  34   2.0000     -10.191307      -277.3196
  35   2.0000      -9.498652      -258.4715
  36   2.0000      -8.144600      -221.6258
  37   2.0000      -7.261910      -197.6066
  38   2.0000      -7.252335      -197.3461
  39   2.0000      -7.251745      -197.3300
  40   2.0000      -6.110054      -166.2630
  41   2.0000      -6.107422      -166.1914
  42   2.0000      -6.106878      -166.1766
  43   2.0000      -1.301909       -35.4268
  44   2.0000      -1.270930       -34.5838
  45   2.0000      -1.227281       -33.3960
  46   2.0000      -1.225845       -33.3569
  47   2.0000      -1.196374       -32.5550
  48   2.0000      -1.195612       -32.5343
  49   2.0000      -1.092360       -29.7246
  50   2.0000      -1.087094       -29.5813
  51   2.0000      -1.001262       -27.2457
  52   2.0000      -0.999582       -27.2000
  53   2.0000      -0.968281       -26.3483
  54   2.0000      -0.941972       -25.6324
  55   2.0000      -0.907747       -24.7010
  56   2.0000      -0.898955       -24.4618
  57   2.0000      -0.867497       -23.6058
  58   2.0000      -0.848160       -23.0796
  59   2.0000      -0.817292       -22.2396
  60   2.0000      -0.799434       -21.7537
  61   2.0000      -0.785373       -21.3711
  62   2.0000      -0.782984       -21.3061
  63   2.0000      -0.768396       -20.9091
  64   2.0000      -0.733630       -19.9631
  65   2.0000      -0.728194       -19.8152
  66   2.0000      -0.694003       -18.8848
  67   2.0000      -0.687774       -18.7153
  68   2.0000      -0.682399       -18.5690
  69   2.0000      -0.660682       -17.9781
  70   2.0000      -0.647346       -17.6152
  71   2.0000      -0.635616       -17.2960
  72   2.0000      -0.616378       -16.7725
  73   2.0000      -0.615441       -16.7470
  74   2.0000      -0.599262       -16.3067
  75   2.0000      -0.594091       -16.1660
  76   2.0000      -0.592669       -16.1274
  77   2.0000      -0.583240       -15.8708
  78   2.0000      -0.577910       -15.7257
  79   2.0000      -0.562122       -15.2961
  80   2.0000      -0.558763       -15.2047
  81   2.0000      -0.553045       -15.0491
  82   2.0000      -0.549078       -14.9412
  83   2.0000      -0.540868       -14.7178
  84   2.0000      -0.508971       -13.8498
  85   2.0000      -0.502698       -13.6791
  86   2.0000      -0.501098       -13.6356
  87   2.0000      -0.491975       -13.3873
  88   2.0000      -0.484254       -13.1772
  89   2.0000      -0.481207       -13.0943
  90   2.0000      -0.478302       -13.0153
  91   2.0000      -0.473291       -12.8789
  92   2.0000      -0.469324       -12.7709
  93   2.0000      -0.468779       -12.7561
  94   2.0000      -0.467533       -12.7222
  95   2.0000      -0.456385       -12.4189
  96   2.0000      -0.455074       -12.3832
  97   2.0000      -0.450821       -12.2675
  98   2.0000      -0.448737       -12.2108
  99   2.0000      -0.445978       -12.1357
 100   2.0000      -0.440714       -11.9924
 101   2.0000      -0.439306       -11.9541
 102   2.0000      -0.438469       -11.9313
 103   2.0000      -0.436791       -11.8857
 104   2.0000      -0.435254       -11.8439
 105   2.0000      -0.424587       -11.5536
 106   2.0000      -0.422651       -11.5009
 107   2.0000      -0.421354       -11.4656
 108   2.0000      -0.419340       -11.4108
 109   2.0000      -0.412728       -11.2309
 110   2.0000      -0.405405       -11.0316
 111   2.0000      -0.401454       -10.9241
 112   2.0000      -0.399060       -10.8590
 113   2.0000      -0.393994       -10.7211
 114   2.0000      -0.391433       -10.6514
 115   2.0000      -0.389957       -10.6113
 116   2.0000      -0.381552       -10.3825
 117   2.0000      -0.376281       -10.2391
 118   2.0000      -0.367270        -9.9939
 119   2.0000      -0.362167        -9.8551
 120   2.0000      -0.356148        -9.6913
 121   2.0000      -0.344938        -9.3862
 122   2.0000      -0.340451        -9.2642
 123   2.0000      -0.329730        -8.9724
 124   2.0000      -0.323692        -8.8081
 125   2.0000      -0.315191        -8.5768
 126   2.0000      -0.311771        -8.4837
 127   2.0000      -0.296941        -8.0802
 128   2.0000      -0.295711        -8.0467
 129   2.0000      -0.287947        -7.8354
 130   2.0000      -0.287390        -7.8203
 131   2.0000      -0.281020        -7.6469
 132   2.0000      -0.277128        -7.5410
 133   2.0000      -0.259187        -7.0528
 134   2.0000      -0.255672        -6.9572
 135   2.0000      -0.248148        -6.7524
 136   0.0000      -0.092169        -2.5080
 137   0.0000      -0.075702        -2.0600
 138   0.0000      -0.064297        -1.7496
 139   0.0000      -0.037402        -1.0178
 140   0.0000      -0.025270        -0.6876

MULLIKEN ATOMIC CHARGES
-----------------------
   0 O :   -0.441118
   1 C :    0.529957
   2 O :   -0.623704
   3 C :    0.084048
   4 C :   -0.140798
   5 C :   -0.133187
   6 C :   -0.139621
   7 S :    1.232434
   8 O :   -0.515169
   9 O :   -0.533750
  10 N :   -0.619673
  11 C :   -0.228405
  12 C :    0.153212
  13 C :   -0.131513
  14 C :   -0.123130
  15 C :   -0.157460
  16 C :   -0.008104
  17 C :    0.894609
  18 F :   -0.306244
  19 F :   -0.303768
  20 F :   -0.299364
  21 C :   -0.203567
  22 C :    0.385009
  23 N :   -0.363962
  24 C :   -0.000588
  25 C :   -0.029755
  26 C :    0.905756
  27 F :   -0.290397
  28 F :   -0.298992
  29 F :   -0.300395
  30 C :   -0.129761
  31 C :   -0.101094
  32 Cl:    0.026654
  33 C :   -0.148007
  34 C :   -0.146579
  35 H :    0.436033
  36 H :    0.185251
  37 H :    0.199299
  38 H :    0.189032
  39 H :    0.192246
  40 H :    0.138454
  41 H :    0.135439
  42 H :    0.149526
  43 H :    0.149824
  44 H :    0.188991
  45 H :    0.191313
  46 H :    0.176590
  47 H :    0.174429
Sum of atomic charges:    0.0000000

LOEWDIN ATOMIC CHARGES
----------------------
   0 O :   -0.257273
   1 C :    0.180222
   2 O :   -0.334173
   3 C :   -0.036040
   4 C :   -0.084216
   5 C :   -0.090612
   6 C :   -0.169528
   7 S :    1.267978
   8 O :   -0.548376
   9 O :   -0.569100
  10 N :   -0.283014
  11 C :   -0.139203
  12 C :   -0.023754
  13 C :   -0.107709
  14 C :   -0.121731
  15 C :   -0.111277
  16 C :   -0.065006
  17 C :    0.311133
  18 F :   -0.113528
  19 F :   -0.112791
  20 F :   -0.116411
  21 C :   -0.108387
  22 C :    0.055422
  23 N :   -0.111301
  24 C :   -0.042915
  25 C :   -0.080257
  26 C :    0.313091
  27 F :   -0.108226
  28 F :   -0.106750
  29 F :   -0.109346
  30 C :   -0.088736
  31 C :   -0.105004
  32 Cl:    0.063658
  33 C :   -0.106963
  34 C :   -0.099308
  35 H :    0.351093
  36 H :    0.162933
  37 H :    0.168771
  38 H :    0.140030
  39 H :    0.153715
  40 H :    0.134339
  41 H :    0.135549
  42 H :    0.142322
  43 H :    0.142318
  44 H :    0.155374
  45 H :    0.164006
  46 H :    0.153527
  47 H :    0.155452

  Mayer bond orders larger than 0.100000
B(  0-O ,  1-C ) :   1.8645 B(  1-C ,  2-O ) :   1.0264 B(  1-C ,  3-C ) :   1.0066
B(  2-O , 35-H ) :   0.7406 B(  3-C ,  4-C ) :   1.4011 B(  3-C , 34-C ) :   1.3857
B(  4-C ,  5-C ) :   1.4165 B(  4-C , 36-H ) :   0.9083 B(  5-C ,  6-C ) :   1.4020
B(  5-C , 37-H ) :   0.9048 B(  6-C ,  7-S ) :   0.8125 B(  6-C , 33-C ) :   1.3854
B(  7-S ,  8-O ) :   1.6591 B(  7-S ,  9-O ) :   1.6535 B(  7-S , 10-N ) :   0.7550
B( 10-N , 11-C ) :   0.8972 B( 10-N , 22-C ) :   0.9583 B( 11-C , 12-C ) :   0.9699
B( 11-C , 38-H ) :   0.9169 B( 11-C , 39-H ) :   0.9096 B( 12-C , 13-C ) :   1.4207
B( 12-C , 21-C ) :   1.4238 B( 13-C , 14-C ) :   1.4492 B( 13-C , 40-H ) :   0.9125
B( 14-C , 15-C ) :   1.4290 B( 14-C , 41-H ) :   0.9291 B( 15-C , 16-C ) :   1.4225
B( 15-C , 42-H ) :   0.9204 B( 16-C , 17-C ) :   0.9779 B( 16-C , 21-C ) :   1.3958
B( 17-C , 18-F ) :   0.9460 B( 17-C , 19-F ) :   0.9502 B( 17-C , 20-F ) :   0.9829
B( 21-C , 43-H ) :   0.9119 B( 22-C , 23-N ) :   1.3935 B( 22-C , 31-C ) :   1.3257
B( 23-N , 24-C ) :   1.4023 B( 24-C , 25-C ) :   1.3602 B( 24-C , 44-H ) :   0.9158
B( 25-C , 26-C ) :   0.9731 B( 25-C , 30-C ) :   1.4042 B( 26-C , 27-F ) :   0.9909
B( 26-C , 28-F ) :   0.9515 B( 26-C , 29-F ) :   0.9517 B( 30-C , 31-C ) :   1.4013
B( 30-C , 45-H ) :   0.9071 B( 31-C , 32-Cl) :   1.0418 B( 33-C , 34-C ) :   1.4266
B( 33-C , 46-H ) :   0.9116 B( 34-C , 47-H ) :   0.9141

FINAL SINGLE POINT ENERGY     -2674.734663903725

DIPOLE MOMENT
-------------

Method             : SCF
Type of density    : Electron Density
Multiplicity       :   1
Irrep              :   0
Energy             : -2674.7346639037250497 Eh
Relativity type    :
Basis              : AO
                                X                 Y                 Z
Electronic contribution:    -17.099343096      10.215300123       1.921047847
Nuclear contribution   :     17.644717827      -8.718870835      -4.377087694
                        -----------------------------------------
Total Dipole Moment    :      0.545374731       1.496429288      -2.456039847
                        -----------------------------------------
Magnitude (a.u.)       :      2.927262534
Magnitude (Debye)      :      7.440510055

Rotational constants in cm-1:             0.004730             0.001839             0.001529
Rotational constants in MHz :           141.809637            55.121248            45.850753

                             ****ORCA TERMINATED NORMALLY****
TOTAL RUN TIME: 0 days 0 hours 8 minutes 50 seconds 485 msec
