                         Program Version 6.0.0  -   RELEASE  -
|  1> ! B3LYP 6-31G* SP
|  2>
|  3> * xyz 0 1
|  4> C -2.1058 -0.0383 -3.0587
|  5> N -2.8477 0.2864 -1.8241
|  6> C -2.4525 -0.2616 -0.6350
|  7> O -1.4614 -1.0399 -0.6253
|  8> C -3.1461 0.0355 0.5636
|  9> C -2.7587 -0.4707 1.8530
| 10> C -1.5553 -1.3647 2.1012
| 11> C -0.2702 -0.5910 2.0080
| 12> O -0.1623 0.5044 2.6228
| 13> N 0.8447 -1.1379 1.2865
| 14> C 2.0136 -0.3954 0.9119
| 15> N 3.0843 -0.9769 0.3314
| 16> C 4.0590 -0.0750 0.0253
| 17> C 5.3159 -0.4956 -0.6393
| 18> C 5.3022 -1.6166 -1.4902
| 19> C 6.4711 -2.0362 -2.1338
| 20> Cl 6.4341 -3.4285 -3.2004
| 21> C 7.6681 -1.3465 -1.9280
| 22> C 7.6996 -0.2424 -1.0743
| 23> C 6.5349 0.1841 -0.4275
| 24> F 6.6183 1.2262 0.4371
| 25> C 3.7466 1.2488 0.3461
| 26> S 2.2151 1.2709 1.0397
| 27> C -3.4967 -0.0966 2.9869
| 28> C -4.5994 0.7337 2.8805
| 29> C -4.9933 1.2191 1.6429
| 30> C -4.2841 0.8879 0.4635
| 31> N -4.6843 1.3742 -0.7642
| 32> C -5.8840 2.2336 -0.8770
| 33> C -3.9686 1.0665 -1.8938
| 34> O -4.3472 1.5045 -3.0180
| 35> H -2.1726 0.7832 -3.8038
| 36> H -2.5142 -0.9696 -3.5049
| 37> H -1.0218 -0.1748 -2.8554
| 38> H -1.5671 -2.2331 1.4115
| 39> H -1.5975 -1.8178 3.1155
| 40> H 0.7994 -2.1395 0.9927
| 41> H 4.3809 -2.1584 -1.6665
| 42> H 8.5755 -1.6692 -2.4225
| 43> H 8.6333 0.2788 -0.9055
| 44> H 4.3517 2.1229 0.1493
| 45> H -3.2154 -0.4485 3.9722
| 46> H -5.1551 1.0064 3.7688
| 47> H -5.8605 1.8629 1.6320
| 48> H -5.7336 3.1703 -0.2990
| 49> H -6.1169 2.5334 -1.9192
| 50> H -6.7760 1.6908 -0.4976
| 51> *
| 52>
| 53>                          ****END OF INPUT****

CARTESIAN COORDINATES (ANGSTROEM)
---------------------------------
  C     -2.105800   -0.038300   -3.058700
  N     -2.847700    0.286400   -1.824100
  C     -2.452500   -0.261600   -0.635000
  O     -1.461400   -1.039900   -0.625300
  C     -3.146100    0.035500    0.563600
  C     -2.758700   -0.470700    1.853000
  C     -1.555300   -1.364700    2.101200
  C     -0.270200   -0.591000    2.008000
  O     -0.162300    0.504400    2.622800
  N      0.844700   -1.137900    1.286500
  C      2.013600   -0.395400    0.911900
  N      3.084300   -0.976900    0.331400
  C      4.059000   -0.075000    0.025300
  C      5.315900   -0.495600   -0.639300
  C      5.302200   -1.616600   -1.490200
  C      6.471100   -2.036200   -2.133800
  Cl     6.434100   -3.428500   -3.200400
  C      7.668100   -1.346500   -1.928000
  C      7.699600   -0.242400   -1.074300
  C      6.534900    0.184100   -0.427500
  F      6.618300    1.226200    0.437100
  C      3.746600    1.248800    0.346100
  S      2.215100    1.270900    1.039700
  C     -3.496700   -0.096600    2.986900
  C     -4.599400    0.733700    2.880500
  C     -4.993300    1.219100    1.642900
  C     -4.284100    0.887900    0.463500
  N     -4.684300    1.374200   -0.764200
  C     -5.884000    2.233600   -0.877000
  C     -3.968600    1.066500   -1.893800
  O     -4.347200    1.504500   -3.018000
  H     -2.172600    0.783200   -3.803800
  H     -2.514200   -0.969600   -3.504900
  H     -1.021800   -0.174800   -2.855400
  H     -1.567100   -2.233100    1.411500
  H     -1.597500   -1.817800    3.115500
  H      0.799400   -2.139500    0.992700
  H      4.380900   -2.158400   -1.666500
  H      8.575500   -1.669200   -2.422500
  H      8.633300    0.278800   -0.905500
  H      4.351700    2.122900    0.149300
  H     -3.215400   -0.448500    3.972200
  H     -5.155100    1.006400    3.768800
  H     -5.860500    1.862900    1.632000
  H     -5.733600    3.170300   -0.299000
  H     -6.116900    2.533400   -1.919200
  H     -6.776000    1.690800   -0.497600

 Total Charge           Charge          ....    0
 Multiplicity           Mult            ....    1
 Number of Electrons    NEL             ....  236
 Basis Dimension        Dim             ....  474

ORBITAL ENERGIES
----------------

  NO   OCC          E(Eh)            E(eV)
   0   2.0000    -101.524114     -2762.6116
   1   2.0000     -88.895443     -2418.9680
   2   2.0000     -24.705815      -672.2794
   3   2.0000     -19.126367      -520.4549
   4   2.0000     -19.118060      -520.2289
   5   2.0000     -19.111732      -520.0567
   6   2.0000     -14.405192      -391.9852
   7   2.0000     -14.399135      -391.8204
   8   2.0000     -14.384331      -391.4175
   9   2.0000     -14.324508      -389.7897
  10   2.0000     -10.327761      -281.0327
  11   2.0000     -10.306890      -280.4647
  12   2.0000     -10.298621      -280.2397
  13   2.0000     -10.282438      -279.7994
  14   2.0000     -10.274847      -279.5928
  15   2.0000     -10.261783      -279.2373
  16   2.0000     -10.242840      -278.7219
  17   2.0000     -10.235619      -278.5253
  18   2.0000     -10.228222      -278.3241
  19   2.0000     -10.221271      -278.1349
  20   2.0000     -10.220514      -278.1143
  21   2.0000     -10.216591      -278.0076
  22   2.0000     -10.209408      -277.8121
  23   2.0000     -10.208295      -277.7818
  24   2.0000     -10.206851      -277.7425
  25   2.0000     -10.203409      -277.6489
  26   2.0000     -10.198871      -277.5254
  27   2.0000     -10.198348      -277.5111
  28   2.0000     -10.196653      -277.4650
  29   2.0000     -10.195947      -277.4458
  30   2.0000     -10.195669      -277.4382
  31   2.0000      -9.455958      -257.3097
  32   2.0000      -7.971812      -216.9240
  33   2.0000      -7.218999      -196.4389
  34   2.0000      -7.209540      -196.1816
  35   2.0000      -7.209281      -196.1745
  36   2.0000      -5.934920      -161.4974
  37   2.0000      -5.930690      -161.3823
  38   2.0000      -5.928786      -161.3305
  39   2.0000      -1.218677       -33.1619
  40   2.0000      -1.071336       -29.1525
  41   2.0000      -1.028586       -27.9893
  42   2.0000      -1.025486       -27.9049
  43   2.0000      -0.972892       -26.4737
  44   2.0000      -0.970460       -26.4076
  45   2.0000      -0.943202       -25.6658
  46   2.0000      -0.907600       -24.6970
  47   2.0000      -0.886512       -24.1232
  48   2.0000      -0.872291       -23.7362
  49   2.0000      -0.836948       -22.7745
  50   2.0000      -0.802914       -21.8484
  51   2.0000      -0.800377       -21.7794
  52   2.0000      -0.790414       -21.5082
  53   2.0000      -0.776744       -21.1363
  54   2.0000      -0.748480       -20.3672
  55   2.0000      -0.736909       -20.0523
  56   2.0000      -0.730861       -19.8877
  57   2.0000      -0.717688       -19.5293
  58   2.0000      -0.706734       -19.2312
  59   2.0000      -0.659908       -17.9570
  60   2.0000      -0.655769       -17.8444
  61   2.0000      -0.635803       -17.3011
  62   2.0000      -0.622337       -16.9347
  63   2.0000      -0.615041       -16.7361
  64   2.0000      -0.603847       -16.4315
  65   2.0000      -0.578053       -15.7296
  66   2.0000      -0.568988       -15.4829
  67   2.0000      -0.558643       -15.2015
  68   2.0000      -0.549019       -14.9396
  69   2.0000      -0.534821       -14.5532
  70   2.0000      -0.518317       -14.1041
  71   2.0000      -0.510049       -13.8791
  72   2.0000      -0.506078       -13.7711
  73   2.0000      -0.496384       -13.5073
  74   2.0000      -0.489262       -13.3135
  75   2.0000      -0.488487       -13.2924
  76   2.0000      -0.478293       -13.0150
  77   2.0000      -0.475873       -12.9492
  78   2.0000      -0.464235       -12.6325
  79   2.0000      -0.462939       -12.5972
  80   2.0000      -0.462639       -12.5890
  81   2.0000      -0.454063       -12.3557
  82   2.0000      -0.449521       -12.2321
  83   2.0000      -0.444499       -12.0954
  84   2.0000      -0.437824       -11.9138
  85   2.0000      -0.429232       -11.6800
  86   2.0000      -0.424512       -11.5516
  87   2.0000      -0.419875       -11.4254
  88   2.0000      -0.414412       -11.2767
  89   2.0000      -0.409813       -11.1516
  90   2.0000      -0.406932       -11.0732
  91   2.0000      -0.403155       -10.9704
  92   2.0000      -0.397140       -10.8067
  93   2.0000      -0.391764       -10.6604
  94   2.0000      -0.390323       -10.6212
  95   2.0000      -0.387962       -10.5570
  96   2.0000      -0.385108       -10.4793
  97   2.0000      -0.378244       -10.2925
  98   2.0000      -0.373939       -10.1754
  99   2.0000      -0.365301        -9.9403
 100   2.0000      -0.361543        -9.8381
 101   2.0000      -0.360066        -9.7979
 102   2.0000      -0.346004        -9.4153
 103   2.0000      -0.325086        -8.8460
 104   2.0000      -0.317088        -8.6284
 105   2.0000      -0.307994        -8.3809
 106   2.0000      -0.303854        -8.2683
 107   2.0000      -0.286025        -7.7831
 108   2.0000      -0.276272        -7.5177
 109   2.0000      -0.271558        -7.3895
 110   2.0000      -0.270108        -7.3500
 111   2.0000      -0.267797        -7.2871
 112   2.0000      -0.259602        -7.0641
 113   2.0000      -0.254630        -6.9288
 114   2.0000      -0.251521        -6.8442
 115   2.0000      -0.237313        -6.4576
 116   2.0000      -0.233182        -6.3452
 117   2.0000      -0.206500        -5.6191
 118   0.0000      -0.061707        -1.6791
 119   0.0000      -0.032780        -0.8920
 120   0.0000      -0.025810        -0.7023
 121   0.0000      -0.017130        -0.4661
 122   0.0000      -0.006202        -0.1688

MULLIKEN ATOMIC CHARGES
-----------------------
   0 C :   -0.314792
   1 N :   -0.463826
   2 C :    0.510295
   3 O :   -0.510522
   4 C :    0.009196
   5 C :    0.133957
   6 C :   -0.437885
   7 C :    0.586715
   8 O :   -0.462207
   9 N :   -0.627179
  10 C :    0.261252
  11 N :   -0.430280
  12 C :    0.209098
  13 C :    0.033770
  14 C :   -0.156473
  15 C :   -0.074080
  16 Cl:   -0.020337
  17 C :   -0.118536
  18 C :   -0.200326
  19 C :    0.353826
  20 F :   -0.311752
  21 C :   -0.390182
  22 S :    0.311237
  23 C :   -0.178435
  24 C :   -0.105056
  25 C :   -0.196226
  26 C :    0.319579
  27 N :   -0.511453
  28 C :   -0.336518
  29 C :    0.672512
  30 O :   -0.509637
  31 H :    0.197615
  32 H :    0.177332
  33 H :    0.195320
  34 H :    0.181001
  35 H :    0.177189
  36 H :    0.358519
  37 H :    0.174008
  38 H :    0.155347
  39 H :    0.151701
  40 H :    0.187278
  41 H :    0.140820
  42 H :    0.145683
  43 H :    0.142194
  44 H :    0.174367
  45 H :    0.224496
  46 H :    0.171393
Sum of atomic charges:    0.0000000

LOEWDIN ATOMIC CHARGES
----------------------
   0 C :   -0.258324
   1 N :   -0.019090
   2 C :    0.115978
   3 O :   -0.297040
   4 C :   -0.072514
   5 C :    0.045569
   6 C :   -0.241534
   7 C :    0.160266
   8 O :   -0.265097
   9 N :   -0.188560
  10 C :   -0.075659
  11 N :   -0.187461
  12 C :   -0.011650
  13 C :   -0.036524
  14 C :   -0.113315
  15 C :   -0.095466
  16 Cl:    0.034086
  17 C :   -0.129513
  18 C :   -0.150439
  19 C :    0.117410
  20 F :   -0.097897
  21 C :   -0.342992
  22 S :    0.422967
  23 C :   -0.134891
  24 C :   -0.097084
  25 C :   -0.163205
  26 C :    0.054259
  27 N :   -0.026371
  28 C :   -0.265206
  29 C :    0.137122
  30 O :   -0.318634
  31 H :    0.153898
  32 H :    0.140588
  33 H :    0.152368
  34 H :    0.149035
  35 H :    0.148479
  36 H :    0.278310
  37 H :    0.158038
  38 H :    0.146709
  39 H :    0.147873
  40 H :    0.164707
  41 H :    0.139108
  42 H :    0.141268
  43 H :    0.140824
  44 H :    0.136301
  45 H :    0.168178
  46 H :    0.135125

  Mayer bond orders larger than 0.100000
B(  0-C ,  1-N ) :   0.9165 B(  0-C , 31-H ) :   0.9248 B(  0-C , 32-H ) :   0.9407
B(  0-C , 33-H ) :   0.9246 B(  1-N ,  2-C ) :   1.0047 B(  1-N , 29-C ) :   1.0383
B(  2-C ,  3-O ) :   1.7308 B(  2-C ,  4-C ) :   1.0647 B(  4-C ,  5-C ) :   1.3570
B(  4-C , 26-C ) :   1.2860 B(  5-C ,  6-C ) :   0.9967 B(  5-C , 23-C ) :   1.4428
B(  6-C ,  7-C ) :   0.9397 B(  6-C , 34-H ) :   0.9026 B(  6-C , 35-H ) :   0.9107
B(  7-C ,  8-O ) :   1.8308 B(  7-C ,  9-N ) :   1.0243 B(  9-N , 10-C ) :   0.9560
B(  9-N , 36-H ) :   0.8079 B( 10-C , 11-N ) :   1.4850 B( 10-C , 21-C ) :   0.1072
B( 10-C , 22-S ) :   1.1776 B( 11-N , 12-C ) :   1.2898 B( 12-C , 13-C ) :   1.0224
B( 12-C , 21-C ) :   1.5274 B( 13-C , 14-C ) :   1.3941 B( 13-C , 19-C ) :   1.3305
B( 14-C , 15-C ) :   1.3952 B( 14-C , 37-H ) :   0.9097 B( 15-C , 16-Cl) :   1.0103
B( 15-C , 17-C ) :   1.4129 B( 17-C , 18-C ) :   1.4310 B( 17-C , 38-H ) :   0.9239
B( 18-C , 19-C ) :   1.3870 B( 18-C , 39-H ) :   0.9181 B( 19-C , 20-F ) :   0.9181
B( 21-C , 22-S ) :   1.1115 B( 21-C , 40-H ) :   0.9003 B( 23-C , 24-C ) :   1.4036
B( 23-C , 41-H ) :   0.9212 B( 24-C , 25-C ) :   1.4705 B( 24-C , 42-H ) :   0.9255
B( 25-C , 26-C ) :   1.3441 B( 25-C , 43-H ) :   0.9143 B( 26-C , 27-N ) :   0.9697
B( 27-N , 28-C ) :   0.9341 B( 27-N , 29-C ) :   1.0462 B( 28-C , 44-H ) :   0.9317
B( 28-C , 45-H ) :   0.9139 B( 28-C , 46-H ) :   0.9319 B( 29-C , 30-O ) :   1.7856

FINAL SINGLE POINT ENERGY     -2211.896811734888

DIPOLE MOMENT
-------------

Method             : SCF
Type of density    : Electron Density
Multiplicity       :   1
Irrep              :   0
Energy             : -2211.8968117348881606 Eh
Relativity type    :
Basis              : AO
                                X                 Y                 Z
Electronic contribution:     37.674877621      -6.747890208      -2.829534435
Nuclear contribution   :    -39.458044934       6.935720515       3.552133581
                        -----------------------------------------
Total Dipole Moment    :     -1.783167313       0.187830307       0.722599145
                        -----------------------------------------
Magnitude (a.u.)       :      1.933162025
Magnitude (Debye)      :      4.913707370

Rotational constants in cm-1:             0.008317             0.001704             0.001572
Rotational constants in MHz :           249.323843            51.082648            47.120620

                             ****ORCA TERMINATED NORMALLY****
TOTAL RUN TIME: 0 days 0 hours 5 minutes 3 seconds 757 msec
