                         Program Version 6.0.0  -   RELEASE  -
|  1> ! B3LYP 6-31G* SP
|  2>
|  3> * xyz 0 1
|  4> C -0.8997 -1.5560 -1.7603
|  5> C -1.8455 -1.3229 -0.5837
|  6> N -1.1931 -0.5734 0.5102
|  7> C -0.5809 -1.3068 1.5970
|  8> O -0.6418 -0.8606 2.7777
|  9> C 0.1037 -2.5899 1.3693
| 10> C -0.4937 -3.7773 1.8165
| 11> C 0.1353 -5.0049 1.6023
| 12> C 1.3701 -5.0532 0.9524
| 13> C 1.9817 -3.8740 0.5180
| 14> C 1.3562 -2.6286 0.7282
| 15> O 1.9402 -1.4217 0.3096
| 16> C 3.1388 -1.3272 -0.4512
| 17> C 3.4114 0.1141 -0.7691
| 18> C 2.5923 0.7966 -1.6837
| 19> C 2.8217 2.1469 -1.9642
| 20> C 3.8714 2.8252 -1.3352
| 21> Cl 4.1559 4.5223 -1.6785
| 22> C 4.6870 2.1528 -0.4193
| 23> C 4.4569 0.8034 -0.1319
| 24> C -1.4825 0.8646 0.7071
| 25> C -1.2058 1.6812 -0.5691
| 26> C -1.4000 3.1901 -0.3294
| 27> C -2.5237 3.5196 0.6797
| 28> C -3.5795 2.4033 0.7901
| 29> N -4.2755 2.2269 -0.4872
| 30> C -2.9265 1.0734 1.2447
| 31> H -1.4464 -2.0933 -2.5642
| 32> H -0.5347 -0.5933 -2.1679
| 33> H -0.0360 -2.1775 -1.4647
| 34> H -2.7335 -0.7719 -0.9615
| 35> H -2.2225 -2.2994 -0.2087
| 36> H -1.4535 -3.7521 2.3190
| 37> H -0.3356 -5.9195 1.9400
| 38> H 1.8547 -6.0066 0.7853
| 39> H 2.9405 -3.9409 0.0233
| 40> H 3.0248 -1.8949 -1.3989
| 41> H 3.9815 -1.7666 0.1232
| 42> H 1.7749 0.2837 -2.1754
| 43> H 2.1810 2.6657 -2.6663
| 44> H 5.4976 2.6750 0.0764
| 45> H 5.0930 0.2994 0.5867
| 46> H -0.7791 1.2730 1.4710
| 47> H -0.1618 1.5032 -0.9057
| 48> H -1.8842 1.3594 -1.3878
| 49> H -0.4474 3.6281 0.0464
| 50> H -1.6231 3.6772 -1.3042
| 51> H -3.0125 4.4773 0.3929
| 52> H -2.0735 3.6766 1.6866
| 53> H -4.3252 2.7070 1.5602
| 54> H -5.0580 1.5465 -0.3459
| 55> H -4.7277 3.1343 -0.7470
| 56> H -3.5856 0.2230 0.9648
| 57> H -2.8820 1.0629 2.3568
| 58> *
| 59>
| 60>                          ****END OF INPUT****

CARTESIAN COORDINATES (ANGSTROEM)
---------------------------------
  C     -0.899700   -1.556000   -1.760300
  C     -1.845500   -1.322900   -0.583700
  N     -1.193100   -0.573400    0.510200
  C     -0.580900   -1.306800    1.597000
  O     -0.641800   -0.860600    2.777700
  C      0.103700   -2.589900    1.369300
  C     -0.493700   -3.777300    1.816500
  C      0.135300   -5.004900    1.602300
  C      1.370100   -5.053200    0.952400
  C      1.981700   -3.874000    0.518000
  C      1.356200   -2.628600    0.728200
  O      1.940200   -1.421700    0.309600
  C      3.138800   -1.327200   -0.451200
  C      3.411400    0.114100   -0.769100
  C      2.592300    0.796600   -1.683700
  C      2.821700    2.146900   -1.964200
  C      3.871400    2.825200   -1.335200
  Cl     4.155900    4.522300   -1.678500
  C      4.687000    2.152800   -0.419300
  C      4.456900    0.803400   -0.131900
  C     -1.482500    0.864600    0.707100
  C     -1.205800    1.681200   -0.569100
  C     -1.400000    3.190100   -0.329400
  C     -2.523700    3.519600    0.679700
  C     -3.579500    2.403300    0.790100
  N     -4.275500    2.226900   -0.487200
  C     -2.926500    1.073400    1.244700
  H     -1.446400   -2.093300   -2.564200
  H     -0.534700   -0.593300   -2.167900
  H     -0.036000   -2.177500   -1.464700
  H     -2.733500   -0.771900   -0.961500
  H     -2.222500   -2.299400   -0.208700
  H     -1.453500   -3.752100    2.319000
  H     -0.335600   -5.919500    1.940000
  H      1.854700   -6.006600    0.785300
  H      2.940500   -3.940900    0.023300
  H      3.024800   -1.894900   -1.398900
  H      3.981500   -1.766600    0.123200
  H      1.774900    0.283700   -2.175400
  H      2.181000    2.665700   -2.666300
  H      5.497600    2.675000    0.076400
  H      5.093000    0.299400    0.586700
  H     -0.779100    1.273000    1.471000
  H     -0.161800    1.503200   -0.905700
  H     -1.884200    1.359400   -1.387800
  H     -0.447400    3.628100    0.046400
  H     -1.623100    3.677200   -1.304200
  H     -3.012500    4.477300    0.392900
  H     -2.073500    3.676600    1.686600
  H     -4.325200    2.707000    1.560200
  H     -5.058000    1.546500   -0.345900
  H     -4.727700    3.134300   -0.747000
  H     -3.585600    0.223000    0.964800
  H     -2.882000    1.062900    2.356800

 Total Charge           Charge          ....    0
 Multiplicity           Mult            ....    1
 Number of Electrons    NEL             ....  206
 Basis Dimension        Dim             ....  436

ORBITAL ENERGIES
----------------

  NO   OCC          E(Eh)            E(eV)
   0   2.0000    -101.528988     -2762.7442
   1   2.0000     -19.169338      -521.6242
   2   2.0000     -19.100214      -519.7432
   3   2.0000     -14.333795      -390.0424
   4   2.0000     -14.303026      -389.2051
   5   2.0000     -10.273869      -279.5662
   6   2.0000     -10.253465      -279.0110
   7   2.0000     -10.250018      -278.9172
   8   2.0000     -10.247398      -278.8459
   9   2.0000     -10.209477      -277.8140
  10   2.0000     -10.202694      -277.6294
  11   2.0000     -10.202414      -277.6218
  12   2.0000     -10.199559      -277.5441
  13   2.0000     -10.199523      -277.5431
  14   2.0000     -10.199096      -277.5315
  15   2.0000     -10.198307      -277.5100
  16   2.0000     -10.197660      -277.4924
  17   2.0000     -10.193707      -277.3849
  18   2.0000     -10.189404      -277.2678
  19   2.0000     -10.188340      -277.2388
  20   2.0000     -10.186635      -277.1924
  21   2.0000     -10.180121      -277.0152
  22   2.0000     -10.168320      -276.6941
  23   2.0000     -10.165174      -276.6084
  24   2.0000     -10.163807      -276.5712
  25   2.0000     -10.162460      -276.5346
  26   2.0000     -10.159091      -276.4429
  27   2.0000      -9.460886      -257.4438
  28   2.0000      -7.223903      -196.5724
  29   2.0000      -7.214508      -196.3168
  30   2.0000      -7.214175      -196.3077
  31   2.0000      -1.050663       -28.5900
  32   2.0000      -0.996167       -27.1071
  33   2.0000      -0.900441       -24.5023
  34   2.0000      -0.890249       -24.2249
  35   2.0000      -0.875386       -23.8205
  36   2.0000      -0.855827       -23.2882
  37   2.0000      -0.840195       -22.8629
  38   2.0000      -0.790664       -21.5151
  39   2.0000      -0.775160       -21.0932
  40   2.0000      -0.759296       -20.6615
  41   2.0000      -0.758139       -20.6300
  42   2.0000      -0.743211       -20.2238
  43   2.0000      -0.736142       -20.0314
  44   2.0000      -0.712974       -19.4010
  45   2.0000      -0.706020       -19.2118
  46   2.0000      -0.680870       -18.5274
  47   2.0000      -0.637249       -17.3404
  48   2.0000      -0.624308       -16.9883
  49   2.0000      -0.619384       -16.8543
  50   2.0000      -0.607099       -16.5200
  51   2.0000      -0.595768       -16.2117
  52   2.0000      -0.586909       -15.9706
  53   2.0000      -0.584232       -15.8978
  54   2.0000      -0.549021       -14.9396
  55   2.0000      -0.525033       -14.2869
  56   2.0000      -0.514336       -13.9958
  57   2.0000      -0.508715       -13.8428
  58   2.0000      -0.495106       -13.4725
  59   2.0000      -0.492003       -13.3881
  60   2.0000      -0.480590       -13.0775
  61   2.0000      -0.477577       -12.9955
  62   2.0000      -0.474201       -12.9037
  63   2.0000      -0.467940       -12.7333
  64   2.0000      -0.465078       -12.6554
  65   2.0000      -0.457099       -12.4383
  66   2.0000      -0.445441       -12.1211
  67   2.0000      -0.438263       -11.9257
  68   2.0000      -0.434339       -11.8190
  69   2.0000      -0.431670       -11.7463
  70   2.0000      -0.425336       -11.5740
  71   2.0000      -0.417274       -11.3546
  72   2.0000      -0.415724       -11.3124
  73   2.0000      -0.399964       -10.8836
  74   2.0000      -0.394863       -10.7448
  75   2.0000      -0.393403       -10.7051
  76   2.0000      -0.385394       -10.4871
  77   2.0000      -0.382258       -10.4018
  78   2.0000      -0.377695       -10.2776
  79   2.0000      -0.369515       -10.0550
  80   2.0000      -0.368395       -10.0245
  81   2.0000      -0.363852        -9.9009
  82   2.0000      -0.360524        -9.8104
  83   2.0000      -0.358037        -9.7427
  84   2.0000      -0.354765        -9.6536
  85   2.0000      -0.352281        -9.5860
  86   2.0000      -0.341195        -9.2844
  87   2.0000      -0.335149        -9.1199
  88   2.0000      -0.331515        -9.0210
  89   2.0000      -0.326312        -8.8794
  90   2.0000      -0.320181        -8.7126
  91   2.0000      -0.314419        -8.5558
  92   2.0000      -0.312064        -8.4917
  93   2.0000      -0.305520        -8.3136
  94   2.0000      -0.298751        -8.1294
  95   2.0000      -0.291722        -7.9382
  96   2.0000      -0.262781        -7.1506
  97   2.0000      -0.259326        -7.0566
  98   2.0000      -0.245730        -6.6867
  99   2.0000      -0.234335        -6.3766
 100   2.0000      -0.226979        -6.1764
 101   2.0000      -0.219890        -5.9835
 102   2.0000      -0.205964        -5.6046
 103   0.0000      -0.022958        -0.6247
 104   0.0000      -0.015171        -0.4128
 105   0.0000      -0.013908        -0.3784
 106   0.0000       0.003446         0.0938
 107   0.0000       0.025318         0.6889

MULLIKEN ATOMIC CHARGES
-----------------------
   0 C :   -0.438382
   1 C :   -0.152890
   2 N :   -0.407942
   3 C :    0.436814
   4 O :   -0.468568
   5 C :    0.033239
   6 C :   -0.145373
   7 C :   -0.135938
   8 C :   -0.118362
   9 C :   -0.210591
  10 C :    0.350032
  11 O :   -0.512948
  12 C :   -0.104592
  13 C :    0.129178
  14 C :   -0.139136
  15 C :   -0.138552
  16 C :   -0.060210
  17 Cl:   -0.016374
  18 C :   -0.133215
  19 C :   -0.154019
  20 C :    0.045951
  21 C :   -0.275257
  22 C :   -0.255999
  23 C :   -0.270353
  24 C :    0.032071
  25 N :   -0.712588
  26 C :   -0.269637
  27 H :    0.128986
  28 H :    0.153625
  29 H :    0.157430
  30 H :    0.161207
  31 H :    0.145874
  32 H :    0.146076
  33 H :    0.128878
  34 H :    0.133047
  35 H :    0.137349
  36 H :    0.139850
  37 H :    0.139401
  38 H :    0.152882
  39 H :    0.155506
  40 H :    0.154122
  41 H :    0.142366
  42 H :    0.158208
  43 H :    0.134711
  44 H :    0.151452
  45 H :    0.132281
  46 H :    0.131820
  47 H :    0.121834
  48 H :    0.137125
  49 H :    0.098721
  50 H :    0.286900
  51 H :    0.286413
  52 H :    0.124003
  53 H :    0.153576
Sum of atomic charges:   -0.0000000

LOEWDIN ATOMIC CHARGES
----------------------
   0 C :   -0.369607
   1 C :   -0.157306
   2 N :   -0.104764
   3 C :    0.150607
   4 O :   -0.275761
   5 C :   -0.056816
   6 C :   -0.106204
   7 C :   -0.145556
   8 C :   -0.118741
   9 C :   -0.174087
  10 C :    0.095580
  11 O :   -0.181123
  12 C :   -0.080520
  13 C :   -0.030190
  14 C :   -0.111578
  15 C :   -0.132002
  16 C :   -0.083594
  17 Cl:    0.037455
  18 C :   -0.131406
  19 C :   -0.116374
  20 C :   -0.047265
  21 C :   -0.240199
  22 C :   -0.227976
  23 C :   -0.231517
  24 C :   -0.079202
  25 N :   -0.472816
  26 C :   -0.233099
  27 H :    0.118715
  28 H :    0.124196
  29 H :    0.129679
  30 H :    0.130735
  31 H :    0.123487
  32 H :    0.142310
  33 H :    0.132546
  34 H :    0.134093
  35 H :    0.136004
  36 H :    0.117858
  37 H :    0.116552
  38 H :    0.142600
  39 H :    0.145883
  40 H :    0.145438
  41 H :    0.139274
  42 H :    0.137785
  43 H :    0.121800
  44 H :    0.125549
  45 H :    0.118879
  46 H :    0.121114
  47 H :    0.115841
  48 H :    0.122518
  49 H :    0.093819
  50 H :    0.218421
  51 H :    0.218672
  52 H :    0.117775
  53 H :    0.132519

  Mayer bond orders larger than 0.100000
B(  0-C ,  1-C ) :   1.0045 B(  0-C , 27-H ) :   0.9431 B(  0-C , 28-H ) :   0.9402
B(  0-C , 29-H ) :   0.9389 B(  1-C ,  2-N ) :   0.9389 B(  1-C , 30-H ) :   0.9269
B(  1-C , 31-H ) :   0.9355 B(  2-N ,  3-C ) :   1.0815 B(  2-N , 20-C ) :   0.9259
B(  3-C ,  4-O ) :   1.8211 B(  3-C ,  5-C ) :   0.9085 B(  5-C ,  6-C ) :   1.4362
B(  5-C , 10-C ) :   1.3710 B(  6-C ,  7-C ) :   1.4341 B(  6-C , 32-H ) :   0.9227
B(  7-C ,  8-C ) :   1.4527 B(  7-C , 33-H ) :   0.9290 B(  8-C ,  9-C ) :   1.4378
B(  8-C , 34-H ) :   0.9298 B(  9-C , 10-C ) :   1.3467 B(  9-C , 35-H ) :   0.9174
B( 10-C , 11-O ) :   0.9277 B( 11-O , 12-C ) :   0.8969 B( 12-C , 13-C ) :   0.9929
B( 12-C , 36-H ) :   0.9101 B( 12-C , 37-H ) :   0.9141 B( 13-C , 14-C ) :   1.4243
B( 13-C , 19-C ) :   1.4424 B( 14-C , 15-C ) :   1.4371 B( 14-C , 38-H ) :   0.9138
B( 15-C , 16-C ) :   1.4092 B( 15-C , 39-H ) :   0.9227 B( 16-C , 17-Cl) :   1.0157
B( 16-C , 18-C ) :   1.4222 B( 18-C , 19-C ) :   1.4327 B( 18-C , 40-H ) :   0.9228
B( 19-C , 41-H ) :   0.9212 B( 20-C , 21-C ) :   1.0078 B( 20-C , 26-C ) :   0.9744
B( 20-C , 42-H ) :   0.9197 B( 21-C , 22-C ) :   0.9989 B( 21-C , 43-H ) :   0.9247
B( 21-C , 44-H ) :   0.9210 B( 22-C , 23-C ) :   0.9935 B( 22-C , 45-H ) :   0.9457
B( 22-C , 46-H ) :   0.9469 B( 23-C , 24-C ) :   1.0059 B( 23-C , 47-H ) :   0.9416
B( 23-C , 48-H ) :   0.9419 B( 24-C , 25-N ) :   0.9673 B( 24-C , 26-C ) :   0.9761
B( 24-C , 49-H ) :   0.9358 B( 25-N , 50-H ) :   0.8630 B( 25-N , 51-H ) :   0.8625
B( 26-C , 52-H ) :   0.9357 B( 26-C , 53-H ) :   0.9328

FINAL SINGLE POINT ENERGY     -1573.935144634215

DIPOLE MOMENT
-------------

Method             : SCF
Type of density    : Electron Density
Multiplicity       :   1
Irrep              :   0
Energy             : -1573.9351446342147938 Eh
Relativity type    :
Basis              : AO
                                X                 Y                 Z
Electronic contribution:     32.045732749       6.744002714       1.071357572
Nuclear contribution   :    -32.320811627      -7.491978660      -2.063350561
                        -----------------------------------------
Total Dipole Moment    :     -0.275078878      -0.747975946      -0.991992989
                        -----------------------------------------
Magnitude (a.u.)       :      1.272472591
Magnitude (Debye)      :      3.234368287

Rotational constants in cm-1:             0.005913             0.004554             0.002852
Rotational constants in MHz :           177.267678           136.529140            85.507417

                             ****ORCA TERMINATED NORMALLY****
TOTAL RUN TIME: 0 days 0 hours 4 minutes 56 seconds 481 msec
