                         Program Version 6.0.0  -   RELEASE  -
|  1> ! B3LYP 6-31G* SP
|  2>
|  3> * xyz 0 1
|  4> N -2.9365 -0.9227 -2.7704
|  5> C -1.5925 -1.1437 -2.3456
|  6> O -0.8793 -1.9783 -2.9618
|  7> C -1.0505 -0.4160 -1.1388
|  8> C -1.4108 -1.1358 0.1521
|  9> C -1.2559 -2.5327 0.2857
| 10> C -1.5425 -3.1652 1.4982
| 11> C -1.9781 -2.4146 2.5922
| 12> C -2.1288 -1.0299 2.4761
| 13> C -1.8487 -0.3925 1.2644
| 14> N 0.4055 -0.1745 -1.2648
| 15> C 0.8815 0.8659 -2.1881
| 16> C 0.5077 2.2370 -1.6927
| 17> C 1.2183 2.8207 -0.6315
| 18> C 0.8559 4.0838 -0.1530
| 19> C -0.2119 4.7734 -0.7318
| 20> C -0.9198 4.2024 -1.7940
| 21> C -0.5634 2.9385 -2.2744
| 22> C 1.3596 -1.1589 -0.8291
| 23> O 1.8211 -1.9767 -1.6737
| 24> C 1.8361 -1.1967 0.5754
| 25> C 2.6840 -2.2320 1.0132
| 26> C 3.1377 -2.2673 2.3367
| 27> C 2.7494 -1.2740 3.2374
| 28> C 1.9132 -0.2378 2.8132
| 29> C 1.4631 -0.1942 1.4900
| 30> H -3.5498 -0.2424 -2.2695
| 31> H -3.3227 -1.4470 -3.5873
| 32> H -1.5602 0.5714 -1.1196
| 33> H -0.8992 -3.1321 -0.5417
| 34> H -1.4209 -4.2379 1.5911
| 35> H -2.1958 -2.9053 3.5307
| 36> H -2.4586 -0.4485 3.3278
| 37> H -1.9563 0.6841 1.1997
| 38> H 1.9893 0.8215 -2.2921
| 39> H 0.4644 0.6837 -3.2026
| 40> H 2.0440 2.2930 -0.1691
| 41> H 1.3983 4.5242 0.6745
| 42> H -0.4921 5.7497 -0.3581
| 43> H -1.7459 4.7385 -2.2440
| 44> H -1.1234 2.5051 -3.0946
| 45> H 2.9900 -3.0205 0.3374
| 46> H 3.7895 -3.0677 2.6647
| 47> H 3.1001 -1.3046 4.2624
| 48> H 1.6146 0.5346 3.5102
| 49> H 0.8201 0.6220 1.1886
| 50> *
| 51>
| 52>                          ****END OF INPUT****

CARTESIAN COORDINATES (ANGSTROEM)
---------------------------------
  N     -2.936500   -0.922700   -2.770400
  C     -1.592500   -1.143700   -2.345600
  O     -0.879300   -1.978300   -2.961800
  C     -1.050500   -0.416000   -1.138800
  C     -1.410800   -1.135800    0.152100
  C     -1.255900   -2.532700    0.285700
  C     -1.542500   -3.165200    1.498200
  C     -1.978100   -2.414600    2.592200
  C     -2.128800   -1.029900    2.476100
  C     -1.848700   -0.392500    1.264400
  N      0.405500   -0.174500   -1.264800
  C      0.881500    0.865900   -2.188100
  C      0.507700    2.237000   -1.692700
  C      1.218300    2.820700   -0.631500
  C      0.855900    4.083800   -0.153000
  C     -0.211900    4.773400   -0.731800
  C     -0.919800    4.202400   -1.794000
  C     -0.563400    2.938500   -2.274400
  C      1.359600   -1.158900   -0.829100
  O      1.821100   -1.976700   -1.673700
  C      1.836100   -1.196700    0.575400
  C      2.684000   -2.232000    1.013200
  C      3.137700   -2.267300    2.336700
  C      2.749400   -1.274000    3.237400
  C      1.913200   -0.237800    2.813200
  C      1.463100   -0.194200    1.490000
  H     -3.549800   -0.242400   -2.269500
  H     -3.322700   -1.447000   -3.587300
  H     -1.560200    0.571400   -1.119600
  H     -0.899200   -3.132100   -0.541700
  H     -1.420900   -4.237900    1.591100
  H     -2.195800   -2.905300    3.530700
  H     -2.458600   -0.448500    3.327800
  H     -1.956300    0.684100    1.199700
  H      1.989300    0.821500   -2.292100
  H      0.464400    0.683700   -3.202600
  H      2.044000    2.293000   -0.169100
  H      1.398300    4.524200    0.674500
  H     -0.492100    5.749700   -0.358100
  H     -1.745900    4.738500   -2.244000
  H     -1.123400    2.505100   -3.094600
  H      2.990000   -3.020500    0.337400
  H      3.789500   -3.067700    2.664700
  H      3.100100   -1.304600    4.262400
  H      1.614600    0.534600    3.510200
  H      0.820100    0.622000    1.188600

 Total Charge           Charge          ....    0
 Multiplicity           Mult            ....    1
 Number of Electrons    NEL             ....  182
 Basis Dimension        Dim             ....  404

ORBITAL ENERGIES
----------------

  NO   OCC          E(Eh)            E(eV)
   0   2.0000     -19.113954      -520.1171
   1   2.0000     -19.099633      -519.7274
   2   2.0000     -14.350127      -390.4868
   3   2.0000     -14.324567      -389.7913
   4   2.0000     -10.281017      -279.7607
   5   2.0000     -10.280419      -279.7444
   6   2.0000     -10.234001      -278.4813
   7   2.0000     -10.210534      -277.8427
   8   2.0000     -10.197824      -277.4969
   9   2.0000     -10.189818      -277.2791
  10   2.0000     -10.189178      -277.2616
  11   2.0000     -10.186415      -277.1864
  12   2.0000     -10.186196      -277.1805
  13   2.0000     -10.184541      -277.1355
  14   2.0000     -10.184174      -277.1255
  15   2.0000     -10.183987      -277.1204
  16   2.0000     -10.183693      -277.1124
  17   2.0000     -10.183643      -277.1110
  18   2.0000     -10.183059      -277.0951
  19   2.0000     -10.182880      -277.0902
  20   2.0000     -10.182630      -277.0835
  21   2.0000     -10.182200      -277.0717
  22   2.0000     -10.182044      -277.0675
  23   2.0000     -10.181662      -277.0571
  24   2.0000     -10.181603      -277.0555
  25   2.0000     -10.180402      -277.0228
  26   2.0000      -1.008415       -27.4404
  27   2.0000      -0.997658       -27.1477
  28   2.0000      -0.908184       -24.7129
  29   2.0000      -0.873628       -23.7726
  30   2.0000      -0.853998       -23.2385
  31   2.0000      -0.849386       -23.1130
  32   2.0000      -0.846762       -23.0416
  33   2.0000      -0.779112       -21.2007
  34   2.0000      -0.760271       -20.6880
  35   2.0000      -0.748327       -20.3630
  36   2.0000      -0.743989       -20.2450
  37   2.0000      -0.743247       -20.2248
  38   2.0000      -0.740594       -20.1526
  39   2.0000      -0.703126       -19.1330
  40   2.0000      -0.673203       -18.3188
  41   2.0000      -0.622674       -16.9438
  42   2.0000      -0.606379       -16.5004
  43   2.0000      -0.605818       -16.4852
  44   2.0000      -0.599695       -16.3185
  45   2.0000      -0.597517       -16.2593
  46   2.0000      -0.582524       -15.8513
  47   2.0000      -0.571361       -15.5475
  48   2.0000      -0.541502       -14.7350
  49   2.0000      -0.523744       -14.2518
  50   2.0000      -0.519910       -14.1475
  51   2.0000      -0.509950       -13.8764
  52   2.0000      -0.496682       -13.5154
  53   2.0000      -0.485875       -13.2213
  54   2.0000      -0.475428       -12.9370
  55   2.0000      -0.466196       -12.6858
  56   2.0000      -0.460491       -12.5306
  57   2.0000      -0.453141       -12.3306
  58   2.0000      -0.446681       -12.1548
  59   2.0000      -0.445336       -12.1182
  60   2.0000      -0.435970       -11.8634
  61   2.0000      -0.431310       -11.7365
  62   2.0000      -0.422500       -11.4968
  63   2.0000      -0.420219       -11.4347
  64   2.0000      -0.416655       -11.3377
  65   2.0000      -0.414858       -11.2889
  66   2.0000      -0.406753       -11.0683
  67   2.0000      -0.403341       -10.9755
  68   2.0000      -0.387698       -10.5498
  69   2.0000      -0.377918       -10.2837
  70   2.0000      -0.374503       -10.1907
  71   2.0000      -0.365365        -9.9421
  72   2.0000      -0.358724        -9.7614
  73   2.0000      -0.355166        -9.6646
  74   2.0000      -0.352396        -9.5892
  75   2.0000      -0.343821        -9.3559
  76   2.0000      -0.342850        -9.3294
  77   2.0000      -0.341325        -9.2879
  78   2.0000      -0.337218        -9.1762
  79   2.0000      -0.336771        -9.1640
  80   2.0000      -0.328203        -8.9309
  81   2.0000      -0.259012        -7.0481
  82   2.0000      -0.254584        -6.9276
  83   2.0000      -0.253190        -6.8896
  84   2.0000      -0.251210        -6.8358
  85   2.0000      -0.248992        -6.7754
  86   2.0000      -0.244682        -6.6581
  87   2.0000      -0.241863        -6.5814
  88   2.0000      -0.240668        -6.5489
  89   2.0000      -0.231646        -6.3034
  90   2.0000      -0.203831        -5.5465
  91   0.0000      -0.051695        -1.4067
  92   0.0000      -0.013326        -0.3626
  93   0.0000      -0.005961        -0.1622
  94   0.0000      -0.004115        -0.1120
  95   0.0000      -0.000888        -0.0242

MULLIKEN ATOMIC CHARGES
-----------------------
   0 N :   -0.771047
   1 C :    0.570624
   2 O :   -0.462910
   3 C :   -0.124631
   4 C :    0.119216
   5 C :   -0.169897
   6 C :   -0.124071
   7 C :   -0.119501
   8 C :   -0.124380
   9 C :   -0.181486
  10 N :   -0.422951
  11 C :   -0.232000
  12 C :    0.165829
  13 C :   -0.171350
  14 C :   -0.132283
  15 C :   -0.125946
  16 C :   -0.128466
  17 C :   -0.184428
  18 C :    0.432086
  19 O :   -0.412182
  20 C :    0.110732
  21 C :   -0.155256
  22 C :   -0.132815
  23 C :   -0.114742
  24 C :   -0.134143
  25 C :   -0.161259
  26 H :    0.328626
  27 H :    0.349078
  28 H :    0.136861
  29 H :    0.175626
  30 H :    0.135275
  31 H :    0.128754
  32 H :    0.128005
  33 H :    0.131950
  34 H :    0.170198
  35 H :    0.154044
  36 H :    0.136705
  37 H :    0.129325
  38 H :    0.127530
  39 H :    0.127308
  40 H :    0.128978
  41 H :    0.158944
  42 H :    0.132802
  43 H :    0.130692
  44 H :    0.127175
  45 H :    0.149380
Sum of atomic charges:    0.0000000

LOEWDIN ATOMIC CHARGES
----------------------
   0 N :   -0.405471
   1 C :    0.127055
   2 O :   -0.275493
   3 C :   -0.064008
   4 C :   -0.023142
   5 C :   -0.122148
   6 C :   -0.123120
   7 C :   -0.123198
   8 C :   -0.129365
   9 C :   -0.129939
  10 N :   -0.139241
  11 C :   -0.137951
  12 C :   -0.027744
  13 C :   -0.129679
  14 C :   -0.128997
  15 C :   -0.132892
  16 C :   -0.130109
  17 C :   -0.142932
  18 C :    0.152151
  19 O :   -0.216668
  20 C :   -0.056332
  21 C :   -0.092356
  22 C :   -0.132420
  23 C :   -0.113645
  24 C :   -0.134408
  25 C :   -0.106994
  26 H :    0.248466
  27 H :    0.264162
  28 H :    0.131255
  29 H :    0.152778
  30 H :    0.134726
  31 H :    0.131739
  32 H :    0.131343
  33 H :    0.131568
  34 H :    0.143760
  35 H :    0.122630
  36 H :    0.135023
  37 H :    0.131502
  38 H :    0.131067
  39 H :    0.130624
  40 H :    0.130605
  41 H :    0.148976
  42 H :    0.133430
  43 H :    0.132129
  44 H :    0.130860
  45 H :    0.142405

  Mayer bond orders larger than 0.100000
B(  0-N ,  1-C ) :   1.0593 B(  0-N , 26-H ) :   0.8325 B(  0-N , 27-H ) :   0.8236
B(  1-C ,  2-O ) :   1.8422 B(  1-C ,  3-C ) :   0.8838 B(  3-C ,  4-C ) :   0.9770
B(  3-C , 10-N ) :   0.9999 B(  3-C , 28-H ) :   0.8913 B(  4-C ,  5-C ) :   1.4263
B(  4-C ,  9-C ) :   1.4281 B(  5-C ,  6-C ) :   1.4312 B(  5-C , 29-H ) :   0.9029
B(  6-C ,  7-C ) :   1.4524 B(  6-C , 30-H ) :   0.9293 B(  7-C ,  8-C ) :   1.4520
B(  7-C , 31-H ) :   0.9304 B(  8-C ,  9-C ) :   1.4389 B(  8-C , 32-H ) :   0.9296
B(  9-C , 33-H ) :   0.9233 B( 10-N , 11-C ) :   0.9434 B( 10-N , 18-C ) :   0.9363
B( 11-C , 12-C ) :   0.9458 B( 11-C , 34-H ) :   0.9285 B( 11-C , 35-H ) :   0.9173
B( 12-C , 13-C ) :   1.4204 B( 12-C , 17-C ) :   1.4306 B( 13-C , 14-C ) :   1.4448
B( 13-C , 36-H ) :   0.9196 B( 14-C , 15-C ) :   1.4463 B( 14-C , 37-H ) :   0.9298
B( 15-C , 16-C ) :   1.4606 B( 15-C , 38-H ) :   0.9305 B( 16-C , 17-C ) :   1.4302
B( 16-C , 39-H ) :   0.9297 B( 17-C , 40-H ) :   0.9227 B( 18-C , 19-O ) :   1.8844
B( 18-C , 20-C ) :   1.0097 B( 20-C , 21-C ) :   1.3816 B( 20-C , 25-C ) :   1.3856
B( 21-C , 22-C ) :   1.4374 B( 21-C , 41-H ) :   0.9131 B( 22-C , 23-C ) :   1.4355
B( 22-C , 42-H ) :   0.9305 B( 23-C , 24-C ) :   1.4488 B( 23-C , 43-H ) :   0.9303
B( 24-C , 25-C ) :   1.4300 B( 24-C , 44-H ) :   0.9309 B( 25-C , 45-H ) :   0.9017

FINAL SINGLE POINT ENERGY     -1109.618036145777

DIPOLE MOMENT
-------------

Method             : SCF
Type of density    : Electron Density
Multiplicity       :   1
Irrep              :   0
Energy             : -1109.6180361457766139 Eh
Relativity type    :
Basis              : AO
                                X                 Y                 Z
Electronic contribution:      2.509115707      -5.713984122      -4.741070897
Nuclear contribution   :     -3.798868614       6.951480572       6.148944893
                        -----------------------------------------
Total Dipole Moment    :     -1.289752907       1.237496450       1.407873996
                        -----------------------------------------
Magnitude (a.u.)       :      2.275295413
Magnitude (Debye)      :      5.783341329

Rotational constants in cm-1:             0.008619             0.006163             0.005118
Rotational constants in MHz :           258.401687           184.772722           153.429313

                             ****ORCA TERMINATED NORMALLY****
TOTAL RUN TIME: 0 days 0 hours 5 minutes 2 seconds 634 msec
