                         Program Version 6.0.0  -   RELEASE  -
|  1> ! B3LYP 6-31G* SP
|  2>
|  3> * xyz 0 1
|  4> C 6.1851 0.0824 -0.8520
|  5> C 5.6064 0.4136 0.5172
|  6> N 4.2390 -0.0797 0.6171
|  7> N 3.9105 -1.2884 1.0382
|  8> N 2.5981 -1.4288 0.9467
|  9> C 2.1534 -0.2576 0.4444
| 10> C 0.7329 0.0239 0.1703
| 11> S -0.5052 -1.0798 0.4551
| 12> C -1.7250 -0.0519 -0.0860
| 13> C -3.1711 -0.3697 -0.1308
| 14> C -3.6508 -1.6211 0.2991
| 15> C -5.0178 -1.9092 0.2519
| 16> C -5.9204 -0.9557 -0.2230
| 17> C -5.4606 0.2918 -0.6535
| 18> O -6.3721 1.2339 -1.1251
| 19> C -4.0897 0.5840 -0.6076
| 20> N -1.2079 1.1321 -0.4857
| 21> C 0.1447 1.1867 -0.3497
| 22> O 0.8395 2.3383 -0.7161
| 23> N 3.1723 0.5953 0.2259
| 24> H 7.2266 0.4615 -0.9192
| 25> H 6.1923 -1.0174 -1.0074
| 26> H 5.5768 0.5603 -1.6492
| 27> H 6.2320 -0.0540 1.3080
| 28> H 5.6184 1.5146 0.6690
| 29> H -2.9745 -2.3791 0.6718
| 30> H -5.3779 -2.8742 0.5845
| 31> H -6.9777 -1.1858 -0.2566
| 32> H -6.0722 2.1476 -1.4447
| 33> H -3.7467 1.5545 -0.9443
| 34> H 1.8412 2.4314 -0.6353
| 35> *
| 36>
| 37>                          ****END OF INPUT****

CARTESIAN COORDINATES (ANGSTROEM)
---------------------------------
  C      6.185100    0.082400   -0.852000
  C      5.606400    0.413600    0.517200
  N      4.239000   -0.079700    0.617100
  N      3.910500   -1.288400    1.038200
  N      2.598100   -1.428800    0.946700
  C      2.153400   -0.257600    0.444400
  C      0.732900    0.023900    0.170300
  S     -0.505200   -1.079800    0.455100
  C     -1.725000   -0.051900   -0.086000
  C     -3.171100   -0.369700   -0.130800
  C     -3.650800   -1.621100    0.299100
  C     -5.017800   -1.909200    0.251900
  C     -5.920400   -0.955700   -0.223000
  C     -5.460600    0.291800   -0.653500
  O     -6.372100    1.233900   -1.125100
  C     -4.089700    0.584000   -0.607600
  N     -1.207900    1.132100   -0.485700
  C      0.144700    1.186700   -0.349700
  O      0.839500    2.338300   -0.716100
  N      3.172300    0.595300    0.225900
  H      7.226600    0.461500   -0.919200
  H      6.192300   -1.017400   -1.007400
  H      5.576800    0.560300   -1.649200
  H      6.232000   -0.054000    1.308000
  H      5.618400    1.514600    0.669000
  H     -2.974500   -2.379100    0.671800
  H     -5.377900   -2.874200    0.584500
  H     -6.977700   -1.185800   -0.256600
  H     -6.072200    2.147600   -1.444700
  H     -3.746700    1.554500   -0.944300
  H      1.841200    2.431400   -0.635300

 Total Charge           Charge          ....    0
 Multiplicity           Mult            ....    1
 Number of Electrons    NEL             ....  150
 Basis Dimension        Dim             ....  306

ORBITAL ENERGIES
----------------

  NO   OCC          E(Eh)            E(eV)
   0   2.0000     -88.898647     -2419.0552
   1   2.0000     -19.168893      -521.6121
   2   2.0000     -19.166333      -521.5424
   3   2.0000     -14.466722      -393.6595
   4   2.0000     -14.405176      -391.9848
   5   2.0000     -14.379774      -391.2935
   6   2.0000     -14.365030      -390.8923
   7   2.0000     -14.330001      -389.9392
   8   2.0000     -10.285365      -279.8790
   9   2.0000     -10.263605      -279.2869
  10   2.0000     -10.258030      -279.1352
  11   2.0000     -10.255233      -279.0591
  12   2.0000     -10.250411      -278.9279
  13   2.0000     -10.220047      -278.1016
  14   2.0000     -10.208816      -277.7960
  15   2.0000     -10.200879      -277.5800
  16   2.0000     -10.188654      -277.2474
  17   2.0000     -10.184225      -277.1269
  18   2.0000     -10.183475      -277.1064
  19   2.0000     -10.183428      -277.1052
  20   2.0000      -7.975427      -217.0224
  21   2.0000      -5.938364      -161.5911
  22   2.0000      -5.934402      -161.4833
  23   2.0000      -5.932503      -161.4316
  24   2.0000      -1.154365       -31.4119
  25   2.0000      -1.038191       -28.2506
  26   2.0000      -1.031203       -28.0605
  27   2.0000      -0.960057       -26.1245
  28   2.0000      -0.955503       -26.0006
  29   2.0000      -0.903880       -24.5958
  30   2.0000      -0.853855       -23.2346
  31   2.0000      -0.819219       -22.2921
  32   2.0000      -0.793946       -21.6044
  33   2.0000      -0.776581       -21.1318
  34   2.0000      -0.740796       -20.1581
  35   2.0000      -0.725540       -19.7430
  36   2.0000      -0.693771       -18.8785
  37   2.0000      -0.670090       -18.2341
  38   2.0000      -0.629760       -17.1366
  39   2.0000      -0.620254       -16.8780
  40   2.0000      -0.615797       -16.7567
  41   2.0000      -0.597988       -16.2721
  42   2.0000      -0.565422       -15.3859
  43   2.0000      -0.542121       -14.7519
  44   2.0000      -0.536989       -14.6122
  45   2.0000      -0.519690       -14.1415
  46   2.0000      -0.506886       -13.7931
  47   2.0000      -0.498919       -13.5763
  48   2.0000      -0.481056       -13.0902
  49   2.0000      -0.471721       -12.8362
  50   2.0000      -0.446162       -12.1407
  51   2.0000      -0.439679       -11.9643
  52   2.0000      -0.435782       -11.8582
  53   2.0000      -0.425433       -11.5766
  54   2.0000      -0.419372       -11.4117
  55   2.0000      -0.404900       -11.0179
  56   2.0000      -0.401547       -10.9267
  57   2.0000      -0.397985       -10.8297
  58   2.0000      -0.389251       -10.5921
  59   2.0000      -0.379367       -10.3231
  60   2.0000      -0.377748       -10.2790
  61   2.0000      -0.362110        -9.8535
  62   2.0000      -0.359232        -9.7752
  63   2.0000      -0.337444        -9.1823
  64   2.0000      -0.335707        -9.1350
  65   2.0000      -0.335136        -9.1195
  66   2.0000      -0.319720        -8.7000
  67   2.0000      -0.316955        -8.6248
  68   2.0000      -0.310392        -8.4462
  69   2.0000      -0.294759        -8.0208
  70   2.0000      -0.272241        -7.4081
  71   2.0000      -0.269642        -7.3373
  72   2.0000      -0.256579        -6.9819
  73   2.0000      -0.226675        -6.1681
  74   2.0000      -0.205226        -5.5845
  75   0.0000      -0.058449        -1.5905
  76   0.0000      -0.028768        -0.7828
  77   0.0000       0.001706         0.0464
  78   0.0000       0.014806         0.4029
  79   0.0000       0.038362         1.0439

MULLIKEN ATOMIC CHARGES
-----------------------
   0 C :   -0.445045
   1 C :   -0.147993
   2 N :   -0.023314
   3 N :   -0.059072
   4 N :   -0.320091
   5 C :    0.429439
   6 C :   -0.245125
   7 S :    0.296469
   8 C :   -0.016418
   9 C :    0.144078
  10 C :   -0.201228
  11 C :   -0.130219
  12 C :   -0.160235
  13 C :    0.397023
  14 O :   -0.674098
  15 C :   -0.238903
  16 N :   -0.407763
  17 C :    0.491719
  18 O :   -0.656250
  19 N :   -0.361118
  20 H :    0.160550
  21 H :    0.177076
  22 H :    0.171040
  23 H :    0.192883
  24 H :    0.186003
  25 H :    0.145327
  26 H :    0.139003
  27 H :    0.142389
  28 H :    0.418184
  29 H :    0.153934
  30 H :    0.441754
Sum of atomic charges:    0.0000000

LOEWDIN ATOMIC CHARGES
----------------------
   0 C :   -0.362217
   1 C :   -0.153256
   2 N :    0.097928
   3 N :   -0.067507
   4 N :   -0.121996
   5 C :   -0.000111
   6 C :   -0.267993
   7 S :    0.424335
   8 C :   -0.112727
   9 C :   -0.022302
  10 C :   -0.144413
  11 C :   -0.117541
  12 C :   -0.144720
  13 C :    0.086689
  14 O :   -0.347280
  15 C :   -0.150141
  16 N :   -0.164958
  17 C :    0.100954
  18 O :   -0.337851
  19 N :   -0.159710
  20 H :    0.136647
  21 H :    0.140552
  22 H :    0.137442
  23 H :    0.152518
  24 H :    0.148765
  25 H :    0.139171
  26 H :    0.137934
  27 H :    0.142793
  28 H :    0.336721
  29 H :    0.147209
  30 H :    0.345067

  Mayer bond orders larger than 0.100000
B(  0-C ,  1-C ) :   1.0031 B(  0-C , 20-H ) :   0.9416 B(  0-C , 21-H ) :   0.9432
B(  0-C , 22-H ) :   0.9443 B(  1-C ,  2-N ) :   0.8972 B(  1-C , 23-H ) :   0.9256
B(  1-C , 24-H ) :   0.9273 B(  2-N ,  3-N ) :   1.2493 B(  2-N , 19-N ) :   1.2200
B(  3-N ,  4-N ) :   1.4264 B(  3-N , 19-N ) :   0.1312 B(  4-N ,  5-C ) :   1.2866
B(  5-C ,  6-C ) :   1.0570 B(  5-C , 19-N ) :   1.3585 B(  6-C ,  7-S ) :   1.0801
B(  6-C ,  8-C ) :   0.1206 B(  6-C , 17-C ) :   1.3808 B(  7-S ,  8-C ) :   1.1534
B(  8-C ,  9-C ) :   1.0224 B(  8-C , 16-N ) :   1.4314 B(  9-C , 10-C ) :   1.3897
B(  9-C , 15-C ) :   1.3981 B( 10-C , 11-C ) :   1.4408 B( 10-C , 25-H ) :   0.9162
B( 11-C , 12-C ) :   1.4464 B( 11-C , 26-H ) :   0.9283 B( 12-C , 13-C ) :   1.3954
B( 12-C , 27-H ) :   0.9197 B( 13-C , 14-O ) :   0.9035 B( 13-C , 15-C ) :   1.3548
B( 14-O , 28-H ) :   0.7658 B( 15-C , 29-H ) :   0.9061 B( 16-N , 17-C ) :   1.3190
B( 17-C , 18-O ) :   1.0099 B( 18-O , 30-H ) :   0.7194

FINAL SINGLE POINT ENERGY     -1285.643912707675

DIPOLE MOMENT
-------------

Method             : SCF
Type of density    : Electron Density
Multiplicity       :   1
Irrep              :   0
Energy             : -1285.6439127076746445 Eh
Relativity type    :
Basis              : AO
                                X                 Y                 Z
Electronic contribution:     -8.860928613      -1.333471266       3.201191128
Nuclear contribution   :     10.285877700       1.963565937      -3.413952609
                        -----------------------------------------
Total Dipole Moment    :      1.424949088       0.630094671      -0.212761480
                        -----------------------------------------
Magnitude (a.u.)       :      1.572503305
Magnitude (Debye)      :      3.996985755

Rotational constants in cm-1:             0.036851             0.003967             0.003629
Rotational constants in MHz :          1104.769682           118.920586           108.790828

                             ****ORCA TERMINATED NORMALLY****
TOTAL RUN TIME: 0 days 0 hours 2 minutes 24 seconds 540 msec
