                         Program Version 6.0.0  -   RELEASE  -
|  1> ! B3LYP 6-31G* SP
|  2>
|  3> * xyz -1 1
|  4> C -0.0375 0.4256 -2.0915
|  5> C -0.9918 1.1817 -1.1928
|  6> C -1.6311 0.5326 -0.1103
|  7> N -1.4024 -0.8537 0.1655
|  8> C -0.5906 -1.2399 1.3196
|  9> C 0.8558 -0.9288 1.0532
| 10> C 1.3782 0.3332 1.3732
| 11> C 2.7002 0.6522 1.0521
| 12> C 3.5185 -0.2884 0.3979
| 13> O 4.8490 -0.0128 0.0507
| 14> C 5.5114 1.2269 0.3037
| 15> C 6.9634 1.2337 -0.2015
| 16> C 7.2525 0.4393 -1.4673
| 17> C 7.7248 -0.0813 -0.1154
| 18> C 2.9917 -1.5453 0.0742
| 19> F 3.7642 -2.4601 -0.5635
| 20> C 1.6681 -1.8624 0.3931
| 21> S -2.3387 -2.0486 -0.6737
| 22> O -2.9534 -1.4492 -1.9080
| 23> O -1.4436 -3.1815 -1.0921
| 24> C -3.6152 -2.6250 0.3902
| 25> C -3.5320 -3.8906 0.9849
| 26> C -4.5390 -4.3287 1.8503
| 27> C -5.6409 -3.5037 2.1374
| 28> C -6.7042 -3.9700 3.0542
| 29> O -7.6969 -3.2366 3.3103
| 30> O -6.6256 -5.2268 3.6433
| 31> C -5.7131 -2.2306 1.5428
| 32> C -4.7050 -1.7955 0.6778
| 33> N -2.4654 1.2270 0.7066
| 34> C -2.7289 2.5436 0.5281
| 35> C -2.1287 3.2436 -0.5211
| 36> C -2.3953 4.6093 -0.7043
| 37> C -1.7889 5.3084 -1.7485
| 38> C -0.9132 4.6527 -2.6143
| 39> C -0.6386 3.2932 -2.4434
| 40> C -1.2441 2.5635 -1.3959
| 41> H -0.3853 0.4858 -3.1440
| 42> H 0.0433 -0.6483 -1.8342
| 43> H 0.9791 0.8648 -2.0093
| 44> H -0.7074 -2.3254 1.5302
| 45> H -0.9443 -0.6997 2.2249
| 46> H 0.7565 1.0760 1.8582
| 47> H 3.0727 1.6341 1.3097
| 48> H 5.5235 1.4238 1.3967
| 49> H 4.9640 2.0490 -0.2048
| 50> H 7.5809 2.1469 -0.0657
| 51> H 6.4089 -0.1358 -1.9044
| 52> H 8.0682 0.8556 -2.0954
| 53> H 7.1615 -0.9667 0.2492
| 54> H 8.8188 0.0265 0.0457
| 55> H 1.2720 -2.8318 0.1163
| 56> H -2.6880 -4.5382 0.7844
| 57> H -4.4520 -5.3117 2.2961
| 58> H -6.5457 -1.5694 1.7483
| 59> H -4.7722 -0.8096 0.2347
| 60> H -3.4060 3.0423 1.2106
| 61> H -3.0706 5.1352 -0.0395
| 62> H -1.9965 6.3618 -1.8859
| 63> H -0.4438 5.2003 -3.4218
| 64> H 0.0487 2.8276 -3.1363
| 65> *
| 66>
| 67>                          ****END OF INPUT****

CARTESIAN COORDINATES (ANGSTROEM)
---------------------------------
  C     -0.037500    0.425600   -2.091500
  C     -0.991800    1.181700   -1.192800
  C     -1.631100    0.532600   -0.110300
  N     -1.402400   -0.853700    0.165500
  C     -0.590600   -1.239900    1.319600
  C      0.855800   -0.928800    1.053200
  C      1.378200    0.333200    1.373200
  C      2.700200    0.652200    1.052100
  C      3.518500   -0.288400    0.397900
  O      4.849000   -0.012800    0.050700
  C      5.511400    1.226900    0.303700
  C      6.963400    1.233700   -0.201500
  C      7.252500    0.439300   -1.467300
  C      7.724800   -0.081300   -0.115400
  C      2.991700   -1.545300    0.074200
  F      3.764200   -2.460100   -0.563500
  C      1.668100   -1.862400    0.393100
  S     -2.338700   -2.048600   -0.673700
  O     -2.953400   -1.449200   -1.908000
  O     -1.443600   -3.181500   -1.092100
  C     -3.615200   -2.625000    0.390200
  C     -3.532000   -3.890600    0.984900
  C     -4.539000   -4.328700    1.850300
  C     -5.640900   -3.503700    2.137400
  C     -6.704200   -3.970000    3.054200
  O     -7.696900   -3.236600    3.310300
  O     -6.625600   -5.226800    3.643300
  C     -5.713100   -2.230600    1.542800
  C     -4.705000   -1.795500    0.677800
  N     -2.465400    1.227000    0.706600
  C     -2.728900    2.543600    0.528100
  C     -2.128700    3.243600   -0.521100
  C     -2.395300    4.609300   -0.704300
  C     -1.788900    5.308400   -1.748500
  C     -0.913200    4.652700   -2.614300
  C     -0.638600    3.293200   -2.443400
  C     -1.244100    2.563500   -1.395900
  H     -0.385300    0.485800   -3.144000
  H      0.043300   -0.648300   -1.834200
  H      0.979100    0.864800   -2.009300
  H     -0.707400   -2.325400    1.530200
  H     -0.944300   -0.699700    2.224900
  H      0.756500    1.076000    1.858200
  H      3.072700    1.634100    1.309700
  H      5.523500    1.423800    1.396700
  H      4.964000    2.049000   -0.204800
  H      7.580900    2.146900   -0.065700
  H      6.408900   -0.135800   -1.904400
  H      8.068200    0.855600   -2.095400
  H      7.161500   -0.966700    0.249200
  H      8.818800    0.026500    0.045700
  H      1.272000   -2.831800    0.116300
  H     -2.688000   -4.538200    0.784400
  H     -4.452000   -5.311700    2.296100
  H     -6.545700   -1.569400    1.748300
  H     -4.772200   -0.809600    0.234700
  H     -3.406000    3.042300    1.210600
  H     -3.070600    5.135200   -0.039500
  H     -1.996500    6.361800   -1.885900
  H     -0.443800    5.200300   -3.421800
  H      0.048700    2.827600   -3.136300

 Total Charge           Charge          ....   -1
 Multiplicity           Mult            ....    1
 Number of Electrons    NEL             ....  272
 Basis Dimension        Dim             ....  570

ORBITAL ENERGIES
----------------

  NO   OCC          E(Eh)            E(eV)
   0   2.0000     -89.000967     -2421.8394
   1   2.0000     -24.639124      -670.4646
   2   2.0000     -19.121488      -520.3221
   3   2.0000     -19.035132      -517.9723
   4   2.0000     -19.033093      -517.9168
   5   2.0000     -18.902896      -514.3740
   6   2.0000     -18.879771      -513.7447
   7   2.0000     -14.282905      -388.6576
   8   2.0000     -14.263979      -388.1426
   9   2.0000     -10.210474      -277.8411
  10   2.0000     -10.200602      -277.5725
  11   2.0000     -10.197117      -277.4777
  12   2.0000     -10.187960      -277.2285
  13   2.0000     -10.159296      -276.4485
  14   2.0000     -10.156142      -276.3627
  15   2.0000     -10.151366      -276.2327
  16   2.0000     -10.142223      -275.9839
  17   2.0000     -10.140707      -275.9427
  18   2.0000     -10.139447      -275.9084
  19   2.0000     -10.139014      -275.8966
  20   2.0000     -10.137889      -275.8660
  21   2.0000     -10.137716      -275.8613
  22   2.0000     -10.136032      -275.8154
  23   2.0000     -10.134706      -275.7794
  24   2.0000     -10.133389      -275.7435
  25   2.0000     -10.133102      -275.7357
  26   2.0000     -10.130795      -275.6730
  27   2.0000     -10.127989      -275.5966
  28   2.0000     -10.127889      -275.5939
  29   2.0000     -10.112901      -275.1860
  30   2.0000     -10.107066      -275.0272
  31   2.0000     -10.089078      -274.5378
  32   2.0000     -10.088674      -274.5268
  33   2.0000     -10.088185      -274.5135
  34   2.0000     -10.069701      -274.0105
  35   2.0000     -10.068647      -273.9818
  36   2.0000     -10.067061      -273.9387
  37   2.0000      -8.036846      -218.6937
  38   2.0000      -6.002208      -163.3284
  39   2.0000      -6.000171      -163.2729
  40   2.0000      -5.998757      -163.2345
  41   2.0000      -1.151872       -31.3440
  42   2.0000      -0.999351       -27.1937
  43   2.0000      -0.990890       -26.9635
  44   2.0000      -0.888779       -24.1849
  45   2.0000      -0.870489       -23.6872
  46   2.0000      -0.840706       -22.8768
  47   2.0000      -0.811576       -22.0841
  48   2.0000      -0.808539       -22.0015
  49   2.0000      -0.802442       -21.8355
  50   2.0000      -0.793824       -21.6010
  51   2.0000      -0.752414       -20.4742
  52   2.0000      -0.740990       -20.1634
  53   2.0000      -0.718043       -19.5390
  54   2.0000      -0.709914       -19.3177
  55   2.0000      -0.692278       -18.8378
  56   2.0000      -0.692245       -18.8369
  57   2.0000      -0.680119       -18.5070
  58   2.0000      -0.667944       -18.1757
  59   2.0000      -0.655736       -17.8435
  60   2.0000      -0.638293       -17.3688
  61   2.0000      -0.629916       -17.1409
  62   2.0000      -0.613456       -16.6930
  63   2.0000      -0.585673       -15.9370
  64   2.0000      -0.581431       -15.8215
  65   2.0000      -0.566615       -15.4184
  66   2.0000      -0.549746       -14.9594
  67   2.0000      -0.537641       -14.6300
  68   2.0000      -0.536885       -14.6094
  69   2.0000      -0.530454       -14.4344
  70   2.0000      -0.514073       -13.9886
  71   2.0000      -0.499447       -13.5906
  72   2.0000      -0.496692       -13.5157
  73   2.0000      -0.484405       -13.1813
  74   2.0000      -0.469903       -12.7867
  75   2.0000      -0.457741       -12.4558
  76   2.0000      -0.454715       -12.3734
  77   2.0000      -0.447898       -12.1879
  78   2.0000      -0.438947       -11.9444
  79   2.0000      -0.433349       -11.7920
  80   2.0000      -0.431566       -11.7435
  81   2.0000      -0.420399       -11.4396
  82   2.0000      -0.414584       -11.2814
  83   2.0000      -0.411724       -11.2036
  84   2.0000      -0.401218       -10.9177
  85   2.0000      -0.394211       -10.7270
  86   2.0000      -0.391351       -10.6492
  87   2.0000      -0.386839       -10.5264
  88   2.0000      -0.385918       -10.5014
  89   2.0000      -0.384217       -10.4551
  90   2.0000      -0.375456       -10.2167
  91   2.0000      -0.366374        -9.9695
  92   2.0000      -0.361365        -9.8332
  93   2.0000      -0.353406        -9.6167
  94   2.0000      -0.350330        -9.5330
  95   2.0000      -0.339356        -9.2343
  96   2.0000      -0.337837        -9.1930
  97   2.0000      -0.331996        -9.0341
  98   2.0000      -0.329924        -8.9777
  99   2.0000      -0.326100        -8.8736
 100   2.0000      -0.322769        -8.7830
 101   2.0000      -0.318017        -8.6537
 102   2.0000      -0.316291        -8.6067
 103   2.0000      -0.313012        -8.5175
 104   2.0000      -0.312454        -8.5023
 105   2.0000      -0.308918        -8.4061
 106   2.0000      -0.302218        -8.2238
 107   2.0000      -0.295154        -8.0315
 108   2.0000      -0.289853        -7.8873
 109   2.0000      -0.288346        -7.8463
 110   2.0000      -0.286821        -7.8048
 111   2.0000      -0.276716        -7.5298
 112   2.0000      -0.269740        -7.3400
 113   2.0000      -0.264898        -7.2082
 114   2.0000      -0.239847        -6.5266
 115   2.0000      -0.238512        -6.4902
 116   2.0000      -0.233926        -6.3655
 117   2.0000      -0.228585        -6.2201
 118   2.0000      -0.228002        -6.2042
 119   2.0000      -0.225157        -6.1268
 120   2.0000      -0.212341        -5.7781
 121   2.0000      -0.210566        -5.7298
 122   2.0000      -0.201904        -5.4941
 123   2.0000      -0.193844        -5.2748
 124   2.0000      -0.191275        -5.2049
 125   2.0000      -0.185426        -5.0457
 126   2.0000      -0.183484        -4.9929
 127   2.0000      -0.180815        -4.9202
 128   2.0000      -0.173987        -4.7344
 129   2.0000      -0.161930        -4.4063
 130   2.0000      -0.158179        -4.3043
 131   2.0000      -0.144335        -3.9276
 132   2.0000      -0.125004        -3.4015
 133   2.0000      -0.056455        -1.5362
 134   2.0000      -0.034523        -0.9394
 135   2.0000      -0.017744        -0.4828
 136   0.0000       0.001995         0.0543
 137   0.0000       0.031353         0.8532
 138   0.0000       0.052014         1.4154
 139   0.0000       0.059571         1.6210
 140   0.0000       0.073001         1.9864

MULLIKEN ATOMIC CHARGES
-----------------------
   0 C :   -0.541538
   1 C :    0.133038
   2 C :    0.309375
   3 N :   -0.610598
   4 C :   -0.236369
   5 C :    0.172839
   6 C :   -0.177365
   7 C :   -0.203456
   8 C :    0.297448
   9 O :   -0.528632
  10 C :   -0.002898
  11 C :   -0.134962
  12 C :   -0.307319
  13 C :   -0.307445
  14 C :    0.360031
  15 F :   -0.314773
  16 C :   -0.257304
  17 S :    1.210155
  18 O :   -0.566668
  19 O :   -0.576663
  20 C :   -0.141650
  21 C :   -0.162702
  22 C :   -0.151040
  23 C :    0.104736
  24 C :    0.410797
  25 O :   -0.553843
  26 O :   -0.659414
  27 C :   -0.159246
  28 C :   -0.141572
  29 N :   -0.383100
  30 C :   -0.062420
  31 C :    0.139207
  32 C :   -0.204260
  33 C :   -0.129140
  34 C :   -0.124005
  35 C :   -0.194599
  36 C :    0.114428
  37 H :    0.162864
  38 H :    0.207556
  39 H :    0.145841
  40 H :    0.182071
  41 H :    0.170982
  42 H :    0.137825
  43 H :    0.135937
  44 H :    0.131004
  45 H :    0.131129
  46 H :    0.139816
  47 H :    0.175849
  48 H :    0.134168
  49 H :    0.174738
  50 H :    0.134026
  51 H :    0.177997
  52 H :    0.141939
  53 H :    0.150209
  54 H :    0.144976
  55 H :    0.143840
  56 H :    0.146667
  57 H :    0.130677
  58 H :    0.121147
  59 H :    0.123310
  60 H :    0.136363
Sum of atomic charges:   -1.0000000

LOEWDIN ATOMIC CHARGES
----------------------
   0 C :   -0.360064
   1 C :    0.004701
   2 C :    0.035790
   3 N :   -0.289158
   4 C :   -0.143270
   5 C :   -0.032309
   6 C :   -0.135135
   7 C :   -0.171375
   8 C :    0.057875
   9 O :   -0.187550
  10 C :   -0.075219
  11 C :   -0.152449
  12 C :   -0.259449
  13 C :   -0.259576
  14 C :    0.097077
  15 F :   -0.102260
  16 C :   -0.142639
  17 S :    1.262535
  18 O :   -0.587283
  19 O :   -0.596913
  20 C :   -0.215564
  21 C :   -0.130943
  22 C :   -0.110432
  23 C :   -0.003692
  24 C :    0.071917
  25 O :   -0.379395
  26 O :   -0.507616
  27 C :   -0.112812
  28 C :   -0.116983
  29 N :   -0.125248
  30 C :   -0.067758
  31 C :   -0.029920
  32 C :   -0.115298
  33 C :   -0.135282
  34 C :   -0.127078
  35 C :   -0.121083
  36 C :   -0.007472
  37 H :    0.138767
  38 H :    0.156513
  39 H :    0.129150
  40 H :    0.149204
  41 H :    0.134211
  42 H :    0.136483
  43 H :    0.136766
  44 H :    0.111298
  45 H :    0.111411
  46 H :    0.133089
  47 H :    0.144790
  48 H :    0.124263
  49 H :    0.144290
  50 H :    0.124206
  51 H :    0.160058
  52 H :    0.138424
  53 H :    0.149366
  54 H :    0.145881
  55 H :    0.139371
  56 H :    0.134196
  57 H :    0.133160
  58 H :    0.128457
  59 H :    0.129764
  60 H :    0.138212

  Mayer bond orders larger than 0.100000
B(  0-C ,  1-C ) :   1.0076 B(  0-C , 37-H ) :   0.9258 B(  0-C , 38-H ) :   0.9156
B(  0-C , 39-H ) :   0.9261 B(  1-C ,  2-C ) :   1.4287 B(  1-C , 30-C ) :   0.1036
B(  1-C , 36-C ) :   1.2633 B(  2-C ,  3-N ) :   0.9130 B(  2-C , 29-N ) :   1.2802
B(  3-N ,  4-C ) :   0.9301 B(  3-N , 17-S ) :   0.7750 B(  4-C ,  5-C ) :   0.9542
B(  4-C , 40-H ) :   0.9164 B(  4-C , 41-H ) :   0.9201 B(  5-C ,  6-C ) :   1.4415
B(  5-C , 16-C ) :   1.4013 B(  6-C ,  7-C ) :   1.4173 B(  6-C , 42-H ) :   0.9208
B(  7-C ,  8-C ) :   1.3716 B(  7-C , 43-H ) :   0.9192 B(  8-C ,  9-O ) :   0.9030
B(  8-C , 14-C ) :   1.3042 B(  9-O , 10-C ) :   0.8962 B( 10-C , 11-C ) :   1.0196
B( 10-C , 44-H ) :   0.9190 B( 10-C , 45-H ) :   0.9189 B( 11-C , 12-C ) :   0.9597
B( 11-C , 13-C ) :   0.9597 B( 11-C , 46-H ) :   0.9337 B( 12-C , 13-C ) :   0.9578
B( 12-C , 47-H ) :   0.9343 B( 12-C , 48-H ) :   0.9488 B( 13-C , 49-H ) :   0.9347
B( 13-C , 50-H ) :   0.9487 B( 14-C , 15-F ) :   0.9314 B( 14-C , 16-C ) :   1.3920
B( 16-C , 51-H ) :   0.9020 B( 17-S , 18-O ) :   1.6349 B( 17-S , 19-O ) :   1.5972
B( 17-S , 20-C ) :   0.8466 B( 20-C , 21-C ) :   1.3670 B( 20-C , 28-C ) :   1.3639
B( 21-C , 22-C ) :   1.3987 B( 21-C , 52-H ) :   0.9207 B( 22-C , 23-C ) :   1.4061
B( 22-C , 53-H ) :   0.9018 B( 23-C , 24-C ) :   0.9275 B( 23-C , 27-C ) :   1.3838
B( 24-C , 25-O ) :   1.7061 B( 24-C , 26-O ) :   1.5503 B( 25-O , 26-O ) :   0.1479
B( 27-C , 28-C ) :   1.4219 B( 27-C , 54-H ) :   0.9081 B( 28-C , 55-H ) :   0.9181
B( 29-N , 30-C ) :   1.4967 B( 30-C , 31-C ) :   1.2359 B( 30-C , 56-H ) :   0.9280
B( 31-C , 32-C ) :   1.2840 B( 31-C , 36-C ) :   1.2901 B( 32-C , 33-C ) :   1.5136
B( 32-C , 35-C ) :   0.1067 B( 32-C , 57-H ) :   0.9242 B( 33-C , 34-C ) :   1.3514
B( 33-C , 58-H ) :   0.9316 B( 34-C , 35-C ) :   1.5097 B( 34-C , 59-H ) :   0.9314
B( 35-C , 36-C ) :   1.2946 B( 35-C , 60-H ) :   0.9157

FINAL SINGLE POINT ENERGY     -2063.942095942086

DIPOLE MOMENT
-------------

Method             : SCF
Type of density    : Electron Density
Multiplicity       :   1
Irrep              :   0
Energy             : -2063.9420959420858708 Eh
Relativity type    :
Basis              : AO
                                X                 Y                 Z
Electronic contribution:    -25.044957277     -17.335286142       3.195166125
Nuclear contribution   :     35.151632837      25.285433763      -6.735172717
                        -----------------------------------------
Total Dipole Moment    :     10.106675560       7.950147620      -3.540006592
                        -----------------------------------------
Magnitude (a.u.)       :     13.337218028
Magnitude (Debye)      :     33.900514109

Rotational constants in cm-1:             0.004495             0.001729             0.001374
Rotational constants in MHz :           134.745701            51.826658            41.204930

                             ****ORCA TERMINATED NORMALLY****
TOTAL RUN TIME: 0 days 0 hours 7 minutes 6 seconds 889 msec
