                         Program Version 6.0.0  -   RELEASE  -
|  1> ! B3LYP 6-31G* SP
|  2>
|  3> * xyz 0 1
|  4> C -0.7918 1.8099 -2.0387
|  5> C -1.0900 1.4200 -0.5819
|  6> C -1.5038 2.5823 0.3102
|  7> C -1.0708 3.9062 0.0851
|  8> C -1.4568 4.9353 0.9492
|  9> C -2.2724 4.6604 2.0483
| 10> F -2.6422 5.6604 2.8860
| 11> C -2.7036 3.3541 2.2866
| 12> C -2.3216 2.3216 1.4257
| 13> N 0.0417 0.6641 0.0051
| 14> C -0.2121 -0.4419 0.9486
| 15> C -1.2877 -1.3953 0.4767
| 16> C -1.2544 -1.9346 -0.8195
| 17> C -2.2411 -2.8286 -1.2373
| 18> C -3.2670 -3.2007 -0.3665
| 19> C -3.3155 -2.6804 0.9386
| 20> C -4.4001 -3.0719 1.8656
| 21> O -5.2916 -3.8847 1.4987
| 22> O -4.4468 -2.5458 3.1540
| 23> C -2.3171 -1.7811 1.3531
| 24> C 1.3574 1.2592 0.0325
| 25> O 1.4922 2.4609 0.3851
| 26> C 2.5637 0.4923 -0.3291
| 27> C 2.6009 -0.7715 -0.9232
| 28> C 3.9063 -1.2140 -1.1612
| 29> C 4.2711 -2.4324 -1.7405
| 30> C 5.6366 -2.7187 -1.9108
| 31> C 6.6164 -1.7911 -1.5052
| 32> C 6.2392 -0.5694 -0.9260
| 33> C 4.8802 -0.3096 -0.7669
| 34> S 4.1487 1.0532 -0.1182
| 35> H -1.6405 2.3883 -2.4622
| 36> H -0.6578 0.8907 -2.6478
| 37> H 0.1364 2.4118 -2.1229
| 38> H -1.9812 0.7618 -0.6584
| 39> H -0.4282 4.1530 -0.7479
| 40> H -1.1184 5.9472 0.7673
| 41> H -3.3321 3.1390 3.1413
| 42> H -2.6662 1.3155 1.6298
| 43> H -0.4825 -0.0044 1.9335
| 44> H 0.7119 -1.0351 1.1133
| 45> H -0.4825 -1.6468 -1.5178
| 46> H -2.2131 -3.2318 -2.2415
| 47> H -4.0218 -3.8945 -0.7152
| 48> H -5.1857 -2.8069 3.7960
| 49> H -2.3394 -1.3760 2.3576
| 50> H 1.7270 -1.3471 -1.1816
| 51> H 3.5192 -3.1455 -2.0541
| 52> H 5.9373 -3.6572 -2.3580
| 53> H 7.6651 -2.0209 -1.6421
| 54> H 6.9847 0.1504 -0.6135
| 55> *
| 56>
| 57>                          ****END OF INPUT****

CARTESIAN COORDINATES (ANGSTROEM)
---------------------------------
  C     -0.791800    1.809900   -2.038700
  C     -1.090000    1.420000   -0.581900
  C     -1.503800    2.582300    0.310200
  C     -1.070800    3.906200    0.085100
  C     -1.456800    4.935300    0.949200
  C     -2.272400    4.660400    2.048300
  F     -2.642200    5.660400    2.886000
  C     -2.703600    3.354100    2.286600
  C     -2.321600    2.321600    1.425700
  N      0.041700    0.664100    0.005100
  C     -0.212100   -0.441900    0.948600
  C     -1.287700   -1.395300    0.476700
  C     -1.254400   -1.934600   -0.819500
  C     -2.241100   -2.828600   -1.237300
  C     -3.267000   -3.200700   -0.366500
  C     -3.315500   -2.680400    0.938600
  C     -4.400100   -3.071900    1.865600
  O     -5.291600   -3.884700    1.498700
  O     -4.446800   -2.545800    3.154000
  C     -2.317100   -1.781100    1.353100
  C      1.357400    1.259200    0.032500
  O      1.492200    2.460900    0.385100
  C      2.563700    0.492300   -0.329100
  C      2.600900   -0.771500   -0.923200
  C      3.906300   -1.214000   -1.161200
  C      4.271100   -2.432400   -1.740500
  C      5.636600   -2.718700   -1.910800
  C      6.616400   -1.791100   -1.505200
  C      6.239200   -0.569400   -0.926000
  C      4.880200   -0.309600   -0.766900
  S      4.148700    1.053200   -0.118200
  H     -1.640500    2.388300   -2.462200
  H     -0.657800    0.890700   -2.647800
  H      0.136400    2.411800   -2.122900
  H     -1.981200    0.761800   -0.658400
  H     -0.428200    4.153000   -0.747900
  H     -1.118400    5.947200    0.767300
  H     -3.332100    3.139000    3.141300
  H     -2.666200    1.315500    1.629800
  H     -0.482500   -0.004400    1.933500
  H      0.711900   -1.035100    1.113300
  H     -0.482500   -1.646800   -1.517800
  H     -2.213100   -3.231800   -2.241500
  H     -4.021800   -3.894500   -0.715200
  H     -5.185700   -2.806900    3.796000
  H     -2.339400   -1.376000    2.357600
  H      1.727000   -1.347100   -1.181600
  H      3.519200   -3.145500   -2.054100
  H      5.937300   -3.657200   -2.358000
  H      7.665100   -2.020900   -1.642100
  H      6.984700    0.150400   -0.613500

 Total Charge           Charge          ....    0
 Multiplicity           Mult            ....    1
 Number of Electrons    NEL             ....  226
 Basis Dimension        Dim             ....  478

ORBITAL ENERGIES
----------------

  NO   OCC          E(Eh)            E(eV)
   0   2.0000     -88.892156     -2418.8785
   1   2.0000     -24.686610      -671.7568
   2   2.0000     -19.188870      -522.1557
   3   2.0000     -19.128707      -520.5186
   4   2.0000     -19.125521      -520.4319
   5   2.0000     -14.348870      -390.4526
   6   2.0000     -10.326425      -280.9963
   7   2.0000     -10.302387      -280.3422
   8   2.0000     -10.256319      -279.0886
   9   2.0000     -10.231163      -278.4041
  10   2.0000     -10.227044      -278.2920
  11   2.0000     -10.226421      -278.2751
  12   2.0000     -10.218288      -278.0538
  13   2.0000     -10.217582      -278.0345
  14   2.0000     -10.211021      -277.8560
  15   2.0000     -10.204804      -277.6868
  16   2.0000     -10.204736      -277.6850
  17   2.0000     -10.203576      -277.6534
  18   2.0000     -10.201992      -277.6103
  19   2.0000     -10.201707      -277.6026
  20   2.0000     -10.200665      -277.5742
  21   2.0000     -10.198348      -277.5112
  22   2.0000     -10.197131      -277.4780
  23   2.0000     -10.196697      -277.4662
  24   2.0000     -10.193776      -277.3867
  25   2.0000     -10.182241      -277.0729
  26   2.0000     -10.181422      -277.0506
  27   2.0000     -10.178872      -276.9812
  28   2.0000     -10.178748      -276.9778
  29   2.0000     -10.177638      -276.9476
  30   2.0000     -10.177006      -276.9304
  31   2.0000      -7.969231      -216.8538
  32   2.0000      -5.932488      -161.4312
  33   2.0000      -5.928458      -161.3215
  34   2.0000      -5.925644      -161.2450
  35   2.0000      -1.200193       -32.6589
  36   2.0000      -1.073139       -29.2016
  37   2.0000      -1.024463       -27.8771
  38   2.0000      -0.986677       -26.8488
  39   2.0000      -0.924425       -25.1549
  40   2.0000      -0.917492       -24.9662
  41   2.0000      -0.873011       -23.7558
  42   2.0000      -0.847366       -23.0580
  43   2.0000      -0.839198       -22.8357
  44   2.0000      -0.792288       -21.5592
  45   2.0000      -0.784531       -21.3482
  46   2.0000      -0.776962       -21.1422
  47   2.0000      -0.769575       -20.9412
  48   2.0000      -0.746355       -20.3094
  49   2.0000      -0.742511       -20.2048
  50   2.0000      -0.719447       -19.5772
  51   2.0000      -0.718514       -19.5517
  52   2.0000      -0.688146       -18.7254
  53   2.0000      -0.667913       -18.1748
  54   2.0000      -0.659398       -17.9431
  55   2.0000      -0.631438       -17.1823
  56   2.0000      -0.620727       -16.8909
  57   2.0000      -0.608046       -16.5458
  58   2.0000      -0.603298       -16.4166
  59   2.0000      -0.590928       -16.0800
  60   2.0000      -0.587409       -15.9842
  61   2.0000      -0.578878       -15.7521
  62   2.0000      -0.540270       -14.7015
  63   2.0000      -0.532664       -14.4945
  64   2.0000      -0.527481       -14.3535
  65   2.0000      -0.516778       -14.0623
  66   2.0000      -0.505881       -13.7657
  67   2.0000      -0.499645       -13.5960
  68   2.0000      -0.485386       -13.2080
  69   2.0000      -0.482147       -13.1199
  70   2.0000      -0.478686       -13.0257
  71   2.0000      -0.471331       -12.8256
  72   2.0000      -0.462752       -12.5921
  73   2.0000      -0.455906       -12.4058
  74   2.0000      -0.447899       -12.1880
  75   2.0000      -0.444885       -12.1059
  76   2.0000      -0.442564       -12.0428
  77   2.0000      -0.442082       -12.0297
  78   2.0000      -0.440446       -11.9852
  79   2.0000      -0.434226       -11.8159
  80   2.0000      -0.432076       -11.7574
  81   2.0000      -0.427177       -11.6241
  82   2.0000      -0.421577       -11.4717
  83   2.0000      -0.418580       -11.3901
  84   2.0000      -0.415146       -11.2967
  85   2.0000      -0.406065       -11.0496
  86   2.0000      -0.400147       -10.8886
  87   2.0000      -0.389134       -10.5889
  88   2.0000      -0.386886       -10.5277
  89   2.0000      -0.382331       -10.4037
  90   2.0000      -0.378405       -10.2969
  91   2.0000      -0.371832       -10.1181
  92   2.0000      -0.368274       -10.0212
  93   2.0000      -0.367405        -9.9976
  94   2.0000      -0.365175        -9.9369
  95   2.0000      -0.356326        -9.6961
  96   2.0000      -0.352556        -9.5935
  97   2.0000      -0.347939        -9.4679
  98   2.0000      -0.338532        -9.2119
  99   2.0000      -0.337291        -9.1781
 100   2.0000      -0.328018        -8.9258
 101   2.0000      -0.327053        -8.8996
 102   2.0000      -0.309452        -8.4206
 103   2.0000      -0.294943        -8.0258
 104   2.0000      -0.270333        -7.3561
 105   2.0000      -0.269089        -7.3223
 106   2.0000      -0.265944        -7.2367
 107   2.0000      -0.261732        -7.1221
 108   2.0000      -0.245964        -6.6930
 109   2.0000      -0.244279        -6.6472
 110   2.0000      -0.231424        -6.2974
 111   2.0000      -0.222631        -6.0581
 112   2.0000      -0.216929        -5.9029
 113   0.0000      -0.071025        -1.9327
 114   0.0000      -0.061656        -1.6778
 115   0.0000      -0.020121        -0.5475
 116   0.0000      -0.011446        -0.3115
 117   0.0000       0.002480         0.0675

MULLIKEN ATOMIC CHARGES
-----------------------
   0 C :   -0.464026
   1 C :   -0.067932
   2 C :    0.175671
   3 C :   -0.121734
   4 C :   -0.216709
   5 C :    0.409297
   6 F :   -0.322376
   7 C :   -0.210641
   8 C :   -0.177711
   9 N :   -0.439075
  10 C :   -0.211863
  11 C :    0.121255
  12 C :   -0.156855
  13 C :   -0.128434
  14 C :   -0.150846
  15 C :    0.084876
  16 C :    0.523257
  17 O :   -0.452126
  18 O :   -0.626025
  19 C :   -0.219854
  20 C :    0.499604
  21 O :   -0.438988
  22 C :   -0.216146
  23 C :   -0.147893
  24 C :    0.153181
  25 C :   -0.169225
  26 C :   -0.148849
  27 C :   -0.112645
  28 C :   -0.176162
  29 C :   -0.118851
  30 S :    0.270573
  31 H :    0.155842
  32 H :    0.143730
  33 H :    0.166083
  34 H :    0.160493
  35 H :    0.137946
  36 H :    0.140284
  37 H :    0.136690
  38 H :    0.128901
  39 H :    0.157954
  40 H :    0.173899
  41 H :    0.150382
  42 H :    0.142812
  43 H :    0.168651
  44 H :    0.430965
  45 H :    0.160517
  46 H :    0.149704
  47 H :    0.132937
  48 H :    0.134128
  49 H :    0.138291
  50 H :    0.147044
Sum of atomic charges:   -0.0000000

LOEWDIN ATOMIC CHARGES
----------------------
   0 C :   -0.358783
   1 C :   -0.050798
   2 C :   -0.029584
   3 C :   -0.104107
   4 C :   -0.157586
   5 C :    0.113056
   6 F :   -0.108034
   7 C :   -0.161873
   8 C :   -0.133720
   9 N :   -0.128914
  10 C :   -0.145106
  11 C :   -0.031916
  12 C :   -0.114419
  13 C :   -0.125632
  14 C :   -0.090518
  15 C :   -0.053457
  16 C :    0.178887
  17 O :   -0.268232
  18 O :   -0.337875
  19 C :   -0.111522
  20 C :    0.142433
  21 O :   -0.239813
  22 C :   -0.208046
  23 C :   -0.136827
  24 C :   -0.047326
  25 C :   -0.116675
  26 C :   -0.134829
  27 C :   -0.120516
  28 C :   -0.132557
  29 C :   -0.163968
  30 S :    0.416837
  31 H :    0.133693
  32 H :    0.124977
  33 H :    0.132133
  34 H :    0.140091
  35 H :    0.138825
  36 H :    0.141335
  37 H :    0.139530
  38 H :    0.130696
  39 H :    0.122686
  40 H :    0.143794
  41 H :    0.136031
  42 H :    0.138683
  43 H :    0.153997
  44 H :    0.347548
  45 H :    0.147049
  46 H :    0.141356
  47 H :    0.135347
  48 H :    0.134500
  49 H :    0.137341
  50 H :    0.141810

  Mayer bond orders larger than 0.100000
B(  0-C ,  1-C ) :   1.0030 B(  0-C , 31-H ) :   0.9417 B(  0-C , 32-H ) :   0.9437
B(  0-C , 33-H ) :   0.9335 B(  1-C ,  2-C ) :   0.9454 B(  1-C ,  9-N ) :   0.9327
B(  1-C , 34-H ) :   0.9139 B(  2-C ,  3-C ) :   1.4261 B(  2-C ,  8-C ) :   1.4257
B(  3-C ,  4-C ) :   1.4267 B(  3-C , 35-H ) :   0.9186 B(  4-C ,  5-C ) :   1.3880
B(  4-C , 36-H ) :   0.9215 B(  5-C ,  6-F ) :   0.9128 B(  5-C ,  7-C ) :   1.4009
B(  7-C ,  8-C ) :   1.4155 B(  7-C , 37-H ) :   0.9218 B(  8-C , 38-H ) :   0.9198
B(  9-N , 10-C ) :   0.9479 B(  9-N , 20-C ) :   1.0044 B( 10-C , 11-C ) :   0.9666
B( 10-C , 39-H ) :   0.9128 B( 10-C , 40-H ) :   0.9109 B( 11-C , 12-C ) :   1.4144
B( 11-C , 19-C ) :   1.4047 B( 12-C , 13-C ) :   1.4265 B( 12-C , 41-H ) :   0.9106
B( 13-C , 14-C ) :   1.4271 B( 13-C , 42-H ) :   0.9284 B( 14-C , 15-C ) :   1.4116
B( 14-C , 43-H ) :   0.9118 B( 15-C , 16-C ) :   1.0098 B( 15-C , 19-C ) :   1.3648
B( 16-C , 17-O ) :   1.8589 B( 16-C , 18-O ) :   1.0185 B( 18-O , 44-H ) :   0.7437
B( 19-C , 45-H ) :   0.9085 B( 20-C , 21-O ) :   1.8107 B( 20-C , 22-C ) :   1.0220
B( 22-C , 23-C ) :   1.4738 B( 22-C , 30-S ) :   1.0946 B( 23-C , 24-C ) :   1.2522
B( 23-C , 46-H ) :   0.9090 B( 24-C , 25-C ) :   1.3281 B( 24-C , 29-C ) :   1.3195
B( 25-C , 26-C ) :   1.4891 B( 25-C , 28-C ) :   0.1009 B( 25-C , 47-H ) :   0.9251
B( 26-C , 27-C ) :   1.3774 B( 26-C , 48-H ) :   0.9296 B( 27-C , 28-C ) :   1.4926
B( 27-C , 49-H ) :   0.9299 B( 28-C , 29-C ) :   1.3350 B( 28-C , 50-H ) :   0.9236
B( 29-C , 30-S ) :   1.0633

FINAL SINGLE POINT ENERGY     -1742.270360603755

DIPOLE MOMENT
-------------

Method             : SCF
Type of density    : Electron Density
Multiplicity       :   1
Irrep              :   0
Energy             : -1742.2703606037550799 Eh
Relativity type    :
Basis              : AO
                                X                 Y                 Z
Electronic contribution:     -0.231403427      10.033305113      12.091751283
Nuclear contribution   :      1.075427480     -11.417652371     -12.817716157
                        -----------------------------------------
Total Dipole Moment    :      0.844024053      -1.384347257      -0.725964874
                        -----------------------------------------
Magnitude (a.u.)       :      1.776462476
Magnitude (Debye)      :      4.515408769

Rotational constants in cm-1:             0.004828             0.002918             0.001979
Rotational constants in MHz :           144.751975            87.493469            59.325877

                             ****ORCA TERMINATED NORMALLY****
TOTAL RUN TIME: 0 days 0 hours 9 minutes 13 seconds 34 msec
