                         Program Version 6.0.0  -   RELEASE  -
|  1> ! B3LYP 6-31G* SP
|  2>
|  3> * xyz 0 1
|  4> C -1.6113 -2.3769 -1.6580
|  5> C -2.7464 -1.6143 -1.0545
|  6> O -3.7753 -1.1688 -1.7504
|  7> C -4.5712 -0.5388 -0.9176
|  8> C -4.0723 -0.5600 0.3486
|  9> C -2.8851 -1.2714 0.2913
| 10> C -1.9106 -1.5478 1.3994
| 11> C -0.8652 -0.4757 1.4476
| 12> O -1.1757 0.6662 1.8831
| 13> N 0.4714 -0.7524 1.0032
| 14> C 1.4714 0.2473 0.7650
| 15> N 2.7713 -0.0605 0.5755
| 16> C 3.5301 1.0396 0.3063
| 17> C 4.9945 0.9296 0.0792
| 18> C 5.6822 -0.2225 0.4973
| 19> C 7.0599 -0.3464 0.3011
| 20> F 7.6833 -1.4590 0.7706
| 21> C 7.7823 0.6706 -0.3563
| 22> C 9.2831 0.5701 -0.5407
| 23> F 9.6701 1.1580 -1.7332
| 24> F 9.9147 1.2195 0.5038
| 25> F 9.7028 -0.7470 -0.5684
| 26> C 7.0966 1.8357 -0.7558
| 27> F 7.7589 2.8668 -1.3400
| 28> C 5.7197 1.9579 -0.5471
| 29> C 2.8147 2.2419 0.2754
| 30> S 1.1984 1.8994 0.5894
| 31> C -4.7570 0.0786 1.3762
| 32> O -4.2846 0.0921 2.5452
| 33> N -5.9524 0.6963 1.0838
| 34> C -6.7031 1.3980 2.1388
| 35> C -6.4288 0.7141 -0.2155
| 36> O -7.5045 1.3228 -0.4817
| 37> N -5.7427 0.0792 -1.2260
| 38> C -6.2438 0.1014 -2.6068
| 39> H -1.7336 -2.4301 -2.7597
| 40> H -1.5893 -3.4089 -1.2442
| 41> H -0.6499 -1.8666 -1.4323
| 42> H -2.4345 -1.6027 2.3745
| 43> H -1.4398 -2.5400 1.2359
| 44> H 0.7463 -1.7487 0.8531
| 45> H 5.1560 -1.0251 0.9991
| 46> H 5.2285 2.8576 -0.8901
| 47> H 3.2114 3.2311 0.0919
| 48> H -6.4927 2.4857 2.0866
| 49> H -6.4414 1.0270 3.1508
| 50> H -7.7941 1.2332 2.0177
| 51> H -7.3031 -0.2374 -2.6323
| 52> H -5.6619 -0.5744 -3.2677
| 53> H -6.1775 1.1319 -3.0122
| 54> *
| 55>
| 56>                          ****END OF INPUT****

CARTESIAN COORDINATES (ANGSTROEM)
---------------------------------
  C     -1.611300   -2.376900   -1.658000
  C     -2.746400   -1.614300   -1.054500
  O     -3.775300   -1.168800   -1.750400
  C     -4.571200   -0.538800   -0.917600
  C     -4.072300   -0.560000    0.348600
  C     -2.885100   -1.271400    0.291300
  C     -1.910600   -1.547800    1.399400
  C     -0.865200   -0.475700    1.447600
  O     -1.175700    0.666200    1.883100
  N      0.471400   -0.752400    1.003200
  C      1.471400    0.247300    0.765000
  N      2.771300   -0.060500    0.575500
  C      3.530100    1.039600    0.306300
  C      4.994500    0.929600    0.079200
  C      5.682200   -0.222500    0.497300
  C      7.059900   -0.346400    0.301100
  F      7.683300   -1.459000    0.770600
  C      7.782300    0.670600   -0.356300
  C      9.283100    0.570100   -0.540700
  F      9.670100    1.158000   -1.733200
  F      9.914700    1.219500    0.503800
  F      9.702800   -0.747000   -0.568400
  C      7.096600    1.835700   -0.755800
  F      7.758900    2.866800   -1.340000
  C      5.719700    1.957900   -0.547100
  C      2.814700    2.241900    0.275400
  S      1.198400    1.899400    0.589400
  C     -4.757000    0.078600    1.376200
  O     -4.284600    0.092100    2.545200
  N     -5.952400    0.696300    1.083800
  C     -6.703100    1.398000    2.138800
  C     -6.428800    0.714100   -0.215500
  O     -7.504500    1.322800   -0.481700
  N     -5.742700    0.079200   -1.226000
  C     -6.243800    0.101400   -2.606800
  H     -1.733600   -2.430100   -2.759700
  H     -1.589300   -3.408900   -1.244200
  H     -0.649900   -1.866600   -1.432300
  H     -2.434500   -1.602700    2.374500
  H     -1.439800   -2.540000    1.235900
  H      0.746300   -1.748700    0.853100
  H      5.156000   -1.025100    0.999100
  H      5.228500    2.857600   -0.890100
  H      3.211400    3.231100    0.091900
  H     -6.492700    2.485700    2.086600
  H     -6.441400    1.027000    3.150800
  H     -7.794100    1.233200    2.017700
  H     -7.303100   -0.237400   -2.632300
  H     -5.661900   -0.574400   -3.267700
  H     -6.177500    1.131900   -3.012200

 Total Charge           Charge          ....    0
 Multiplicity           Mult            ....    1
 Number of Electrons    NEL             ....  262
 Basis Dimension        Dim             ....  524

ORBITAL ENERGIES
----------------

  NO   OCC          E(Eh)            E(eV)
   0   2.0000     -88.913820     -2419.4681
   1   2.0000     -24.717962      -672.6099
   2   2.0000     -24.715019      -672.5299
   3   2.0000     -24.714396      -672.5129
   4   2.0000     -24.712972      -672.4742
   5   2.0000     -24.712847      -672.4708
   6   2.0000     -19.256581      -523.9982
   7   2.0000     -19.133485      -520.6486
   8   2.0000     -19.115515      -520.1596
   9   2.0000     -19.104547      -519.8611
  10   2.0000     -14.415275      -392.2596
  11   2.0000     -14.406071      -392.0091
  12   2.0000     -14.396026      -391.7358
  13   2.0000     -14.344732      -390.3400
  14   2.0000     -10.438266      -284.0397
  15   2.0000     -10.331402      -281.1318
  16   2.0000     -10.316330      -280.7216
  17   2.0000     -10.301242      -280.3110
  18   2.0000     -10.300992      -280.3042
  19   2.0000     -10.298624      -280.2398
  20   2.0000     -10.297072      -280.1976
  21   2.0000     -10.287930      -279.9488
  22   2.0000     -10.257637      -279.1245
  23   2.0000     -10.242781      -278.7202
  24   2.0000     -10.241681      -278.6903
  25   2.0000     -10.230904      -278.3970
  26   2.0000     -10.226502      -278.2773
  27   2.0000     -10.220689      -278.1191
  28   2.0000     -10.217136      -278.0224
  29   2.0000     -10.215861      -277.9877
  30   2.0000     -10.212948      -277.9084
  31   2.0000     -10.208618      -277.7906
  32   2.0000     -10.207797      -277.7683
  33   2.0000     -10.203140      -277.6416
  34   2.0000     -10.190523      -277.2982
  35   2.0000      -7.990128      -217.4224
  36   2.0000      -5.953242      -161.9960
  37   2.0000      -5.948959      -161.8794
  38   2.0000      -5.947118      -161.8293
  39   2.0000      -1.276015       -34.7221
  40   2.0000      -1.230379       -33.4803
  41   2.0000      -1.227143       -33.3923
  42   2.0000      -1.199938       -32.6520
  43   2.0000      -1.198294       -32.6072
  44   2.0000      -1.186144       -32.2766
  45   2.0000      -1.068751       -29.0822
  46   2.0000      -1.036710       -28.2103
  47   2.0000      -1.016646       -27.6643
  48   2.0000      -0.988840       -26.9077
  49   2.0000      -0.977461       -26.5981
  50   2.0000      -0.937580       -25.5129
  51   2.0000      -0.927041       -25.2261
  52   2.0000      -0.885858       -24.1054
  53   2.0000      -0.857801       -23.3419
  54   2.0000      -0.822720       -22.3873
  55   2.0000      -0.814380       -22.1604
  56   2.0000      -0.808854       -22.0100
  57   2.0000      -0.777224       -21.1493
  58   2.0000      -0.766597       -20.8602
  59   2.0000      -0.754525       -20.5317
  60   2.0000      -0.741947       -20.1894
  61   2.0000      -0.727996       -19.8098
  62   2.0000      -0.714181       -19.4339
  63   2.0000      -0.694741       -18.9049
  64   2.0000      -0.665830       -18.1181
  65   2.0000      -0.648381       -17.6434
  66   2.0000      -0.644139       -17.5279
  67   2.0000      -0.633645       -17.2423
  68   2.0000      -0.630047       -17.1444
  69   2.0000      -0.613235       -16.6870
  70   2.0000      -0.598737       -16.2925
  71   2.0000      -0.585089       -15.9211
  72   2.0000      -0.576280       -15.6814
  73   2.0000      -0.568527       -15.4704
  74   2.0000      -0.566787       -15.4231
  75   2.0000      -0.565636       -15.3917
  76   2.0000      -0.541362       -14.7312
  77   2.0000      -0.538756       -14.6603
  78   2.0000      -0.533735       -14.5237
  79   2.0000      -0.532013       -14.4768
  80   2.0000      -0.518660       -14.1135
  81   2.0000      -0.508661       -13.8414
  82   2.0000      -0.501428       -13.6446
  83   2.0000      -0.500154       -13.6099
  84   2.0000      -0.486733       -13.2447
  85   2.0000      -0.483109       -13.1461
  86   2.0000      -0.479080       -13.0364
  87   2.0000      -0.475683       -12.9440
  88   2.0000      -0.464439       -12.6380
  89   2.0000      -0.464079       -12.6282
  90   2.0000      -0.460474       -12.5301
  91   2.0000      -0.458240       -12.4694
  92   2.0000      -0.450904       -12.2697
  93   2.0000      -0.447841       -12.1864
  94   2.0000      -0.441286       -12.0080
  95   2.0000      -0.440652       -11.9908
  96   2.0000      -0.438237       -11.9250
  97   2.0000      -0.435881       -11.8609
  98   2.0000      -0.435148       -11.8410
  99   2.0000      -0.430953       -11.7268
 100   2.0000      -0.421308       -11.4644
 101   2.0000      -0.416627       -11.3370
 102   2.0000      -0.412876       -11.2349
 103   2.0000      -0.412012       -11.2114
 104   2.0000      -0.409729       -11.1493
 105   2.0000      -0.409088       -11.1318
 106   2.0000      -0.399449       -10.8696
 107   2.0000      -0.399138       -10.8611
 108   2.0000      -0.398036       -10.8311
 109   2.0000      -0.394410       -10.7324
 110   2.0000      -0.392566       -10.6823
 111   2.0000      -0.383593       -10.4381
 112   2.0000      -0.381141       -10.3714
 113   2.0000      -0.380679       -10.3588
 114   2.0000      -0.373329       -10.1588
 115   2.0000      -0.368026       -10.0145
 116   2.0000      -0.362905        -9.8751
 117   2.0000      -0.355591        -9.6761
 118   2.0000      -0.328413        -8.9366
 119   2.0000      -0.320398        -8.7185
 120   2.0000      -0.304128        -8.2757
 121   2.0000      -0.291934        -7.9439
 122   2.0000      -0.289167        -7.8686
 123   2.0000      -0.276755        -7.5309
 124   2.0000      -0.270984        -7.3739
 125   2.0000      -0.267249        -7.2722
 126   2.0000      -0.260636        -7.0923
 127   2.0000      -0.258699        -7.0396
 128   2.0000      -0.244302        -6.6478
 129   2.0000      -0.227556        -6.1921
 130   2.0000      -0.209881        -5.7111
 131   0.0000      -0.056468        -1.5366
 132   0.0000      -0.042669        -1.1611
 133   0.0000      -0.018953        -0.5157
 134   0.0000      -0.015821        -0.4305
 135   0.0000      -0.008282        -0.2254

MULLIKEN ATOMIC CHARGES
-----------------------
   0 C :   -0.541888
   1 C :    0.260539
   2 O :   -0.405417
   3 C :    0.480146
   4 C :    0.041625
   5 C :    0.034119
   6 C :   -0.437250
   7 C :    0.569195
   8 O :   -0.434617
   9 N :   -0.648631
  10 C :    0.259547
  11 N :   -0.430938
  12 C :    0.205679
  13 C :    0.159135
  14 C :   -0.263433
  15 C :    0.412579
  16 F :   -0.299945
  17 C :   -0.217928
  18 C :    0.927096
  19 F :   -0.299993
  20 F :   -0.294115
  21 F :   -0.297993
  22 C :    0.408855
  23 F :   -0.299325
  24 C :   -0.273764
  25 C :   -0.395195
  26 S :    0.331547
  27 C :    0.510166
  28 O :   -0.492825
  29 N :   -0.484098
  30 C :   -0.314361
  31 C :    0.677067
  32 O :   -0.506340
  33 N :   -0.503508
  34 C :   -0.327178
  35 H :    0.174671
  36 H :    0.174938
  37 H :    0.174960
  38 H :    0.228502
  39 H :    0.137698
  40 H :    0.353452
  41 H :    0.172487
  42 H :    0.148887
  43 H :    0.188341
  44 H :    0.180035
  45 H :    0.200484
  46 H :    0.187029
  47 H :    0.197333
  48 H :    0.181442
  49 H :    0.191190
Sum of atomic charges:    0.0000000

LOEWDIN ATOMIC CHARGES
----------------------
   0 C :   -0.364796
   1 C :    0.016756
   2 O :   -0.002016
   3 C :    0.092117
   4 C :   -0.105013
   5 C :   -0.038684
   6 C :   -0.238935
   7 C :    0.156039
   8 O :   -0.245732
   9 N :   -0.206111
  10 C :   -0.077754
  11 N :   -0.185001
  12 C :   -0.010627
  13 C :    0.009305
  14 C :   -0.151328
  15 C :    0.140735
  16 F :   -0.088983
  17 C :   -0.129725
  18 C :    0.316385
  19 F :   -0.111131
  20 F :   -0.111999
  21 F :   -0.107094
  22 C :    0.141617
  23 F :   -0.088454
  24 C :   -0.162176
  25 C :   -0.339911
  26 S :    0.439239
  27 C :    0.112318
  28 O :   -0.292572
  29 N :   -0.028420
  30 C :   -0.259894
  31 C :    0.143281
  32 O :   -0.313654
  33 N :   -0.024569
  34 C :   -0.258975
  35 H :    0.147994
  36 H :    0.143463
  37 H :    0.143328
  38 H :    0.181080
  39 H :    0.126605
  40 H :    0.273552
  41 H :    0.160265
  42 H :    0.147209
  43 H :    0.164024
  44 H :    0.141642
  45 H :    0.155946
  46 H :    0.147758
  47 H :    0.152033
  48 H :    0.144613
  49 H :    0.146249

  Mayer bond orders larger than 0.100000
B(  0-C ,  1-C ) :   1.0262 B(  0-C , 35-H ) :   0.9368 B(  0-C , 36-H ) :   0.9300
B(  0-C , 37-H ) :   0.9261 B(  1-C ,  2-O ) :   0.9899 B(  1-C ,  5-C ) :   1.5421
B(  2-O ,  3-C ) :   1.0665 B(  3-C ,  4-C ) :   1.3730 B(  3-C , 33-N ) :   0.9754
B(  4-C ,  5-C ) :   1.3017 B(  4-C , 27-C ) :   1.0775 B(  5-C ,  6-C ) :   0.9952
B(  6-C ,  7-C ) :   0.9535 B(  6-C , 38-H ) :   0.8853 B(  6-C , 39-H ) :   0.9201
B(  7-C ,  8-O ) :   1.8509 B(  7-C ,  9-N ) :   1.0024 B(  9-N , 10-C ) :   0.9457
B(  9-N , 40-H ) :   0.8087 B( 10-C , 11-N ) :   1.4830 B( 10-C , 25-C ) :   0.1049
B( 10-C , 26-S ) :   1.1835 B( 11-N , 12-C ) :   1.2901 B( 12-C , 13-C ) :   1.0558
B( 12-C , 25-C ) :   1.5160 B( 13-C , 14-C ) :   1.3700 B( 13-C , 24-C ) :   1.3669
B( 14-C , 15-C ) :   1.3640 B( 14-C , 41-H ) :   0.9030 B( 15-C , 16-F ) :   0.9421
B( 15-C , 17-C ) :   1.3169 B( 17-C , 18-C ) :   0.9489 B( 17-C , 22-C ) :   1.3114
B( 18-C , 19-F ) :   0.9581 B( 18-C , 20-F ) :   0.9963 B( 18-C , 21-F ) :   0.9595
B( 22-C , 23-F ) :   0.9436 B( 22-C , 24-C ) :   1.3884 B( 24-C , 42-H ) :   0.9099
B( 25-C , 26-S ) :   1.1215 B( 25-C , 43-H ) :   0.9007 B( 27-C , 28-O ) :   1.7850
B( 27-C , 29-N ) :   0.9607 B( 29-N , 30-C ) :   0.9181 B( 29-N , 31-C ) :   1.0491
B( 30-C , 44-H ) :   0.9400 B( 30-C , 45-H ) :   0.9205 B( 30-C , 46-H ) :   0.9305
B( 31-C , 32-O ) :   1.7903 B( 31-C , 33-N ) :   1.0445 B( 33-N , 34-C ) :   0.9263
B( 34-C , 47-H ) :   0.9300 B( 34-C , 48-H ) :   0.9305 B( 34-C , 49-H ) :   0.9330

FINAL SINGLE POINT ENERGY     -2225.541916994584

DIPOLE MOMENT
-------------

Method             : SCF
Type of density    : Electron Density
Multiplicity       :   1
Irrep              :   0
Energy             : -2225.5419169945835165 Eh
Relativity type    :
Basis              : AO
                                X                 Y                 Z
Electronic contribution:     82.860690416       7.878600930      -0.799299303
Nuclear contribution   :    -84.527790006      -9.121133898      -0.682605090
                        -----------------------------------------
Total Dipole Moment    :     -1.667099590      -1.242532969      -1.481904393
                        -----------------------------------------
Magnitude (a.u.)       :      2.553262590
Magnitude (Debye)      :      6.489877744

Rotational constants in cm-1:             0.011061             0.000966             0.000961
Rotational constants in MHz :           331.604542            28.952321            28.806218

                             ****ORCA TERMINATED NORMALLY****
TOTAL RUN TIME: 0 days 0 hours 7 minutes 46 seconds 730 msec
