                         Program Version 6.0.0  -   RELEASE  -
|  1> ! B3LYP 6-31G* SP
|  2>
|  3> * xyz 0 1
|  4> C -6.6204 -1.0396 1.2039
|  5> C -6.2152 0.1380 0.2911
|  6> C -6.7611 -0.1057 -1.1330
|  7> C -6.8945 1.4153 0.8412
|  8> C -4.6768 0.2442 0.2417
|  9> C -3.9736 1.3894 0.6838
| 10> C -2.5785 1.4441 0.6228
| 11> C -1.8426 0.3707 0.1093
| 12> N -0.4066 0.4468 0.0800
| 13> C 0.4091 -0.2021 -0.9111
| 14> O -0.1078 -0.5674 -2.0028
| 15> N 1.8193 -0.4064 -0.6826
| 16> C 2.6854 -0.8480 -1.7869
| 17> C 4.0926 -0.2589 -1.6365
| 18> N 4.6125 -0.4382 -0.2751
| 19> C 5.9419 0.0204 0.0244
| 20> N 6.3018 1.2851 -0.3334
| 21> C 7.5390 1.7858 -0.0779
| 22> C 8.4914 0.9975 0.5670
| 23> C 8.1622 -0.3076 0.9325
| 24> C 6.8865 -0.8119 0.6611
| 25> Cl 6.5420 -2.4909 1.0560
| 26> C 3.7457 -0.9653 0.7854
| 27> C 2.3530 -0.3362 0.6878
| 28> C -2.5236 -0.7811 -0.3102
| 29> C -3.9179 -0.8409 -0.2502
| 30> H -7.7267 -1.1107 1.2881
| 31> H -6.2006 -0.9000 2.2236
| 32> H -6.2544 -2.0091 0.8062
| 33> H -6.4004 -1.0689 -1.5502
| 34> H -6.4407 0.7120 -1.8145
| 35> H -7.8722 -0.1418 -1.1287
| 36> H -8.0003 1.3004 0.8518
| 37> H -6.6566 2.2954 0.2053
| 38> H -6.5719 1.6177 1.8855
| 39> H -4.4819 2.2546 1.0820
| 40> H -2.0681 2.3341 0.9698
| 41> H 0.0599 1.0891 0.7587
| 42> H 2.2763 -0.5216 -2.7677
| 43> H 2.7413 -1.9581 -1.7854
| 44> H 4.0558 0.8264 -1.8752
| 45> H 4.7722 -0.7559 -2.3621
| 46> H 7.7824 2.7968 -0.3757
| 47> H 9.4787 1.3907 0.7722
| 48> H 8.9039 -0.9311 1.4156
| 49> H 3.6588 -2.0676 0.6736
| 50> H 4.1711 -0.7464 1.7896
| 51> H 1.6756 -0.8750 1.3859
| 52> H 2.4148 0.7282 1.0011
| 53> H -1.9797 -1.6473 -0.6629
| 54> H -4.4009 -1.7488 -0.5850
| 55> *
| 56>
| 57>                          ****END OF INPUT****

CARTESIAN COORDINATES (ANGSTROEM)
---------------------------------
  C     -6.620400   -1.039600    1.203900
  C     -6.215200    0.138000    0.291100
  C     -6.761100   -0.105700   -1.133000
  C     -6.894500    1.415300    0.841200
  C     -4.676800    0.244200    0.241700
  C     -3.973600    1.389400    0.683800
  C     -2.578500    1.444100    0.622800
  C     -1.842600    0.370700    0.109300
  N     -0.406600    0.446800    0.080000
  C      0.409100   -0.202100   -0.911100
  O     -0.107800   -0.567400   -2.002800
  N      1.819300   -0.406400   -0.682600
  C      2.685400   -0.848000   -1.786900
  C      4.092600   -0.258900   -1.636500
  N      4.612500   -0.438200   -0.275100
  C      5.941900    0.020400    0.024400
  N      6.301800    1.285100   -0.333400
  C      7.539000    1.785800   -0.077900
  C      8.491400    0.997500    0.567000
  C      8.162200   -0.307600    0.932500
  C      6.886500   -0.811900    0.661100
  Cl     6.542000   -2.490900    1.056000
  C      3.745700   -0.965300    0.785400
  C      2.353000   -0.336200    0.687800
  C     -2.523600   -0.781100   -0.310200
  C     -3.917900   -0.840900   -0.250200
  H     -7.726700   -1.110700    1.288100
  H     -6.200600   -0.900000    2.223600
  H     -6.254400   -2.009100    0.806200
  H     -6.400400   -1.068900   -1.550200
  H     -6.440700    0.712000   -1.814500
  H     -7.872200   -0.141800   -1.128700
  H     -8.000300    1.300400    0.851800
  H     -6.656600    2.295400    0.205300
  H     -6.571900    1.617700    1.885500
  H     -4.481900    2.254600    1.082000
  H     -2.068100    2.334100    0.969800
  H      0.059900    1.089100    0.758700
  H      2.276300   -0.521600   -2.767700
  H      2.741300   -1.958100   -1.785400
  H      4.055800    0.826400   -1.875200
  H      4.772200   -0.755900   -2.362100
  H      7.782400    2.796800   -0.375700
  H      9.478700    1.390700    0.772200
  H      8.903900   -0.931100    1.415600
  H      3.658800   -2.067600    0.673600
  H      4.171100   -0.746400    1.789600
  H      1.675600   -0.875000    1.385900
  H      2.414800    0.728200    1.001100
  H     -1.979700   -1.647300   -0.662900
  H     -4.400900   -1.748800   -0.585000

 Total Charge           Charge          ....    0
 Multiplicity           Mult            ....    1
 Number of Electrons    NEL             ....  198
 Basis Dimension        Dim             ....  418

ORBITAL ENERGIES
----------------

  NO   OCC          E(Eh)            E(eV)
   0   2.0000    -101.535238     -2762.9143
   1   2.0000     -19.093289      -519.5548
   2   2.0000     -14.360435      -390.7673
   3   2.0000     -14.353697      -390.5840
   4   2.0000     -14.337710      -390.1489
   5   2.0000     -14.335329      -390.0841
   6   2.0000     -10.308362      -280.5048
   7   2.0000     -10.270039      -279.4620
   8   2.0000     -10.254572      -279.0411
   9   2.0000     -10.228669      -278.3362
  10   2.0000     -10.226255      -278.2706
  11   2.0000     -10.225709      -278.2557
  12   2.0000     -10.220143      -278.1042
  13   2.0000     -10.218482      -278.0590
  14   2.0000     -10.214306      -277.9454
  15   2.0000     -10.213428      -277.9215
  16   2.0000     -10.198725      -277.5214
  17   2.0000     -10.189360      -277.2666
  18   2.0000     -10.176903      -276.9276
  19   2.0000     -10.174210      -276.8543
  20   2.0000     -10.172663      -276.8122
  21   2.0000     -10.170259      -276.7468
  22   2.0000     -10.168745      -276.7056
  23   2.0000     -10.163429      -276.5610
  24   2.0000     -10.161779      -276.5161
  25   2.0000     -10.160424      -276.4792
  26   2.0000      -9.466763      -257.6037
  27   2.0000      -7.229836      -196.7338
  28   2.0000      -7.220450      -196.4784
  29   2.0000      -7.220006      -196.4663
  30   2.0000      -1.010748       -27.5039
  31   2.0000      -0.964068       -26.2336
  32   2.0000      -0.928421       -25.2636
  33   2.0000      -0.907456       -24.6931
  34   2.0000      -0.890750       -24.2385
  35   2.0000      -0.873050       -23.7569
  36   2.0000      -0.838192       -22.8084
  37   2.0000      -0.797124       -21.6908
  38   2.0000      -0.794402       -21.6168
  39   2.0000      -0.776161       -21.1204
  40   2.0000      -0.757578       -20.6148
  41   2.0000      -0.734478       -19.9862
  42   2.0000      -0.719987       -19.5919
  43   2.0000      -0.698160       -18.9979
  44   2.0000      -0.671719       -18.2784
  45   2.0000      -0.670020       -18.2322
  46   2.0000      -0.662424       -18.0255
  47   2.0000      -0.634785       -17.2734
  48   2.0000      -0.625297       -17.0152
  49   2.0000      -0.610362       -16.6088
  50   2.0000      -0.599976       -16.3262
  51   2.0000      -0.578082       -15.7304
  52   2.0000      -0.550945       -14.9920
  53   2.0000      -0.537575       -14.6281
  54   2.0000      -0.535318       -14.5667
  55   2.0000      -0.521110       -14.1801
  56   2.0000      -0.508190       -13.8286
  57   2.0000      -0.504815       -13.7367
  58   2.0000      -0.500715       -13.6252
  59   2.0000      -0.480086       -13.0638
  60   2.0000      -0.469169       -12.7667
  61   2.0000      -0.457657       -12.4535
  62   2.0000      -0.454963       -12.3802
  63   2.0000      -0.445059       -12.1107
  64   2.0000      -0.437290       -11.8993
  65   2.0000      -0.434195       -11.8151
  66   2.0000      -0.427042       -11.6204
  67   2.0000      -0.425893       -11.5891
  68   2.0000      -0.416908       -11.3446
  69   2.0000      -0.413798       -11.2600
  70   2.0000      -0.408845       -11.1252
  71   2.0000      -0.407702       -11.0941
  72   2.0000      -0.400086       -10.8869
  73   2.0000      -0.398847       -10.8532
  74   2.0000      -0.393842       -10.7170
  75   2.0000      -0.384658       -10.4671
  76   2.0000      -0.383199       -10.4274
  77   2.0000      -0.378945       -10.3116
  78   2.0000      -0.375440       -10.2162
  79   2.0000      -0.370249       -10.0750
  80   2.0000      -0.363270        -9.8851
  81   2.0000      -0.358162        -9.7461
  82   2.0000      -0.353893        -9.6299
  83   2.0000      -0.347845        -9.4654
  84   2.0000      -0.345944        -9.4136
  85   2.0000      -0.342988        -9.3332
  86   2.0000      -0.320477        -8.7206
  87   2.0000      -0.319788        -8.7019
  88   2.0000      -0.312849        -8.5131
  89   2.0000      -0.305318        -8.3081
  90   2.0000      -0.290066        -7.8931
  91   2.0000      -0.278274        -7.5722
  92   2.0000      -0.263585        -7.1725
  93   2.0000      -0.259215        -7.0536
  94   2.0000      -0.248825        -6.7709
  95   2.0000      -0.234877        -6.3913
  96   2.0000      -0.224965        -6.1216
  97   2.0000      -0.207407        -5.6438
  98   2.0000      -0.200636        -5.4596
  99   0.0000      -0.034282        -0.9329
 100   0.0000      -0.018391        -0.5004
 101   0.0000       0.005496         0.1495
 102   0.0000       0.010105         0.2750
 103   0.0000       0.026037         0.7085

MULLIKEN ATOMIC CHARGES
-----------------------
   0 C :   -0.432962
   1 C :    0.037713
   2 C :   -0.433854
   3 C :   -0.451317
   4 C :    0.162041
   5 C :   -0.193206
   6 C :   -0.189263
   7 C :    0.355160
   8 N :   -0.728697
   9 C :    0.686040
  10 O :   -0.497012
  11 N :   -0.449675
  12 C :   -0.142673
  13 C :   -0.110903
  14 N :   -0.449510
  15 C :    0.386460
  16 N :   -0.398658
  17 C :    0.014368
  18 C :   -0.133561
  19 C :   -0.105193
  20 C :   -0.112576
  21 Cl:   -0.006361
  22 C :   -0.148279
  23 C :   -0.123429
  24 C :   -0.139685
  25 C :   -0.194681
  26 H :    0.133246
  27 H :    0.141176
  28 H :    0.137684
  29 H :    0.139036
  30 H :    0.145499
  31 H :    0.132412
  32 H :    0.137534
  33 H :    0.141035
  34 H :    0.138317
  35 H :    0.124914
  36 H :    0.116408
  37 H :    0.325980
  38 H :    0.189116
  39 H :    0.151170
  40 H :    0.162391
  41 H :    0.144137
  42 H :    0.153746
  43 H :    0.139393
  44 H :    0.162090
  45 H :    0.155886
  46 H :    0.162566
  47 H :    0.153015
  48 H :    0.139520
  49 H :    0.146777
  50 H :    0.126661
Sum of atomic charges:    0.0000000

LOEWDIN ATOMIC CHARGES
----------------------
   0 C :   -0.342494
   1 C :   -0.035076
   2 C :   -0.342633
   3 C :   -0.347807
   4 C :   -0.014312
   5 C :   -0.138082
   6 C :   -0.154719
   7 C :    0.038732
   8 N :   -0.227807
   9 C :    0.162230
  10 O :   -0.312989
  11 N :   -0.129867
  12 C :   -0.145963
  13 C :   -0.148543
  14 N :   -0.140824
  15 C :    0.061451
  16 N :   -0.139332
  17 C :   -0.065103
  18 C :   -0.154355
  19 C :   -0.107051
  20 C :   -0.117727
  21 Cl:    0.039312
  22 C :   -0.149561
  23 C :   -0.160077
  24 C :   -0.128674
  25 C :   -0.127442
  26 H :    0.118581
  27 H :    0.123237
  28 H :    0.119812
  29 H :    0.120478
  30 H :    0.125490
  31 H :    0.118192
  32 H :    0.122586
  33 H :    0.121813
  34 H :    0.120311
  35 H :    0.133248
  36 H :    0.126499
  37 H :    0.253597
  38 H :    0.155108
  39 H :    0.119880
  40 H :    0.126406
  41 H :    0.123430
  42 H :    0.137508
  43 H :    0.139073
  44 H :    0.149027
  45 H :    0.119187
  46 H :    0.140088
  47 H :    0.127216
  48 H :    0.113329
  49 H :    0.143959
  50 H :    0.130660

  Mayer bond orders larger than 0.100000
B(  0-C ,  1-C ) :   0.9905 B(  0-C , 26-H ) :   0.9434 B(  0-C , 27-H ) :   0.9475
B(  0-C , 28-H ) :   0.9430 B(  1-C ,  2-C ) :   0.9909 B(  1-C ,  3-C ) :   0.9993
B(  1-C ,  4-C ) :   0.9725 B(  2-C , 29-H ) :   0.9425 B(  2-C , 30-H ) :   0.9469
B(  2-C , 31-H ) :   0.9433 B(  3-C , 32-H ) :   0.9435 B(  3-C , 33-H ) :   0.9412
B(  3-C , 34-H ) :   0.9411 B(  4-C ,  5-C ) :   1.4362 B(  4-C , 25-C ) :   1.3858
B(  5-C ,  6-C ) :   1.4220 B(  5-C , 35-H ) :   0.9177 B(  6-C ,  7-C ) :   1.4145
B(  6-C , 36-H ) :   0.9243 B(  7-C ,  8-N ) :   0.8635 B(  7-C , 24-C ) :   1.4156
B(  8-N ,  9-C ) :   1.0021 B(  8-N , 37-H ) :   0.8221 B(  9-C , 10-O ) :   1.7838
B(  9-C , 11-N ) :   1.0587 B( 11-N , 12-C ) :   0.9393 B( 11-N , 23-C ) :   0.9416
B( 12-C , 13-C ) :   0.9918 B( 12-C , 38-H ) :   0.9181 B( 12-C , 39-H ) :   0.9272
B( 13-C , 14-N ) :   0.9455 B( 13-C , 40-H ) :   0.9182 B( 13-C , 41-H ) :   0.9272
B( 14-N , 15-C ) :   1.0386 B( 14-N , 22-C ) :   0.9659 B( 15-C , 16-N ) :   1.3802
B( 15-C , 20-C ) :   1.3145 B( 16-N , 17-C ) :   1.4203 B( 17-C , 18-C ) :   1.4190
B( 17-C , 42-H ) :   0.9285 B( 18-C , 19-C ) :   1.4485 B( 18-C , 43-H ) :   0.9238
B( 19-C , 20-C ) :   1.4215 B( 19-C , 44-H ) :   0.9211 B( 20-C , 21-Cl) :   1.0184
B( 22-C , 23-C ) :   0.9966 B( 22-C , 45-H ) :   0.9190 B( 22-C , 46-H ) :   0.9310
B( 23-C , 47-H ) :   0.9208 B( 23-C , 48-H ) :   0.9207 B( 24-C , 25-C ) :   1.4444
B( 24-C , 49-H ) :   0.9123 B( 25-C , 50-H ) :   0.9218

FINAL SINGLE POINT ENERGY     -1530.842227436276

DIPOLE MOMENT
-------------

Method             : SCF
Type of density    : Electron Density
Multiplicity       :   1
Irrep              :   0
Energy             : -1530.8422274362760618 Eh
Relativity type    :
Basis              : AO
                                X                 Y                 Z
Electronic contribution:     57.201863370      -7.756978248       1.200737302
Nuclear contribution   :    -55.970155403       8.210947314       0.064054257
                        -----------------------------------------
Total Dipole Moment    :      1.231707967       0.453969066       1.264791559
                        -----------------------------------------
Magnitude (a.u.)       :      1.822879622
Magnitude (Debye)      :      4.633391778

Rotational constants in cm-1:             0.021212             0.001704             0.001680
Rotational constants in MHz :           635.911961            51.075534            50.373986

                             ****ORCA TERMINATED NORMALLY****
TOTAL RUN TIME: 0 days 0 hours 5 minutes 12 seconds 953 msec
