                         Program Version 6.0.0  -   RELEASE  -
|  1> ! B3LYP 6-31G* SP
|  2>
|  3> * xyz 0 1
|  4> C -2.2813 3.3207 -0.9150
|  5> N -2.7942 1.9723 -0.6003
|  6> C -2.3027 1.2982 0.4833
|  7> O -1.4270 1.8551 1.1980
|  8> C -2.7663 -0.0028 0.7970
|  9> C -2.3079 -0.7590 1.9317
| 10> C -1.2491 -0.2860 2.9144
| 11> C 0.1278 -0.3636 2.3175
| 12> O 0.8804 0.6464 2.3722
| 13> N 0.5981 -1.5924 1.7412
| 14> C 1.8127 -1.7013 0.9892
| 15> N 2.6111 -0.6563 0.6835
| 16> C 3.6876 -1.0364 -0.0597
| 17> C 4.6847 -0.0459 -0.5321
| 18> C 4.2780 1.2809 -0.7661
| 19> C 5.1936 2.2367 -1.2150
| 20> C 6.5273 1.8835 -1.4273
| 21> F 7.4144 2.8127 -1.8607
| 22> C 6.9492 0.5746 -1.1840
| 23> C 6.0391 -0.3890 -0.7353
| 24> F 6.4988 -1.6346 -0.4572
| 25> C 3.7307 -2.4007 -0.3619
| 26> S 2.3879 -3.1361 0.3362
| 27> C -2.8310 -2.0424 2.1567
| 28> C -3.7822 -2.5861 1.3110
| 29> C -4.2331 -1.8702 0.2130
| 30> C -3.7401 -0.5745 -0.0731
| 31> N -4.1820 0.1232 -1.1786
| 32> C -5.1776 -0.4748 -2.0960
| 33> C -3.6965 1.3796 -1.4397
| 34> O -4.0821 2.0020 -2.4707
| 35> H -3.0413 3.9335 -1.4451
| 36> H -1.3742 3.2354 -1.5496
| 37> H -2.0292 3.8846 0.0086
| 38> H -1.2490 -0.9137 3.8319
| 39> H -1.4811 0.7355 3.2807
| 40> H 0.0191 -2.4540 1.8562
| 41> H 3.2468 1.5764 -0.6152
| 42> H 4.8668 3.2521 -1.3990
| 43> H 7.9874 0.3074 -1.3342
| 44> H 4.4662 -2.9051 -0.9728
| 45> H -2.4951 -2.6382 2.9970
| 46> H -4.1713 -3.5776 1.5055
| 47> H -4.9723 -2.3553 -0.4074
| 48> H -4.7732 -1.4121 -2.5346
| 49> H -5.4484 0.1844 -2.9459
| 50> H -6.1194 -0.6868 -1.5462
| 51> *
| 52>
| 53>                          ****END OF INPUT****

CARTESIAN COORDINATES (ANGSTROEM)
---------------------------------
  C     -2.281300    3.320700   -0.915000
  N     -2.794200    1.972300   -0.600300
  C     -2.302700    1.298200    0.483300
  O     -1.427000    1.855100    1.198000
  C     -2.766300   -0.002800    0.797000
  C     -2.307900   -0.759000    1.931700
  C     -1.249100   -0.286000    2.914400
  C      0.127800   -0.363600    2.317500
  O      0.880400    0.646400    2.372200
  N      0.598100   -1.592400    1.741200
  C      1.812700   -1.701300    0.989200
  N      2.611100   -0.656300    0.683500
  C      3.687600   -1.036400   -0.059700
  C      4.684700   -0.045900   -0.532100
  C      4.278000    1.280900   -0.766100
  C      5.193600    2.236700   -1.215000
  C      6.527300    1.883500   -1.427300
  F      7.414400    2.812700   -1.860700
  C      6.949200    0.574600   -1.184000
  C      6.039100   -0.389000   -0.735300
  F      6.498800   -1.634600   -0.457200
  C      3.730700   -2.400700   -0.361900
  S      2.387900   -3.136100    0.336200
  C     -2.831000   -2.042400    2.156700
  C     -3.782200   -2.586100    1.311000
  C     -4.233100   -1.870200    0.213000
  C     -3.740100   -0.574500   -0.073100
  N     -4.182000    0.123200   -1.178600
  C     -5.177600   -0.474800   -2.096000
  C     -3.696500    1.379600   -1.439700
  O     -4.082100    2.002000   -2.470700
  H     -3.041300    3.933500   -1.445100
  H     -1.374200    3.235400   -1.549600
  H     -2.029200    3.884600    0.008600
  H     -1.249000   -0.913700    3.831900
  H     -1.481100    0.735500    3.280700
  H      0.019100   -2.454000    1.856200
  H      3.246800    1.576400   -0.615200
  H      4.866800    3.252100   -1.399000
  H      7.987400    0.307400   -1.334200
  H      4.466200   -2.905100   -0.972800
  H     -2.495100   -2.638200    2.997000
  H     -4.171300   -3.577600    1.505500
  H     -4.972300   -2.355300   -0.407400
  H     -4.773200   -1.412100   -2.534600
  H     -5.448400    0.184400   -2.945900
  H     -6.119400   -0.686800   -1.546200

 Total Charge           Charge          ....    0
 Multiplicity           Mult            ....    1
 Number of Electrons    NEL             ....  228
 Basis Dimension        Dim             ....  470

ORBITAL ENERGIES
----------------

  NO   OCC          E(Eh)            E(eV)
   0   2.0000     -88.900839     -2419.1148
   1   2.0000     -24.705777      -672.2784
   2   2.0000     -24.697889      -672.0637
   3   2.0000     -19.111210      -520.0425
   4   2.0000     -19.110405      -520.0206
   5   2.0000     -19.105926      -519.8987
   6   2.0000     -14.406443      -392.0193
   7   2.0000     -14.396081      -391.7373
   8   2.0000     -14.386469      -391.4757
   9   2.0000     -14.318763      -389.6333
  10   2.0000     -10.327329      -281.0209
  11   2.0000     -10.293575      -280.1024
  12   2.0000     -10.292962      -280.0857
  13   2.0000     -10.283668      -279.8328
  14   2.0000     -10.275643      -279.6144
  15   2.0000     -10.270802      -279.4827
  16   2.0000     -10.265190      -279.3300
  17   2.0000     -10.237246      -278.5696
  18   2.0000     -10.230661      -278.3904
  19   2.0000     -10.220261      -278.1074
  20   2.0000     -10.218843      -278.0688
  21   2.0000     -10.216853      -278.0147
  22   2.0000     -10.212489      -277.8959
  23   2.0000     -10.207467      -277.7593
  24   2.0000     -10.202149      -277.6146
  25   2.0000     -10.202034      -277.6115
  26   2.0000     -10.201060      -277.5850
  27   2.0000     -10.199915      -277.5538
  28   2.0000     -10.190985      -277.3108
  29   2.0000     -10.189926      -277.2820
  30   2.0000     -10.184012      -277.1211
  31   2.0000      -7.978688      -217.1111
  32   2.0000      -5.941749      -161.6832
  33   2.0000      -5.937662      -161.5720
  34   2.0000      -5.935508      -161.5134
  35   2.0000      -1.218411       -33.1546
  36   2.0000      -1.210788       -32.9472
  37   2.0000      -1.069840       -29.1118
  38   2.0000      -1.022481       -27.8231
  39   2.0000      -1.009870       -27.4800
  40   2.0000      -0.973802       -26.4985
  41   2.0000      -0.967125       -26.3168
  42   2.0000      -0.939521       -25.5657
  43   2.0000      -0.908525       -24.7222
  44   2.0000      -0.876385       -23.8476
  45   2.0000      -0.860112       -23.4048
  46   2.0000      -0.806811       -21.9545
  47   2.0000      -0.802742       -21.8437
  48   2.0000      -0.792602       -21.5678
  49   2.0000      -0.772311       -21.0157
  50   2.0000      -0.750659       -20.4265
  51   2.0000      -0.748737       -20.3742
  52   2.0000      -0.732084       -19.9210
  53   2.0000      -0.716383       -19.4938
  54   2.0000      -0.705521       -19.1982
  55   2.0000      -0.658584       -17.9210
  56   2.0000      -0.657352       -17.8875
  57   2.0000      -0.632033       -17.1985
  58   2.0000      -0.625735       -17.0271
  59   2.0000      -0.615834       -16.7577
  60   2.0000      -0.601825       -16.3765
  61   2.0000      -0.592888       -16.1333
  62   2.0000      -0.577225       -15.7071
  63   2.0000      -0.554844       -15.0981
  64   2.0000      -0.551851       -15.0166
  65   2.0000      -0.540457       -14.7066
  66   2.0000      -0.522990       -14.2313
  67   2.0000      -0.518269       -14.1028
  68   2.0000      -0.505209       -13.7474
  69   2.0000      -0.502471       -13.6729
  70   2.0000      -0.493338       -13.4244
  71   2.0000      -0.492476       -13.4010
  72   2.0000      -0.483154       -13.1473
  73   2.0000      -0.476582       -12.9685
  74   2.0000      -0.465587       -12.6693
  75   2.0000      -0.463108       -12.6018
  76   2.0000      -0.462855       -12.5949
  77   2.0000      -0.460607       -12.5338
  78   2.0000      -0.452214       -12.3054
  79   2.0000      -0.449028       -12.2187
  80   2.0000      -0.441673       -12.0185
  81   2.0000      -0.433686       -11.8012
  82   2.0000      -0.430893       -11.7252
  83   2.0000      -0.426308       -11.6004
  84   2.0000      -0.424517       -11.5517
  85   2.0000      -0.419921       -11.4266
  86   2.0000      -0.414105       -11.2684
  87   2.0000      -0.404347       -11.0028
  88   2.0000      -0.402488       -10.9523
  89   2.0000      -0.400495       -10.8980
  90   2.0000      -0.395470       -10.7613
  91   2.0000      -0.387494       -10.5442
  92   2.0000      -0.385447       -10.4885
  93   2.0000      -0.375922       -10.2294
  94   2.0000      -0.374201       -10.1825
  95   2.0000      -0.368842       -10.0367
  96   2.0000      -0.364221        -9.9110
  97   2.0000      -0.361465        -9.8360
  98   2.0000      -0.354031        -9.6337
  99   2.0000      -0.351080        -9.5534
 100   2.0000      -0.344120        -9.3640
 101   2.0000      -0.321360        -8.7446
 102   2.0000      -0.298190        -8.1142
 103   2.0000      -0.285486        -7.7685
 104   2.0000      -0.276004        -7.5104
 105   2.0000      -0.272772        -7.4225
 106   2.0000      -0.268454        -7.3050
 107   2.0000      -0.264344        -7.1932
 108   2.0000      -0.249439        -6.7876
 109   2.0000      -0.246941        -6.7196
 110   2.0000      -0.241141        -6.5618
 111   2.0000      -0.237202        -6.4546
 112   2.0000      -0.222731        -6.0608
 113   2.0000      -0.204432        -5.5629
 114   0.0000      -0.062670        -1.7053
 115   0.0000      -0.032426        -0.8824
 116   0.0000      -0.023419        -0.6373
 117   0.0000      -0.010654        -0.2899
 118   0.0000      -0.001091        -0.0297

MULLIKEN ATOMIC CHARGES
-----------------------
   0 C :   -0.313773
   1 N :   -0.463569
   2 C :    0.498600
   3 O :   -0.471204
   4 C :    0.009877
   5 C :    0.097744
   6 C :   -0.421948
   7 C :    0.583809
   8 O :   -0.410427
   9 N :   -0.664672
  10 C :    0.252613
  11 N :   -0.368021
  12 C :    0.217032
  13 C :    0.011418
  14 C :   -0.137373
  15 C :   -0.218205
  16 C :    0.431628
  17 F :   -0.316808
  18 C :   -0.298337
  19 C :    0.374302
  20 F :   -0.312611
  21 C :   -0.385375
  22 S :    0.236595
  23 C :   -0.214772
  24 C :   -0.104149
  25 C :   -0.198250
  26 C :    0.320277
  27 N :   -0.511339
  28 C :   -0.336325
  29 C :    0.671668
  30 O :   -0.509134
  31 H :    0.193895
  32 H :    0.180379
  33 H :    0.197129
  34 H :    0.160490
  35 H :    0.219397
  36 H :    0.338177
  37 H :    0.180995
  38 H :    0.148042
  39 H :    0.156783
  40 H :    0.187212
  41 H :    0.132002
  42 H :    0.144263
  43 H :    0.142978
  44 H :    0.171858
  45 H :    0.225631
  46 H :    0.171495
Sum of atomic charges:   -0.0000000

LOEWDIN ATOMIC CHARGES
----------------------
   0 C :   -0.258102
   1 N :   -0.020649
   2 C :    0.110214
   3 O :   -0.266013
   4 C :   -0.071797
   5 C :    0.029760
   6 C :   -0.237616
   7 C :    0.153871
   8 O :   -0.222250
   9 N :   -0.212767
  10 C :   -0.081913
  11 N :   -0.152109
  12 C :   -0.003959
  13 C :   -0.053244
  14 C :   -0.092440
  15 C :   -0.164576
  16 C :    0.122376
  17 F :   -0.101097
  18 C :   -0.187784
  19 C :    0.125786
  20 F :   -0.096537
  21 C :   -0.345241
  22 S :    0.377811
  23 C :   -0.163751
  24 C :   -0.101507
  25 C :   -0.165266
  26 C :    0.055301
  27 N :   -0.027586
  28 C :   -0.265287
  29 C :    0.137057
  30 O :   -0.318062
  31 H :    0.151867
  32 H :    0.142311
  33 H :    0.153477
  34 H :    0.138952
  35 H :    0.174559
  36 H :    0.261636
  37 H :    0.159729
  38 H :    0.145304
  39 H :    0.153149
  40 H :    0.163930
  41 H :    0.132197
  42 H :    0.140178
  43 H :    0.141221
  44 H :    0.135196
  45 H :    0.168815
  46 H :    0.134858

  Mayer bond orders larger than 0.100000
B(  0-C ,  1-N ) :   0.9162 B(  0-C , 31-H ) :   0.9257 B(  0-C , 32-H ) :   0.9402
B(  0-C , 33-H ) :   0.9238 B(  1-N ,  2-C ) :   0.9915 B(  1-N , 29-C ) :   1.0452
B(  2-C ,  3-O ) :   1.7702 B(  2-C ,  4-C ) :   1.0523 B(  4-C ,  5-C ) :   1.3662
B(  4-C , 26-C ) :   1.2882 B(  5-C ,  6-C ) :   0.9774 B(  5-C , 23-C ) :   1.4199
B(  6-C ,  7-C ) :   0.9537 B(  6-C , 34-H ) :   0.9136 B(  6-C , 35-H ) :   0.8955
B(  7-C ,  8-O ) :   1.8982 B(  7-C ,  9-N ) :   0.9679 B(  9-N , 10-C ) :   0.9551
B(  9-N , 36-H ) :   0.8145 B( 10-C , 11-N ) :   1.5168 B( 10-C , 21-C ) :   0.1108
B( 10-C , 22-S ) :   1.1358 B( 11-N , 12-C ) :   1.2676 B( 12-C , 13-C ) :   1.0197
B( 12-C , 21-C ) :   1.5242 B( 13-C , 14-C ) :   1.3996 B( 13-C , 19-C ) :   1.3344
B( 14-C , 15-C ) :   1.4168 B( 14-C , 37-H ) :   0.9106 B( 15-C , 16-C ) :   1.3863
B( 15-C , 38-H ) :   0.9209 B( 16-C , 17-F ) :   0.9134 B( 16-C , 18-C ) :   1.3707
B( 18-C , 19-C ) :   1.3672 B( 18-C , 39-H ) :   0.9118 B( 19-C , 20-F ) :   0.9110
B( 21-C , 22-S ) :   1.1113 B( 21-C , 40-H ) :   0.9005 B( 23-C , 24-C ) :   1.4028
B( 23-C , 41-H ) :   0.9243 B( 24-C , 25-C ) :   1.4737 B( 24-C , 42-H ) :   0.9257
B( 25-C , 26-C ) :   1.3405 B( 25-C , 43-H ) :   0.9140 B( 26-C , 27-N ) :   0.9747
B( 27-N , 28-C ) :   0.9343 B( 27-N , 29-C ) :   1.0393 B( 28-C , 44-H ) :   0.9320
B( 28-C , 45-H ) :   0.9133 B( 28-C , 46-H ) :   0.9320 B( 29-C , 30-O ) :   1.7862

FINAL SINGLE POINT ENERGY     -1851.546063851915

DIPOLE MOMENT
-------------

Method             : SCF
Type of density    : Electron Density
Multiplicity       :   1
Irrep              :   0
Energy             : -1851.5460638519145959 Eh
Relativity type    :
Basis              : AO
                                X                 Y                 Z
Electronic contribution:     35.324090413      -2.648107137      -0.472899865
Nuclear contribution   :    -37.582417829       0.378916506       0.374772757
                        -----------------------------------------
Total Dipole Moment    :     -2.258327416      -2.269190630      -0.098127107
                        -----------------------------------------
Magnitude (a.u.)       :      3.202951414
Magnitude (Debye)      :      8.141255499

Rotational constants in cm-1:             0.007313             0.002207             0.001922
Rotational constants in MHz :           219.224804            66.161076            57.623003

                             ****ORCA TERMINATED NORMALLY****
TOTAL RUN TIME: 0 days 0 hours 7 minutes 18 seconds 175 msec
