                         Program Version 6.0.0  -   RELEASE  -
|  1> ! B3LYP 6-31G* SP
|  2>
|  3> * xyz -1 1
|  4> C 0.8908 -0.4966 -2.6709
|  5> C -0.2460 0.3922 -2.2465
|  6> C -0.8130 1.2804 -3.1721
|  7> C -1.8638 2.1315 -2.7926
|  8> C -2.4535 3.0511 -3.6889
|  9> Cl -1.9225 3.2081 -5.3617
| 10> C -3.4958 3.8770 -3.2492
| 11> C -3.9557 3.7987 -1.9329
| 12> C -3.3790 2.8934 -1.0413
| 13> C -2.3378 2.0604 -1.4626
| 14> N -1.7868 1.1790 -0.5893
| 15> C -0.7764 0.3406 -0.9411
| 16> N -0.2448 -0.5556 0.0436
| 17> C 0.4011 -0.0181 1.2421
| 18> C 1.7346 0.5752 0.8813
| 19> C 2.8778 -0.2356 0.8369
| 20> C 4.1076 0.2973 0.4403
| 21> C 4.2081 1.6527 0.0702
| 22> O 5.4161 2.2395 -0.3402
| 23> C 6.6713 1.5675 -0.4282
| 24> F 7.0427 1.0880 0.8152
| 25> F 6.5917 0.5247 -1.3323
| 26> F 7.6296 2.4618 -0.8650
| 27> C 3.0611 2.4551 0.1049
| 28> C 1.8318 1.9223 0.5024
| 29> S -0.5475 -2.2612 -0.0859
| 30> O 0.7607 -2.9768 -0.2769
| 31> O -1.4356 -2.5425 -1.2655
| 32> C -1.3576 -2.8242 1.3714
| 33> C -0.8564 -3.9132 2.0955
| 34> C -1.5019 -4.3404 3.2602
| 35> C -2.6600 -3.6845 3.7157
| 36> C -3.3457 -4.1324 4.9479
| 37> O -2.8935 -5.0992 5.6175
| 38> O -4.5002 -3.4917 5.3847
| 39> C -3.1581 -2.5937 2.9819
| 40> C -2.5097 -2.1676 1.8187
| 41> H 1.4319 -0.0642 -3.5383
| 42> H 1.6255 -0.6172 -1.8484
| 43> H 0.4965 -1.4913 -2.9603
| 44> H -0.4213 1.3063 -4.1805
| 45> H -3.9525 4.5843 -3.9301
| 46> H -4.7617 4.4420 -1.6035
| 47> H -3.7433 2.8399 -0.0229
| 48> H -0.2538 0.7475 1.7129
| 49> H 0.5462 -0.8197 1.9983
| 50> H 2.8150 -1.2835 1.1021
| 51> H 4.9688 -0.3556 0.4201
| 52> H 3.1225 3.4970 -0.1834
| 53> H 0.9543 2.5572 0.5060
| 54> H 0.0331 -4.4323 1.7633
| 55> H -1.0935 -5.1835 3.8033
| 56> H -4.0470 -2.0673 3.3066
| 57> H -2.9041 -1.3231 1.2675
| 58> *
| 59>
| 60>                          ****END OF INPUT****

CARTESIAN COORDINATES (ANGSTROEM)
---------------------------------
  C      0.890800   -0.496600   -2.670900
  C     -0.246000    0.392200   -2.246500
  C     -0.813000    1.280400   -3.172100
  C     -1.863800    2.131500   -2.792600
  C     -2.453500    3.051100   -3.688900
  Cl    -1.922500    3.208100   -5.361700
  C     -3.495800    3.877000   -3.249200
  C     -3.955700    3.798700   -1.932900
  C     -3.379000    2.893400   -1.041300
  C     -2.337800    2.060400   -1.462600
  N     -1.786800    1.179000   -0.589300
  C     -0.776400    0.340600   -0.941100
  N     -0.244800   -0.555600    0.043600
  C      0.401100   -0.018100    1.242100
  C      1.734600    0.575200    0.881300
  C      2.877800   -0.235600    0.836900
  C      4.107600    0.297300    0.440300
  C      4.208100    1.652700    0.070200
  O      5.416100    2.239500   -0.340200
  C      6.671300    1.567500   -0.428200
  F      7.042700    1.088000    0.815200
  F      6.591700    0.524700   -1.332300
  F      7.629600    2.461800   -0.865000
  C      3.061100    2.455100    0.104900
  C      1.831800    1.922300    0.502400
  S     -0.547500   -2.261200   -0.085900
  O      0.760700   -2.976800   -0.276900
  O     -1.435600   -2.542500   -1.265500
  C     -1.357600   -2.824200    1.371400
  C     -0.856400   -3.913200    2.095500
  C     -1.501900   -4.340400    3.260200
  C     -2.660000   -3.684500    3.715700
  C     -3.345700   -4.132400    4.947900
  O     -2.893500   -5.099200    5.617500
  O     -4.500200   -3.491700    5.384700
  C     -3.158100   -2.593700    2.981900
  C     -2.509700   -2.167600    1.818700
  H      1.431900   -0.064200   -3.538300
  H      1.625500   -0.617200   -1.848400
  H      0.496500   -1.491300   -2.960300
  H     -0.421300    1.306300   -4.180500
  H     -3.952500    4.584300   -3.930100
  H     -4.761700    4.442000   -1.603500
  H     -3.743300    2.839900   -0.022900
  H     -0.253800    0.747500    1.712900
  H      0.546200   -0.819700    1.998300
  H      2.815000   -1.283500    1.102100
  H      4.968800   -0.355600    0.420100
  H      3.122500    3.497000   -0.183400
  H      0.954300    2.557200    0.506000
  H      0.033100   -4.432300    1.763300
  H     -1.093500   -5.183500    3.803300
  H     -4.047000   -2.067300    3.306600
  H     -2.904100   -1.323100    1.267500

 Total Charge           Charge          ....   -1
 Multiplicity           Mult            ....    1
 Number of Electrons    NEL             ....  282
 Basis Dimension        Dim             ....  560

ORBITAL ENERGIES
----------------

  NO   OCC          E(Eh)            E(eV)
   0   2.0000    -101.481574     -2761.4540
   1   2.0000     -89.012902     -2422.1642
   2   2.0000     -24.694614      -671.9746
   3   2.0000     -24.689937      -671.8473
   4   2.0000     -24.689608      -671.8384
   5   2.0000     -19.158418      -521.3270
   6   2.0000     -19.034637      -517.9588
   7   2.0000     -19.034307      -517.9498
   8   2.0000     -18.913674      -514.6672
   9   2.0000     -18.886449      -513.9264
  10   2.0000     -14.302069      -389.1791
  11   2.0000     -14.277031      -388.4978
  12   2.0000     -10.454913      -284.4926
  13   2.0000     -10.209203      -277.8065
  14   2.0000     -10.205574      -277.7078
  15   2.0000     -10.194313      -277.4014
  16   2.0000     -10.171493      -276.7804
  17   2.0000     -10.165049      -276.6051
  18   2.0000     -10.148693      -276.1600
  19   2.0000     -10.146918      -276.1117
  20   2.0000     -10.144343      -276.0416
  21   2.0000     -10.143461      -276.0176
  22   2.0000     -10.139220      -275.9022
  23   2.0000     -10.138255      -275.8759
  24   2.0000     -10.137682      -275.8604
  25   2.0000     -10.137551      -275.8568
  26   2.0000     -10.136882      -275.8386
  27   2.0000     -10.136430      -275.8263
  28   2.0000     -10.133306      -275.7413
  29   2.0000     -10.122330      -275.4426
  30   2.0000     -10.106950      -275.0241
  31   2.0000     -10.098085      -274.7829
  32   2.0000     -10.097976      -274.7799
  33   2.0000     -10.095183      -274.7039
  34   2.0000     -10.079040      -274.2646
  35   2.0000     -10.078554      -274.2514
  36   2.0000     -10.077598      -274.2254
  37   2.0000      -9.413053      -256.1422
  38   2.0000      -8.048252      -219.0041
  39   2.0000      -7.176025      -195.2696
  40   2.0000      -7.166756      -195.0174
  41   2.0000      -7.166433      -195.0086
  42   2.0000      -6.013866      -163.6456
  43   2.0000      -6.011363      -163.5775
  44   2.0000      -6.010247      -163.5471
  45   2.0000      -1.255956       -34.1763
  46   2.0000      -1.177107       -32.0307
  47   2.0000      -1.175990       -32.0003
  48   2.0000      -1.028941       -27.9989
  49   2.0000      -0.998047       -27.1582
  50   2.0000      -0.902524       -24.5589
  51   2.0000      -0.875898       -23.8344
  52   2.0000      -0.857791       -23.3417
  53   2.0000      -0.829522       -22.5724
  54   2.0000      -0.820103       -22.3161
  55   2.0000      -0.804884       -21.9020
  56   2.0000      -0.776671       -21.1343
  57   2.0000      -0.761682       -20.7264
  58   2.0000      -0.754015       -20.5178
  59   2.0000      -0.727798       -19.8044
  60   2.0000      -0.710327       -19.3290
  61   2.0000      -0.699820       -19.0431
  62   2.0000      -0.699321       -19.0295
  63   2.0000      -0.681051       -18.5323
  64   2.0000      -0.674668       -18.3586
  65   2.0000      -0.663406       -18.0522
  66   2.0000      -0.647467       -17.6185
  67   2.0000      -0.628582       -17.1046
  68   2.0000      -0.624377       -16.9902
  69   2.0000      -0.606273       -16.4975
  70   2.0000      -0.578354       -15.7378
  71   2.0000      -0.567729       -15.4487
  72   2.0000      -0.559081       -15.2134
  73   2.0000      -0.552434       -15.0325
  74   2.0000      -0.547453       -14.8969
  75   2.0000      -0.541655       -14.7392
  76   2.0000      -0.540530       -14.7086
  77   2.0000      -0.516274       -14.0485
  78   2.0000      -0.509798       -13.8723
  79   2.0000      -0.503781       -13.7086
  80   2.0000      -0.475995       -12.9525
  81   2.0000      -0.461939       -12.5700
  82   2.0000      -0.452081       -12.3017
  83   2.0000      -0.449215       -12.2238
  84   2.0000      -0.437021       -11.8920
  85   2.0000      -0.429592       -11.6898
  86   2.0000      -0.422266       -11.4904
  87   2.0000      -0.421694       -11.4749
  88   2.0000      -0.419819       -11.4239
  89   2.0000      -0.411344       -11.1932
  90   2.0000      -0.408849       -11.1254
  91   2.0000      -0.399548       -10.8723
  92   2.0000      -0.395967       -10.7748
  93   2.0000      -0.393242       -10.7007
  94   2.0000      -0.387318       -10.5395
  95   2.0000      -0.385912       -10.5012
  96   2.0000      -0.381190       -10.3727
  97   2.0000      -0.373560       -10.1651
  98   2.0000      -0.368548       -10.0287
  99   2.0000      -0.368428       -10.0254
 100   2.0000      -0.366516        -9.9734
 101   2.0000      -0.358829        -9.7642
 102   2.0000      -0.352617        -9.5952
 103   2.0000      -0.347336        -9.4515
 104   2.0000      -0.344176        -9.3655
 105   2.0000      -0.341636        -9.2964
 106   2.0000      -0.339610        -9.2413
 107   2.0000      -0.336203        -9.1485
 108   2.0000      -0.327185        -8.9032
 109   2.0000      -0.321287        -8.7427
 110   2.0000      -0.320257        -8.7146
 111   2.0000      -0.317707        -8.6452
 112   2.0000      -0.316456        -8.6112
 113   2.0000      -0.310382        -8.4459
 114   2.0000      -0.300149        -8.1675
 115   2.0000      -0.294160        -8.0045
 116   2.0000      -0.289344        -7.8735
 117   2.0000      -0.288427        -7.8485
 118   2.0000      -0.278093        -7.5673
 119   2.0000      -0.270533        -7.3616
 120   2.0000      -0.263420        -7.1680
 121   2.0000      -0.248732        -6.7684
 122   2.0000      -0.244675        -6.6579
 123   2.0000      -0.235784        -6.4160
 124   2.0000      -0.233732        -6.3602
 125   2.0000      -0.222826        -6.0634
 126   2.0000      -0.217679        -5.9233
 127   2.0000      -0.204384        -5.5616
 128   2.0000      -0.202835        -5.5194
 129   2.0000      -0.201543        -5.4843
 130   2.0000      -0.196066        -5.3352
 131   2.0000      -0.189365        -5.1529
 132   2.0000      -0.188192        -5.1210
 133   2.0000      -0.182833        -4.9751
 134   2.0000      -0.172670        -4.6986
 135   2.0000      -0.166649        -4.5347
 136   2.0000      -0.153945        -4.1891
 137   2.0000      -0.134352        -3.6559
 138   2.0000      -0.064631        -1.7587
 139   2.0000      -0.042070        -1.1448
 140   2.0000      -0.025337        -0.6894
 141   0.0000      -0.010354        -0.2817
 142   0.0000       0.034478         0.9382
 143   0.0000       0.045697         1.2435
 144   0.0000       0.047040         1.2800
 145   0.0000       0.060234         1.6391

MULLIKEN ATOMIC CHARGES
-----------------------
   0 C :   -0.539870
   1 C :    0.176805
   2 C :   -0.222787
   3 C :    0.170017
   4 C :   -0.158689
   5 Cl:   -0.020115
   6 C :   -0.137093
   7 C :   -0.125185
   8 C :   -0.149075
   9 C :    0.218238
  10 N :   -0.461691
  11 C :    0.353167
  12 N :   -0.620934
  13 C :   -0.247242
  14 C :    0.160782
  15 C :   -0.165070
  16 C :   -0.193604
  17 C :    0.347993
  18 O :   -0.549421
  19 C :    1.083635
  20 F :   -0.292649
  21 F :   -0.290934
  22 F :   -0.284839
  23 C :   -0.173547
  24 C :   -0.167761
  25 S :    1.206787
  26 O :   -0.570240
  27 O :   -0.558927
  28 C :   -0.151699
  29 C :   -0.154407
  30 C :   -0.157435
  31 C :    0.106631
  32 C :    0.411524
  33 O :   -0.550944
  34 O :   -0.654433
  35 C :   -0.150608
  36 C :   -0.159721
  37 H :    0.135121
  38 H :    0.186073
  39 H :    0.207711
  40 H :    0.154885
  41 H :    0.141009
  42 H :    0.134262
  43 H :    0.148747
  44 H :    0.175443
  45 H :    0.186784
  46 H :    0.168784
  47 H :    0.149056
  48 H :    0.138200
  49 H :    0.145155
  50 H :    0.150812
  51 H :    0.148431
  52 H :    0.154109
  53 H :    0.148762
Sum of atomic charges:   -1.0000000

LOEWDIN ATOMIC CHARGES
----------------------
   0 C :   -0.361964
   1 C :   -0.008777
   2 C :   -0.102003
   3 C :   -0.033831
   4 C :   -0.084682
   5 Cl:    0.025905
   6 C :   -0.137316
   7 C :   -0.129779
   8 C :   -0.113754
   9 C :    0.017543
  10 N :   -0.126912
  11 C :    0.067770
  12 N :   -0.285998
  13 C :   -0.146199
  14 C :   -0.034036
  15 C :   -0.111108
  16 C :   -0.161333
  17 C :    0.080189
  18 O :   -0.163779
  19 C :    0.357880
  20 F :   -0.106260
  21 F :   -0.104522
  22 F :   -0.092613
  23 C :   -0.145941
  24 C :   -0.124271
  25 S :    1.260386
  26 O :   -0.597410
  27 O :   -0.586803
  28 C :   -0.216327
  29 C :   -0.122118
  30 C :   -0.114190
  31 C :   -0.001190
  32 C :    0.071393
  33 O :   -0.376445
  34 O :   -0.502123
  35 C :   -0.105636
  36 C :   -0.127938
  37 H :    0.122832
  38 H :    0.150283
  39 H :    0.160740
  40 H :    0.145914
  41 H :    0.139671
  42 H :    0.136236
  43 H :    0.146414
  44 H :    0.137475
  45 H :    0.151265
  46 H :    0.150812
  47 H :    0.140243
  48 H :    0.140188
  49 H :    0.140328
  50 H :    0.143357
  51 H :    0.147584
  52 H :    0.151080
  53 H :    0.139768

  Mayer bond orders larger than 0.100000
B(  0-C ,  1-C ) :   1.0076 B(  0-C , 37-H ) :   0.9413 B(  0-C , 38-H ) :   0.9196
B(  0-C , 39-H ) :   0.9076 B(  1-C ,  2-C ) :   1.4763 B(  1-C , 11-C ) :   1.2917
B(  2-C ,  3-C ) :   1.2945 B(  2-C , 40-H ) :   0.9077 B(  3-C ,  4-C ) :   1.2292
B(  3-C ,  9-C ) :   1.2443 B(  4-C ,  5-Cl) :   1.0192 B(  4-C ,  6-C ) :   1.4762
B(  4-C ,  8-C ) :   0.1005 B(  6-C ,  7-C ) :   1.3495 B(  6-C , 41-H ) :   0.9262
B(  7-C ,  8-C ) :   1.5107 B(  7-C , 42-H ) :   0.9293 B(  8-C ,  9-C ) :   1.3044
B(  8-C , 43-H ) :   0.9162 B(  9-C , 10-N ) :   1.2487 B( 10-N , 11-C ) :   1.4349
B( 11-C , 12-N ) :   0.9226 B( 12-N , 13-C ) :   0.9305 B( 12-N , 25-S ) :   0.7618
B( 13-C , 14-C ) :   0.9475 B( 13-C , 44-H ) :   0.9189 B( 13-C , 45-H ) :   0.9161
B( 14-C , 15-C ) :   1.4298 B( 14-C , 24-C ) :   1.4386 B( 15-C , 16-C ) :   1.4307
B( 15-C , 46-H ) :   0.9111 B( 16-C , 17-C ) :   1.3886 B( 16-C , 47-H ) :   0.9111
B( 17-C , 18-O ) :   0.8128 B( 17-C , 23-C ) :   1.4234 B( 18-O , 19-C ) :   0.9993
B( 19-C , 20-F ) :   0.9681 B( 19-C , 21-F ) :   0.9697 B( 19-C , 22-F ) :   1.0017
B( 23-C , 24-C ) :   1.4291 B( 23-C , 48-H ) :   0.9203 B( 24-C , 49-H ) :   0.9192
B( 25-S , 26-O ) :   1.6124 B( 25-S , 27-O ) :   1.6410 B( 25-S , 28-C ) :   0.8445
B( 28-C , 29-C ) :   1.3750 B( 28-C , 36-C ) :   1.3480 B( 29-C , 30-C ) :   1.4085
B( 29-C , 50-H ) :   0.9194 B( 30-C , 31-C ) :   1.3887 B( 30-C , 51-H ) :   0.9068
B( 31-C , 32-C ) :   0.9277 B( 31-C , 35-C ) :   1.3973 B( 32-C , 33-O ) :   1.7077
B( 32-C , 34-O ) :   1.5461 B( 33-O , 34-O ) :   0.1486 B( 35-C , 36-C ) :   1.4186
B( 35-C , 52-H ) :   0.9017 B( 36-C , 53-H ) :   0.9174

FINAL SINGLE POINT ENERGY     -2605.303129364665

DIPOLE MOMENT
-------------

Method             : SCF
Type of density    : Electron Density
Multiplicity       :   1
Irrep              :   0
Energy             : -2605.3031293646649829 Eh
Relativity type    :
Basis              : AO
                                X                 Y                 Z
Electronic contribution:     30.434644269      13.058005753     -14.828939053
Nuclear contribution   :    -24.934607916      -5.704642627       8.003624992
                        -----------------------------------------
Total Dipole Moment    :      5.500036353       7.353363126      -6.825314061
                        -----------------------------------------
Magnitude (a.u.)       :     11.441471111
Magnitude (Debye)      :     29.081908387

Rotational constants in cm-1:             0.002758             0.001954             0.001283
Rotational constants in MHz :            82.687827            58.588240            38.461216

                             ****ORCA TERMINATED NORMALLY****
TOTAL RUN TIME: 0 days 0 hours 6 minutes 8 seconds 363 msec
