                         Program Version 6.0.0  -   RELEASE  -
|  1> ! B3LYP 6-31G* SP
|  2>
|  3> * xyz -1 1
|  4> C 0.8891 0.7889 2.3273
|  5> C 0.0990 1.5653 1.2972
|  6> C -0.5680 0.8991 0.2417
|  7> N -0.5426 -0.5287 0.1275
|  8> C 0.2144 -1.1583 -0.9543
|  9> C 1.6881 -1.0383 -0.6820
| 10> C 2.3402 -1.9982 0.1048
| 11> C 3.6942 -1.8509 0.4184
| 12> C 4.4147 -0.7401 -0.0367
| 13> O 5.7717 -0.6426 0.3116
| 14> C 6.6431 0.4226 -0.0608
| 15> F 6.1770 1.6210 0.4506
| 16> F 7.8996 0.1759 0.4574
| 17> F 6.7370 0.5046 -1.4389
| 18> C 3.7563 0.2311 -0.8164
| 19> C 2.4025 0.0825 -1.1319
| 20> S -1.6124 -1.4832 1.1058
| 21> O -2.2538 -0.6242 2.1602
| 22> O -0.8265 -2.5683 1.7883
| 23> C -2.8679 -2.1729 0.0845
| 24> C -2.9004 -3.5482 -0.1791
| 25> C -3.8949 -4.0833 -1.0028
| 26> C -4.8694 -3.2491 -1.5780
| 27> C -5.9245 -3.8205 -2.4449
| 28> O -6.8064 -3.0789 -2.9550
| 29> O -5.9583 -5.1857 -2.7074
| 30> C -4.8252 -1.8676 -1.3158
| 31> C -3.8295 -1.3351 -0.4920
| 32> N -1.2342 1.6138 -0.7027
| 33> C -1.3074 2.9664 -0.6754
| 34> C -0.6836 3.6814 0.3493
| 35> C -0.7576 5.0797 0.3874
| 36> C -0.1230 5.7705 1.4178
| 37> N 0.5597 5.0909 2.3745
| 38> C 0.6517 3.7346 2.3680
| 39> C 0.0296 2.9811 1.3500
| 40> H 0.4513 0.9510 3.3347
| 41> H 0.8989 -0.3018 2.1365
| 42> H 1.9462 1.1293 2.3216
| 43> H -0.0441 -0.6781 -1.9236
| 44> H -0.0615 -2.2317 -1.0466
| 45> H 1.7982 -2.8559 0.4831
| 46> H 4.1857 -2.6005 1.0255
| 47> H 4.2757 1.1073 -1.1784
| 48> H 1.9073 0.8485 -1.7169
| 49> H -2.1572 -4.2084 0.2489
| 50> H -3.9001 -5.1501 -1.1883
| 51> H -5.5591 -1.1984 -1.7472
| 52> H -3.8067 -0.2687 -0.3044
| 53> H -1.8552 3.4806 -1.4552
| 54> H -1.2991 5.6318 -0.3714
| 55> H -0.1725 6.8506 1.4578
| 56> H 1.2100 3.2591 3.1624
| 57> *
| 58>
| 59>                          ****END OF INPUT****

CARTESIAN COORDINATES (ANGSTROEM)
---------------------------------
  C      0.889100    0.788900    2.327300
  C      0.099000    1.565300    1.297200
  C     -0.568000    0.899100    0.241700
  N     -0.542600   -0.528700    0.127500
  C      0.214400   -1.158300   -0.954300
  C      1.688100   -1.038300   -0.682000
  C      2.340200   -1.998200    0.104800
  C      3.694200   -1.850900    0.418400
  C      4.414700   -0.740100   -0.036700
  O      5.771700   -0.642600    0.311600
  C      6.643100    0.422600   -0.060800
  F      6.177000    1.621000    0.450600
  F      7.899600    0.175900    0.457400
  F      6.737000    0.504600   -1.438900
  C      3.756300    0.231100   -0.816400
  C      2.402500    0.082500   -1.131900
  S     -1.612400   -1.483200    1.105800
  O     -2.253800   -0.624200    2.160200
  O     -0.826500   -2.568300    1.788300
  C     -2.867900   -2.172900    0.084500
  C     -2.900400   -3.548200   -0.179100
  C     -3.894900   -4.083300   -1.002800
  C     -4.869400   -3.249100   -1.578000
  C     -5.924500   -3.820500   -2.444900
  O     -6.806400   -3.078900   -2.955000
  O     -5.958300   -5.185700   -2.707400
  C     -4.825200   -1.867600   -1.315800
  C     -3.829500   -1.335100   -0.492000
  N     -1.234200    1.613800   -0.702700
  C     -1.307400    2.966400   -0.675400
  C     -0.683600    3.681400    0.349300
  C     -0.757600    5.079700    0.387400
  C     -0.123000    5.770500    1.417800
  N      0.559700    5.090900    2.374500
  C      0.651700    3.734600    2.368000
  C      0.029600    2.981100    1.350000
  H      0.451300    0.951000    3.334700
  H      0.898900   -0.301800    2.136500
  H      1.946200    1.129300    2.321600
  H     -0.044100   -0.678100   -1.923600
  H     -0.061500   -2.231700   -1.046600
  H      1.798200   -2.855900    0.483100
  H      4.185700   -2.600500    1.025500
  H      4.275700    1.107300   -1.178400
  H      1.907300    0.848500   -1.716900
  H     -2.157200   -4.208400    0.248900
  H     -3.900100   -5.150100   -1.188300
  H     -5.559100   -1.198400   -1.747200
  H     -3.806700   -0.268700   -0.304400
  H     -1.855200    3.480600   -1.455200
  H     -1.299100    5.631800   -0.371400
  H     -0.172500    6.850600    1.457800
  H      1.210000    3.259100    3.162400

 Total Charge           Charge          ....   -1
 Multiplicity           Mult            ....    1
 Number of Electrons    NEL             ....  266
 Basis Dimension        Dim             ....  542

ORBITAL ENERGIES
----------------

  NO   OCC          E(Eh)            E(eV)
   0   2.0000     -89.008039     -2422.0319
   1   2.0000     -24.696650      -672.0300
   2   2.0000     -24.692752      -671.9239
   3   2.0000     -24.692309      -671.9119
   4   2.0000     -19.161947      -521.4231
   5   2.0000     -19.040672      -518.1230
   6   2.0000     -19.039120      -518.0808
   7   2.0000     -18.907399      -514.4965
   8   2.0000     -18.886729      -513.9340
   9   2.0000     -14.291905      -388.9025
  10   2.0000     -14.280061      -388.5802
  11   2.0000     -14.277258      -388.5039
  12   2.0000     -10.457025      -284.5501
  13   2.0000     -10.212483      -277.8958
  14   2.0000     -10.198357      -277.5114
  15   2.0000     -10.173824      -276.8438
  16   2.0000     -10.169748      -276.7329
  17   2.0000     -10.169176      -276.7173
  18   2.0000     -10.162599      -276.5384
  19   2.0000     -10.152702      -276.2691
  20   2.0000     -10.151275      -276.2302
  21   2.0000     -10.150530      -276.2100
  22   2.0000     -10.145398      -276.0703
  23   2.0000     -10.140534      -275.9380
  24   2.0000     -10.139500      -275.9098
  25   2.0000     -10.137815      -275.8640
  26   2.0000     -10.136179      -275.8194
  27   2.0000     -10.134250      -275.7670
  28   2.0000     -10.118285      -275.3325
  29   2.0000     -10.114783      -275.2372
  30   2.0000     -10.095270      -274.7063
  31   2.0000     -10.094433      -274.6835
  32   2.0000     -10.092691      -274.6361
  33   2.0000     -10.076138      -274.1857
  34   2.0000     -10.075285      -274.1625
  35   2.0000     -10.073528      -274.1146
  36   2.0000      -8.043850      -218.8843
  37   2.0000      -6.009290      -163.5211
  38   2.0000      -6.007115      -163.4619
  39   2.0000      -6.005752      -163.4248
  40   2.0000      -1.258248       -34.2387
  41   2.0000      -1.179459       -32.0947
  42   2.0000      -1.178418       -32.0664
  43   2.0000      -1.031949       -28.0808
  44   2.0000      -0.997312       -27.1382
  45   2.0000      -0.900230       -24.4965
  46   2.0000      -0.879356       -23.9285
  47   2.0000      -0.876680       -23.8557
  48   2.0000      -0.845493       -23.0070
  49   2.0000      -0.816501       -22.2181
  50   2.0000      -0.805544       -21.9200
  51   2.0000      -0.765646       -20.8343
  52   2.0000      -0.758753       -20.6467
  53   2.0000      -0.749427       -20.3930
  54   2.0000      -0.725829       -19.7508
  55   2.0000      -0.701279       -19.0828
  56   2.0000      -0.698005       -18.9937
  57   2.0000      -0.695176       -18.9167
  58   2.0000      -0.673813       -18.3354
  59   2.0000      -0.662517       -18.0280
  60   2.0000      -0.644504       -17.5379
  61   2.0000      -0.641452       -17.4548
  62   2.0000      -0.622352       -16.9351
  63   2.0000      -0.603754       -16.4290
  64   2.0000      -0.598936       -16.2979
  65   2.0000      -0.579497       -15.7689
  66   2.0000      -0.568429       -15.4677
  67   2.0000      -0.553249       -15.0547
  68   2.0000      -0.549984       -14.9658
  69   2.0000      -0.544680       -14.8215
  70   2.0000      -0.542601       -14.7649
  71   2.0000      -0.517010       -14.0686
  72   2.0000      -0.508253       -13.8303
  73   2.0000      -0.502691       -13.6789
  74   2.0000      -0.478032       -13.0079
  75   2.0000      -0.464683       -12.6447
  76   2.0000      -0.459055       -12.4915
  77   2.0000      -0.445457       -12.1215
  78   2.0000      -0.439287       -11.9536
  79   2.0000      -0.428477       -11.6594
  80   2.0000      -0.424083       -11.5399
  81   2.0000      -0.422895       -11.5076
  82   2.0000      -0.419037       -11.4026
  83   2.0000      -0.412663       -11.2291
  84   2.0000      -0.409342       -11.1388
  85   2.0000      -0.398674       -10.8485
  86   2.0000      -0.396760       -10.7964
  87   2.0000      -0.396195       -10.7810
  88   2.0000      -0.389185       -10.5903
  89   2.0000      -0.385631       -10.4935
  90   2.0000      -0.384281       -10.4568
  91   2.0000      -0.373004       -10.1500
  92   2.0000      -0.372006       -10.1228
  93   2.0000      -0.371001       -10.0955
  94   2.0000      -0.370437       -10.0801
  95   2.0000      -0.361017        -9.8238
  96   2.0000      -0.359494        -9.7823
  97   2.0000      -0.354972        -9.6593
  98   2.0000      -0.345862        -9.4114
  99   2.0000      -0.342815        -9.3285
 100   2.0000      -0.337228        -9.1764
 101   2.0000      -0.333109        -9.0644
 102   2.0000      -0.325996        -8.8708
 103   2.0000      -0.319285        -8.6882
 104   2.0000      -0.317899        -8.6505
 105   2.0000      -0.313333        -8.5262
 106   2.0000      -0.310893        -8.4598
 107   2.0000      -0.303834        -8.2677
 108   2.0000      -0.293623        -7.9899
 109   2.0000      -0.290738        -7.9114
 110   2.0000      -0.289191        -7.8693
 111   2.0000      -0.275008        -7.4833
 112   2.0000      -0.248499        -6.7620
 113   2.0000      -0.245633        -6.6840
 114   2.0000      -0.239090        -6.5060
 115   2.0000      -0.231594        -6.3020
 116   2.0000      -0.228773        -6.2252
 117   2.0000      -0.217583        -5.9207
 118   2.0000      -0.212944        -5.7945
 119   2.0000      -0.204554        -5.5662
 120   2.0000      -0.204166        -5.5556
 121   2.0000      -0.199370        -5.4251
 122   2.0000      -0.194510        -5.2929
 123   2.0000      -0.189458        -5.1554
 124   2.0000      -0.186238        -5.0678
 125   2.0000      -0.184718        -5.0264
 126   2.0000      -0.174958        -4.7609
 127   2.0000      -0.169350        -4.6082
 128   2.0000      -0.150633        -4.0989
 129   2.0000      -0.131092        -3.5672
 130   2.0000      -0.061493        -1.6733
 131   2.0000      -0.039729        -1.0811
 132   2.0000      -0.023143        -0.6297
 133   0.0000      -0.013279        -0.3613
 134   0.0000       0.018134         0.4934
 135   0.0000       0.043728         1.1899
 136   0.0000       0.046930         1.2770
 137   0.0000       0.064517         1.7556

MULLIKEN ATOMIC CHARGES
-----------------------
   0 C :   -0.546173
   1 C :    0.130407
   2 C :    0.320308
   3 N :   -0.612538
   4 C :   -0.240784
   5 C :    0.163343
   6 C :   -0.163025
   7 C :   -0.174061
   8 C :    0.346665
   9 O :   -0.547231
  10 C :    1.083170
  11 F :   -0.293170
  12 F :   -0.283740
  13 F :   -0.293551
  14 C :   -0.193687
  15 C :   -0.173342
  16 S :    1.208149
  17 O :   -0.562387
  18 O :   -0.575297
  19 C :   -0.145957
  20 C :   -0.160897
  21 C :   -0.150224
  22 C :    0.105402
  23 C :    0.411325
  24 O :   -0.551492
  25 O :   -0.657280
  26 C :   -0.158313
  27 C :   -0.145107
  28 N :   -0.380865
  29 C :   -0.052627
  30 C :    0.159605
  31 C :   -0.213676
  32 C :    0.012387
  33 N :   -0.372514
  34 C :   -0.036102
  35 C :    0.089961
  36 H :    0.172729
  37 H :    0.208346
  38 H :    0.149678
  39 H :    0.172610
  40 H :    0.183133
  41 H :    0.170974
  42 H :    0.143403
  43 H :    0.143095
  44 H :    0.141922
  45 H :    0.144494
  46 H :    0.152087
  47 H :    0.147186
  48 H :    0.145032
  49 H :    0.150453
  50 H :    0.131598
  51 H :    0.139473
  52 H :    0.157102
Sum of atomic charges:   -1.0000000

LOEWDIN ATOMIC CHARGES
----------------------
   0 C :   -0.362338
   1 C :    0.010305
   2 C :    0.039228
   3 N :   -0.289002
   4 C :   -0.144780
   5 C :   -0.031983
   6 C :   -0.110957
   7 C :   -0.143066
   8 C :    0.079505
   9 O :   -0.162265
  10 C :    0.357820
  11 F :   -0.106874
  12 F :   -0.091629
  13 F :   -0.107140
  14 C :   -0.165699
  15 C :   -0.124631
  16 S :    1.261785
  17 O :   -0.586252
  18 O :   -0.597611
  19 C :   -0.217147
  20 C :   -0.129555
  21 C :   -0.109576
  22 C :   -0.001738
  23 C :    0.071627
  24 O :   -0.377009
  25 O :   -0.505649
  26 C :   -0.112049
  27 C :   -0.118201
  28 N :   -0.116674
  29 C :   -0.067201
  30 C :   -0.020244
  31 C :   -0.130681
  32 C :   -0.084416
  33 N :   -0.134281
  34 C :   -0.055529
  35 C :   -0.025470
  36 H :    0.144464
  37 H :    0.158012
  38 H :    0.131048
  39 H :    0.135327
  40 H :    0.149912
  41 H :    0.152501
  42 H :    0.142644
  43 H :    0.137456
  44 H :    0.138246
  45 H :    0.139897
  46 H :    0.150358
  47 H :    0.146902
  48 H :    0.139399
  49 H :    0.136289
  50 H :    0.135184
  51 H :    0.130437
  52 H :    0.141301

  Mayer bond orders larger than 0.100000
B(  0-C ,  1-C ) :   1.0081 B(  0-C , 36-H ) :   0.9232 B(  0-C , 37-H ) :   0.9120
B(  0-C , 38-H ) :   0.9268 B(  1-C ,  2-C ) :   1.4264 B(  1-C , 29-C ) :   0.1052
B(  1-C , 35-C ) :   1.2560 B(  2-C ,  3-N ) :   0.9188 B(  2-C , 28-N ) :   1.2797
B(  3-N ,  4-C ) :   0.9294 B(  3-N , 16-S ) :   0.7692 B(  4-C ,  5-C ) :   0.9501
B(  4-C , 39-H ) :   0.9198 B(  4-C , 40-H ) :   0.9167 B(  5-C ,  6-C ) :   1.4327
B(  5-C , 15-C ) :   1.4374 B(  6-C ,  7-C ) :   1.4344 B(  6-C , 41-H ) :   0.9097
B(  7-C ,  8-C ) :   1.4140 B(  7-C , 42-H ) :   0.9200 B(  8-C ,  9-O ) :   0.8123
B(  8-C , 14-C ) :   1.3972 B(  9-O , 10-C ) :   1.0019 B( 10-C , 11-F ) :   0.9671
B( 10-C , 12-F ) :   1.0031 B( 10-C , 13-F ) :   0.9663 B( 14-C , 15-C ) :   1.4238
B( 14-C , 43-H ) :   0.9117 B( 15-C , 44-H ) :   0.9203 B( 16-S , 17-O ) :   1.6408
B( 16-S , 18-O ) :   1.5953 B( 16-S , 19-C ) :   0.8466 B( 19-C , 20-C ) :   1.3658
B( 19-C , 27-C ) :   1.3598 B( 20-C , 21-C ) :   1.3991 B( 20-C , 45-H ) :   0.9203
B( 21-C , 22-C ) :   1.4054 B( 21-C , 46-H ) :   0.9012 B( 22-C , 23-C ) :   0.9268
B( 22-C , 26-C ) :   1.3822 B( 23-C , 24-O ) :   1.7067 B( 23-C , 25-O ) :   1.5493
B( 24-O , 25-O ) :   0.1490 B( 26-C , 27-C ) :   1.4247 B( 26-C , 47-H ) :   0.9076
B( 27-C , 48-H ) :   0.9184 B( 28-N , 29-C ) :   1.5003 B( 29-C , 30-C ) :   1.2342
B( 29-C , 49-H ) :   0.9272 B( 30-C , 31-C ) :   1.2904 B( 30-C , 35-C ) :   1.2871
B( 31-C , 32-C ) :   1.4831 B( 31-C , 34-C ) :   0.1124 B( 31-C , 50-H ) :   0.9193
B( 32-C , 33-N ) :   1.3393 B( 32-C , 51-H ) :   0.9336 B( 33-N , 34-C ) :   1.4985
B( 34-C , 35-C ) :   1.2385 B( 34-C , 52-H ) :   0.9202

FINAL SINGLE POINT ENERGY     -2161.799908995477

DIPOLE MOMENT
-------------

Method             : SCF
Type of density    : Electron Density
Multiplicity       :   1
Irrep              :   0
Energy             : -2161.7999089954769261 Eh
Relativity type    :
Basis              : AO
                                X                 Y                 Z
Electronic contribution:     33.468290756       2.705871372      -0.778410565
Nuclear contribution   :    -23.861894594       3.628818505       2.997982168
                        -----------------------------------------
Total Dipole Moment    :      9.606396162       6.334689876       2.219571603
                        -----------------------------------------
Magnitude (a.u.)       :     11.719114350
Magnitude (Debye)      :     29.787621417

Rotational constants in cm-1:             0.004669             0.001790             0.001439
Rotational constants in MHz :           139.977625            53.671606            43.152454

                             ****ORCA TERMINATED NORMALLY****
TOTAL RUN TIME: 0 days 0 hours 7 minutes 35 seconds 4 msec
