                         Program Version 6.0.0  -   RELEASE  -
|  1> ! B3LYP 6-31G* SP
|  2>
|  3> * xyz 0 1
|  4> C -5.9913 1.4820 -0.6776
|  5> C -5.5726 0.9513 0.6872
|  6> N -4.4517 0.0311 0.5459
|  7> N -4.5743 -1.2684 0.3399
|  8> N -3.3679 -1.7927 0.1987
|  9> C -2.5163 -0.7538 0.3191
| 10> C -1.0480 -0.8392 0.2249
| 11> S -0.0294 0.4938 0.3595
| 12> C 1.3838 -0.3985 0.1496
| 13> C 2.7616 0.1456 0.1492
| 14> C 2.9962 1.5205 0.3343
| 15> C 4.3003 2.0224 0.3321
| 16> C 5.3839 1.1621 0.1458
| 17> C 5.1695 -0.2095 -0.0400
| 18> N 6.2796 -1.0908 -0.2308
| 19> C 3.8604 -0.7136 -0.0378
| 20> N 1.0983 -1.7091 -0.0233
| 21> C -0.2373 -1.9651 0.0163
| 22> O -0.7057 -3.2682 -0.1433
| 23> N -3.1824 0.3987 0.5297
| 24> H -5.1456 2.0236 -1.1523
| 25> H -6.3025 0.6422 -1.3346
| 26> H -6.8453 2.1818 -0.5605
| 27> H -5.2790 1.8003 1.3416
| 28> H -6.4304 0.4266 1.1608
| 29> H 2.1761 2.2110 0.4810
| 30> H 4.4712 3.0816 0.4752
| 31> H 6.3896 1.5635 0.1461
| 32> H 7.2580 -0.7253 -0.2341
| 33> H 6.1316 -2.1152 -0.3702
| 34> H 3.7042 -1.7757 -0.1822
| 35> H -1.6845 -3.5129 -0.1175
| 36> *
| 37>
| 38>                          ****END OF INPUT****

CARTESIAN COORDINATES (ANGSTROEM)
---------------------------------
  C     -5.991300    1.482000   -0.677600
  C     -5.572600    0.951300    0.687200
  N     -4.451700    0.031100    0.545900
  N     -4.574300   -1.268400    0.339900
  N     -3.367900   -1.792700    0.198700
  C     -2.516300   -0.753800    0.319100
  C     -1.048000   -0.839200    0.224900
  S     -0.029400    0.493800    0.359500
  C      1.383800   -0.398500    0.149600
  C      2.761600    0.145600    0.149200
  C      2.996200    1.520500    0.334300
  C      4.300300    2.022400    0.332100
  C      5.383900    1.162100    0.145800
  C      5.169500   -0.209500   -0.040000
  N      6.279600   -1.090800   -0.230800
  C      3.860400   -0.713600   -0.037800
  N      1.098300   -1.709100   -0.023300
  C     -0.237300   -1.965100    0.016300
  O     -0.705700   -3.268200   -0.143300
  N     -3.182400    0.398700    0.529700
  H     -5.145600    2.023600   -1.152300
  H     -6.302500    0.642200   -1.334600
  H     -6.845300    2.181800   -0.560500
  H     -5.279000    1.800300    1.341600
  H     -6.430400    0.426600    1.160800
  H      2.176100    2.211000    0.481000
  H      4.471200    3.081600    0.475200
  H      6.389600    1.563500    0.146100
  H      7.258000   -0.725300   -0.234100
  H      6.131600   -2.115200   -0.370200
  H      3.704200   -1.775700   -0.182200
  H     -1.684500   -3.512900   -0.117500

 Total Charge           Charge          ....    0
 Multiplicity           Mult            ....    1
 Number of Electrons    NEL             ....  150
 Basis Dimension        Dim             ....  308

ORBITAL ENERGIES
----------------

  NO   OCC          E(Eh)            E(eV)
   0   2.0000     -88.893599     -2418.9178
   1   2.0000     -19.161306      -521.4056
   2   2.0000     -14.463039      -393.5593
   3   2.0000     -14.402684      -391.9169
   4   2.0000     -14.370586      -391.0435
   5   2.0000     -14.366975      -390.9453
   6   2.0000     -14.333766      -390.0416
   7   2.0000     -14.324510      -389.7897
   8   2.0000     -10.280301      -279.7412
   9   2.0000     -10.259528      -279.1759
  10   2.0000     -10.253712      -279.0177
  11   2.0000     -10.250217      -278.9226
  12   2.0000     -10.226291      -278.2715
  13   2.0000     -10.214668      -277.9553
  14   2.0000     -10.201079      -277.5855
  15   2.0000     -10.196910      -277.4720
  16   2.0000     -10.181150      -277.0432
  17   2.0000     -10.175792      -276.8974
  18   2.0000     -10.174276      -276.8561
  19   2.0000     -10.174092      -276.8511
  20   2.0000      -7.970509      -216.8886
  21   2.0000      -5.933404      -161.4561
  22   2.0000      -5.929514      -161.3503
  23   2.0000      -5.927587      -161.2978
  24   2.0000      -1.150683       -31.3117
  25   2.0000      -1.031103       -28.0577
  26   2.0000      -0.954201       -25.9651
  27   2.0000      -0.953164       -25.9369
  28   2.0000      -0.899431       -24.4748
  29   2.0000      -0.894596       -24.3432
  30   2.0000      -0.834346       -22.7037
  31   2.0000      -0.812213       -22.1014
  32   2.0000      -0.792165       -21.5559
  33   2.0000      -0.767232       -20.8774
  34   2.0000      -0.728430       -19.8216
  35   2.0000      -0.715410       -19.4673
  36   2.0000      -0.689699       -18.7677
  37   2.0000      -0.665032       -18.0965
  38   2.0000      -0.624441       -16.9919
  39   2.0000      -0.613604       -16.6970
  40   2.0000      -0.603873       -16.4322
  41   2.0000      -0.586432       -15.9576
  42   2.0000      -0.556281       -15.1372
  43   2.0000      -0.549364       -14.9490
  44   2.0000      -0.516639       -14.0585
  45   2.0000      -0.506506       -13.7827
  46   2.0000      -0.503193       -13.6926
  47   2.0000      -0.496106       -13.4997
  48   2.0000      -0.473534       -12.8855
  49   2.0000      -0.472344       -12.8531
  50   2.0000      -0.458976       -12.4894
  51   2.0000      -0.433331       -11.7915
  52   2.0000      -0.430865       -11.7244
  53   2.0000      -0.421483       -11.4691
  54   2.0000      -0.417567       -11.3626
  55   2.0000      -0.413849       -11.2614
  56   2.0000      -0.401446       -10.9239
  57   2.0000      -0.397882       -10.8269
  58   2.0000      -0.380269       -10.3476
  59   2.0000      -0.377839       -10.2815
  60   2.0000      -0.373024       -10.1505
  61   2.0000      -0.358547        -9.7565
  62   2.0000      -0.346978        -9.4417
  63   2.0000      -0.346243        -9.4218
  64   2.0000      -0.332919        -9.0592
  65   2.0000      -0.323969        -8.8156
  66   2.0000      -0.316599        -8.6151
  67   2.0000      -0.303516        -8.2591
  68   2.0000      -0.296090        -8.0570
  69   2.0000      -0.295420        -8.0388
  70   2.0000      -0.266491        -7.2516
  71   2.0000      -0.264402        -7.1947
  72   2.0000      -0.249598        -6.7919
  73   2.0000      -0.205366        -5.5883
  74   2.0000      -0.192660        -5.2425
  75   0.0000      -0.053534        -1.4567
  76   0.0000      -0.023714        -0.6453
  77   0.0000       0.008347         0.2271
  78   0.0000       0.022926         0.6239
  79   0.0000       0.042616         1.1596

MULLIKEN ATOMIC CHARGES
-----------------------
   0 C :   -0.446131
   1 C :   -0.146014
   2 N :   -0.031445
   3 N :   -0.055118
   4 N :   -0.366493
   5 C :    0.431541
   6 C :   -0.248872
   7 S :    0.281687
   8 C :   -0.015002
   9 C :    0.141329
  10 C :   -0.205842
  11 C :   -0.134126
  12 C :   -0.179983
  13 C :    0.383940
  14 N :   -0.837201
  15 C :   -0.223817
  16 N :   -0.407125
  17 C :    0.496128
  18 O :   -0.657139
  19 N :   -0.318061
  20 H :    0.175389
  21 H :    0.174308
  22 H :    0.159199
  23 H :    0.190263
  24 H :    0.189909
  25 H :    0.136350
  26 H :    0.130335
  27 H :    0.117631
  28 H :    0.329680
  29 H :    0.334362
  30 H :    0.152878
  31 H :    0.447442
Sum of atomic charges:    0.0000000

LOEWDIN ATOMIC CHARGES
----------------------
   0 C :   -0.362247
   1 C :   -0.152733
   2 N :    0.100213
   3 N :   -0.072672
   4 N :   -0.143801
   5 C :   -0.000865
   6 C :   -0.270520
   7 S :    0.413123
   8 C :   -0.109478
   9 C :   -0.021407
  10 C :   -0.157227
  11 C :   -0.118828
  12 C :   -0.160144
  13 C :    0.047550
  14 N :   -0.421150
  15 C :   -0.143963
  16 N :   -0.163925
  17 C :    0.102879
  18 O :   -0.337255
  19 N :   -0.139154
  20 H :    0.139526
  21 H :    0.139102
  22 H :    0.136005
  23 H :    0.151327
  24 H :    0.150863
  25 H :    0.135369
  26 H :    0.133687
  27 H :    0.128144
  28 H :    0.249883
  29 H :    0.252587
  30 H :    0.146454
  31 H :    0.348657

  Mayer bond orders larger than 0.100000
B(  0-C ,  1-C ) :   1.0034 B(  0-C , 20-H ) :   0.9434 B(  0-C , 21-H ) :   0.9438
B(  0-C , 22-H ) :   0.9419 B(  1-C ,  2-N ) :   0.8970 B(  1-C , 23-H ) :   0.9260
B(  1-C , 24-H ) :   0.9265 B(  2-N ,  3-N ) :   1.2527 B(  2-N , 19-N ) :   1.2228
B(  3-N ,  4-N ) :   1.4198 B(  3-N , 19-N ) :   0.1306 B(  4-N ,  5-C ) :   1.2757
B(  5-C ,  6-C ) :   1.0560 B(  5-C , 19-N ) :   1.3690 B(  6-C ,  7-S ) :   1.0753
B(  6-C ,  8-C ) :   0.1194 B(  6-C , 17-C ) :   1.3828 B(  7-S ,  8-C ) :   1.1485
B(  8-C ,  9-C ) :   1.0216 B(  8-C , 16-N ) :   1.4346 B(  9-C , 10-C ) :   1.3822
B(  9-C , 15-C ) :   1.4179 B( 10-C , 11-C ) :   1.4374 B( 10-C , 25-H ) :   0.9172
B( 11-C , 12-C ) :   1.4579 B( 11-C , 26-H ) :   0.9287 B( 12-C , 13-C ) :   1.3764
B( 12-C , 27-H ) :   0.9247 B( 13-C , 14-N ) :   0.9675 B( 13-C , 15-C ) :   1.3521
B( 14-N , 28-H ) :   0.8428 B( 14-N , 29-H ) :   0.8395 B( 15-C , 30-H ) :   0.9057
B( 16-N , 17-C ) :   1.3144 B( 17-C , 18-O ) :   1.0153 B( 18-O , 31-H ) :   0.7156

FINAL SINGLE POINT ENERGY     -1265.784512887557

DIPOLE MOMENT
-------------

Method             : SCF
Type of density    : Electron Density
Multiplicity       :   1
Irrep              :   0
Energy             : -1265.7845128875565024 Eh
Relativity type    :
Basis              : AO
                                X                 Y                 Z
Electronic contribution:      1.192429770      -7.174886539       2.255163492
Nuclear contribution   :     -1.411869415       8.393437123      -2.175945738
                        -----------------------------------------
Total Dipole Moment    :     -0.219439646       1.218550584       0.079217755
                        -----------------------------------------
Magnitude (a.u.)       :      1.240683174
Magnitude (Debye)      :      3.153566009

Rotational constants in cm-1:             0.029852             0.004189             0.003719
Rotational constants in MHz :           894.937034           125.583290           111.497598

                             ****ORCA TERMINATED NORMALLY****
TOTAL RUN TIME: 0 days 0 hours 3 minutes 54 seconds 288 msec
