                         Program Version 6.0.0  -   RELEASE  -
|  1> ! B3LYP 6-31G* SP
|  2>
|  3> * xyz 0 1
|  4> C -3.7023 -0.5326 -1.8102
|  5> O -3.8215 0.4854 -0.8398
|  6> C -3.8401 -0.0749 0.4613
|  7> C -2.4483 -0.1545 1.0477
|  8> N -1.4042 0.2668 0.2908
|  9> C -0.1180 0.2445 0.7151
| 10> N 0.9028 0.6923 -0.1836
| 11> C 1.2470 -0.1220 -1.3492
| 12> C 1.9624 -1.3682 -0.9079
| 13> C 3.3525 -1.3561 -0.7245
| 14> C 4.0084 -2.4899 -0.2386
| 15> C 3.2888 -3.6470 0.0832
| 16> O 3.9996 -4.7549 0.5718
| 17> C 3.4200 -5.9963 0.9663
| 18> F 2.5325 -5.7976 2.0093
| 19> F 2.7670 -6.5806 -0.1045
| 20> F 4.4243 -6.8444 1.3915
| 21> C 1.8910 -3.6547 -0.0894
| 22> C 1.2352 -2.5218 -0.5788
| 23> S 1.4554 2.3332 -0.0824
| 24> O 1.1125 2.9119 1.2621
| 25> O 2.9493 2.3631 -0.2482
| 26> C 0.6680 3.2800 -1.3389
| 27> C 1.4131 3.8606 -2.3729
| 28> C 0.7723 4.5925 -3.3770
| 29> C -0.6247 4.7488 -3.3643
| 30> C -1.3000 5.5203 -4.4308
| 31> O -2.5553 5.6345 -4.4387
| 32> O -0.5545 6.1276 -5.4375
| 33> C -1.3669 4.1603 -2.3244
| 34> C -0.7233 3.4325 -1.3198
| 35> C 0.1954 -0.2413 2.0014
| 36> C 1.6338 -0.3027 2.4689
| 37> C -0.8640 -0.6952 2.8292
| 38> C -0.6229 -1.2011 4.1266
| 39> C -1.6760 -1.6397 4.9289
| 40> C -2.9848 -1.5842 4.4599
| 41> C -3.2520 -1.0935 3.1826
| 42> C -2.2034 -0.6471 2.3499
| 43> H -3.5640 -0.0597 -2.8039
| 44> H -2.8185 -1.1818 -1.6199
| 45> H -4.6296 -1.1449 -1.8519
| 46> H -4.3305 -1.0767 0.4926
| 47> H -4.4460 0.5986 1.1032
| 48> H 1.8918 0.4535 -2.0485
| 49> H 0.3226 -0.3837 -1.9094
| 50> H 3.9266 -0.4654 -0.9474
| 51> H 5.0823 -2.4677 -0.1031
| 52> H 1.2997 -4.5247 0.1570
| 53> H 0.1576 -2.5388 -0.6875
| 54> H 2.4885 3.7464 -2.4076
| 55> H 1.3711 5.0318 -4.1647
| 56> H -1.0067 6.6569 -6.1734
| 57> H -2.4443 4.2619 -2.2865
| 58> H -1.3106 2.9859 -0.5275
| 59> H 1.7538 0.2986 3.3945
| 60> H 1.9166 -1.3580 2.6689
| 61> H 2.3513 0.0953 1.7247
| 62> H 0.3758 -1.2647 4.5362
| 63> H -1.4754 -2.0238 5.9210
| 64> H -3.7974 -1.9247 5.0888
| 65> H -4.2837 -1.0684 2.8594
| 66> *
| 67>
| 68>                          ****END OF INPUT****

CARTESIAN COORDINATES (ANGSTROEM)
---------------------------------
  C     -3.702300   -0.532600   -1.810200
  O     -3.821500    0.485400   -0.839800
  C     -3.840100   -0.074900    0.461300
  C     -2.448300   -0.154500    1.047700
  N     -1.404200    0.266800    0.290800
  C     -0.118000    0.244500    0.715100
  N      0.902800    0.692300   -0.183600
  C      1.247000   -0.122000   -1.349200
  C      1.962400   -1.368200   -0.907900
  C      3.352500   -1.356100   -0.724500
  C      4.008400   -2.489900   -0.238600
  C      3.288800   -3.647000    0.083200
  O      3.999600   -4.754900    0.571800
  C      3.420000   -5.996300    0.966300
  F      2.532500   -5.797600    2.009300
  F      2.767000   -6.580600   -0.104500
  F      4.424300   -6.844400    1.391500
  C      1.891000   -3.654700   -0.089400
  C      1.235200   -2.521800   -0.578800
  S      1.455400    2.333200   -0.082400
  O      1.112500    2.911900    1.262100
  O      2.949300    2.363100   -0.248200
  C      0.668000    3.280000   -1.338900
  C      1.413100    3.860600   -2.372900
  C      0.772300    4.592500   -3.377000
  C     -0.624700    4.748800   -3.364300
  C     -1.300000    5.520300   -4.430800
  O     -2.555300    5.634500   -4.438700
  O     -0.554500    6.127600   -5.437500
  C     -1.366900    4.160300   -2.324400
  C     -0.723300    3.432500   -1.319800
  C      0.195400   -0.241300    2.001400
  C      1.633800   -0.302700    2.468900
  C     -0.864000   -0.695200    2.829200
  C     -0.622900   -1.201100    4.126600
  C     -1.676000   -1.639700    4.928900
  C     -2.984800   -1.584200    4.459900
  C     -3.252000   -1.093500    3.182600
  C     -2.203400   -0.647100    2.349900
  H     -3.564000   -0.059700   -2.803900
  H     -2.818500   -1.181800   -1.619900
  H     -4.629600   -1.144900   -1.851900
  H     -4.330500   -1.076700    0.492600
  H     -4.446000    0.598600    1.103200
  H      1.891800    0.453500   -2.048500
  H      0.322600   -0.383700   -1.909400
  H      3.926600   -0.465400   -0.947400
  H      5.082300   -2.467700   -0.103100
  H      1.299700   -4.524700    0.157000
  H      0.157600   -2.538800   -0.687500
  H      2.488500    3.746400   -2.407600
  H      1.371100    5.031800   -4.164700
  H     -1.006700    6.656900   -6.173400
  H     -2.444300    4.261900   -2.286500
  H     -1.310600    2.985900   -0.527500
  H      1.753800    0.298600    3.394500
  H      1.916600   -1.358000    2.668900
  H      2.351300    0.095300    1.724700
  H      0.375800   -1.264700    4.536200
  H     -1.475400   -2.023800    5.921000
  H     -3.797400   -1.924700    5.088800
  H     -4.283700   -1.068400    2.859400

 Total Charge           Charge          ....    0
 Multiplicity           Mult            ....    1
 Number of Electrons    NEL             ....  290
 Basis Dimension        Dim             ....  596

ORBITAL ENERGIES
----------------

  NO   OCC          E(Eh)            E(eV)
   0   2.0000     -89.095087     -2424.4006
   1   2.0000     -24.742096      -673.2667
   2   2.0000     -24.740180      -673.2145
   3   2.0000     -24.740093      -673.2122
   4   2.0000     -19.213597      -522.8286
   5   2.0000     -19.192466      -522.2536
   6   2.0000     -19.147288      -521.0242
   7   2.0000     -19.133612      -520.6521
   8   2.0000     -19.126363      -520.4548
   9   2.0000     -19.124444      -520.4026
  10   2.0000     -14.369026      -391.0011
  11   2.0000     -14.331401      -389.9772
  12   2.0000     -10.504948      -285.8542
  13   2.0000     -10.330884      -281.1176
  14   2.0000     -10.269488      -279.4470
  15   2.0000     -10.256007      -279.0801
  16   2.0000     -10.241297      -278.6799
  17   2.0000     -10.236036      -278.5367
  18   2.0000     -10.234143      -278.4852
  19   2.0000     -10.232974      -278.4534
  20   2.0000     -10.225963      -278.2626
  21   2.0000     -10.221851      -278.1507
  22   2.0000     -10.214074      -277.9391
  23   2.0000     -10.212073      -277.8846
  24   2.0000     -10.211523      -277.8697
  25   2.0000     -10.210209      -277.8339
  26   2.0000     -10.207330      -277.7556
  27   2.0000     -10.206947      -277.7452
  28   2.0000     -10.204626      -277.6820
  29   2.0000     -10.200470      -277.5689
  30   2.0000     -10.198446      -277.5138
  31   2.0000     -10.197973      -277.5009
  32   2.0000     -10.197569      -277.4900
  33   2.0000     -10.197277      -277.4820
  34   2.0000     -10.196852      -277.4704
  35   2.0000     -10.196814      -277.4694
  36   2.0000     -10.196563      -277.4626
  37   2.0000     -10.194507      -277.4066
  38   2.0000     -10.171813      -276.7891
  39   2.0000      -8.130883      -221.2526
  40   2.0000      -6.095883      -165.8774
  41   2.0000      -6.093984      -165.8257
  42   2.0000      -6.093474      -165.8118
  43   2.0000      -1.305057       -35.5124
  44   2.0000      -1.225936       -33.3594
  45   2.0000      -1.225306       -33.3423
  46   2.0000      -1.083622       -29.4869
  47   2.0000      -1.082490       -29.4561
  48   2.0000      -1.077114       -29.3098
  49   2.0000      -1.037234       -28.2246
  50   2.0000      -0.991047       -26.9678
  51   2.0000      -0.964362       -26.2416
  52   2.0000      -0.960918       -26.1479
  53   2.0000      -0.915691       -24.9172
  54   2.0000      -0.884203       -24.0604
  55   2.0000      -0.867267       -23.5995
  56   2.0000      -0.862848       -23.4793
  57   2.0000      -0.811388       -22.0790
  58   2.0000      -0.802070       -21.8254
  59   2.0000      -0.787355       -21.4250
  60   2.0000      -0.779125       -21.2011
  61   2.0000      -0.769703       -20.9447
  62   2.0000      -0.759111       -20.6565
  63   2.0000      -0.746486       -20.3129
  64   2.0000      -0.733074       -19.9480
  65   2.0000      -0.727403       -19.7936
  66   2.0000      -0.705786       -19.2054
  67   2.0000      -0.687651       -18.7119
  68   2.0000      -0.676777       -18.4160
  69   2.0000      -0.656700       -17.8697
  70   2.0000      -0.647515       -17.6198
  71   2.0000      -0.636207       -17.3121
  72   2.0000      -0.633123       -17.2282
  73   2.0000      -0.630927       -17.1684
  74   2.0000      -0.623415       -16.9640
  75   2.0000      -0.612420       -16.6648
  76   2.0000      -0.597323       -16.2540
  77   2.0000      -0.593581       -16.1522
  78   2.0000      -0.589803       -16.0493
  79   2.0000      -0.579957       -15.7814
  80   2.0000      -0.573959       -15.6182
  81   2.0000      -0.555091       -15.1048
  82   2.0000      -0.539663       -14.6850
  83   2.0000      -0.536668       -14.6035
  84   2.0000      -0.519218       -14.1286
  85   2.0000      -0.500585       -13.6216
  86   2.0000      -0.499665       -13.5966
  87   2.0000      -0.487881       -13.2759
  88   2.0000      -0.486812       -13.2468
  89   2.0000      -0.484234       -13.1767
  90   2.0000      -0.481505       -13.1024
  91   2.0000      -0.479905       -13.0589
  92   2.0000      -0.471325       -12.8254
  93   2.0000      -0.470820       -12.8117
  94   2.0000      -0.467010       -12.7080
  95   2.0000      -0.465299       -12.6614
  96   2.0000      -0.460279       -12.5248
  97   2.0000      -0.456609       -12.4250
  98   2.0000      -0.455608       -12.3977
  99   2.0000      -0.450869       -12.2688
 100   2.0000      -0.446460       -12.1488
 101   2.0000      -0.446078       -12.1384
 102   2.0000      -0.441319       -12.0089
 103   2.0000      -0.437974       -11.9179
 104   2.0000      -0.437921       -11.9164
 105   2.0000      -0.436120       -11.8674
 106   2.0000      -0.429725       -11.6934
 107   2.0000      -0.426194       -11.5973
 108   2.0000      -0.422456       -11.4956
 109   2.0000      -0.417526       -11.3615
 110   2.0000      -0.411455       -11.1963
 111   2.0000      -0.410478       -11.1697
 112   2.0000      -0.408569       -11.1177
 113   2.0000      -0.406134       -11.0515
 114   2.0000      -0.401922       -10.9369
 115   2.0000      -0.398065       -10.8319
 116   2.0000      -0.388028       -10.5588
 117   2.0000      -0.384800       -10.4709
 118   2.0000      -0.380471       -10.3531
 119   2.0000      -0.378679       -10.3044
 120   2.0000      -0.375096       -10.2069
 121   2.0000      -0.373653       -10.1676
 122   2.0000      -0.366231        -9.9656
 123   2.0000      -0.362661        -9.8685
 124   2.0000      -0.354376        -9.6431
 125   2.0000      -0.351316        -9.5598
 126   2.0000      -0.348301        -9.4777
 127   2.0000      -0.346472        -9.4280
 128   2.0000      -0.327097        -8.9008
 129   2.0000      -0.323780        -8.8105
 130   2.0000      -0.317049        -8.6273
 131   2.0000      -0.304019        -8.2728
 132   2.0000      -0.298352        -8.1186
 133   2.0000      -0.285386        -7.7658
 134   2.0000      -0.278767        -7.5856
 135   2.0000      -0.275712        -7.5025
 136   2.0000      -0.273161        -7.4331
 137   2.0000      -0.270203        -7.3526
 138   2.0000      -0.267058        -7.2670
 139   2.0000      -0.262056        -7.1309
 140   2.0000      -0.259839        -7.0706
 141   2.0000      -0.255625        -6.9559
 142   2.0000      -0.251614        -6.8468
 143   2.0000      -0.238914        -6.5012
 144   2.0000      -0.222533        -6.0554
 145   0.0000      -0.077900        -2.1198
 146   0.0000      -0.062749        -1.7075
 147   0.0000      -0.034658        -0.9431
 148   0.0000      -0.023721        -0.6455
 149   0.0000      -0.015202        -0.4137

MULLIKEN ATOMIC CHARGES
-----------------------
   0 C :   -0.191859
   1 O :   -0.438491
   2 C :   -0.090441
   3 C :    0.153111
   4 N :   -0.421035
   5 C :    0.292017
   6 N :   -0.608668
   7 C :   -0.241493
   8 C :    0.161789
   9 C :   -0.163879
  10 C :   -0.172351
  11 C :    0.351993
  12 O :   -0.544579
  13 C :    1.086292
  14 F :   -0.292512
  15 F :   -0.291499
  16 F :   -0.278939
  17 C :   -0.192267
  18 C :   -0.171289
  19 S :    1.220682
  20 O :   -0.542721
  21 O :   -0.558704
  22 C :   -0.128259
  23 C :   -0.153333
  24 C :   -0.147161
  25 C :    0.082341
  26 C :    0.526432
  27 O :   -0.444868
  28 O :   -0.624210
  29 C :   -0.144394
  30 C :   -0.135217
  31 C :    0.136030
  32 C :   -0.543878
  33 C :    0.115302
  34 C :   -0.194648
  35 C :   -0.119660
  36 C :   -0.120856
  37 C :   -0.217899
  38 C :    0.122749
  39 H :    0.155949
  40 H :    0.132595
  41 H :    0.128305
  42 H :    0.139782
  43 H :    0.165340
  44 H :    0.174054
  45 H :    0.169377
  46 H :    0.164641
  47 H :    0.151999
  48 H :    0.151435
  49 H :    0.142201
  50 H :    0.182848
  51 H :    0.170004
  52 H :    0.432825
  53 H :    0.183808
  54 H :    0.195524
  55 H :    0.169878
  56 H :    0.157576
  57 H :    0.199210
  58 H :    0.146103
  59 H :    0.139253
  60 H :    0.136913
  61 H :    0.136750
Sum of atomic charges:   -0.0000000

LOEWDIN ATOMIC CHARGES
----------------------
   0 C :   -0.206405
   1 O :   -0.225014
   2 C :   -0.100460
   3 C :    0.017621
   4 N :   -0.133324
   5 C :    0.020941
   6 N :   -0.279106
   7 C :   -0.145960
   8 C :   -0.037397
   9 C :   -0.112424
  10 C :   -0.139786
  11 C :    0.086367
  12 O :   -0.159310
  13 C :    0.359606
  14 F :   -0.106002
  15 F :   -0.105090
  16 F :   -0.087419
  17 C :   -0.161945
  18 C :   -0.122493
  19 S :    1.263334
  20 O :   -0.566923
  21 O :   -0.581675
  22 C :   -0.177256
  23 C :   -0.109314
  24 C :   -0.101976
  25 C :   -0.040840
  26 C :    0.179201
  27 O :   -0.261272
  28 O :   -0.335407
  29 C :   -0.084640
  30 C :   -0.095084
  31 C :    0.006217
  32 C :   -0.360413
  33 C :   -0.004161
  34 C :   -0.115128
  35 C :   -0.117980
  36 C :   -0.121673
  37 C :   -0.123120
  38 C :   -0.028524
  39 H :    0.126427
  40 H :    0.106793
  41 H :    0.103577
  42 H :    0.119448
  43 H :    0.135906
  44 H :    0.144265
  45 H :    0.131668
  46 H :    0.149357
  47 H :    0.146675
  48 H :    0.141521
  49 H :    0.137856
  50 H :    0.159190
  51 H :    0.153365
  52 H :    0.348892
  53 H :    0.162098
  54 H :    0.164851
  55 H :    0.142402
  56 H :    0.135272
  57 H :    0.152379
  58 H :    0.142751
  59 H :    0.137276
  60 H :    0.136034
  61 H :    0.136229

  Mayer bond orders larger than 0.100000
B(  0-C ,  1-O ) :   0.9477 B(  0-C , 39-H ) :   0.9522 B(  0-C , 40-H ) :   0.9261
B(  0-C , 41-H ) :   0.9320 B(  1-O ,  2-C ) :   0.9709 B(  2-C ,  3-C ) :   0.9418
B(  2-C , 42-H ) :   0.9091 B(  2-C , 43-H ) :   0.9211 B(  3-C ,  4-N ) :   1.4695
B(  3-C , 38-C ) :   1.2064 B(  4-N ,  5-C ) :   1.2647 B(  5-C ,  6-N ) :   0.8861
B(  5-C , 31-C ) :   1.4403 B(  6-N ,  7-C ) :   0.9201 B(  6-N , 19-S ) :   0.8045
B(  7-C ,  8-C ) :   0.9599 B(  7-C , 44-H ) :   0.9188 B(  7-C , 45-H ) :   0.9187
B(  8-C ,  9-C ) :   1.4302 B(  8-C , 18-C ) :   1.4357 B(  9-C , 10-C ) :   1.4375
B(  9-C , 46-H ) :   0.9138 B( 10-C , 11-C ) :   1.4131 B( 10-C , 47-H ) :   0.9181
B( 11-C , 12-O ) :   0.8242 B( 11-C , 17-C ) :   1.3948 B( 12-O , 13-C ) :   0.9917
B( 13-C , 14-F ) :   0.9677 B( 13-C , 15-F ) :   0.9678 B( 13-C , 16-F ) :   1.0082
B( 17-C , 18-C ) :   1.4259 B( 17-C , 48-H ) :   0.9096 B( 18-C , 49-H ) :   0.9199
B( 19-S , 20-O ) :   1.6544 B( 19-S , 21-O ) :   1.6093 B( 19-S , 22-C ) :   0.8130
B( 22-C , 23-C ) :   1.4016 B( 22-C , 30-C ) :   1.3741 B( 23-C , 24-C ) :   1.4097
B( 23-C , 50-H ) :   0.9098 B( 24-C , 25-C ) :   1.3880 B( 24-C , 51-H ) :   0.9156
B( 25-C , 26-C ) :   1.0084 B( 25-C , 29-C ) :   1.3934 B( 26-C , 27-O ) :   1.8634
B( 26-C , 28-O ) :   1.0235 B( 28-O , 52-H ) :   0.7426 B( 29-C , 30-C ) :   1.4348
B( 29-C , 53-H ) :   0.9094 B( 30-C , 54-H ) :   0.8986 B( 31-C , 32-C ) :   1.0085
B( 31-C , 33-C ) :   1.2566 B( 32-C , 55-H ) :   0.9237 B( 32-C , 56-H ) :   0.9245
B( 32-C , 57-H ) :   0.9186 B( 33-C , 34-C ) :   1.2944 B( 33-C , 38-C ) :   1.2887
B( 34-C , 35-C ) :   1.5061 B( 34-C , 37-C ) :   0.1059 B( 34-C , 58-H ) :   0.9142
B( 35-C , 36-C ) :   1.3584 B( 35-C , 59-H ) :   0.9285 B( 36-C , 37-C ) :   1.5085
B( 36-C , 60-H ) :   0.9287 B( 37-C , 38-C ) :   1.2920 B( 37-C , 61-H ) :   0.9183

FINAL SINGLE POINT ENERGY     -2300.060444405960

DIPOLE MOMENT
-------------

Method             : SCF
Type of density    : Electron Density
Multiplicity       :   1
Irrep              :   0
Energy             : -2300.0604444059599700 Eh
Relativity type    :
Basis              : AO
                                X                 Y                 Z
Electronic contribution:     26.012052206     -23.648495152       1.597544763
Nuclear contribution   :    -27.040309925      22.567354571      -2.144348834
                        -----------------------------------------
Total Dipole Moment    :     -1.028257719      -1.081140581      -0.546804071
                        -----------------------------------------
Magnitude (a.u.)       :      1.589079477
Magnitude (Debye)      :      4.039119037

Rotational constants in cm-1:             0.004020             0.001649             0.001385
Rotational constants in MHz :           120.510290            49.421856            41.535533

                             ****ORCA TERMINATED NORMALLY****
TOTAL RUN TIME: 0 days 0 hours 8 minutes 27 seconds 20 msec
