                         Program Version 6.0.0  -   RELEASE  -
|  1> ! B3LYP 6-31G* SP
|  2>
|  3> * xyz 0 1
|  4> C 1.2114 -1.2607 -1.9266
|  5> C -0.0793 -1.4419 -1.1757
|  6> C -0.8508 -2.5900 -1.4107
|  7> C -2.0366 -2.8011 -0.6976
|  8> C -2.8331 -3.9336 -0.9254
|  9> C -4.0137 -4.1150 -0.1972
| 10> C -4.4027 -3.1716 0.7590
| 11> C -3.6130 -2.0411 0.9929
| 12> C -2.4304 -1.8521 0.2690
| 13> N -1.6599 -0.7572 0.4960
| 14> C -0.5065 -0.5274 -0.1881
| 15> N 0.2427 0.6571 0.1040
| 16> C -0.0580 1.9051 -0.6015
| 17> C -1.4377 2.3875 -0.2415
| 18> C -2.5244 2.1127 -1.0845
| 19> C -3.8118 2.5156 -0.7261
| 20> C -4.0312 3.1782 0.4846
| 21> F -5.2908 3.5704 0.8028
| 22> C -2.9578 3.4342 1.3596
| 23> C -3.2008 4.1663 2.6585
| 24> F -4.2655 3.5915 3.3314
| 25> F -3.4973 5.4902 2.3882
| 26> F -2.0908 4.1197 3.4859
| 27> C -1.6592 3.0432 0.9800
| 28> S 1.4115 0.6167 1.3875
| 29> O 0.9367 -0.3206 2.4623
| 30> O 1.5690 1.9833 1.9938
| 31> C 2.9591 0.0797 0.7483
| 32> C 3.4778 -1.1753 1.0909
| 33> C 4.6942 -1.6050 0.5529
| 34> C 5.4085 -0.7849 -0.3388
| 35> C 6.6949 -1.2355 -0.9138
| 36> O 7.1627 -2.3692 -0.6216
| 37> O 7.4024 -0.4102 -1.7843
| 38> C 4.8802 0.4723 -0.6798
| 39> C 3.6638 0.8996 -0.1400
| 40> H 1.4972 -0.1918 -2.0019
| 41> H 2.0204 -1.8169 -1.4090
| 42> H 1.1144 -1.6538 -2.9609
| 43> H -0.5273 -3.3155 -2.1496
| 44> H -2.5449 -4.6730 -1.6629
| 45> H -4.6280 -4.9882 -0.3738
| 46> H -5.3172 -3.3166 1.3194
| 47> H -3.9208 -1.3153 1.7354
| 48> H 0.6870 2.6880 -0.3431
| 49> H 0.0256 1.7415 -1.6981
| 50> H -2.3760 1.5851 -2.0193
| 51> H -4.6435 2.3091 -1.3877
| 52> H -0.8176 3.2413 1.6304
| 53> H 2.9399 -1.8273 1.7661
| 54> H 5.0729 -2.5801 0.8326
| 55> H 8.2836 -0.7096 -2.1844
| 56> H 5.4036 1.1250 -1.3667
| 57> H 3.2671 1.8670 -0.4210
| 58> *
| 59>
| 60>                          ****END OF INPUT****

CARTESIAN COORDINATES (ANGSTROEM)
---------------------------------
  C      1.211400   -1.260700   -1.926600
  C     -0.079300   -1.441900   -1.175700
  C     -0.850800   -2.590000   -1.410700
  C     -2.036600   -2.801100   -0.697600
  C     -2.833100   -3.933600   -0.925400
  C     -4.013700   -4.115000   -0.197200
  C     -4.402700   -3.171600    0.759000
  C     -3.613000   -2.041100    0.992900
  C     -2.430400   -1.852100    0.269000
  N     -1.659900   -0.757200    0.496000
  C     -0.506500   -0.527400   -0.188100
  N      0.242700    0.657100    0.104000
  C     -0.058000    1.905100   -0.601500
  C     -1.437700    2.387500   -0.241500
  C     -2.524400    2.112700   -1.084500
  C     -3.811800    2.515600   -0.726100
  C     -4.031200    3.178200    0.484600
  F     -5.290800    3.570400    0.802800
  C     -2.957800    3.434200    1.359600
  C     -3.200800    4.166300    2.658500
  F     -4.265500    3.591500    3.331400
  F     -3.497300    5.490200    2.388200
  F     -2.090800    4.119700    3.485900
  C     -1.659200    3.043200    0.980000
  S      1.411500    0.616700    1.387500
  O      0.936700   -0.320600    2.462300
  O      1.569000    1.983300    1.993800
  C      2.959100    0.079700    0.748300
  C      3.477800   -1.175300    1.090900
  C      4.694200   -1.605000    0.552900
  C      5.408500   -0.784900   -0.338800
  C      6.694900   -1.235500   -0.913800
  O      7.162700   -2.369200   -0.621600
  O      7.402400   -0.410200   -1.784300
  C      4.880200    0.472300   -0.679800
  C      3.663800    0.899600   -0.140000
  H      1.497200   -0.191800   -2.001900
  H      2.020400   -1.816900   -1.409000
  H      1.114400   -1.653800   -2.960900
  H     -0.527300   -3.315500   -2.149600
  H     -2.544900   -4.673000   -1.662900
  H     -4.628000   -4.988200   -0.373800
  H     -5.317200   -3.316600    1.319400
  H     -3.920800   -1.315300    1.735400
  H      0.687000    2.688000   -0.343100
  H      0.025600    1.741500   -1.698100
  H     -2.376000    1.585100   -2.019300
  H     -4.643500    2.309100   -1.387700
  H     -0.817600    3.241300    1.630400
  H      2.939900   -1.827300    1.766100
  H      5.072900   -2.580100    0.832600
  H      8.283600   -0.709600   -2.184400
  H      5.403600    1.125000   -1.366700
  H      3.267100    1.867000   -0.421000

 Total Charge           Charge          ....    0
 Multiplicity           Mult            ....    1
 Number of Electrons    NEL             ....  266
 Basis Dimension        Dim             ....  544

ORBITAL ENERGIES
----------------

  NO   OCC          E(Eh)            E(eV)
   0   2.0000     -89.104142     -2424.6470
   1   2.0000     -24.709703      -672.3852
   2   2.0000     -24.705987      -672.2841
   3   2.0000     -24.705620      -672.2741
   4   2.0000     -24.704425      -672.2416
   5   2.0000     -19.202052      -522.5144
   6   2.0000     -19.143732      -520.9274
   7   2.0000     -19.135448      -520.7020
   8   2.0000     -19.129355      -520.5362
   9   2.0000     -14.378122      -391.2486
  10   2.0000     -14.332803      -390.0154
  11   2.0000     -10.427336      -283.7422
  12   2.0000     -10.341328      -281.4019
  13   2.0000     -10.283032      -279.8155
  14   2.0000     -10.268479      -279.4195
  15   2.0000     -10.248908      -278.8870
  16   2.0000     -10.243379      -278.7365
  17   2.0000     -10.238770      -278.6111
  18   2.0000     -10.228914      -278.3429
  19   2.0000     -10.225621      -278.2533
  20   2.0000     -10.225264      -278.2436
  21   2.0000     -10.224150      -278.2133
  22   2.0000     -10.223732      -278.2019
  23   2.0000     -10.214180      -277.9420
  24   2.0000     -10.213443      -277.9219
  25   2.0000     -10.206346      -277.7288
  26   2.0000     -10.202417      -277.6219
  27   2.0000     -10.201848      -277.6064
  28   2.0000     -10.201747      -277.6036
  29   2.0000     -10.200293      -277.5641
  30   2.0000     -10.198093      -277.5042
  31   2.0000     -10.196228      -277.4535
  32   2.0000     -10.195261      -277.4272
  33   2.0000     -10.194963      -277.4191
  34   2.0000     -10.194522      -277.4070
  35   2.0000     -10.189472      -277.2696
  36   2.0000      -8.139739      -221.4936
  37   2.0000      -6.104799      -166.1200
  38   2.0000      -6.102769      -166.0648
  39   2.0000      -6.102401      -166.0548
  40   2.0000      -1.267564       -34.4922
  41   2.0000      -1.218779       -33.1647
  42   2.0000      -1.193099       -32.4659
  43   2.0000      -1.190943       -32.4072
  44   2.0000      -1.089948       -29.6590
  45   2.0000      -1.086639       -29.5689
  46   2.0000      -1.000853       -27.2346
  47   2.0000      -0.970707       -26.4143
  48   2.0000      -0.966928       -26.3114
  49   2.0000      -0.922671       -25.1072
  50   2.0000      -0.897798       -24.4303
  51   2.0000      -0.871934       -23.7265
  52   2.0000      -0.851060       -23.1585
  53   2.0000      -0.825270       -22.4567
  54   2.0000      -0.814916       -22.1750
  55   2.0000      -0.792121       -21.5547
  56   2.0000      -0.784150       -21.3378
  57   2.0000      -0.776856       -21.1393
  58   2.0000      -0.768365       -20.9083
  59   2.0000      -0.748652       -20.3719
  60   2.0000      -0.722909       -19.6714
  61   2.0000      -0.703402       -19.1405
  62   2.0000      -0.695295       -18.9199
  63   2.0000      -0.688951       -18.7473
  64   2.0000      -0.668922       -18.2023
  65   2.0000      -0.645799       -17.5731
  66   2.0000      -0.633018       -17.2253
  67   2.0000      -0.626794       -17.0559
  68   2.0000      -0.619157       -16.8481
  69   2.0000      -0.611336       -16.6353
  70   2.0000      -0.609470       -16.5845
  71   2.0000      -0.597720       -16.2648
  72   2.0000      -0.567795       -15.4505
  73   2.0000      -0.559408       -15.2223
  74   2.0000      -0.558175       -15.1887
  75   2.0000      -0.556589       -15.1455
  76   2.0000      -0.546651       -14.8751
  77   2.0000      -0.538444       -14.6518
  78   2.0000      -0.526315       -14.3218
  79   2.0000      -0.515394       -14.0246
  80   2.0000      -0.505465       -13.7544
  81   2.0000      -0.500544       -13.6205
  82   2.0000      -0.498092       -13.5538
  83   2.0000      -0.486476       -13.2377
  84   2.0000      -0.481471       -13.1015
  85   2.0000      -0.476218       -12.9585
  86   2.0000      -0.467792       -12.7293
  87   2.0000      -0.464085       -12.6284
  88   2.0000      -0.462004       -12.5718
  89   2.0000      -0.456921       -12.4335
  90   2.0000      -0.455480       -12.3943
  91   2.0000      -0.448637       -12.2080
  92   2.0000      -0.448131       -12.1943
  93   2.0000      -0.443168       -12.0592
  94   2.0000      -0.440907       -11.9977
  95   2.0000      -0.437383       -11.9018
  96   2.0000      -0.434919       -11.8347
  97   2.0000      -0.430785       -11.7223
  98   2.0000      -0.425015       -11.5652
  99   2.0000      -0.423026       -11.5111
 100   2.0000      -0.421078       -11.4581
 101   2.0000      -0.410207       -11.1623
 102   2.0000      -0.408989       -11.1292
 103   2.0000      -0.407918       -11.1000
 104   2.0000      -0.405848       -11.0437
 105   2.0000      -0.400912       -10.9094
 106   2.0000      -0.397673       -10.8212
 107   2.0000      -0.392243       -10.6735
 108   2.0000      -0.390888       -10.6366
 109   2.0000      -0.386923       -10.5287
 110   2.0000      -0.383791       -10.4435
 111   2.0000      -0.377751       -10.2791
 112   2.0000      -0.375296       -10.2123
 113   2.0000      -0.365675        -9.9505
 114   2.0000      -0.362160        -9.8549
 115   2.0000      -0.356113        -9.6903
 116   2.0000      -0.346341        -9.4244
 117   2.0000      -0.344646        -9.3783
 118   2.0000      -0.331803        -9.0288
 119   2.0000      -0.326661        -8.8889
 120   2.0000      -0.312920        -8.5150
 121   2.0000      -0.306474        -8.3396
 122   2.0000      -0.299981        -8.1629
 123   2.0000      -0.293474        -7.9858
 124   2.0000      -0.286570        -7.7980
 125   2.0000      -0.280585        -7.6351
 126   2.0000      -0.276914        -7.5352
 127   2.0000      -0.267389        -7.2760
 128   2.0000      -0.263995        -7.1837
 129   2.0000      -0.258712        -7.0399
 130   2.0000      -0.256637        -6.9835
 131   2.0000      -0.242019        -6.5857
 132   2.0000      -0.229174        -6.2362
 133   0.0000      -0.089441        -2.4338
 134   0.0000      -0.069578        -1.8933
 135   0.0000      -0.038446        -1.0462
 136   0.0000      -0.029330        -0.7981
 137   0.0000      -0.024237        -0.6595

MULLIKEN ATOMIC CHARGES
-----------------------
   0 C :   -0.537488
   1 C :    0.148920
   2 C :   -0.209484
   3 C :    0.177840
   4 C :   -0.206965
   5 C :   -0.126549
   6 C :   -0.132351
   7 C :   -0.143172
   8 C :    0.203094
   9 N :   -0.410810
  10 C :    0.313531
  11 N :   -0.612959
  12 C :   -0.252797
  13 C :    0.174362
  14 C :   -0.142019
  15 C :   -0.206784
  16 C :    0.386917
  17 F :   -0.302188
  18 C :   -0.116216
  19 C :    0.918871
  20 F :   -0.300779
  21 F :   -0.299186
  22 F :   -0.300065
  23 C :   -0.186094
  24 S :    1.200194
  25 O :   -0.524227
  26 O :   -0.542870
  27 C :   -0.106045
  28 C :   -0.154010
  29 C :   -0.140446
  30 C :    0.082447
  31 C :    0.529041
  32 O :   -0.442357
  33 O :   -0.623964
  34 C :   -0.147102
  35 C :   -0.145416
  36 H :    0.158193
  37 H :    0.176461
  38 H :    0.158125
  39 H :    0.137863
  40 H :    0.133010
  41 H :    0.136488
  42 H :    0.140447
  43 H :    0.156761
  44 H :    0.189862
  45 H :    0.151862
  46 H :    0.136165
  47 H :    0.150251
  48 H :    0.193657
  49 H :    0.196379
  50 H :    0.184043
  51 H :    0.435500
  52 H :    0.173875
  53 H :    0.168186
Sum of atomic charges:    0.0000000

LOEWDIN ATOMIC CHARGES
----------------------
   0 C :   -0.358137
   1 C :   -0.036407
   2 C :   -0.100001
   3 C :   -0.021753
   4 C :   -0.124641
   5 C :   -0.121627
   6 C :   -0.122962
   7 C :   -0.107304
   8 C :    0.014238
   9 N :   -0.094666
  10 C :    0.039491
  11 N :   -0.284540
  12 C :   -0.146534
  13 C :   -0.034418
  14 C :   -0.108959
  15 C :   -0.153703
  16 C :    0.135029
  17 F :   -0.094240
  18 C :   -0.093163
  19 C :    0.316089
  20 F :   -0.112098
  21 F :   -0.114354
  22 F :   -0.107548
  23 C :   -0.092827
  24 S :    1.265188
  25 O :   -0.558426
  26 O :   -0.568707
  27 C :   -0.171422
  28 C :   -0.105666
  29 C :   -0.085425
  30 C :   -0.039666
  31 C :    0.179687
  32 O :   -0.258654
  33 O :   -0.334655
  34 C :   -0.098655
  35 C :   -0.107900
  36 H :    0.132550
  37 H :    0.144537
  38 H :    0.134442
  39 H :    0.137609
  40 H :    0.133453
  41 H :    0.135628
  42 H :    0.138025
  43 H :    0.150038
  44 H :    0.150527
  45 H :    0.123040
  46 H :    0.135810
  47 H :    0.147078
  48 H :    0.162124
  49 H :    0.166155
  50 H :    0.162054
  51 H :    0.350717
  52 H :    0.155172
  53 H :    0.150376

  Mayer bond orders larger than 0.100000
B(  0-C ,  1-C ) :   0.9850 B(  0-C , 36-H ) :   0.9351 B(  0-C , 37-H ) :   0.9234
B(  0-C , 38-H ) :   0.9411 B(  1-C ,  2-C ) :   1.4655 B(  1-C , 10-C ) :   1.3066
B(  2-C ,  3-C ) :   1.2986 B(  2-C , 39-H ) :   0.9186 B(  3-C ,  4-C ) :   1.2808
B(  3-C ,  8-C ) :   1.2426 B(  4-C ,  5-C ) :   1.5151 B(  4-C ,  7-C ) :   0.1083
B(  4-C , 40-H ) :   0.9250 B(  5-C ,  6-C ) :   1.3441 B(  5-C , 41-H ) :   0.9296
B(  6-C ,  7-C ) :   1.5184 B(  6-C , 42-H ) :   0.9289 B(  7-C ,  8-C ) :   1.2996
B(  7-C , 43-H ) :   0.9152 B(  8-C ,  9-N ) :   1.2499 B(  9-N , 10-C ) :   1.4542
B( 10-C , 11-N ) :   0.8834 B( 11-N , 12-C ) :   0.9282 B( 11-N , 24-S ) :   0.8088
B( 12-C , 13-C ) :   0.9595 B( 12-C , 44-H ) :   0.9123 B( 12-C , 45-H ) :   0.9218
B( 13-C , 14-C ) :   1.4353 B( 13-C , 23-C ) :   1.4154 B( 14-C , 15-C ) :   1.4169
B( 14-C , 46-H ) :   0.9228 B( 15-C , 16-C ) :   1.3939 B( 15-C , 47-H ) :   0.9181
B( 16-C , 17-F ) :   0.9530 B( 16-C , 18-C ) :   1.3223 B( 18-C , 19-C ) :   0.9631
B( 18-C , 23-C ) :   1.4008 B( 19-C , 20-F ) :   0.9614 B( 19-C , 21-F ) :   0.9795
B( 19-C , 22-F ) :   0.9524 B( 23-C , 48-H ) :   0.8939 B( 24-S , 25-O ) :   1.6572
B( 24-S , 26-O ) :   1.6179 B( 24-S , 27-C ) :   0.8135 B( 27-C , 28-C ) :   1.3936
B( 27-C , 35-C ) :   1.3819 B( 28-C , 29-C ) :   1.4074 B( 28-C , 49-H ) :   0.9056
B( 29-C , 30-C ) :   1.4035 B( 29-C , 50-H ) :   0.9087 B( 30-C , 31-C ) :   1.0076
B( 30-C , 34-C ) :   1.3816 B( 31-C , 32-O ) :   1.8641 B( 31-C , 33-O ) :   1.0256
B( 33-O , 51-H ) :   0.7409 B( 34-C , 35-C ) :   1.4286 B( 34-C , 52-H ) :   0.9142
B( 35-C , 53-H ) :   0.9147

FINAL SINGLE POINT ENERGY     -2170.336508746740

DIPOLE MOMENT
-------------

Method             : SCF
Type of density    : Electron Density
Multiplicity       :   1
Irrep              :   0
Energy             : -2170.3365087467400372 Eh
Relativity type    :
Basis              : AO
                                X                 Y                 Z
Electronic contribution:    -20.359256743      31.839724480      24.078903462
Nuclear contribution   :     21.296002690     -33.179012503     -27.483026837
                        -----------------------------------------
Total Dipole Moment    :      0.936745946      -1.339288022      -3.404123375
                        -----------------------------------------
Magnitude (a.u.)       :      3.776141063
Magnitude (Debye)      :      9.598187801

Rotational constants in cm-1:             0.004800             0.002054             0.001613
Rotational constants in MHz :           143.896265            61.573067            48.344484

                             ****ORCA TERMINATED NORMALLY****
TOTAL RUN TIME: 0 days 0 hours 7 minutes 1 seconds 483 msec
