                         Program Version 6.0.0  -   RELEASE  -
|  1> ! B3LYP 6-31G* SP
|  2>
|  3> * xyz 0 1
|  4> C 4.6576 0.7145 -0.5006
|  5> C 4.1575 -0.6871 -0.1646
|  6> C 2.9011 -1.0056 -0.9251
|  7> O 3.0032 -1.6387 -2.0103
|  8> C 1.5568 -0.5794 -0.4748
|  9> S 0.1323 -0.9450 -1.2953
| 10> C -0.8639 -0.1428 -0.1982
| 11> C -2.3387 -0.0368 -0.2818
| 12> C -3.0535 0.6666 0.7056
| 13> C -4.4459 0.7710 0.6334
| 14> C -5.1397 0.1761 -0.4223
| 15> C -4.4423 -0.5249 -1.4089
| 16> F -5.1172 -1.1021 -2.4336
| 17> C -3.0492 -0.6324 -1.3415
| 18> N -0.1307 0.4088 0.7953
| 19> C 1.2021 0.1738 0.6501
| 20> O 2.1215 0.6646 1.5702
| 21> H 3.8923 1.4773 -0.2462
| 22> H 5.5794 0.9289 0.0800
| 23> H 4.8950 0.7870 -1.5836
| 24> H 4.9479 -1.4201 -0.4371
| 25> H 3.9933 -0.7899 0.9273
| 26> H -2.5376 1.1362 1.5337
| 27> H -4.9874 1.3139 1.3973
| 28> H -6.2177 0.2589 -0.4750
| 29> H -2.5327 -1.1808 -2.1183
| 30> H 1.8165 1.2078 2.3687
| 31> *
| 32>
| 33>                          ****END OF INPUT****

CARTESIAN COORDINATES (ANGSTROEM)
---------------------------------
  C      4.657600    0.714500   -0.500600
  C      4.157500   -0.687100   -0.164600
  C      2.901100   -1.005600   -0.925100
  O      3.003200   -1.638700   -2.010300
  C      1.556800   -0.579400   -0.474800
  S      0.132300   -0.945000   -1.295300
  C     -0.863900   -0.142800   -0.198200
  C     -2.338700   -0.036800   -0.281800
  C     -3.053500    0.666600    0.705600
  C     -4.445900    0.771000    0.633400
  C     -5.139700    0.176100   -0.422300
  C     -4.442300   -0.524900   -1.408900
  F     -5.117200   -1.102100   -2.433600
  C     -3.049200   -0.632400   -1.341500
  N     -0.130700    0.408800    0.795300
  C      1.202100    0.173800    0.650100
  O      2.121500    0.664600    1.570200
  H      3.892300    1.477300   -0.246200
  H      5.579400    0.928900    0.080000
  H      4.895000    0.787000   -1.583600
  H      4.947900   -1.420100   -0.437100
  H      3.993300   -0.789900    0.927300
  H     -2.537600    1.136200    1.533700
  H     -4.987400    1.313900    1.397300
  H     -6.217700    0.258900   -0.475000
  H     -2.532700   -1.180800   -2.118300
  H      1.816500    1.207800    2.368700

 Total Charge           Charge          ....    0
 Multiplicity           Mult            ....    1
 Number of Electrons    NEL             ....  130
 Basis Dimension        Dim             ....  262

ORBITAL ENERGIES
----------------

  NO   OCC          E(Eh)            E(eV)
   0   2.0000     -88.908789     -2419.3311
   1   2.0000     -24.708572      -672.3544
   2   2.0000     -19.193892      -522.2924
   3   2.0000     -19.119291      -520.2623
   4   2.0000     -14.343756      -390.3134
   5   2.0000     -10.298625      -280.2398
   6   2.0000     -10.283153      -279.8188
   7   2.0000     -10.270868      -279.4845
   8   2.0000     -10.270485      -279.4741
   9   2.0000     -10.226422      -278.2751
  10   2.0000     -10.220974      -278.1269
  11   2.0000     -10.207355      -277.7562
  12   2.0000     -10.204410      -277.6761
  13   2.0000     -10.203114      -277.6409
  14   2.0000     -10.199718      -277.5484
  15   2.0000     -10.179399      -276.9955
  16   2.0000     -10.172883      -276.8182
  17   2.0000      -7.985389      -217.2935
  18   2.0000      -5.948350      -161.8628
  19   2.0000      -5.944266      -161.7517
  20   2.0000      -5.942539      -161.7047
  21   2.0000      -1.221545       -33.2399
  22   2.0000      -1.062738       -28.9186
  23   2.0000      -1.006794       -27.3963
  24   2.0000      -0.971321       -26.4310
  25   2.0000      -0.874853       -23.8060
  26   2.0000      -0.821586       -22.3565
  27   2.0000      -0.796029       -21.6610
  28   2.0000      -0.774364       -21.0715
  29   2.0000      -0.760630       -20.6978
  30   2.0000      -0.737697       -20.0738
  31   2.0000      -0.663412       -18.0524
  32   2.0000      -0.640912       -17.4401
  33   2.0000      -0.630365       -17.1531
  34   2.0000      -0.609560       -16.5870
  35   2.0000      -0.593723       -16.1560
  36   2.0000      -0.553743       -15.0681
  37   2.0000      -0.546156       -14.8617
  38   2.0000      -0.518090       -14.0980
  39   2.0000      -0.505551       -13.7567
  40   2.0000      -0.488839       -13.3020
  41   2.0000      -0.474110       -12.9012
  42   2.0000      -0.464818       -12.6483
  43   2.0000      -0.460045       -12.5185
  44   2.0000      -0.452240       -12.3061
  45   2.0000      -0.446365       -12.1462
  46   2.0000      -0.434120       -11.8130
  47   2.0000      -0.412608       -11.2276
  48   2.0000      -0.404426       -11.0050
  49   2.0000      -0.398618       -10.8470
  50   2.0000      -0.388849       -10.5811
  51   2.0000      -0.387040       -10.5319
  52   2.0000      -0.383342       -10.4313
  53   2.0000      -0.373654       -10.1676
  54   2.0000      -0.360869        -9.8197
  55   2.0000      -0.360216        -9.8020
  56   2.0000      -0.355339        -9.6693
  57   2.0000      -0.337570        -9.1857
  58   2.0000      -0.336253        -9.1499
  59   2.0000      -0.291256        -7.9255
  60   2.0000      -0.289998        -7.8912
  61   2.0000      -0.276826        -7.5328
  62   2.0000      -0.256977        -6.9927
  63   2.0000      -0.237045        -6.4503
  64   2.0000      -0.226584        -6.1657
  65   0.0000      -0.078675        -2.1409
  66   0.0000      -0.018843        -0.5127
  67   0.0000      -0.013569        -0.3692
  68   0.0000       0.017273         0.4700
  69   0.0000       0.034898         0.9496

MULLIKEN ATOMIC CHARGES
-----------------------
   0 C :   -0.446926
   1 C :   -0.324252
   2 C :    0.416658
   3 O :   -0.452721
   4 C :   -0.254707
   5 S :    0.316640
   6 C :   -0.016607
   7 C :    0.156175
   8 C :   -0.159067
   9 C :   -0.116387
  10 C :   -0.198800
  11 C :    0.413606
  12 F :   -0.313753
  13 C :   -0.278132
  14 N :   -0.430759
  15 C :    0.492528
  16 O :   -0.646810
  17 H :    0.157039
  18 H :    0.147939
  19 H :    0.159365
  20 H :    0.163775
  21 H :    0.157832
  22 H :    0.160290
  23 H :    0.147274
  24 H :    0.151451
  25 H :    0.166888
  26 H :    0.431459
Sum of atomic charges:   -0.0000000

LOEWDIN ATOMIC CHARGES
----------------------
   0 C :   -0.350168
   1 C :   -0.249714
   2 C :    0.133569
   3 O :   -0.250123
   4 C :   -0.269467
   5 S :    0.443799
   6 C :   -0.107793
   7 C :   -0.022819
   8 C :   -0.113587
   9 C :   -0.116662
  10 C :   -0.147197
  11 C :    0.120924
  12 F :   -0.099843
  13 C :   -0.149781
  14 N :   -0.189968
  15 C :    0.096294
  16 O :   -0.328012
  17 H :    0.127928
  18 H :    0.127531
  19 H :    0.130107
  20 H :    0.140840
  21 H :    0.135722
  22 H :    0.149286
  23 H :    0.141189
  24 H :    0.146580
  25 H :    0.153131
  26 H :    0.348235

  Mayer bond orders larger than 0.100000
B(  0-C ,  1-C ) :   0.9990 B(  0-C , 17-H ) :   0.9442 B(  0-C , 18-H ) :   0.9491
B(  0-C , 19-H ) :   0.9459 B(  1-C ,  2-C ) :   0.9916 B(  1-C , 20-H ) :   0.9279
B(  1-C , 21-H ) :   0.9155 B(  2-C ,  3-O ) :   1.8189 B(  2-C ,  4-C ) :   1.0139
B(  4-C ,  5-S ) :   1.0788 B(  4-C ,  6-C ) :   0.1107 B(  4-C , 15-C ) :   1.3980
B(  5-S ,  6-C ) :   1.1809 B(  6-C ,  7-C ) :   1.0243 B(  6-C , 14-N ) :   1.4271
B(  7-C ,  8-C ) :   1.4076 B(  7-C , 13-C ) :   1.3564 B(  8-C ,  9-C ) :   1.4343
B(  8-C , 22-H ) :   0.9123 B(  9-C , 10-C ) :   1.4233 B(  9-C , 23-H ) :   0.9284
B( 10-C , 11-C ) :   1.3869 B( 10-C , 24-H ) :   0.9197 B( 11-C , 12-F ) :   0.9166
B( 11-C , 13-C ) :   1.3927 B( 13-C , 25-H ) :   0.9059 B( 14-N , 15-C ) :   1.3041
B( 15-C , 16-O ) :   0.9676 B( 16-O , 26-H ) :   0.7502

FINAL SINGLE POINT ENERGY     -1166.006727372351

DIPOLE MOMENT
-------------

Method             : SCF
Type of density    : Electron Density
Multiplicity       :   1
Irrep              :   0
Energy             : -1166.0067273723509516 Eh
Relativity type    :
Basis              : AO
                                X                 Y                 Z
Electronic contribution:    -17.457248005      -5.883113996      -6.410616532
Nuclear contribution   :     16.828315703       6.904318952       7.923737718
                        -----------------------------------------
Total Dipole Moment    :     -0.628932301       1.021204956       1.513121186
                        -----------------------------------------
Magnitude (a.u.)       :      1.930790285
Magnitude (Debye)      :      4.907678885

Rotational constants in cm-1:             0.037522             0.006479             0.005623
Rotational constants in MHz :          1124.888608           194.223978           168.572592

                             ****ORCA TERMINATED NORMALLY****
TOTAL RUN TIME: 0 days 0 hours 2 minutes 46 seconds 241 msec
