                         Program Version 6.0.0  -   RELEASE  -
|  1> ! B3LYP 6-31G* SP
|  2>
|  3> * xyz 0 1
|  4> N 6.1708 4.9956 -2.5690
|  5> C 5.3573 4.1865 -2.4153
|  6> C 4.3451 3.1804 -2.2240
|  7> C 3.0052 3.5542 -2.0639
|  8> C 2.0222 2.5768 -1.8792
|  9> C 2.3696 1.2180 -1.8379
| 10> N 1.3377 0.2347 -1.6590
| 11> C 1.4543 -0.8853 -0.7611
| 12> O 2.5688 -1.1482 -0.2313
| 13> N 0.3013 -1.6920 -0.4226
| 14> C 0.5305 -3.0291 0.1439
| 15> C -0.5525 -3.9936 -0.3167
| 16> C -1.9095 -3.4538 0.0224
| 17> C -2.9617 -4.3417 0.2999
| 18> C -4.2474 -3.8573 0.5461
| 19> C -4.4987 -2.4867 0.4929
| 20> C -3.4637 -1.5959 0.1995
| 21> C -2.1528 -2.0643 -0.0189
| 22> C -1.0464 -1.0760 -0.3700
| 23> C -1.0385 0.0884 0.6050
| 24> C -0.7637 -0.1214 1.9664
| 25> C -0.7368 0.9541 2.8581
| 26> C -1.0028 2.2591 2.4080
| 27> C -0.9310 3.4348 3.3492
| 28> F 0.3036 4.0433 3.2234
| 29> F -1.1033 3.0341 4.6629
| 30> F -1.9200 4.3535 3.0427
| 31> C -1.2580 2.4702 1.0433
| 32> C -1.2863 1.3946 0.1525
| 33> C 3.7129 0.8468 -2.0249
| 34> C 4.6959 1.8249 -2.2103
| 35> H 2.7205 4.5992 -2.0832
| 36> H 0.9892 2.8774 -1.7559
| 37> H 0.4179 0.4373 -2.1047
| 38> H 0.5387 -2.9684 1.2531
| 39> H 1.5116 -3.4355 -0.1867
| 40> H -0.3876 -4.9773 0.1752
| 41> H -0.4840 -4.1343 -1.4172
| 42> H -2.7872 -5.4106 0.3180
| 43> H -5.0528 -4.5466 0.7641
| 44> H -5.4992 -2.1137 0.6711
| 45> H -3.6864 -0.5375 0.1417
| 46> H -1.3040 -0.7200 -1.3895
| 47> H -0.5683 -1.1185 2.3382
| 48> H -0.5064 0.7629 3.8981
| 49> H -1.4355 3.4699 0.6656
| 50> H -1.4956 1.5841 -0.8923
| 51> H 3.9995 -0.1961 -2.0552
| 52> H 5.7273 1.5232 -2.3524
| 53> *
| 54>
| 55>                          ****END OF INPUT****

CARTESIAN COORDINATES (ANGSTROEM)
---------------------------------
  N      6.170800    4.995600   -2.569000
  C      5.357300    4.186500   -2.415300
  C      4.345100    3.180400   -2.224000
  C      3.005200    3.554200   -2.063900
  C      2.022200    2.576800   -1.879200
  C      2.369600    1.218000   -1.837900
  N      1.337700    0.234700   -1.659000
  C      1.454300   -0.885300   -0.761100
  O      2.568800   -1.148200   -0.231300
  N      0.301300   -1.692000   -0.422600
  C      0.530500   -3.029100    0.143900
  C     -0.552500   -3.993600   -0.316700
  C     -1.909500   -3.453800    0.022400
  C     -2.961700   -4.341700    0.299900
  C     -4.247400   -3.857300    0.546100
  C     -4.498700   -2.486700    0.492900
  C     -3.463700   -1.595900    0.199500
  C     -2.152800   -2.064300   -0.018900
  C     -1.046400   -1.076000   -0.370000
  C     -1.038500    0.088400    0.605000
  C     -0.763700   -0.121400    1.966400
  C     -0.736800    0.954100    2.858100
  C     -1.002800    2.259100    2.408000
  C     -0.931000    3.434800    3.349200
  F      0.303600    4.043300    3.223400
  F     -1.103300    3.034100    4.662900
  F     -1.920000    4.353500    3.042700
  C     -1.258000    2.470200    1.043300
  C     -1.286300    1.394600    0.152500
  C      3.712900    0.846800   -2.024900
  C      4.695900    1.824900   -2.210300
  H      2.720500    4.599200   -2.083200
  H      0.989200    2.877400   -1.755900
  H      0.417900    0.437300   -2.104700
  H      0.538700   -2.968400    1.253100
  H      1.511600   -3.435500   -0.186700
  H     -0.387600   -4.977300    0.175200
  H     -0.484000   -4.134300   -1.417200
  H     -2.787200   -5.410600    0.318000
  H     -5.052800   -4.546600    0.764100
  H     -5.499200   -2.113700    0.671100
  H     -3.686400   -0.537500    0.141700
  H     -1.304000   -0.720000   -1.389500
  H     -0.568300   -1.118500    2.338200
  H     -0.506400    0.762900    3.898100
  H     -1.435500    3.469900    0.665600
  H     -1.495600    1.584100   -0.892300
  H      3.999500   -0.196100   -2.055200
  H      5.727300    1.523200   -2.352400

 Total Charge           Charge          ....    0
 Multiplicity           Mult            ....    1
 Number of Electrons    NEL             ....  218
 Basis Dimension        Dim             ....  470

ORBITAL ENERGIES
----------------

  NO   OCC          E(Eh)            E(eV)
   0   2.0000     -24.722093      -672.7224
   1   2.0000     -24.720694      -672.6843
   2   2.0000     -24.716914      -672.5814
   3   2.0000     -19.115053      -520.1470
   4   2.0000     -14.381970      -391.3533
   5   2.0000     -14.367433      -390.9577
   6   2.0000     -14.324277      -389.7834
   7   2.0000     -10.436937      -284.0035
   8   2.0000     -10.328527      -281.0535
   9   2.0000     -10.255018      -279.0532
  10   2.0000     -10.250523      -278.9309
  11   2.0000     -10.226412      -278.2748
  12   2.0000     -10.225878      -278.2603
  13   2.0000     -10.219317      -278.0817
  14   2.0000     -10.216293      -277.9995
  15   2.0000     -10.214387      -277.9476
  16   2.0000     -10.211365      -277.8654
  17   2.0000     -10.210474      -277.8411
  18   2.0000     -10.209207      -277.8067
  19   2.0000     -10.209071      -277.8029
  20   2.0000     -10.209006      -277.8012
  21   2.0000     -10.205842      -277.7151
  22   2.0000     -10.204965      -277.6912
  23   2.0000     -10.204566      -277.6804
  24   2.0000     -10.204035      -277.6659
  25   2.0000     -10.197643      -277.4920
  26   2.0000     -10.197591      -277.4906
  27   2.0000     -10.196835      -277.4700
  28   2.0000     -10.193226      -277.3718
  29   2.0000     -10.192849      -277.3615
  30   2.0000     -10.192479      -277.3515
  31   2.0000      -1.280978       -34.8572
  32   2.0000      -1.206841       -32.8398
  33   2.0000      -1.204770       -32.7835
  34   2.0000      -1.030482       -28.0409
  35   2.0000      -0.941048       -25.6072
  36   2.0000      -0.930530       -25.3210
  37   2.0000      -0.897952       -24.4345
  38   2.0000      -0.879649       -23.9365
  39   2.0000      -0.866576       -23.5807
  40   2.0000      -0.861064       -23.4308
  41   2.0000      -0.815635       -22.1946
  42   2.0000      -0.793504       -21.5923
  43   2.0000      -0.771473       -20.9929
  44   2.0000      -0.768561       -20.9136
  45   2.0000      -0.768302       -20.9066
  46   2.0000      -0.763935       -20.7877
  47   2.0000      -0.742020       -20.1914
  48   2.0000      -0.707267       -19.2457
  49   2.0000      -0.677415       -18.4334
  50   2.0000      -0.662542       -18.0287
  51   2.0000      -0.637350       -17.3432
  52   2.0000      -0.635859       -17.3026
  53   2.0000      -0.632539       -17.2123
  54   2.0000      -0.624608       -16.9964
  55   2.0000      -0.604240       -16.4422
  56   2.0000      -0.592586       -16.1251
  57   2.0000      -0.571802       -15.5595
  58   2.0000      -0.570170       -15.5151
  59   2.0000      -0.567018       -15.4293
  60   2.0000      -0.560888       -15.2625
  61   2.0000      -0.558754       -15.2045
  62   2.0000      -0.545796       -14.8519
  63   2.0000      -0.523632       -14.2487
  64   2.0000      -0.520040       -14.1510
  65   2.0000      -0.508305       -13.8317
  66   2.0000      -0.486704       -13.2439
  67   2.0000      -0.480188       -13.0666
  68   2.0000      -0.475635       -12.9427
  69   2.0000      -0.471305       -12.8249
  70   2.0000      -0.463954       -12.6248
  71   2.0000      -0.456877       -12.4323
  72   2.0000      -0.454330       -12.3630
  73   2.0000      -0.450247       -12.2518
  74   2.0000      -0.447490       -12.1768
  75   2.0000      -0.446802       -12.1581
  76   2.0000      -0.444597       -12.0981
  77   2.0000      -0.438552       -11.9336
  78   2.0000      -0.427334       -11.6284
  79   2.0000      -0.424670       -11.5559
  80   2.0000      -0.421689       -11.4748
  81   2.0000      -0.413534       -11.2528
  82   2.0000      -0.412714       -11.2305
  83   2.0000      -0.407279       -11.0826
  84   2.0000      -0.402523       -10.9532
  85   2.0000      -0.400478       -10.8976
  86   2.0000      -0.399504       -10.8711
  87   2.0000      -0.394562       -10.7366
  88   2.0000      -0.391337       -10.6488
  89   2.0000      -0.382324       -10.4036
  90   2.0000      -0.378814       -10.3080
  91   2.0000      -0.371371       -10.1055
  92   2.0000      -0.368366       -10.0238
  93   2.0000      -0.365932        -9.9575
  94   2.0000      -0.356482        -9.7004
  95   2.0000      -0.348126        -9.4730
  96   2.0000      -0.345217        -9.3938
  97   2.0000      -0.342500        -9.3199
  98   2.0000      -0.336703        -9.1622
  99   2.0000      -0.322566        -8.7775
 100   2.0000      -0.293194        -7.9782
 101   2.0000      -0.281500        -7.6600
 102   2.0000      -0.273299        -7.4368
 103   2.0000      -0.271583        -7.3901
 104   2.0000      -0.260689        -7.0937
 105   2.0000      -0.254266        -6.9189
 106   2.0000      -0.251118        -6.8333
 107   2.0000      -0.238440        -6.4883
 108   2.0000      -0.235431        -6.4064
 109   0.0000      -0.043877        -1.1940
 110   0.0000      -0.039106        -1.0641
 111   0.0000      -0.027624        -0.7517
 112   0.0000      -0.020379        -0.5545
 113   0.0000      -0.018051        -0.4912

MULLIKEN ATOMIC CHARGES
-----------------------
   0 N :   -0.309121
   1 C :    0.078027
   2 C :    0.121237
   3 C :   -0.141545
   4 C :   -0.176752
   5 C :    0.333025
   6 N :   -0.712263
   7 C :    0.693684
   8 O :   -0.485578
   9 N :   -0.462647
  10 C :   -0.125478
  11 C :   -0.347636
  12 C :    0.107847
  13 C :   -0.185241
  14 C :   -0.120815
  15 C :   -0.129196
  16 C :   -0.174921
  17 C :    0.091882
  18 C :   -0.124882
  19 C :    0.194866
  20 C :   -0.159758
  21 C :   -0.157089
  22 C :   -0.015283
  23 C :    0.897676
  24 F :   -0.294859
  25 F :   -0.304943
  26 F :   -0.305693
  27 C :   -0.156348
  28 C :   -0.196864
  29 C :   -0.127232
  30 C :   -0.150364
  31 H :    0.157533
  32 H :    0.134219
  33 H :    0.329444
  34 H :    0.148297
  35 H :    0.178401
  36 H :    0.150670
  37 H :    0.161827
  38 H :    0.128878
  39 H :    0.132196
  40 H :    0.133979
  41 H :    0.133929
  42 H :    0.145756
  43 H :    0.148733
  44 H :    0.159030
  45 H :    0.152156
  46 H :    0.121987
  47 H :    0.168547
  48 H :    0.160681
Sum of atomic charges:   -0.0000000

LOEWDIN ATOMIC CHARGES
----------------------
   0 N :   -0.101649
   1 C :   -0.008388
   2 C :   -0.061739
   3 C :   -0.098664
   4 C :   -0.141490
   5 C :    0.050558
   6 N :   -0.221869
   7 C :    0.173849
   8 O :   -0.300868
   9 N :   -0.124125
  10 C :   -0.140040
  11 C :   -0.228339
  12 C :   -0.024098
  13 C :   -0.130912
  14 C :   -0.124216
  15 C :   -0.129694
  16 C :   -0.124485
  17 C :   -0.028804
  18 C :   -0.043251
  19 C :   -0.009831
  20 C :   -0.111996
  21 C :   -0.106486
  22 C :   -0.067818
  23 C :    0.310460
  24 F :   -0.111897
  25 F :   -0.112107
  26 F :   -0.114749
  27 C :   -0.109945
  28 C :   -0.143741
  29 C :   -0.115443
  30 C :   -0.097117
  31 H :    0.147965
  32 H :    0.135697
  33 H :    0.252385
  34 H :    0.116764
  35 H :    0.146874
  36 H :    0.134384
  37 H :    0.136899
  38 H :    0.132659
  39 H :    0.133644
  40 H :    0.134670
  41 H :    0.135737
  42 H :    0.126585
  43 H :    0.142148
  44 H :    0.147149
  45 H :    0.143314
  46 H :    0.126767
  47 H :    0.155826
  48 H :    0.149424

  Mayer bond orders larger than 0.100000
B(  0-N ,  1-C ) :   3.0233 B(  1-C ,  2-C ) :   0.9846 B(  2-C ,  3-C ) :   1.4041
B(  2-C , 30-C ) :   1.3923 B(  3-C ,  4-C ) :   1.4394 B(  3-C , 31-H ) :   0.9218
B(  4-C ,  5-C ) :   1.4022 B(  4-C , 32-H ) :   0.9206 B(  5-C ,  6-N ) :   0.8810
B(  5-C , 29-C ) :   1.4182 B(  6-N ,  7-C ) :   1.0025 B(  6-N , 33-H ) :   0.8157
B(  7-C ,  8-O ) :   1.7939 B(  7-C ,  9-N ) :   1.0385 B(  9-N , 10-C ) :   0.9313
B(  9-N , 18-C ) :   0.9218 B( 10-C , 11-C ) :   0.9835 B( 10-C , 34-H ) :   0.9241
B( 10-C , 35-H ) :   0.9228 B( 11-C , 12-C ) :   0.9863 B( 11-C , 36-H ) :   0.9290
B( 11-C , 37-H ) :   0.9190 B( 12-C , 13-C ) :   1.4090 B( 12-C , 17-C ) :   1.4417
B( 13-C , 14-C ) :   1.4497 B( 13-C , 38-H ) :   0.9245 B( 14-C , 15-C ) :   1.4387
B( 14-C , 39-H ) :   0.9288 B( 15-C , 16-C ) :   1.4499 B( 15-C , 40-H ) :   0.9292
B( 16-C , 17-C ) :   1.3955 B( 16-C , 41-H ) :   0.9190 B( 17-C , 18-C ) :   0.9698
B( 18-C , 19-C ) :   0.9379 B( 18-C , 42-H ) :   0.9072 B( 19-C , 20-C ) :   1.4167
B( 19-C , 28-C ) :   1.4049 B( 20-C , 21-C ) :   1.4323 B( 20-C , 43-H ) :   0.9161
B( 21-C , 22-C ) :   1.4051 B( 21-C , 44-H ) :   0.9184 B( 22-C , 23-C ) :   0.9792
B( 22-C , 27-C ) :   1.4186 B( 23-C , 24-F ) :   0.9868 B( 23-C , 25-F ) :   0.9470
B( 23-C , 26-F ) :   0.9501 B( 27-C , 28-C ) :   1.4177 B( 27-C , 45-H ) :   0.9195
B( 28-C , 46-H ) :   0.9236 B( 29-C , 30-C ) :   1.4314 B( 29-C , 47-H ) :   0.9087
B( 30-C , 48-H ) :   0.9222

FINAL SINGLE POINT ENERGY     -1463.561424000702

DIPOLE MOMENT
-------------

Method             : SCF
Type of density    : Electron Density
Multiplicity       :   1
Irrep              :   0
Energy             : -1463.5614240007023454 Eh
Relativity type    :
Basis              : AO
                                X                 Y                 Z
Electronic contribution:      4.373543510      30.616255828      17.042890583
Nuclear contribution   :     -7.174712502     -32.836731371     -17.619730515
                        -----------------------------------------
Total Dipole Moment    :     -2.801168992      -2.220475543      -0.576839932
                        -----------------------------------------
Magnitude (a.u.)       :      3.620746286
Magnitude (Debye)      :      9.203205667

Rotational constants in cm-1:             0.005446             0.003193             0.002208
Rotational constants in MHz :           163.267223            95.712002            66.180358

                             ****ORCA TERMINATED NORMALLY****
TOTAL RUN TIME: 0 days 0 hours 5 minutes 16 seconds 694 msec
