                         Program Version 6.0.0  -   RELEASE  -
|  1> ! B3LYP 6-31G* SP
|  2>
|  3> * xyz 0 1
|  4> O 1.4554 0.1109 1.7011
|  5> C 1.4081 -0.1536 0.4685
|  6> N 2.3002 0.5141 -0.4395
|  7> C 3.5172 1.1638 -0.0341
|  8> C 3.9814 2.2729 -0.7592
|  9> C 5.1731 2.9079 -0.3962
| 10> C 5.9190 2.4321 0.6854
| 11> F 7.0757 3.0472 1.0347
| 12> C 5.4773 1.3156 1.4005
| 13> C 4.2854 0.6784 1.0410
| 14> N 0.4126 -1.0738 -0.0253
| 15> C 0.6155 -1.7565 -1.3092
| 16> C 0.2071 -3.2199 -1.1946
| 17> C -1.1733 -3.3559 -0.6197
| 18> C -1.9381 -4.4956 -0.9104
| 19> N -3.1549 -4.6716 -0.3325
| 20> C -3.6636 -3.7708 0.5467
| 21> C -2.9334 -2.6303 0.8814
| 22> C -1.6777 -2.4065 0.2925
| 23> C -0.8894 -1.1602 0.6655
| 24> C -1.6909 0.0984 0.3909
| 25> C -2.2721 0.3248 -0.8690
| 26> C -2.9800 1.5025 -1.1223
| 27> C -3.1303 2.4737 -0.1183
| 28> C -3.8499 3.7668 -0.4081
| 29> F -2.9473 4.6881 -0.9052
| 30> F -4.4251 4.2749 0.7439
| 31> F -4.8531 3.5693 -1.3412
| 32> C -2.5187 2.2636 1.1290
| 33> C -1.8114 1.0853 1.3826
| 34> H 1.9888 0.6310 -1.4302
| 35> H 3.4135 2.6504 -1.6003
| 36> H 5.5183 3.7679 -0.9557
| 37> H 6.0622 0.9376 2.2291
| 38> H 3.9796 -0.2038 1.5874
| 39> H 1.6848 -1.7276 -1.6115
| 40> H 0.0193 -1.2532 -2.0994
| 41> H 0.2545 -3.6846 -2.2038
| 42> H 0.9231 -3.7514 -0.5312
| 43> H -1.5630 -5.2490 -1.5913
| 44> H -4.6343 -3.9433 0.9920
| 45> H -3.3442 -1.9235 1.5918
| 46> H -0.6988 -1.2507 1.7584
| 47> H -2.1812 -0.4118 -1.6565
| 48> H -3.4075 1.6553 -2.1053
| 49> H -2.5832 3.0134 1.9075
| 50> H -1.3507 0.9477 2.3529
| 51> *
| 52>
| 53>                          ****END OF INPUT****

CARTESIAN COORDINATES (ANGSTROEM)
---------------------------------
  O      1.455400    0.110900    1.701100
  C      1.408100   -0.153600    0.468500
  N      2.300200    0.514100   -0.439500
  C      3.517200    1.163800   -0.034100
  C      3.981400    2.272900   -0.759200
  C      5.173100    2.907900   -0.396200
  C      5.919000    2.432100    0.685400
  F      7.075700    3.047200    1.034700
  C      5.477300    1.315600    1.400500
  C      4.285400    0.678400    1.041000
  N      0.412600   -1.073800   -0.025300
  C      0.615500   -1.756500   -1.309200
  C      0.207100   -3.219900   -1.194600
  C     -1.173300   -3.355900   -0.619700
  C     -1.938100   -4.495600   -0.910400
  N     -3.154900   -4.671600   -0.332500
  C     -3.663600   -3.770800    0.546700
  C     -2.933400   -2.630300    0.881400
  C     -1.677700   -2.406500    0.292500
  C     -0.889400   -1.160200    0.665500
  C     -1.690900    0.098400    0.390900
  C     -2.272100    0.324800   -0.869000
  C     -2.980000    1.502500   -1.122300
  C     -3.130300    2.473700   -0.118300
  C     -3.849900    3.766800   -0.408100
  F     -2.947300    4.688100   -0.905200
  F     -4.425100    4.274900    0.743900
  F     -4.853100    3.569300   -1.341200
  C     -2.518700    2.263600    1.129000
  C     -1.811400    1.085300    1.382600
  H      1.988800    0.631000   -1.430200
  H      3.413500    2.650400   -1.600300
  H      5.518300    3.767900   -0.955700
  H      6.062200    0.937600    2.229100
  H      3.979600   -0.203800    1.587400
  H      1.684800   -1.727600   -1.611500
  H      0.019300   -1.253200   -2.099400
  H      0.254500   -3.684600   -2.203800
  H      0.923100   -3.751400   -0.531200
  H     -1.563000   -5.249000   -1.591300
  H     -4.634300   -3.943300    0.992000
  H     -3.344200   -1.923500    1.591800
  H     -0.698800   -1.250700    1.758400
  H     -2.181200   -0.411800   -1.656500
  H     -3.407500    1.655300   -2.105300
  H     -2.583200    3.013400    1.907500
  H     -1.350700    0.947700    2.352900

 Total Charge           Charge          ....    0
 Multiplicity           Mult            ....    1
 Number of Electrons    NEL             ....  214
 Basis Dimension        Dim             ....  454

ORBITAL ENERGIES
----------------

  NO   OCC          E(Eh)            E(eV)
   0   2.0000     -24.719134      -672.6418
   1   2.0000     -24.718583      -672.6268
   2   2.0000     -24.715221      -672.5353
   3   2.0000     -24.694761      -671.9786
   4   2.0000     -19.112385      -520.0744
   5   2.0000     -14.377496      -391.2316
   6   2.0000     -14.368972      -390.9996
   7   2.0000     -14.327686      -389.8762
   8   2.0000     -10.434113      -283.9267
   9   2.0000     -10.326679      -281.0032
  10   2.0000     -10.264562      -279.3129
  11   2.0000     -10.247642      -278.8525
  12   2.0000     -10.238266      -278.5974
  13   2.0000     -10.237439      -278.5749
  14   2.0000     -10.223788      -278.2034
  15   2.0000     -10.222184      -278.1598
  16   2.0000     -10.219346      -278.0825
  17   2.0000     -10.214857      -277.9604
  18   2.0000     -10.210287      -277.8360
  19   2.0000     -10.207629      -277.7637
  20   2.0000     -10.205485      -277.7054
  21   2.0000     -10.205140      -277.6960
  22   2.0000     -10.203226      -277.6439
  23   2.0000     -10.201615      -277.6001
  24   2.0000     -10.198121      -277.5050
  25   2.0000     -10.197550      -277.4894
  26   2.0000     -10.195842      -277.4430
  27   2.0000     -10.192089      -277.3408
  28   2.0000     -10.190210      -277.2897
  29   2.0000     -10.189617      -277.2736
  30   2.0000      -1.278668       -34.7943
  31   2.0000      -1.207887       -32.8683
  32   2.0000      -1.204207       -32.7681
  33   2.0000      -1.202955       -32.7341
  34   2.0000      -1.029145       -28.0045
  35   2.0000      -0.945356       -25.7244
  36   2.0000      -0.928339       -25.2614
  37   2.0000      -0.923658       -25.1340
  38   2.0000      -0.874596       -23.7990
  39   2.0000      -0.849409       -23.1136
  40   2.0000      -0.825190       -22.4546
  41   2.0000      -0.815298       -22.1854
  42   2.0000      -0.781324       -21.2609
  43   2.0000      -0.762023       -20.7357
  44   2.0000      -0.755468       -20.5573
  45   2.0000      -0.753251       -20.4970
  46   2.0000      -0.742387       -20.2014
  47   2.0000      -0.711250       -19.3541
  48   2.0000      -0.679633       -18.4938
  49   2.0000      -0.662310       -18.0224
  50   2.0000      -0.634408       -17.2631
  51   2.0000      -0.632358       -17.2073
  52   2.0000      -0.625404       -17.0181
  53   2.0000      -0.622651       -16.9432
  54   2.0000      -0.607399       -16.5282
  55   2.0000      -0.592671       -16.1274
  56   2.0000      -0.569637       -15.5006
  57   2.0000      -0.566766       -15.4225
  58   2.0000      -0.563831       -15.3426
  59   2.0000      -0.560869       -15.2620
  60   2.0000      -0.548380       -14.9222
  61   2.0000      -0.538175       -14.6445
  62   2.0000      -0.523722       -14.2512
  63   2.0000      -0.514621       -14.0035
  64   2.0000      -0.499756       -13.5990
  65   2.0000      -0.493826       -13.4377
  66   2.0000      -0.484794       -13.1919
  67   2.0000      -0.478852       -13.0302
  68   2.0000      -0.477065       -12.9816
  69   2.0000      -0.463889       -12.6231
  70   2.0000      -0.458944       -12.4885
  71   2.0000      -0.451277       -12.2799
  72   2.0000      -0.450464       -12.2578
  73   2.0000      -0.447592       -12.1796
  74   2.0000      -0.445388       -12.1196
  75   2.0000      -0.438126       -11.9220
  76   2.0000      -0.437262       -11.8985
  77   2.0000      -0.431086       -11.7304
  78   2.0000      -0.429007       -11.6739
  79   2.0000      -0.425554       -11.5799
  80   2.0000      -0.420058       -11.4304
  81   2.0000      -0.414653       -11.2833
  82   2.0000      -0.410715       -11.1761
  83   2.0000      -0.408430       -11.1139
  84   2.0000      -0.403961       -10.9923
  85   2.0000      -0.401814       -10.9339
  86   2.0000      -0.397398       -10.8137
  87   2.0000      -0.396851       -10.7989
  88   2.0000      -0.385758       -10.4970
  89   2.0000      -0.377862       -10.2822
  90   2.0000      -0.376079       -10.2336
  91   2.0000      -0.371997       -10.1226
  92   2.0000      -0.362697        -9.8695
  93   2.0000      -0.361572        -9.8389
  94   2.0000      -0.358471        -9.7545
  95   2.0000      -0.351028        -9.5520
  96   2.0000      -0.345180        -9.3928
  97   2.0000      -0.297071        -8.0837
  98   2.0000      -0.285278        -7.7628
  99   2.0000      -0.267803        -7.2873
 100   2.0000      -0.265628        -7.2281
 101   2.0000      -0.262557        -7.1445
 102   2.0000      -0.259625        -7.0648
 103   2.0000      -0.253420        -6.8959
 104   2.0000      -0.245787        -6.6882
 105   2.0000      -0.239506        -6.5173
 106   2.0000      -0.215831        -5.8731
 107   0.0000      -0.036481        -0.9927
 108   0.0000      -0.031125        -0.8470
 109   0.0000      -0.023864        -0.6494
 110   0.0000      -0.011887        -0.3235
 111   0.0000      -0.008794        -0.2393

MULLIKEN ATOMIC CHARGES
-----------------------
   0 O :   -0.490445
   1 C :    0.687917
   2 N :   -0.717759
   3 C :    0.341630
   4 C :   -0.174148
   5 C :   -0.211407
   6 C :    0.408182
   7 F :   -0.320803
   8 C :   -0.219618
   9 C :   -0.126136
  10 N :   -0.451723
  11 C :   -0.160166
  12 C :   -0.338103
  13 C :    0.081772
  14 C :   -0.033304
  15 N :   -0.365666
  16 C :    0.015787
  17 C :   -0.178230
  18 C :    0.117914
  19 C :   -0.108487
  20 C :    0.179340
  21 C :   -0.181466
  22 C :   -0.160928
  23 C :   -0.015906
  24 C :    0.895764
  25 F :   -0.296905
  26 F :   -0.305169
  27 F :   -0.306004
  28 C :   -0.159607
  29 C :   -0.181680
  30 H :    0.331362
  31 H :    0.131577
  32 H :    0.145713
  33 H :    0.148271
  34 H :    0.158266
  35 H :    0.162577
  36 H :    0.138091
  37 H :    0.150164
  38 H :    0.172251
  39 H :    0.145505
  40 H :    0.151708
  41 H :    0.139973
  42 H :    0.190918
  43 H :    0.138804
  44 H :    0.151918
  45 H :    0.156457
  46 H :    0.161804
Sum of atomic charges:    0.0000000

LOEWDIN ATOMIC CHARGES
----------------------
   0 O :   -0.305393
   1 C :    0.166010
   2 N :   -0.222294
   3 C :    0.033213
   4 C :   -0.144207
   5 C :   -0.154382
   6 C :    0.106539
   7 F :   -0.107082
   8 C :   -0.151841
   9 C :   -0.120930
  10 N :   -0.115429
  11 C :   -0.158285
  12 C :   -0.227295
  13 C :   -0.045610
  14 C :   -0.073548
  15 N :   -0.133169
  16 C :   -0.071438
  17 C :   -0.137895
  18 C :   -0.002617
  19 C :   -0.037882
  20 C :   -0.012144
  21 C :   -0.128597
  22 C :   -0.113458
  23 C :   -0.070271
  24 C :    0.309950
  25 F :   -0.114201
  26 F :   -0.113360
  27 F :   -0.114171
  28 C :   -0.109080
  29 C :   -0.124453
  30 H :    0.257405
  31 H :    0.133827
  32 H :    0.144418
  33 H :    0.145526
  34 H :    0.149386
  35 H :    0.136127
  36 H :    0.109791
  37 H :    0.134024
  38 H :    0.142324
  39 H :    0.133884
  40 H :    0.136601
  41 H :    0.139792
  42 H :    0.157664
  43 H :    0.135830
  44 H :    0.143258
  45 H :    0.145651
  46 H :    0.147813

  Mayer bond orders larger than 0.100000
B(  0-O ,  1-C ) :   1.7828 B(  1-C ,  2-N ) :   1.0142 B(  1-C , 10-N ) :   1.0349
B(  2-N ,  3-C ) :   0.8670 B(  2-N , 30-H ) :   0.8227 B(  3-C ,  4-C ) :   1.4083
B(  3-C ,  9-C ) :   1.4185 B(  4-C ,  5-C ) :   1.4275 B(  4-C , 31-H ) :   0.9241
B(  5-C ,  6-C ) :   1.3978 B(  5-C , 32-H ) :   0.9203 B(  6-C ,  7-F ) :   0.9141
B(  6-C ,  8-C ) :   1.3837 B(  8-C ,  9-C ) :   1.4299 B(  8-C , 33-H ) :   0.9206
B(  9-C , 34-H ) :   0.9118 B( 10-N , 11-C ) :   0.9471 B( 10-N , 19-C ) :   0.9217
B( 11-C , 12-C ) :   0.9890 B( 11-C , 35-H ) :   0.9254 B( 11-C , 36-H ) :   0.9176
B( 12-C , 13-C ) :   0.9888 B( 12-C , 37-H ) :   0.9274 B( 12-C , 38-H ) :   0.9179
B( 13-C , 14-C ) :   1.3594 B( 13-C , 18-C ) :   1.4405 B( 14-C , 15-N ) :   1.4437
B( 14-C , 17-C ) :   0.1014 B( 14-C , 39-H ) :   0.9290 B( 15-N , 16-C ) :   1.4195
B( 16-C , 17-C ) :   1.4177 B( 16-C , 40-H ) :   0.9307 B( 17-C , 18-C ) :   1.4009
B( 17-C , 41-H ) :   0.9159 B( 18-C , 19-C ) :   0.9605 B( 19-C , 20-C ) :   0.9411
B( 19-C , 42-H ) :   0.8950 B( 20-C , 21-C ) :   1.4074 B( 20-C , 29-C ) :   1.4250
B( 21-C , 22-C ) :   1.4368 B( 21-C , 43-H ) :   0.9175 B( 22-C , 23-C ) :   1.4044
B( 22-C , 44-H ) :   0.9201 B( 23-C , 24-C ) :   0.9795 B( 23-C , 28-C ) :   1.4160
B( 24-C , 25-F ) :   0.9860 B( 24-C , 26-F ) :   0.9487 B( 24-C , 27-F ) :   0.9476
B( 28-C , 29-C ) :   1.4125 B( 28-C , 45-H ) :   0.9193 B( 29-C , 46-H ) :   0.9166

FINAL SINGLE POINT ENERGY     -1486.600885071246

DIPOLE MOMENT
-------------

Method             : SCF
Type of density    : Electron Density
Multiplicity       :   1
Irrep              :   0
Energy             : -1486.6008850712464664 Eh
Relativity type    :
Basis              : AO
                                X                 Y                 Z
Electronic contribution:    -10.539629065      29.000314127       2.106145100
Nuclear contribution   :     10.864106483     -29.757882046      -3.220753246
                        -----------------------------------------
Total Dipole Moment    :      0.324477418      -0.757567919      -1.114608146
                        -----------------------------------------
Magnitude (a.u.)       :      1.386198422
Magnitude (Debye)      :      3.523436378

Rotational constants in cm-1:             0.005137             0.003082             0.002088
Rotational constants in MHz :           154.017081            92.397016            62.606881

                             ****ORCA TERMINATED NORMALLY****
TOTAL RUN TIME: 0 days 0 hours 8 minutes 5 seconds 859 msec
