                         Program Version 6.0.0  -   RELEASE  -
|  1> ! B3LYP 6-31G* SP
|  2>
|  3> * xyz -1 1
|  4> C -2.9219 1.1276 2.2868
|  5> C -2.5685 1.5740 0.8966
|  6> N -1.7062 0.8079 0.1843
|  7> C -1.3126 1.1063 -1.0782
|  8> N -0.3653 0.2425 -1.7215
|  9> C 1.0092 0.6988 -1.9556
| 10> C 1.9464 0.1043 -0.9385
| 11> C 1.8009 0.4165 0.4217
| 12> C 2.6103 -0.1999 1.3798
| 13> C 3.5932 -1.1291 0.9867
| 14> O 4.4173 -1.7974 1.9062
| 15> C 4.3561 -1.6506 3.3235
| 16> F 4.6337 -0.3429 3.6798
| 17> F 3.1028 -2.0098 3.7864
| 18> F 5.2984 -2.4796 3.9009
| 19> C 3.7589 -1.4106 -0.3743
| 20> C 2.9436 -0.8011 -1.3315
| 21> S -0.8023 -1.4116 -2.0344
| 22> O -2.2883 -1.5845 -1.8856
| 23> O -0.4267 -1.7553 -3.4489
| 24> C 0.0152 -2.4870 -0.9016
| 25> C -0.2358 -2.3753 0.4707
| 26> C 0.4587 -3.1737 1.3837
| 27> C 1.4120 -4.1033 0.9350
| 28> C 2.1613 -4.9324 1.9042
| 29> O 3.0372 -5.7466 1.5083
| 30> O 1.9103 -4.8235 3.2671
| 31> C 1.6460 -4.2264 -0.4462
| 32> C 0.9511 -3.4252 -1.3569
| 33> C -1.8311 2.2480 -1.7281
| 34> C -1.4717 2.5373 -3.1700
| 35> C -2.7022 3.1032 -1.0028
| 36> C -3.2043 4.2994 -1.5646
| 37> C -4.0710 5.1193 -0.8409
| 38> C -4.4512 4.7703 0.4517
| 39> C -3.9629 3.6016 1.0349
| 40> C -3.0834 2.7575 0.3238
| 41> H -2.4119 0.1709 2.5311
| 42> H -4.0174 0.9662 2.3660
| 43> H -2.5982 1.8912 3.0247
| 44> H 1.0687 1.8070 -1.8880
| 45> H 1.3133 0.4230 -2.9884
| 46> H 1.0465 1.1225 0.7435
| 47> H 2.4577 0.0500 2.4200
| 48> H 4.5139 -2.1199 -0.6905
| 49> H 3.0736 -1.0573 -2.3756
| 50> H -0.9588 -1.6608 0.8383
| 51> H 0.2552 -3.0557 2.4406
| 52> H 2.3753 -4.9326 -0.8235
| 53> H 1.1631 -3.5235 -2.4133
| 54> H -0.8026 3.4219 -3.2180
| 55> H -0.9657 1.6841 -3.6649
| 56> H -2.3915 2.7312 -3.7606
| 57> H -2.9281 4.6207 -2.5594
| 58> H -4.4479 6.0319 -1.2853
| 59> H -5.1246 5.4105 1.0072
| 60> H -4.2780 3.3701 2.0435
| 61> *
| 62>
| 63>                          ****END OF INPUT****

CARTESIAN COORDINATES (ANGSTROEM)
---------------------------------
  C     -2.921900    1.127600    2.286800
  C     -2.568500    1.574000    0.896600
  N     -1.706200    0.807900    0.184300
  C     -1.312600    1.106300   -1.078200
  N     -0.365300    0.242500   -1.721500
  C      1.009200    0.698800   -1.955600
  C      1.946400    0.104300   -0.938500
  C      1.800900    0.416500    0.421700
  C      2.610300   -0.199900    1.379800
  C      3.593200   -1.129100    0.986700
  O      4.417300   -1.797400    1.906200
  C      4.356100   -1.650600    3.323500
  F      4.633700   -0.342900    3.679800
  F      3.102800   -2.009800    3.786400
  F      5.298400   -2.479600    3.900900
  C      3.758900   -1.410600   -0.374300
  C      2.943600   -0.801100   -1.331500
  S     -0.802300   -1.411600   -2.034400
  O     -2.288300   -1.584500   -1.885600
  O     -0.426700   -1.755300   -3.448900
  C      0.015200   -2.487000   -0.901600
  C     -0.235800   -2.375300    0.470700
  C      0.458700   -3.173700    1.383700
  C      1.412000   -4.103300    0.935000
  C      2.161300   -4.932400    1.904200
  O      3.037200   -5.746600    1.508300
  O      1.910300   -4.823500    3.267100
  C      1.646000   -4.226400   -0.446200
  C      0.951100   -3.425200   -1.356900
  C     -1.831100    2.248000   -1.728100
  C     -1.471700    2.537300   -3.170000
  C     -2.702200    3.103200   -1.002800
  C     -3.204300    4.299400   -1.564600
  C     -4.071000    5.119300   -0.840900
  C     -4.451200    4.770300    0.451700
  C     -3.962900    3.601600    1.034900
  C     -3.083400    2.757500    0.323800
  H     -2.411900    0.170900    2.531100
  H     -4.017400    0.966200    2.366000
  H     -2.598200    1.891200    3.024700
  H      1.068700    1.807000   -1.888000
  H      1.313300    0.423000   -2.988400
  H      1.046500    1.122500    0.743500
  H      2.457700    0.050000    2.420000
  H      4.513900   -2.119900   -0.690500
  H      3.073600   -1.057300   -2.375600
  H     -0.958800   -1.660800    0.838300
  H      0.255200   -3.055700    2.440600
  H      2.375300   -4.932600   -0.823500
  H      1.163100   -3.523500   -2.413300
  H     -0.802600    3.421900   -3.218000
  H     -0.965700    1.684100   -3.664900
  H     -2.391500    2.731200   -3.760600
  H     -2.928100    4.620700   -2.559400
  H     -4.447900    6.031900   -1.285300
  H     -5.124600    5.410500    1.007200
  H     -4.278000    3.370100    2.043500

 Total Charge           Charge          ....   -1
 Multiplicity           Mult            ....    1
 Number of Electrons    NEL             ....  274
 Basis Dimension        Dim             ....  562

ORBITAL ENERGIES
----------------

  NO   OCC          E(Eh)            E(eV)
   0   2.0000     -88.997493     -2421.7449
   1   2.0000     -24.645479      -670.6376
   2   2.0000     -24.638490      -670.4474
   3   2.0000     -24.627244      -670.1414
   4   2.0000     -19.112938      -520.0895
   5   2.0000     -19.029318      -517.8141
   6   2.0000     -19.025314      -517.7051
   7   2.0000     -18.899919      -514.2930
   8   2.0000     -18.878444      -513.7086
   9   2.0000     -14.283618      -388.6770
  10   2.0000     -14.257825      -387.9751
  11   2.0000     -10.401604      -283.0420
  12   2.0000     -10.189646      -277.2744
  13   2.0000     -10.174755      -276.8692
  14   2.0000     -10.167428      -276.6698
  15   2.0000     -10.154528      -276.3187
  16   2.0000     -10.142144      -275.9818
  17   2.0000     -10.137641      -275.8592
  18   2.0000     -10.136863      -275.8381
  19   2.0000     -10.136830      -275.8372
  20   2.0000     -10.135983      -275.8141
  21   2.0000     -10.134920      -275.7852
  22   2.0000     -10.134635      -275.7774
  23   2.0000     -10.118667      -275.3429
  24   2.0000     -10.118660      -275.3427
  25   2.0000     -10.107778      -275.0466
  26   2.0000     -10.107721      -275.0451
  27   2.0000     -10.106618      -275.0151
  28   2.0000     -10.104809      -274.9658
  29   2.0000     -10.104291      -274.9517
  30   2.0000     -10.103546      -274.9315
  31   2.0000     -10.086039      -274.4551
  32   2.0000     -10.084140      -274.4034
  33   2.0000     -10.080091      -274.2932
  34   2.0000     -10.064170      -273.8600
  35   2.0000     -10.063622      -273.8451
  36   2.0000     -10.061948      -273.7995
  37   2.0000      -8.033008      -218.5893
  38   2.0000      -5.998576      -163.2296
  39   2.0000      -5.996203      -163.1650
  40   2.0000      -5.994939      -163.1306
  41   2.0000      -1.202129       -32.7116
  42   2.0000      -1.127045       -30.6684
  43   2.0000      -1.115595       -30.3569
  44   2.0000      -0.985161       -26.8076
  45   2.0000      -0.982548       -26.7365
  46   2.0000      -0.887349       -24.1460
  47   2.0000      -0.863959       -23.5095
  48   2.0000      -0.839057       -22.8319
  49   2.0000      -0.809564       -22.0294
  50   2.0000      -0.800548       -21.7840
  51   2.0000      -0.773263       -21.0415
  52   2.0000      -0.747488       -20.3402
  53   2.0000      -0.743412       -20.2293
  54   2.0000      -0.717981       -19.5373
  55   2.0000      -0.694444       -18.8968
  56   2.0000      -0.690385       -18.7863
  57   2.0000      -0.679630       -18.4937
  58   2.0000      -0.667873       -18.1737
  59   2.0000      -0.666243       -18.1294
  60   2.0000      -0.657885       -17.9020
  61   2.0000      -0.632802       -17.2194
  62   2.0000      -0.632357       -17.2073
  63   2.0000      -0.605193       -16.4681
  64   2.0000      -0.591157       -16.0862
  65   2.0000      -0.581954       -15.8358
  66   2.0000      -0.575024       -15.6472
  67   2.0000      -0.543980       -14.8025
  68   2.0000      -0.539419       -14.6783
  69   2.0000      -0.523992       -14.2585
  70   2.0000      -0.515229       -14.0201
  71   2.0000      -0.496502       -13.5105
  72   2.0000      -0.493182       -13.4202
  73   2.0000      -0.490315       -13.3421
  74   2.0000      -0.487606       -13.2684
  75   2.0000      -0.480604       -13.0779
  76   2.0000      -0.471102       -12.8193
  77   2.0000      -0.451494       -12.2858
  78   2.0000      -0.434992       -11.8367
  79   2.0000      -0.426868       -11.6157
  80   2.0000      -0.414884       -11.2896
  81   2.0000      -0.412363       -11.2210
  82   2.0000      -0.409300       -11.1376
  83   2.0000      -0.390712       -10.6318
  84   2.0000      -0.387069       -10.5327
  85   2.0000      -0.382404       -10.4057
  86   2.0000      -0.377142       -10.2625
  87   2.0000      -0.376143       -10.2354
  88   2.0000      -0.370235       -10.0746
  89   2.0000      -0.367075        -9.9886
  90   2.0000      -0.362355        -9.8602
  91   2.0000      -0.360984        -9.8229
  92   2.0000      -0.353979        -9.6323
  93   2.0000      -0.348336        -9.4787
  94   2.0000      -0.345615        -9.4047
  95   2.0000      -0.343277        -9.3410
  96   2.0000      -0.341573        -9.2947
  97   2.0000      -0.340017        -9.2523
  98   2.0000      -0.333533        -9.0759
  99   2.0000      -0.326993        -8.8979
 100   2.0000      -0.323997        -8.8164
 101   2.0000      -0.323296        -8.7973
 102   2.0000      -0.320959        -8.7337
 103   2.0000      -0.320736        -8.7277
 104   2.0000      -0.315442        -8.5836
 105   2.0000      -0.311458        -8.4752
 106   2.0000      -0.309957        -8.4343
 107   2.0000      -0.306748        -8.3470
 108   2.0000      -0.304614        -8.2890
 109   2.0000      -0.293405        -7.9839
 110   2.0000      -0.289100        -7.8668
 111   2.0000      -0.283959        -7.7269
 112   2.0000      -0.282789        -7.6951
 113   2.0000      -0.281123        -7.6498
 114   2.0000      -0.270323        -7.3559
 115   2.0000      -0.255318        -6.9476
 116   2.0000      -0.244016        -6.6400
 117   2.0000      -0.235215        -6.4005
 118   2.0000      -0.231499        -6.2994
 119   2.0000      -0.223020        -6.0687
 120   2.0000      -0.221755        -6.0343
 121   2.0000      -0.211574        -5.7572
 122   2.0000      -0.204065        -5.5529
 123   2.0000      -0.200174        -5.4470
 124   2.0000      -0.187750        -5.1089
 125   2.0000      -0.185763        -5.0549
 126   2.0000      -0.180312        -4.9065
 127   2.0000      -0.178409        -4.8548
 128   2.0000      -0.174350        -4.7443
 129   2.0000      -0.170516        -4.6400
 130   2.0000      -0.154350        -4.2001
 131   2.0000      -0.141619        -3.8536
 132   2.0000      -0.133638        -3.6365
 133   2.0000      -0.119082        -3.2404
 134   2.0000      -0.054108        -1.4724
 135   2.0000      -0.032793        -0.8923
 136   2.0000      -0.015855        -0.4314
 137   0.0000       0.003309         0.0900
 138   0.0000       0.037722         1.0265
 139   0.0000       0.063911         1.7391
 140   0.0000       0.073547         2.0013
 141   0.0000       0.084461         2.2983

MULLIKEN ATOMIC CHARGES
-----------------------
   0 C :   -0.522092
   1 C :    0.210513
   2 N :   -0.413474
   3 C :    0.343862
   4 N :   -0.613302
   5 C :   -0.249417
   6 C :    0.149912
   7 C :   -0.154448
   8 C :   -0.181911
   9 C :    0.369412
  10 O :   -0.542066
  11 C :    1.090556
  12 F :   -0.308298
  13 F :   -0.268827
  14 F :   -0.280604
  15 C :   -0.158181
  16 C :   -0.165080
  17 S :    1.187693
  18 O :   -0.553429
  19 O :   -0.564929
  20 C :   -0.143962
  21 C :   -0.150952
  22 C :   -0.153576
  23 C :    0.103548
  24 C :    0.409072
  25 O :   -0.553908
  26 O :   -0.662121
  27 C :   -0.158811
  28 C :   -0.151919
  29 C :    0.091174
  30 C :   -0.545291
  31 C :    0.122872
  32 C :   -0.200602
  33 C :   -0.121874
  34 C :   -0.126282
  35 C :   -0.210047
  36 C :    0.103617
  37 H :    0.194865
  38 H :    0.159853
  39 H :    0.153517
  40 H :    0.158525
  41 H :    0.168867
  42 H :    0.129306
  43 H :    0.143665
  44 H :    0.147797
  45 H :    0.131225
  46 H :    0.159406
  47 H :    0.144696
  48 H :    0.139405
  49 H :    0.141352
  50 H :    0.144174
  51 H :    0.199009
  52 H :    0.156314
  53 H :    0.129398
  54 H :    0.120645
  55 H :    0.119308
  56 H :    0.131845
Sum of atomic charges:   -1.0000000

LOEWDIN ATOMIC CHARGES
----------------------
   0 C :   -0.359610
   1 C :    0.039075
   2 N :   -0.124053
   3 C :    0.047791
   4 N :   -0.286491
   5 C :   -0.147541
   6 C :   -0.052722
   7 C :   -0.117789
   8 C :   -0.153475
   9 C :    0.098403
  10 O :   -0.152301
  11 C :    0.360897
  12 F :   -0.119551
  13 F :   -0.085855
  14 F :   -0.087709
  15 C :   -0.132858
  16 C :   -0.122288
  17 S :    1.266378
  18 O :   -0.584055
  19 O :   -0.594905
  20 C :   -0.210394
  21 C :   -0.121025
  22 C :   -0.110025
  23 C :   -0.007087
  24 C :    0.070194
  25 O :   -0.379199
  26 O :   -0.509361
  27 C :   -0.119645
  28 C :   -0.121833
  29 C :   -0.029743
  30 C :   -0.360976
  31 C :   -0.003499
  32 C :   -0.127400
  33 C :   -0.126864
  34 C :   -0.137685
  35 C :   -0.118001
  36 C :   -0.033544
  37 H :    0.153407
  38 H :    0.137200
  39 H :    0.133844
  40 H :    0.135910
  41 H :    0.133827
  42 H :    0.133843
  43 H :    0.138740
  44 H :    0.145369
  45 H :    0.133660
  46 H :    0.142029
  47 H :    0.146659
  48 H :    0.142997
  49 H :    0.138281
  50 H :    0.127213
  51 H :    0.151858
  52 H :    0.133526
  53 H :    0.134707
  54 H :    0.128426
  55 H :    0.127752
  56 H :    0.135499

  Mayer bond orders larger than 0.100000
B(  0-C ,  1-C ) :   1.0039 B(  0-C , 37-H ) :   0.9352 B(  0-C , 38-H ) :   0.9315
B(  0-C , 39-H ) :   0.9323 B(  1-C ,  2-N ) :   1.4811 B(  1-C , 36-C ) :   1.2248
B(  2-N ,  3-C ) :   1.2533 B(  3-C ,  4-N ) :   0.9025 B(  3-C , 29-C ) :   1.4397
B(  4-N ,  5-C ) :   0.9262 B(  4-N , 17-S ) :   0.7634 B(  5-C ,  6-C ) :   0.9591
B(  5-C , 40-H ) :   0.9228 B(  5-C , 41-H ) :   0.9213 B(  6-C ,  7-C ) :   1.4185
B(  6-C , 16-C ) :   1.4414 B(  7-C ,  8-C ) :   1.4441 B(  7-C , 42-H ) :   0.9176
B(  8-C ,  9-C ) :   1.3817 B(  8-C , 43-H ) :   0.9108 B(  9-C , 10-O ) :   0.8349
B(  9-C , 15-C ) :   1.4273 B( 10-O , 11-C ) :   0.9802 B( 11-C , 12-F ) :   0.9467
B( 11-C , 13-F ) :   0.9903 B( 11-C , 14-F ) :   1.0060 B( 15-C , 16-C ) :   1.4269
B( 15-C , 44-H ) :   0.9172 B( 16-C , 45-H ) :   0.9218 B( 17-S , 18-O ) :   1.6572
B( 17-S , 19-O ) :   1.6229 B( 17-S , 20-C ) :   0.8439 B( 20-C , 21-C ) :   1.3665
B( 20-C , 28-C ) :   1.3759 B( 21-C , 22-C ) :   1.4093 B( 21-C , 46-H ) :   0.9021
B( 22-C , 23-C ) :   1.3985 B( 22-C , 47-H ) :   0.9033 B( 23-C , 24-C ) :   0.9279
B( 23-C , 27-C ) :   1.3922 B( 24-C , 25-O ) :   1.7087 B( 24-C , 26-O ) :   1.5431
B( 25-O , 26-O ) :   0.1454 B( 27-C , 28-C ) :   1.4036 B( 27-C , 48-H ) :   0.9085
B( 28-C , 49-H ) :   0.9207 B( 29-C , 30-C ) :   0.9971 B( 29-C , 31-C ) :   1.2623
B( 30-C , 50-H ) :   0.9301 B( 30-C , 51-H ) :   0.9255 B( 30-C , 52-H ) :   0.9315
B( 31-C , 32-C ) :   1.2896 B( 31-C , 36-C ) :   1.2794 B( 32-C , 33-C ) :   1.5096
B( 32-C , 35-C ) :   0.1064 B( 32-C , 53-H ) :   0.9173 B( 33-C , 34-C ) :   1.3576
B( 33-C , 54-H ) :   0.9315 B( 34-C , 35-C ) :   1.5075 B( 34-C , 55-H ) :   0.9316
B( 35-C , 36-C ) :   1.2991 B( 35-C , 56-H ) :   0.9177

FINAL SINGLE POINT ENERGY     -2185.045442005956

DIPOLE MOMENT
-------------

Method             : SCF
Type of density    : Electron Density
Multiplicity       :   1
Irrep              :   0
Energy             : -2185.0454420059563745 Eh
Relativity type    :
Basis              : AO
                                X                 Y                 Z
Electronic contribution:     30.149135991     -21.515584655      20.264888355
Nuclear contribution   :    -32.281822560      30.067636326     -22.194736906
                        -----------------------------------------
Total Dipole Moment    :     -2.132686569       8.552051671      -1.929848551
                        -----------------------------------------
Magnitude (a.u.)       :      9.022763170
Magnitude (Debye)      :     22.934041380

Rotational constants in cm-1:             0.005730             0.002047             0.001845
Rotational constants in MHz :           171.778939            61.381092            55.312924

                             ****ORCA TERMINATED NORMALLY****
TOTAL RUN TIME: 0 days 0 hours 10 minutes 46 seconds 442 msec
