                         Program Version 6.0.0  -   RELEASE  -
|  1> ! B3LYP 6-31G* SP
|  2>
|  3> * xyz 0 1
|  4> C 0.3004 -1.9455 1.5904
|  5> C 0.7247 -1.8161 0.1433
|  6> C 1.0772 -0.5566 -0.3977
|  7> N 1.0578 0.6297 0.4064
|  8> C 0.0629 1.6716 0.1462
|  9> C -1.3229 1.1194 0.3378
| 10> C -1.8664 1.0135 1.6228
| 11> C -3.1096 0.4063 1.8166
| 12> C -3.8529 -0.0929 0.7236
| 13> C -5.1929 -0.8152 0.9577
| 14> O -5.7295 -0.4351 2.2070
| 15> C -4.9329 -2.3409 1.0210
| 16> F -6.1198 -3.0236 1.2247
| 17> F -4.0799 -2.6311 2.0726
| 18> F -4.3528 -2.7999 -0.1490
| 19> C -6.2539 -0.4756 -0.1384
| 20> F -7.5172 -0.8364 0.3007
| 21> F -6.2602 0.8871 -0.3917
| 22> F -6.0120 -1.1475 -1.3250
| 23> C -3.2761 -0.0089 -0.5612
| 24> C -2.0314 0.5953 -0.7512
| 25> S 2.3852 0.9566 1.4753
| 26> O 3.2759 -0.2505 1.5811
| 27> O 1.8545 1.2786 2.8445
| 28> C 3.3159 2.3062 0.8358
| 29> C 3.2555 3.5667 1.4429
| 30> C 3.9745 4.6395 0.9088
| 31> C 4.7648 4.4673 -0.2413
| 32> C 5.5260 5.6001 -0.8118
| 33> O 5.4954 6.7326 -0.2607
| 34> O 6.2824 5.4255 -1.9671
| 35> C 4.8189 3.1996 -0.8455
| 36> C 4.0954 2.1282 -0.3131
| 37> N 1.3995 -0.4444 -1.7132
| 38> C 1.4191 -1.5086 -2.5506
| 39> C 1.1028 -2.7835 -2.0740
| 40> C 1.1254 -3.8886 -2.9393
| 41> C 0.8106 -5.1610 -2.4604
| 42> C 0.4697 -5.3405 -1.1199
| 43> C 0.4438 -4.2489 -0.2470
| 44> C 0.7556 -2.9502 -0.7095
| 45> H 1.0428 -2.5630 2.1447
| 46> H 0.2174 -0.9668 2.1055
| 47> H -0.7037 -2.4248 1.6476
| 48> H 0.2156 2.5333 0.8320
| 49> H 0.1906 2.0557 -0.8891
| 50> H -1.3113 1.3733 2.4815
| 51> H -3.4776 0.3131 2.8296
| 52> H -5.9109 0.5424 2.1792
| 53> H -3.7694 -0.4251 -1.4261
| 54> H -1.6055 0.6276 -1.7463
| 55> H 2.6484 3.7227 2.3254
| 56> H 3.9080 5.6035 1.3939
| 57> H 6.8082 6.1938 -2.3666
| 58> H 5.4178 3.0331 -1.7309
| 59> H 4.1401 1.1599 -0.7990
| 60> H 1.6836 -1.3555 -3.5897
| 61> H 1.3865 -3.7684 -3.9845
| 62> H 0.8304 -6.0103 -3.1302
| 63> H 0.2246 -6.3305 -0.7538
| 64> H 0.1811 -4.4362 0.7852
| 65> *
| 66>
| 67>                          ****END OF INPUT****

CARTESIAN COORDINATES (ANGSTROEM)
---------------------------------
  C      0.300400   -1.945500    1.590400
  C      0.724700   -1.816100    0.143300
  C      1.077200   -0.556600   -0.397700
  N      1.057800    0.629700    0.406400
  C      0.062900    1.671600    0.146200
  C     -1.322900    1.119400    0.337800
  C     -1.866400    1.013500    1.622800
  C     -3.109600    0.406300    1.816600
  C     -3.852900   -0.092900    0.723600
  C     -5.192900   -0.815200    0.957700
  O     -5.729500   -0.435100    2.207000
  C     -4.932900   -2.340900    1.021000
  F     -6.119800   -3.023600    1.224700
  F     -4.079900   -2.631100    2.072600
  F     -4.352800   -2.799900   -0.149000
  C     -6.253900   -0.475600   -0.138400
  F     -7.517200   -0.836400    0.300700
  F     -6.260200    0.887100   -0.391700
  F     -6.012000   -1.147500   -1.325000
  C     -3.276100   -0.008900   -0.561200
  C     -2.031400    0.595300   -0.751200
  S      2.385200    0.956600    1.475300
  O      3.275900   -0.250500    1.581100
  O      1.854500    1.278600    2.844500
  C      3.315900    2.306200    0.835800
  C      3.255500    3.566700    1.442900
  C      3.974500    4.639500    0.908800
  C      4.764800    4.467300   -0.241300
  C      5.526000    5.600100   -0.811800
  O      5.495400    6.732600   -0.260700
  O      6.282400    5.425500   -1.967100
  C      4.818900    3.199600   -0.845500
  C      4.095400    2.128200   -0.313100
  N      1.399500   -0.444400   -1.713200
  C      1.419100   -1.508600   -2.550600
  C      1.102800   -2.783500   -2.074000
  C      1.125400   -3.888600   -2.939300
  C      0.810600   -5.161000   -2.460400
  C      0.469700   -5.340500   -1.119900
  C      0.443800   -4.248900   -0.247000
  C      0.755600   -2.950200   -0.709500
  H      1.042800   -2.563000    2.144700
  H      0.217400   -0.966800    2.105500
  H     -0.703700   -2.424800    1.647600
  H      0.215600    2.533300    0.832000
  H      0.190600    2.055700   -0.889100
  H     -1.311300    1.373300    2.481500
  H     -3.477600    0.313100    2.829600
  H     -5.910900    0.542400    2.179200
  H     -3.769400   -0.425100   -1.426100
  H     -1.605500    0.627600   -1.746300
  H      2.648400    3.722700    2.325400
  H      3.908000    5.603500    1.393900
  H      6.808200    6.193800   -2.366600
  H      5.417800    3.033100   -1.730900
  H      4.140100    1.159900   -0.799000
  H      1.683600   -1.355500   -3.589700
  H      1.386500   -3.768400   -3.984500
  H      0.830400   -6.010300   -3.130200
  H      0.224600   -6.330500   -0.753800
  H      0.181100   -4.436200    0.785200

 Total Charge           Charge          ....    0
 Multiplicity           Mult            ....    1
 Number of Electrons    NEL             ....  306
 Basis Dimension        Dim             ....  618

ORBITAL ENERGIES
----------------

  NO   OCC          E(Eh)            E(eV)
   0   2.0000     -89.098826     -2424.5023
   1   2.0000     -24.741064      -673.2386
   2   2.0000     -24.738944      -673.1809
   3   2.0000     -24.732612      -673.0086
   4   2.0000     -24.730062      -672.9392
   5   2.0000     -24.728731      -672.9030
   6   2.0000     -24.726466      -672.8413
   7   2.0000     -19.196434      -522.3615
   8   2.0000     -19.185015      -522.0508
   9   2.0000     -19.138000      -520.7714
  10   2.0000     -19.129427      -520.5382
  11   2.0000     -19.128129      -520.5028
  12   2.0000     -14.372886      -391.1061
  13   2.0000     -14.333902      -390.0453
  14   2.0000     -10.453625      -284.4576
  15   2.0000     -10.450166      -284.3635
  16   2.0000     -10.335432      -281.2414
  17   2.0000     -10.305361      -280.4231
  18   2.0000     -10.257940      -279.1327
  19   2.0000     -10.241940      -278.6974
  20   2.0000     -10.236796      -278.5574
  21   2.0000     -10.231622      -278.4166
  22   2.0000     -10.226025      -278.2643
  23   2.0000     -10.219959      -278.0992
  24   2.0000     -10.219621      -278.0900
  25   2.0000     -10.217143      -278.0226
  26   2.0000     -10.216890      -278.0157
  27   2.0000     -10.216792      -278.0130
  28   2.0000     -10.208929      -277.7991
  29   2.0000     -10.205290      -277.7001
  30   2.0000     -10.205157      -277.6965
  31   2.0000     -10.200795      -277.5777
  32   2.0000     -10.200521      -277.5703
  33   2.0000     -10.199480      -277.5420
  34   2.0000     -10.197840      -277.4973
  35   2.0000     -10.197114      -277.4776
  36   2.0000     -10.196207      -277.4529
  37   2.0000     -10.195943      -277.4457
  38   2.0000     -10.195146      -277.4240
  39   2.0000     -10.194950      -277.4187
  40   2.0000     -10.172523      -276.8084
  41   2.0000      -8.134664      -221.3555
  42   2.0000      -6.099655      -165.9800
  43   2.0000      -6.097707      -165.9271
  44   2.0000      -6.097307      -165.9162
  45   2.0000      -1.298250       -35.3272
  46   2.0000      -1.288584       -35.0642
  47   2.0000      -1.225015       -33.3343
  48   2.0000      -1.218296       -33.1515
  49   2.0000      -1.214097       -33.0373
  50   2.0000      -1.211288       -32.9608
  51   2.0000      -1.085865       -29.5479
  52   2.0000      -1.081440       -29.4275
  53   2.0000      -1.068115       -29.0649
  54   2.0000      -0.995562       -27.0906
  55   2.0000      -0.966011       -26.2865
  56   2.0000      -0.963278       -26.2121
  57   2.0000      -0.916200       -24.9311
  58   2.0000      -0.890203       -24.2237
  59   2.0000      -0.871430       -23.7128
  60   2.0000      -0.863528       -23.4978
  61   2.0000      -0.820685       -22.3320
  62   2.0000      -0.809320       -22.0227
  63   2.0000      -0.803302       -21.8590
  64   2.0000      -0.778076       -21.1725
  65   2.0000      -0.776275       -21.1235
  66   2.0000      -0.769100       -20.9283
  67   2.0000      -0.758291       -20.6341
  68   2.0000      -0.741809       -20.1856
  69   2.0000      -0.716748       -19.5037
  70   2.0000      -0.714950       -19.4548
  71   2.0000      -0.702183       -19.1074
  72   2.0000      -0.687014       -18.6946
  73   2.0000      -0.655726       -17.8432
  74   2.0000      -0.653620       -17.7859
  75   2.0000      -0.643601       -17.5133
  76   2.0000      -0.636707       -17.3257
  77   2.0000      -0.625187       -17.0122
  78   2.0000      -0.620135       -16.8747
  79   2.0000      -0.609433       -16.5835
  80   2.0000      -0.598861       -16.2958
  81   2.0000      -0.595038       -16.1918
  82   2.0000      -0.593632       -16.1536
  83   2.0000      -0.591528       -16.0963
  84   2.0000      -0.583325       -15.8731
  85   2.0000      -0.577389       -15.7116
  86   2.0000      -0.565674       -15.3928
  87   2.0000      -0.561206       -15.2712
  88   2.0000      -0.543153       -14.7799
  89   2.0000      -0.540542       -14.7089
  90   2.0000      -0.537603       -14.6289
  91   2.0000      -0.529677       -14.4132
  92   2.0000      -0.515439       -14.0258
  93   2.0000      -0.501505       -13.6466
  94   2.0000      -0.494306       -13.4508
  95   2.0000      -0.490416       -13.3449
  96   2.0000      -0.481338       -13.0979
  97   2.0000      -0.476524       -12.9669
  98   2.0000      -0.471898       -12.8410
  99   2.0000      -0.471442       -12.8286
 100   2.0000      -0.469886       -12.7862
 101   2.0000      -0.463086       -12.6012
 102   2.0000      -0.461330       -12.5534
 103   2.0000      -0.457589       -12.4516
 104   2.0000      -0.455036       -12.3822
 105   2.0000      -0.453129       -12.3303
 106   2.0000      -0.448632       -12.2079
 107   2.0000      -0.447924       -12.1886
 108   2.0000      -0.446350       -12.1458
 109   2.0000      -0.442579       -12.0432
 110   2.0000      -0.439738       -11.9659
 111   2.0000      -0.438046       -11.9198
 112   2.0000      -0.431847       -11.7512
 113   2.0000      -0.430104       -11.7037
 114   2.0000      -0.427072       -11.6212
 115   2.0000      -0.423226       -11.5166
 116   2.0000      -0.422617       -11.5000
 117   2.0000      -0.420710       -11.4481
 118   2.0000      -0.419585       -11.4175
 119   2.0000      -0.415388       -11.3033
 120   2.0000      -0.413870       -11.2620
 121   2.0000      -0.411349       -11.1934
 122   2.0000      -0.405070       -11.0225
 123   2.0000      -0.402908       -10.9637
 124   2.0000      -0.400601       -10.9009
 125   2.0000      -0.392970       -10.6932
 126   2.0000      -0.391186       -10.6447
 127   2.0000      -0.385335       -10.4855
 128   2.0000      -0.381871       -10.3912
 129   2.0000      -0.376683       -10.2501
 130   2.0000      -0.368810       -10.0358
 131   2.0000      -0.367926       -10.0118
 132   2.0000      -0.365171        -9.9368
 133   2.0000      -0.360431        -9.8078
 134   2.0000      -0.354732        -9.6528
 135   2.0000      -0.351143        -9.5551
 136   2.0000      -0.349851        -9.5199
 137   2.0000      -0.327753        -8.9186
 138   2.0000      -0.321592        -8.7510
 139   2.0000      -0.314883        -8.5684
 140   2.0000      -0.308646        -8.3987
 141   2.0000      -0.302376        -8.2281
 142   2.0000      -0.288645        -7.8544
 143   2.0000      -0.284340        -7.7373
 144   2.0000      -0.278954        -7.5907
 145   2.0000      -0.278306        -7.5731
 146   2.0000      -0.274676        -7.4743
 147   2.0000      -0.267680        -7.2840
 148   2.0000      -0.263995        -7.1837
 149   2.0000      -0.262973        -7.1558
 150   2.0000      -0.255397        -6.9497
 151   2.0000      -0.250301        -6.8110
 152   2.0000      -0.222390        -6.0515
 153   0.0000      -0.083466        -2.2712
 154   0.0000      -0.060789        -1.6541
 155   0.0000      -0.034631        -0.9423
 156   0.0000      -0.031114        -0.8467
 157   0.0000      -0.029975        -0.8156

MULLIKEN ATOMIC CHARGES
-----------------------
   0 C :   -0.544530
   1 C :    0.133810
   2 C :    0.311879
   3 N :   -0.612951
   4 C :   -0.230781
   5 C :    0.159988
   6 C :   -0.169478
   7 C :   -0.168676
   8 C :    0.056169
   9 C :    0.038259
  10 O :   -0.633644
  11 C :    0.954824
  12 F :   -0.292001
  13 F :   -0.295492
  14 F :   -0.292293
  15 C :    0.916478
  16 F :   -0.288297
  17 F :   -0.300549
  18 F :   -0.290063
  19 C :   -0.164189
  20 C :   -0.172901
  21 S :    1.222469
  22 O :   -0.545266
  23 O :   -0.555026
  24 C :   -0.127572
  25 C :   -0.152779
  26 C :   -0.139456
  27 C :    0.083990
  28 C :    0.527756
  29 O :   -0.443941
  30 O :   -0.623436
  31 C :   -0.148868
  32 C :   -0.136587
  33 N :   -0.408309
  34 C :   -0.060293
  35 C :    0.139556
  36 C :   -0.204060
  37 C :   -0.125122
  38 C :   -0.120233
  39 C :   -0.192878
  40 C :    0.117906
  41 H :    0.176399
  42 H :    0.192976
  43 H :    0.159751
  44 H :    0.173703
  45 H :    0.171584
  46 H :    0.161935
  47 H :    0.154453
  48 H :    0.416697
  49 H :    0.150976
  50 H :    0.147728
  51 H :    0.185754
  52 H :    0.179791
  53 H :    0.434130
  54 H :    0.173293
  55 H :    0.187706
  56 H :    0.149130
  57 H :    0.137284
  58 H :    0.136589
  59 H :    0.140095
  60 H :    0.146610
Sum of atomic charges:    0.0000000

LOEWDIN ATOMIC CHARGES
----------------------
   0 C :   -0.361464
   1 C :    0.010484
   2 C :    0.024080
   3 N :   -0.280119
   4 C :   -0.146250
   5 C :   -0.021605
   6 C :   -0.121187
   7 C :   -0.122599
   8 C :   -0.047722
   9 C :    0.001420
  10 O :   -0.347577
  11 C :    0.313171
  12 F :   -0.102518
  13 F :   -0.101125
  14 F :   -0.102786
  15 C :    0.300594
  16 F :   -0.101272
  17 F :   -0.108967
  18 F :   -0.104192
  19 C :   -0.125227
  20 C :   -0.125825
  21 S :    1.262857
  22 O :   -0.567720
  23 O :   -0.579497
  24 C :   -0.175998
  25 C :   -0.108624
  26 C :   -0.086801
  27 C :   -0.039395
  28 C :    0.179189
  29 O :   -0.260001
  30 O :   -0.334264
  31 C :   -0.098286
  32 C :   -0.096476
  33 N :   -0.142613
  34 C :   -0.065938
  35 C :   -0.027224
  36 C :   -0.113876
  37 C :   -0.123950
  38 C :   -0.116194
  39 C :   -0.116502
  40 C :   -0.005290
  41 H :    0.146352
  42 H :    0.149982
  43 H :    0.135867
  44 H :    0.144104
  45 H :    0.132512
  46 H :    0.146710
  47 H :    0.144445
  48 H :    0.331159
  49 H :    0.141268
  50 H :    0.140831
  51 H :    0.160659
  52 H :    0.160069
  53 H :    0.349819
  54 H :    0.155092
  55 H :    0.160920
  56 H :    0.135201
  57 H :    0.136183
  58 H :    0.135760
  59 H :    0.137665
  60 H :    0.142691

  Mayer bond orders larger than 0.100000
B(  0-C ,  1-C ) :   1.0097 B(  0-C , 41-H ) :   0.9211 B(  0-C , 42-H ) :   0.9169
B(  0-C , 43-H ) :   0.9243 B(  1-C ,  2-C ) :   1.4325 B(  1-C , 40-C ) :   1.2630
B(  2-C ,  3-N ) :   0.8892 B(  2-C , 33-N ) :   1.2764 B(  3-N ,  4-C ) :   0.9199
B(  3-N , 21-S ) :   0.8050 B(  4-C ,  5-C ) :   0.9652 B(  4-C , 44-H ) :   0.9173
B(  4-C , 45-H ) :   0.9179 B(  5-C ,  6-C ) :   1.4283 B(  5-C , 20-C ) :   1.4368
B(  6-C ,  7-C ) :   1.4214 B(  6-C , 46-H ) :   0.9150 B(  7-C ,  8-C ) :   1.4209
B(  7-C , 47-H ) :   0.9136 B(  8-C ,  9-C ) :   0.9339 B(  8-C , 19-C ) :   1.4117
B(  9-C , 10-O ) :   0.8999 B(  9-C , 11-C ) :   0.8891 B(  9-C , 15-C ) :   0.8931
B( 10-O , 48-H ) :   0.7601 B( 11-C , 12-F ) :   0.9811 B( 11-C , 13-F ) :   0.9693
B( 11-C , 14-F ) :   0.9673 B( 15-C , 16-F ) :   0.9858 B( 15-C , 17-F ) :   0.9553
B( 15-C , 18-F ) :   0.9421 B( 19-C , 20-C ) :   1.4233 B( 19-C , 49-H ) :   0.9083
B( 20-C , 50-H ) :   0.9179 B( 21-S , 22-O ) :   1.6419 B( 21-S , 23-O ) :   1.6159
B( 21-S , 24-C ) :   0.8108 B( 24-C , 25-C ) :   1.3884 B( 24-C , 32-C ) :   1.3907
B( 25-C , 26-C ) :   1.4145 B( 25-C , 51-H ) :   0.9088 B( 26-C , 27-C ) :   1.4058
B( 26-C , 52-H ) :   0.9098 B( 27-C , 28-C ) :   1.0076 B( 27-C , 31-C ) :   1.3799
B( 28-C , 29-O ) :   1.8642 B( 28-C , 30-O ) :   1.0254 B( 30-O , 53-H ) :   0.7418
B( 31-C , 32-C ) :   1.4265 B( 31-C , 54-H ) :   0.9149 B( 32-C , 55-H ) :   0.9073
B( 33-N , 34-C ) :   1.4923 B( 34-C , 35-C ) :   1.2425 B( 34-C , 56-H ) :   0.9268
B( 35-C , 36-C ) :   1.2833 B( 35-C , 40-C ) :   1.2911 B( 36-C , 37-C ) :   1.5122
B( 36-C , 39-C ) :   0.1061 B( 36-C , 57-H ) :   0.9237 B( 37-C , 38-C ) :   1.3529
B( 37-C , 58-H ) :   0.9292 B( 38-C , 39-C ) :   1.5074 B( 38-C , 59-H ) :   0.9287
B( 39-C , 40-C ) :   1.2962 B( 39-C , 60-H ) :   0.9146

FINAL SINGLE POINT ENERGY     -2522.503132310741

DIPOLE MOMENT
-------------

Method             : SCF
Type of density    : Electron Density
Multiplicity       :   1
Irrep              :   0
Energy             : -2522.5031323107405115 Eh
Relativity type    :
Basis              : AO
                                X                 Y                 Z
Electronic contribution:    -49.296406360      -7.322844273       2.944953413
Nuclear contribution   :     49.410312523       7.603999903      -4.844066690
                        -----------------------------------------
Total Dipole Moment    :      0.113906163       0.281155630      -1.899113277
                        -----------------------------------------
Magnitude (a.u.)       :      1.923188587
Magnitude (Debye)      :      4.888356905

Rotational constants in cm-1:             0.004189             0.001371             0.001177
Rotational constants in MHz :           125.597339            41.107846            35.294044

                             ****ORCA TERMINATED NORMALLY****
TOTAL RUN TIME: 0 days 0 hours 10 minutes 56 seconds 404 msec
