                         Program Version 6.0.0  -   RELEASE  -
|  1> ! B3LYP 6-31G* SP
|  2>
|  3> * xyz 0 1
|  4> O -1.6492 1.3588 2.2458
|  5> C -1.2253 0.5320 1.3941
|  6> C 0.1172 0.7220 0.8069
|  7> S 1.1406 -0.5215 0.3147
|  8> C 2.4058 0.5088 -0.1053
|  9> C 3.7180 0.0926 -0.6515
| 10> C 4.0123 -1.2662 -0.8733
| 11> C 5.2549 -1.6461 -1.3900
| 12> C 6.2153 -0.6780 -1.6906
| 13> C 5.9355 0.6734 -1.4752
| 14> F 6.8687 1.6126 -1.7674
| 15> C 4.6942 1.0588 -0.9586
| 16> N 2.0677 1.7981 0.1251
| 17> C 0.8096 1.9260 0.6260
| 18> O 0.2813 3.1866 0.8985
| 19> N -2.0492 -0.5915 1.0237
| 20> C -3.2582 -0.9272 1.7759
| 21> C -4.4641 -0.1107 1.2870
| 22> C -4.4376 0.2574 -0.2113
| 23> C -3.8688 -0.8423 -1.1285
| 24> C -2.3275 -0.8181 -1.1863
| 25> O -1.7263 -1.3803 -0.0385
| 26> H 3.2868 -2.0373 -0.6497
| 27> H 5.4731 -2.6929 -1.5576
| 28> H 7.1760 -0.9761 -2.0904
| 29> H 4.4985 2.1119 -0.7995
| 30> H -0.6768 3.3253 1.1900
| 31> H -3.4800 -2.0084 1.6385
| 32> H -3.0972 -0.7692 2.8645
| 33> H -4.5254 0.8303 1.8758
| 34> H -5.3896 -0.6882 1.5032
| 35> H -5.4803 0.4788 -0.5273
| 36> H -3.8618 1.1990 -0.3501
| 37> H -4.2315 -1.8455 -0.8161
| 38> H -4.2488 -0.6603 -2.1574
| 39> H -2.0096 -1.4252 -2.0600
| 40> H -1.9484 0.2128 -1.3693
| 41> *
| 42>
| 43>                          ****END OF INPUT****

CARTESIAN COORDINATES (ANGSTROEM)
---------------------------------
  O     -1.649200    1.358800    2.245800
  C     -1.225300    0.532000    1.394100
  C      0.117200    0.722000    0.806900
  S      1.140600   -0.521500    0.314700
  C      2.405800    0.508800   -0.105300
  C      3.718000    0.092600   -0.651500
  C      4.012300   -1.266200   -0.873300
  C      5.254900   -1.646100   -1.390000
  C      6.215300   -0.678000   -1.690600
  C      5.935500    0.673400   -1.475200
  F      6.868700    1.612600   -1.767400
  C      4.694200    1.058800   -0.958600
  N      2.067700    1.798100    0.125100
  C      0.809600    1.926000    0.626000
  O      0.281300    3.186600    0.898500
  N     -2.049200   -0.591500    1.023700
  C     -3.258200   -0.927200    1.775900
  C     -4.464100   -0.110700    1.287000
  C     -4.437600    0.257400   -0.211300
  C     -3.868800   -0.842300   -1.128500
  C     -2.327500   -0.818100   -1.186300
  O     -1.726300   -1.380300   -0.038500
  H      3.286800   -2.037300   -0.649700
  H      5.473100   -2.692900   -1.557600
  H      7.176000   -0.976100   -2.090400
  H      4.498500    2.111900   -0.799500
  H     -0.676800    3.325300    1.190000
  H     -3.480000   -2.008400    1.638500
  H     -3.097200   -0.769200    2.864500
  H     -4.525400    0.830300    1.875800
  H     -5.389600   -0.688200    1.503200
  H     -5.480300    0.478800   -0.527300
  H     -3.861800    1.199000   -0.350100
  H     -4.231500   -1.845500   -0.816100
  H     -4.248800   -0.660300   -2.157400
  H     -2.009600   -1.425200   -2.060000
  H     -1.948400    0.212800   -1.369300

 Total Charge           Charge          ....    0
 Multiplicity           Mult            ....    1
 Number of Electrons    NEL             ....  168
 Basis Dimension        Dim             ....  342

ORBITAL ENERGIES
----------------

  NO   OCC          E(Eh)            E(eV)
   0   2.0000     -88.902717     -2419.1659
   1   2.0000     -24.701140      -672.1522
   2   2.0000     -19.203711      -522.5595
   3   2.0000     -19.169690      -521.6338
   4   2.0000     -19.123280      -520.3709
   5   2.0000     -14.406306      -392.0155
   6   2.0000     -14.335391      -390.0858
   7   2.0000     -10.307827      -280.4902
   8   2.0000     -10.290979      -280.0318
   9   2.0000     -10.275046      -279.5982
  10   2.0000     -10.262056      -279.2447
  11   2.0000     -10.239553      -278.6324
  12   2.0000     -10.222512      -278.1687
  13   2.0000     -10.219935      -278.0986
  14   2.0000     -10.218413      -278.0572
  15   2.0000     -10.200442      -277.5681
  16   2.0000     -10.198065      -277.5035
  17   2.0000     -10.197043      -277.4756
  18   2.0000     -10.195567      -277.4355
  19   2.0000     -10.190717      -277.3035
  20   2.0000     -10.185163      -277.1524
  21   2.0000     -10.180413      -277.0231
  22   2.0000      -7.979522      -217.1338
  23   2.0000      -5.942468      -161.7028
  24   2.0000      -5.938393      -161.5919
  25   2.0000      -5.936689      -161.5455
  26   2.0000      -1.214299       -33.0428
  27   2.0000      -1.125447       -30.6250
  28   2.0000      -1.040715       -28.3193
  29   2.0000      -1.017250       -27.6808
  30   2.0000      -0.963161       -26.2090
  31   2.0000      -0.872438       -23.7403
  32   2.0000      -0.868403       -23.6304
  33   2.0000      -0.820483       -22.3265
  34   2.0000      -0.808204       -21.9924
  35   2.0000      -0.787532       -21.4298
  36   2.0000      -0.755420       -20.5560
  37   2.0000      -0.739387       -20.1197
  38   2.0000      -0.723565       -19.6892
  39   2.0000      -0.698396       -19.0043
  40   2.0000      -0.663560       -18.0564
  41   2.0000      -0.639107       -17.3910
  42   2.0000      -0.628125       -17.0922
  43   2.0000      -0.607815       -16.5395
  44   2.0000      -0.579346       -15.7648
  45   2.0000      -0.575627       -15.6636
  46   2.0000      -0.562918       -15.3178
  47   2.0000      -0.539379       -14.6772
  48   2.0000      -0.527880       -14.3643
  49   2.0000      -0.513793       -13.9810
  50   2.0000      -0.506926       -13.7941
  51   2.0000      -0.500803       -13.6275
  52   2.0000      -0.494407       -13.4535
  53   2.0000      -0.472374       -12.8539
  54   2.0000      -0.463417       -12.6102
  55   2.0000      -0.457531       -12.4500
  56   2.0000      -0.455211       -12.3869
  57   2.0000      -0.442648       -12.0451
  58   2.0000      -0.436273       -11.8716
  59   2.0000      -0.433078       -11.7847
  60   2.0000      -0.428978       -11.6731
  61   2.0000      -0.421782       -11.4773
  62   2.0000      -0.408885       -11.1263
  63   2.0000      -0.407755       -11.0956
  64   2.0000      -0.398388       -10.8407
  65   2.0000      -0.397109       -10.8059
  66   2.0000      -0.381143       -10.3714
  67   2.0000      -0.377515       -10.2727
  68   2.0000      -0.374964       -10.2033
  69   2.0000      -0.367676       -10.0050
  70   2.0000      -0.353154        -9.6098
  71   2.0000      -0.345912        -9.4128
  72   2.0000      -0.338330        -9.2064
  73   2.0000      -0.337535        -9.1848
  74   2.0000      -0.332424        -9.0457
  75   2.0000      -0.326485        -8.8841
  76   2.0000      -0.300609        -8.1800
  77   2.0000      -0.291410        -7.9297
  78   2.0000      -0.274396        -7.4667
  79   2.0000      -0.264899        -7.2083
  80   2.0000      -0.259320        -7.0565
  81   2.0000      -0.252141        -6.8611
  82   2.0000      -0.239528        -6.5179
  83   2.0000      -0.217401        -5.9158
  84   0.0000      -0.068496        -1.8639
  85   0.0000      -0.013372        -0.3639
  86   0.0000      -0.004569        -0.1243
  87   0.0000       0.035595         0.9686
  88   0.0000       0.038943         1.0597

MULLIKEN ATOMIC CHARGES
-----------------------
   0 O :   -0.496711
   1 C :    0.502884
   2 C :   -0.275432
   3 S :    0.300464
   4 C :   -0.017234
   5 C :    0.153739
   6 C :   -0.196518
   7 C :   -0.121813
   8 C :   -0.199739
   9 C :    0.419688
  10 F :   -0.315168
  11 C :   -0.244749
  12 N :   -0.403185
  13 C :    0.511255
  14 O :   -0.641437
  15 N :   -0.190264
  16 C :   -0.136030
  17 C :   -0.263559
  18 C :   -0.258805
  19 C :   -0.282101
  20 C :   -0.023182
  21 O :   -0.364918
  22 H :    0.151273
  23 H :    0.144767
  24 H :    0.148545
  25 H :    0.181465
  26 H :    0.439919
  27 H :    0.159483
  28 H :    0.177660
  29 H :    0.158868
  30 H :    0.129806
  31 H :    0.136877
  32 H :    0.139777
  33 H :    0.145790
  34 H :    0.140441
  35 H :    0.148572
  36 H :    0.139571
Sum of atomic charges:   -0.0000000

LOEWDIN ATOMIC CHARGES
----------------------
   0 O :   -0.300099
   1 C :    0.127273
   2 C :   -0.290323
   3 S :    0.414381
   4 C :   -0.111905
   5 C :   -0.021513
   6 C :   -0.132175
   7 C :   -0.118400
   8 C :   -0.149767
   9 C :    0.119737
  10 F :   -0.100420
  11 C :   -0.133161
  12 N :   -0.161876
  13 C :    0.115375
  14 O :   -0.328734
  15 N :   -0.003711
  16 C :   -0.160105
  17 C :   -0.242455
  18 C :   -0.233361
  19 C :   -0.248507
  20 C :   -0.104479
  21 O :   -0.144276
  22 H :    0.141684
  23 H :    0.139951
  24 H :    0.145134
  25 H :    0.162884
  26 H :    0.349892
  27 H :    0.132518
  28 H :    0.146148
  29 H :    0.132712
  30 H :    0.118875
  31 H :    0.123808
  32 H :    0.120324
  33 H :    0.126533
  34 H :    0.130016
  35 H :    0.125298
  36 H :    0.112724

  Mayer bond orders larger than 0.100000
B(  0-O ,  1-C ) :   1.7546 B(  1-C ,  2-C ) :   0.9830 B(  1-C , 15-N ) :   1.0445
B(  2-C ,  3-S ) :   1.0736 B(  2-C ,  4-C ) :   0.1159 B(  2-C , 13-C ) :   1.3755
B(  3-S ,  4-C ) :   1.1659 B(  4-C ,  5-C ) :   1.0259 B(  4-C , 12-N ) :   1.4254
B(  5-C ,  6-C ) :   1.3929 B(  5-C , 11-C ) :   1.3767 B(  6-C ,  7-C ) :   1.4476
B(  6-C , 22-H ) :   0.9155 B(  7-C ,  8-C ) :   1.4266 B(  7-C , 23-H ) :   0.9283
B(  8-C ,  9-C ) :   1.3859 B(  8-C , 24-H ) :   0.9204 B(  9-C , 10-F ) :   0.9126
B(  9-C , 11-C ) :   1.3721 B( 11-C , 25-H ) :   0.9015 B( 12-N , 13-C ) :   1.3247
B( 13-C , 14-O ) :   1.0313 B( 14-O , 26-H ) :   0.7274 B( 15-N , 16-C ) :   0.9213
B( 15-N , 21-O ) :   0.9331 B( 16-C , 17-C ) :   0.9835 B( 16-C , 27-H ) :   0.9311
B( 16-C , 28-H ) :   0.9251 B( 17-C , 18-C ) :   1.0090 B( 17-C , 29-H ) :   0.9386
B( 17-C , 30-H ) :   0.9408 B( 18-C , 19-C ) :   1.0018 B( 18-C , 31-H ) :   0.9431
B( 18-C , 32-H ) :   0.9385 B( 19-C , 20-C ) :   0.9958 B( 19-C , 33-H ) :   0.9322
B( 19-C , 34-H ) :   0.9346 B( 20-C , 21-O ) :   0.8908 B( 20-C , 35-H ) :   0.9367
B( 20-C , 36-H ) :   0.9223

FINAL SINGLE POINT ENERGY     -1413.103280234299

DIPOLE MOMENT
-------------

Method             : SCF
Type of density    : Electron Density
Multiplicity       :   1
Irrep              :   0
Energy             : -1413.1032802342988361 Eh
Relativity type    :
Basis              : AO
                                X                 Y                 Z
Electronic contribution:     33.375364149       7.440502689       0.309802953
Nuclear contribution   :    -34.530642695      -8.935720123      -1.156828016
                        -----------------------------------------
Total Dipole Moment    :     -1.155278546      -1.495217434      -0.847025064
                        -----------------------------------------
Magnitude (a.u.)       :      2.070699194
Magnitude (Debye)      :      5.263299070

Rotational constants in cm-1:             0.022002             0.003846             0.003533
Rotational constants in MHz :           659.598564           115.300098           105.908215

                             ****ORCA TERMINATED NORMALLY****
TOTAL RUN TIME: 0 days 0 hours 5 minutes 3 seconds 925 msec
