                         Program Version 6.0.0  -   RELEASE  -
|  1> ! B3LYP 6-31G* SP
|  2>
|  3> * xyz 0 1
|  4> O -7.8374 -0.4913 -0.1892
|  5> C -6.8679 -0.9151 -0.8750
|  6> O -7.0621 -1.2055 -2.2230
|  7> C -5.5372 -1.1019 -0.2561
|  8> C -4.4582 -1.5748 -1.0226
|  9> C -3.1984 -1.7462 -0.4422
| 10> C -2.9967 -1.4466 0.9104
| 11> S -1.3941 -1.6076 1.6227
| 12> O -0.7086 -2.8010 1.0170
| 13> O -1.5062 -1.8237 3.1059
| 14> N -0.4645 -0.1726 1.3176
| 15> C -1.0111 1.1433 1.6525
| 16> C -1.1744 1.9647 0.4031
| 17> C -0.0994 2.7239 -0.0890
| 18> C -0.2295 3.4361 -1.2850
| 19> C -1.4293 3.3909 -2.0002
| 20> C -2.5007 2.6325 -1.5209
| 21> C -2.3747 1.9190 -0.3254
| 22> C 0.9208 -0.2969 0.9789
| 23> N 1.8612 -0.1405 1.9482
| 24> C 3.1910 -0.2306 1.6849
| 25> C 3.6402 -0.4910 0.3796
| 26> C 5.0912 -0.5907 0.0785
| 27> C 5.5706 -1.5633 -0.8198
| 28> C 6.9370 -1.6549 -1.1017
| 29> C 7.8387 -0.7790 -0.4933
| 30> C 7.3759 0.1905 0.3990
| 31> C 6.0106 0.2862 0.6855
| 32> C 2.6819 -0.6488 -0.6350
| 33> C 1.3197 -0.5506 -0.3420
| 34> Cl 0.1461 -0.6991 -1.6415
| 35> C -4.0688 -0.9793 1.6812
| 36> C -5.3302 -0.8081 1.1037
| 37> H -7.9690 -1.0807 -2.6568
| 38> H -4.5849 -1.8099 -2.0719
| 39> H -2.3805 -2.1082 -1.0506
| 40> H -0.3356 1.6602 2.3688
| 41> H -1.9914 1.0385 2.1646
| 42> H 0.8410 2.7547 0.4475
| 43> H 0.6020 4.0184 -1.6604
| 44> H -1.5276 3.9407 -2.9272
| 45> H -3.4281 2.5941 -2.0776
| 46> H -3.2114 1.3324 0.0293
| 47> H 3.8943 -0.1151 2.4990
| 48> H 4.8919 -2.2638 -1.2900
| 49> H 7.2974 -2.4083 -1.7903
| 50> H 8.8960 -0.8515 -0.7133
| 51> H 8.0752 0.8713 0.8669
| 52> H 5.6726 1.0568 1.3668
| 53> H 2.9904 -0.8232 -1.6583
| 54> H -3.9271 -0.7343 2.7259
| 55> H -6.1407 -0.4402 1.7204
| 56> *
| 57>
| 58>                          ****END OF INPUT****

CARTESIAN COORDINATES (ANGSTROEM)
---------------------------------
  O     -7.837400   -0.491300   -0.189200
  C     -6.867900   -0.915100   -0.875000
  O     -7.062100   -1.205500   -2.223000
  C     -5.537200   -1.101900   -0.256100
  C     -4.458200   -1.574800   -1.022600
  C     -3.198400   -1.746200   -0.442200
  C     -2.996700   -1.446600    0.910400
  S     -1.394100   -1.607600    1.622700
  O     -0.708600   -2.801000    1.017000
  O     -1.506200   -1.823700    3.105900
  N     -0.464500   -0.172600    1.317600
  C     -1.011100    1.143300    1.652500
  C     -1.174400    1.964700    0.403100
  C     -0.099400    2.723900   -0.089000
  C     -0.229500    3.436100   -1.285000
  C     -1.429300    3.390900   -2.000200
  C     -2.500700    2.632500   -1.520900
  C     -2.374700    1.919000   -0.325400
  C      0.920800   -0.296900    0.978900
  N      1.861200   -0.140500    1.948200
  C      3.191000   -0.230600    1.684900
  C      3.640200   -0.491000    0.379600
  C      5.091200   -0.590700    0.078500
  C      5.570600   -1.563300   -0.819800
  C      6.937000   -1.654900   -1.101700
  C      7.838700   -0.779000   -0.493300
  C      7.375900    0.190500    0.399000
  C      6.010600    0.286200    0.685500
  C      2.681900   -0.648800   -0.635000
  C      1.319700   -0.550600   -0.342000
  Cl     0.146100   -0.699100   -1.641500
  C     -4.068800   -0.979300    1.681200
  C     -5.330200   -0.808100    1.103700
  H     -7.969000   -1.080700   -2.656800
  H     -4.584900   -1.809900   -2.071900
  H     -2.380500   -2.108200   -1.050600
  H     -0.335600    1.660200    2.368800
  H     -1.991400    1.038500    2.164600
  H      0.841000    2.754700    0.447500
  H      0.602000    4.018400   -1.660400
  H     -1.527600    3.940700   -2.927200
  H     -3.428100    2.594100   -2.077600
  H     -3.211400    1.332400    0.029300
  H      3.894300   -0.115100    2.499000
  H      4.891900   -2.263800   -1.290000
  H      7.297400   -2.408300   -1.790300
  H      8.896000   -0.851500   -0.713300
  H      8.075200    0.871300    0.866900
  H      5.672600    1.056800    1.366800
  H      2.990400   -0.823200   -1.658300
  H     -3.927100   -0.734300    2.725900
  H     -6.140700   -0.440200    1.720400

 Total Charge           Charge          ....    0
 Multiplicity           Mult            ....    1
 Number of Electrons    NEL             ....  248
 Basis Dimension        Dim             ....  508

ORBITAL ENERGIES
----------------

  NO   OCC          E(Eh)            E(eV)
   0   2.0000    -101.535192     -2762.9130
   1   2.0000     -89.095893     -2424.4225
   2   2.0000     -19.198722      -522.4238
   3   2.0000     -19.140549      -520.8408
   4   2.0000     -19.122351      -520.3456
   5   2.0000     -19.119906      -520.2791
   6   2.0000     -14.370273      -391.0350
   7   2.0000     -14.346178      -390.3793
   8   2.0000     -10.337919      -281.3091
   9   2.0000     -10.276477      -279.6372
  10   2.0000     -10.262555      -279.2583
  11   2.0000     -10.244313      -278.7619
  12   2.0000     -10.235101      -278.5112
  13   2.0000     -10.232670      -278.4451
  14   2.0000     -10.232020      -278.4274
  15   2.0000     -10.222946      -278.1805
  16   2.0000     -10.220645      -278.1179
  17   2.0000     -10.220008      -278.1005
  18   2.0000     -10.219097      -278.0758
  19   2.0000     -10.218446      -278.0580
  20   2.0000     -10.216562      -278.0068
  21   2.0000     -10.207723      -277.7663
  22   2.0000     -10.195509      -277.4339
  23   2.0000     -10.194868      -277.4165
  24   2.0000     -10.193364      -277.3755
  25   2.0000     -10.193089      -277.3681
  26   2.0000     -10.192995      -277.3655
  27   2.0000     -10.192354      -277.3481
  28   2.0000     -10.185461      -277.1605
  29   2.0000     -10.185206      -277.1536
  30   2.0000     -10.184997      -277.1479
  31   2.0000     -10.184657      -277.1386
  32   2.0000     -10.184224      -277.1268
  33   2.0000      -9.466470      -257.5958
  34   2.0000      -8.131755      -221.2763
  35   2.0000      -7.229717      -196.7306
  36   2.0000      -7.220039      -196.4673
  37   2.0000      -7.219692      -196.4578
  38   2.0000      -6.096833      -165.9033
  39   2.0000      -6.094766      -165.8470
  40   2.0000      -6.094321      -165.8349
  41   2.0000      -1.083325       -29.4788
  42   2.0000      -1.080321       -29.3970
  43   2.0000      -0.997542       -27.1445
  44   2.0000      -0.971489       -26.4355
  45   2.0000      -0.957939       -26.0669
  46   2.0000      -0.918627       -24.9971
  47   2.0000      -0.892561       -24.2878
  48   2.0000      -0.875772       -23.8310
  49   2.0000      -0.866509       -23.5789
  50   2.0000      -0.852685       -23.2027
  51   2.0000      -0.814020       -22.1506
  52   2.0000      -0.807924       -21.9847
  53   2.0000      -0.778685       -21.1891
  54   2.0000      -0.774535       -21.0762
  55   2.0000      -0.762863       -20.7585
  56   2.0000      -0.753280       -20.4978
  57   2.0000      -0.745524       -20.2867
  58   2.0000      -0.739588       -20.1252
  59   2.0000      -0.712696       -19.3935
  60   2.0000      -0.688783       -18.7427
  61   2.0000      -0.662920       -18.0390
  62   2.0000      -0.644053       -17.5256
  63   2.0000      -0.641157       -17.4468
  64   2.0000      -0.626413       -17.0456
  65   2.0000      -0.610182       -16.6039
  66   2.0000      -0.608664       -16.5626
  67   2.0000      -0.603072       -16.4104
  68   2.0000      -0.591515       -16.0959
  69   2.0000      -0.583583       -15.8801
  70   2.0000      -0.560584       -15.2543
  71   2.0000      -0.542776       -14.7697
  72   2.0000      -0.532848       -14.4995
  73   2.0000      -0.522498       -14.2179
  74   2.0000      -0.517982       -14.0950
  75   2.0000      -0.503921       -13.7124
  76   2.0000      -0.492613       -13.4047
  77   2.0000      -0.484017       -13.1708
  78   2.0000      -0.478304       -13.0153
  79   2.0000      -0.474407       -12.9093
  80   2.0000      -0.465824       -12.6757
  81   2.0000      -0.462896       -12.5961
  82   2.0000      -0.460965       -12.5435
  83   2.0000      -0.455337       -12.3904
  84   2.0000      -0.454265       -12.3612
  85   2.0000      -0.451918       -12.2973
  86   2.0000      -0.449468       -12.2307
  87   2.0000      -0.444960       -12.1080
  88   2.0000      -0.431575       -11.7438
  89   2.0000      -0.430044       -11.7021
  90   2.0000      -0.423956       -11.5364
  91   2.0000      -0.420942       -11.4544
  92   2.0000      -0.416509       -11.3338
  93   2.0000      -0.413995       -11.2654
  94   2.0000      -0.413620       -11.2552
  95   2.0000      -0.405110       -11.0236
  96   2.0000      -0.396559       -10.7909
  97   2.0000      -0.390609       -10.6290
  98   2.0000      -0.387166       -10.5353
  99   2.0000      -0.375202       -10.2098
 100   2.0000      -0.370402       -10.0791
 101   2.0000      -0.363874        -9.9015
 102   2.0000      -0.358047        -9.7430
 103   2.0000      -0.354753        -9.6533
 104   2.0000      -0.352615        -9.5951
 105   2.0000      -0.348315        -9.4781
 106   2.0000      -0.342784        -9.3276
 107   2.0000      -0.325779        -8.8649
 108   2.0000      -0.323312        -8.7978
 109   2.0000      -0.321569        -8.7503
 110   2.0000      -0.307659        -8.3718
 111   2.0000      -0.301358        -8.2004
 112   2.0000      -0.295384        -8.0378
 113   2.0000      -0.285291        -7.7632
 114   2.0000      -0.280003        -7.6193
 115   2.0000      -0.277185        -7.5426
 116   2.0000      -0.272405        -7.4125
 117   2.0000      -0.267011        -7.2658
 118   2.0000      -0.265483        -7.2242
 119   2.0000      -0.259452        -7.0600
 120   2.0000      -0.253219        -6.8904
 121   2.0000      -0.250825        -6.8253
 122   2.0000      -0.245494        -6.6802
 123   2.0000      -0.233037        -6.3413
 124   0.0000      -0.087013        -2.3677
 125   0.0000      -0.054796        -1.4911
 126   0.0000      -0.037376        -1.0170
 127   0.0000      -0.033594        -0.9141
 128   0.0000      -0.012010        -0.3268

MULLIKEN ATOMIC CHARGES
-----------------------
   0 O :   -0.442611
   1 C :    0.528740
   2 O :   -0.623093
   3 C :    0.082978
   4 C :   -0.149997
   5 C :   -0.127863
   6 C :   -0.139067
   7 S :    1.208962
   8 O :   -0.550611
   9 O :   -0.525343
  10 N :   -0.597894
  11 C :   -0.258853
  12 C :    0.179410
  13 C :   -0.173255
  14 C :   -0.124197
  15 C :   -0.122684
  16 C :   -0.128550
  17 C :   -0.170285
  18 C :    0.398126
  19 N :   -0.370606
  20 C :   -0.026310
  21 C :    0.077784
  22 C :    0.071374
  23 C :   -0.165783
  24 C :   -0.130122
  25 C :   -0.119541
  26 C :   -0.130076
  27 C :   -0.167917
  28 C :   -0.147470
  29 C :   -0.066494
  30 Cl:    0.010117
  31 C :   -0.152410
  32 C :   -0.141379
  33 H :    0.435011
  34 H :    0.174734
  35 H :    0.194121
  36 H :    0.184370
  37 H :    0.169045
  38 H :    0.132118
  39 H :    0.129715
  40 H :    0.128755
  41 H :    0.128889
  42 H :    0.129760
  43 H :    0.164259
  44 H :    0.140870
  45 H :    0.136749
  46 H :    0.134491
  47 H :    0.135959
  48 H :    0.136130
  49 H :    0.168197
  50 H :    0.189183
  51 H :    0.182563
Sum of atomic charges:   -0.0000000

LOEWDIN ATOMIC CHARGES
----------------------
   0 O :   -0.258907
   1 C :    0.179845
   2 O :   -0.334036
   3 C :   -0.038723
   4 C :   -0.099591
   5 C :   -0.092894
   6 C :   -0.175261
   7 S :    1.264693
   8 O :   -0.572956
   9 O :   -0.566561
  10 N :   -0.280392
  11 C :   -0.145478
  12 C :   -0.031570
  13 C :   -0.132774
  14 C :   -0.125250
  15 C :   -0.127650
  16 C :   -0.126147
  17 C :   -0.130347
  18 C :    0.045765
  19 N :   -0.107590
  20 C :   -0.066194
  21 C :   -0.014769
  22 C :   -0.019734
  23 C :   -0.124273
  24 C :   -0.123598
  25 C :   -0.123636
  26 C :   -0.124245
  27 C :   -0.125879
  28 C :   -0.107150
  29 C :   -0.080666
  30 Cl:    0.053322
  31 C :   -0.108855
  32 C :   -0.089205
  33 H :    0.350407
  34 H :    0.155769
  35 H :    0.164029
  36 H :    0.142467
  37 H :    0.140500
  38 H :    0.132545
  39 H :    0.132113
  40 H :    0.131761
  41 H :    0.131626
  42 H :    0.132903
  43 H :    0.143452
  44 H :    0.137087
  45 H :    0.135519
  46 H :    0.134538
  47 H :    0.135171
  48 H :    0.135038
  49 H :    0.153120
  50 H :    0.161361
  51 H :    0.161302

  Mayer bond orders larger than 0.100000
B(  0-O ,  1-C ) :   1.8641 B(  1-C ,  2-O ) :   1.0263 B(  1-C ,  3-C ) :   1.0070
B(  2-O , 33-H ) :   0.7413 B(  3-C ,  4-C ) :   1.3808 B(  3-C , 32-C ) :   1.4010
B(  4-C ,  5-C ) :   1.4171 B(  4-C , 34-H ) :   0.9147 B(  5-C ,  6-C ) :   1.3977
B(  5-C , 35-H ) :   0.9027 B(  6-C ,  7-S ) :   0.8105 B(  6-C , 31-C ) :   1.3796
B(  7-S ,  8-O ) :   1.6146 B(  7-S ,  9-O ) :   1.6713 B(  7-S , 10-N ) :   0.8055
B( 10-N , 11-C ) :   0.9147 B( 10-N , 18-C ) :   0.9279 B( 11-C , 12-C ) :   0.9392
B( 11-C , 36-H ) :   0.9183 B( 11-C , 37-H ) :   0.9229 B( 12-C , 13-C ) :   1.4332
B( 12-C , 17-C ) :   1.4294 B( 13-C , 14-C ) :   1.4395 B( 13-C , 38-H ) :   0.9230
B( 14-C , 15-C ) :   1.4560 B( 14-C , 39-H ) :   0.9293 B( 15-C , 16-C ) :   1.4508
B( 15-C , 40-H ) :   0.9302 B( 16-C , 17-C ) :   1.4482 B( 16-C , 41-H ) :   0.9296
B( 17-C , 42-H ) :   0.9180 B( 18-C , 19-N ) :   1.3884 B( 18-C , 29-C ) :   1.3381
B( 19-N , 20-C ) :   1.4141 B( 20-C , 21-C ) :   1.3469 B( 20-C , 43-H ) :   0.9205
B( 21-C , 22-C ) :   1.0067 B( 21-C , 28-C ) :   1.4066 B( 22-C , 23-C ) :   1.4065
B( 22-C , 27-C ) :   1.4054 B( 23-C , 24-C ) :   1.4426 B( 23-C , 44-H ) :   0.9207
B( 24-C , 25-C ) :   1.4496 B( 24-C , 45-H ) :   0.9284 B( 25-C , 26-C ) :   1.4513
B( 25-C , 46-H ) :   0.9292 B( 26-C , 27-C ) :   1.4413 B( 26-C , 47-H ) :   0.9285
B( 27-C , 48-H ) :   0.9218 B( 28-C , 29-C ) :   1.3924 B( 28-C , 49-H ) :   0.9114
B( 29-C , 30-Cl) :   1.0399 B( 31-C , 32-C ) :   1.4139 B( 31-C , 50-H ) :   0.9076
B( 32-C , 51-H ) :   0.9092

FINAL SINGLE POINT ENERGY     -2231.831098376646

DIPOLE MOMENT
-------------

Method             : SCF
Type of density    : Electron Density
Multiplicity       :   1
Irrep              :   0
Energy             : -2231.8310983766455138 Eh
Relativity type    :
Basis              : AO
                                X                 Y                 Z
Electronic contribution:    -12.042636158     -10.845558449       0.943638689
Nuclear contribution   :     12.803819508      12.197937937      -2.940728721
                        -----------------------------------------
Total Dipole Moment    :      0.761183350       1.352379487      -1.997090032
                        -----------------------------------------
Magnitude (a.u.)       :      2.529169620
Magnitude (Debye)      :      6.428638281

Rotational constants in cm-1:             0.008490             0.001943             0.001825
Rotational constants in MHz :           254.527548            58.257993            54.700775

                             ****ORCA TERMINATED NORMALLY****
TOTAL RUN TIME: 0 days 0 hours 6 minutes 39 seconds 107 msec
