                         Program Version 6.0.0  -   RELEASE  -
|  1> ! B3LYP 6-31G* SP
|  2>
|  3> * xyz 0 1
|  4> C 3.6676 0.1559 -3.6771
|  5> O 3.8895 0.1049 -2.2714
|  6> C 2.9699 0.5414 -1.3039
|  7> C 1.7182 1.0837 -1.6538
|  8> C 0.8227 1.5120 -0.6625
|  9> C -0.5234 2.0716 -1.0421
| 10> N -1.5729 1.0517 -0.8897
| 11> C -1.6028 -0.0832 -1.8315
| 12> C -1.1241 -1.3838 -1.1733
| 13> N -2.1045 -1.8804 -0.2104
| 14> C -2.5460 1.1877 0.1696
| 15> O -2.2217 1.7767 1.2372
| 16> N -3.8840 0.6834 0.0193
| 17> C -4.8613 0.7221 1.1153
| 18> C -4.5306 -0.3438 2.1680
| 19> C -6.2695 0.5377 0.5816
| 20> C -6.6466 -0.6576 -0.0638
| 21> C -7.9438 -0.8136 -0.5635
| 22> C -8.8743 0.2207 -0.4326
| 23> C -8.5097 1.4115 0.1974
| 24> C -7.2152 1.5723 0.7030
| 25> C 1.1759 1.3794 0.6864
| 26> C 2.4163 0.8464 1.0421
| 27> C 3.3237 0.4298 0.0496
| 28> O 4.5863 -0.0954 0.3660
| 29> C 5.0942 -0.2440 1.6885
| 30> C 6.4906 -0.7891 1.6185
| 31> C 7.5877 0.0835 1.5185
| 32> C 8.8855 -0.4267 1.4101
| 33> C 9.0954 -1.8085 1.3923
| 34> C 8.0076 -2.6828 1.4765
| 35> C 6.7080 -2.1764 1.5803
| 36> H 4.5577 -0.2497 -4.1993
| 37> H 3.5139 1.2069 -4.0018
| 38> H 2.7846 -0.4611 -3.9469
| 39> H 1.4345 1.1770 -2.6931
| 40> H -0.5144 2.4384 -2.0919
| 41> H -0.7398 2.9643 -0.4155
| 42> H -2.6094 -0.2158 -2.2741
| 43> H -0.9288 0.1236 -2.6918
| 44> H -0.1381 -1.2284 -0.6792
| 45> H -0.9841 -2.1439 -1.9759
| 46> H -1.9219 -2.8997 -0.0641
| 47> H -1.9175 -1.4220 0.7127
| 48> H -4.1989 0.3625 -0.9207
| 49> H -4.7948 1.7149 1.6145
| 50> H -3.5539 -0.1206 2.6439
| 51> H -4.4730 -1.3527 1.7084
| 52> H -5.3077 -0.3514 2.9624
| 53> H -5.9373 -1.4642 -0.1841
| 54> H -8.2262 -1.7356 -1.0553
| 55> H -9.8765 0.0991 -0.8255
| 56> H -9.2315 2.2136 0.2946
| 57> H -6.9532 2.5069 1.1859
| 58> H 0.4929 1.6951 1.4647
| 59> H 2.6613 0.7642 2.0923
| 60> H 4.4430 -0.9368 2.2649
| 61> H 5.0989 0.7412 2.2039
| 62> H 7.4385 1.1563 1.5234
| 63> H 9.7282 0.2493 1.3360
| 64> H 10.1001 -2.2017 1.3078
| 65> H 8.1716 -3.7527 1.4561
| 66> H 5.8730 -2.8640 1.6297
| 67> *
| 68>
| 69>                          ****END OF INPUT****

CARTESIAN COORDINATES (ANGSTROEM)
---------------------------------
  C      3.667600    0.155900   -3.677100
  O      3.889500    0.104900   -2.271400
  C      2.969900    0.541400   -1.303900
  C      1.718200    1.083700   -1.653800
  C      0.822700    1.512000   -0.662500
  C     -0.523400    2.071600   -1.042100
  N     -1.572900    1.051700   -0.889700
  C     -1.602800   -0.083200   -1.831500
  C     -1.124100   -1.383800   -1.173300
  N     -2.104500   -1.880400   -0.210400
  C     -2.546000    1.187700    0.169600
  O     -2.221700    1.776700    1.237200
  N     -3.884000    0.683400    0.019300
  C     -4.861300    0.722100    1.115300
  C     -4.530600   -0.343800    2.168000
  C     -6.269500    0.537700    0.581600
  C     -6.646600   -0.657600   -0.063800
  C     -7.943800   -0.813600   -0.563500
  C     -8.874300    0.220700   -0.432600
  C     -8.509700    1.411500    0.197400
  C     -7.215200    1.572300    0.703000
  C      1.175900    1.379400    0.686400
  C      2.416300    0.846400    1.042100
  C      3.323700    0.429800    0.049600
  O      4.586300   -0.095400    0.366000
  C      5.094200   -0.244000    1.688500
  C      6.490600   -0.789100    1.618500
  C      7.587700    0.083500    1.518500
  C      8.885500   -0.426700    1.410100
  C      9.095400   -1.808500    1.392300
  C      8.007600   -2.682800    1.476500
  C      6.708000   -2.176400    1.580300
  H      4.557700   -0.249700   -4.199300
  H      3.513900    1.206900   -4.001800
  H      2.784600   -0.461100   -3.946900
  H      1.434500    1.177000   -2.693100
  H     -0.514400    2.438400   -2.091900
  H     -0.739800    2.964300   -0.415500
  H     -2.609400   -0.215800   -2.274100
  H     -0.928800    0.123600   -2.691800
  H     -0.138100   -1.228400   -0.679200
  H     -0.984100   -2.143900   -1.975900
  H     -1.921900   -2.899700   -0.064100
  H     -1.917500   -1.422000    0.712700
  H     -4.198900    0.362500   -0.920700
  H     -4.794800    1.714900    1.614500
  H     -3.553900   -0.120600    2.643900
  H     -4.473000   -1.352700    1.708400
  H     -5.307700   -0.351400    2.962400
  H     -5.937300   -1.464200   -0.184100
  H     -8.226200   -1.735600   -1.055300
  H     -9.876500    0.099100   -0.825500
  H     -9.231500    2.213600    0.294600
  H     -6.953200    2.506900    1.185900
  H      0.492900    1.695100    1.464700
  H      2.661300    0.764200    2.092300
  H      4.443000   -0.936800    2.264900
  H      5.098900    0.741200    2.203900
  H      7.438500    1.156300    1.523400
  H      9.728200    0.249300    1.336000
  H     10.100100   -2.201700    1.307800
  H      8.171600   -3.752700    1.456100
  H      5.873000   -2.864000    1.629700

 Total Charge           Charge          ....    0
 Multiplicity           Mult            ....    1
 Number of Electrons    NEL             ....  232
 Basis Dimension        Dim             ....  510

ORBITAL ENERGIES
----------------

  NO   OCC          E(Eh)            E(eV)
   0   2.0000     -19.154137      -521.2106
   1   2.0000     -19.151667      -521.1433
   2   2.0000     -19.088332      -519.4199
   3   2.0000     -14.338441      -390.1688
   4   2.0000     -14.335349      -390.0847
   5   2.0000     -14.303473      -389.2173
   6   2.0000     -10.298396      -280.2336
   7   2.0000     -10.238043      -278.5913
   8   2.0000     -10.235911      -278.5333
   9   2.0000     -10.232550      -278.4418
  10   2.0000     -10.231186      -278.4047
  11   2.0000     -10.213766      -277.9307
  12   2.0000     -10.211821      -277.8778
  13   2.0000     -10.208506      -277.7876
  14   2.0000     -10.197394      -277.4852
  15   2.0000     -10.188051      -277.2310
  16   2.0000     -10.186832      -277.1978
  17   2.0000     -10.180422      -277.0234
  18   2.0000     -10.180386      -277.0224
  19   2.0000     -10.180386      -277.0224
  20   2.0000     -10.180233      -277.0182
  21   2.0000     -10.179636      -277.0020
  22   2.0000     -10.179516      -276.9987
  23   2.0000     -10.179364      -276.9946
  24   2.0000     -10.179198      -276.9901
  25   2.0000     -10.179075      -276.9867
  26   2.0000     -10.178745      -276.9777
  27   2.0000     -10.175096      -276.8784
  28   2.0000     -10.174288      -276.8565
  29   2.0000     -10.173349      -276.8309
  30   2.0000     -10.163503      -276.5630
  31   2.0000     -10.156299      -276.3669
  32   2.0000      -1.040026       -28.3006
  33   2.0000      -1.024261       -27.8716
  34   2.0000      -1.002312       -27.2743
  35   2.0000      -0.908303       -24.7162
  36   2.0000      -0.889590       -24.2070
  37   2.0000      -0.866005       -23.5652
  38   2.0000      -0.849882       -23.1265
  39   2.0000      -0.843525       -22.9535
  40   2.0000      -0.837213       -22.7817
  41   2.0000      -0.775335       -21.0979
  42   2.0000      -0.763639       -20.7797
  43   2.0000      -0.748855       -20.3774
  44   2.0000      -0.739340       -20.1185
  45   2.0000      -0.739202       -20.1147
  46   2.0000      -0.739016       -20.1096
  47   2.0000      -0.719395       -19.5757
  48   2.0000      -0.709597       -19.3091
  49   2.0000      -0.685213       -18.6456
  50   2.0000      -0.683687       -18.6041
  51   2.0000      -0.651325       -17.7234
  52   2.0000      -0.623510       -16.9666
  53   2.0000      -0.605909       -16.4876
  54   2.0000      -0.601334       -16.3631
  55   2.0000      -0.600796       -16.3485
  56   2.0000      -0.598941       -16.2980
  57   2.0000      -0.578693       -15.7470
  58   2.0000      -0.572798       -15.5866
  59   2.0000      -0.564046       -15.3485
  60   2.0000      -0.541918       -14.7464
  61   2.0000      -0.525458       -14.2984
  62   2.0000      -0.521645       -14.1947
  63   2.0000      -0.509075       -13.8526
  64   2.0000      -0.501727       -13.6527
  65   2.0000      -0.493486       -13.4284
  66   2.0000      -0.485549       -13.2125
  67   2.0000      -0.478866       -13.0306
  68   2.0000      -0.470134       -12.7930
  69   2.0000      -0.467513       -12.7217
  70   2.0000      -0.459511       -12.5039
  71   2.0000      -0.456044       -12.4096
  72   2.0000      -0.453957       -12.3528
  73   2.0000      -0.452290       -12.3074
  74   2.0000      -0.444659       -12.0998
  75   2.0000      -0.439076       -11.9479
  76   2.0000      -0.433655       -11.8003
  77   2.0000      -0.429064       -11.6754
  78   2.0000      -0.421333       -11.4650
  79   2.0000      -0.420753       -11.4493
  80   2.0000      -0.418283       -11.3821
  81   2.0000      -0.413690       -11.2571
  82   2.0000      -0.411719       -11.2034
  83   2.0000      -0.408115       -11.1054
  84   2.0000      -0.400598       -10.9008
  85   2.0000      -0.397315       -10.8115
  86   2.0000      -0.388690       -10.5768
  87   2.0000      -0.381694       -10.3864
  88   2.0000      -0.376152       -10.2356
  89   2.0000      -0.371127       -10.0989
  90   2.0000      -0.367105        -9.9894
  91   2.0000      -0.360774        -9.8172
  92   2.0000      -0.357242        -9.7211
  93   2.0000      -0.356567        -9.7027
  94   2.0000      -0.353517        -9.6197
  95   2.0000      -0.351521        -9.5654
  96   2.0000      -0.345325        -9.3968
  97   2.0000      -0.344097        -9.3633
  98   2.0000      -0.339670        -9.2429
  99   2.0000      -0.338052        -9.1989
 100   2.0000      -0.329576        -8.9682
 101   2.0000      -0.323825        -8.8117
 102   2.0000      -0.311006        -8.4629
 103   2.0000      -0.304021        -8.2728
 104   2.0000      -0.298361        -8.1188
 105   2.0000      -0.295792        -8.0489
 106   2.0000      -0.246575        -6.7096
 107   2.0000      -0.245215        -6.6726
 108   2.0000      -0.244801        -6.6614
 109   2.0000      -0.243614        -6.6291
 110   2.0000      -0.239617        -6.5203
 111   2.0000      -0.237941        -6.4747
 112   2.0000      -0.227513        -6.1909
 113   2.0000      -0.223594        -6.0843
 114   2.0000      -0.209099        -5.6899
 115   2.0000      -0.190931        -5.1955
 116   0.0000      -0.004746        -0.1291
 117   0.0000      -0.000528        -0.0144
 118   0.0000       0.002170         0.0591
 119   0.0000       0.003042         0.0828
 120   0.0000       0.012742         0.3467

MULLIKEN ATOMIC CHARGES
-----------------------
   0 C :   -0.188839
   1 O :   -0.503016
   2 C :    0.326055
   3 C :   -0.270804
   4 C :    0.164076
   5 C :   -0.237494
   6 N :   -0.423508
   7 C :   -0.129953
   8 C :   -0.135439
   9 N :   -0.717335
  10 C :    0.681228
  11 O :   -0.518447
  12 N :   -0.615657
  13 C :    0.017943
  14 C :   -0.447122
  15 C :    0.124556
  16 C :   -0.186674
  17 C :   -0.127137
  18 C :   -0.124655
  19 C :   -0.126065
  20 C :   -0.181753
  21 C :   -0.185929
  22 C :   -0.209215
  23 C :    0.325161
  24 O :   -0.504479
  25 C :   -0.100037
  26 C :    0.140296
  27 C :   -0.154351
  28 C :   -0.129623
  29 C :   -0.121042
  30 C :   -0.129891
  31 C :   -0.153560
  32 H :    0.168988
  33 H :    0.142539
  34 H :    0.137856
  35 H :    0.123482
  36 H :    0.136061
  37 H :    0.181734
  38 H :    0.137552
  39 H :    0.138886
  40 H :    0.150108
  41 H :    0.123109
  42 H :    0.291895
  43 H :    0.310666
  44 H :    0.326419
  45 H :    0.156307
  46 H :    0.163477
  47 H :    0.150310
  48 H :    0.138021
  49 H :    0.144470
  50 H :    0.128029
  51 H :    0.126527
  52 H :    0.128509
  53 H :    0.132454
  54 H :    0.158606
  55 H :    0.138061
  56 H :    0.130092
  57 H :    0.132296
  58 H :    0.131246
  59 H :    0.129036
  60 H :    0.127957
  61 H :    0.128397
  62 H :    0.129622
Sum of atomic charges:    0.0000000

LOEWDIN ATOMIC CHARGES
----------------------
   0 C :   -0.197179
   1 O :   -0.188290
   2 C :    0.069523
   3 C :   -0.181692
   4 C :   -0.041828
   5 C :   -0.139045
   6 N :   -0.127120
   7 C :   -0.156254
   8 C :   -0.183644
   9 N :   -0.483108
  10 C :    0.158605
  11 O :   -0.336796
  12 N :   -0.242919
  13 C :   -0.045824
  14 C :   -0.361018
  15 C :   -0.018442
  16 C :   -0.137385
  17 C :   -0.128336
  18 C :   -0.131340
  19 C :   -0.127947
  20 C :   -0.130292
  21 C :   -0.138935
  22 C :   -0.168883
  23 C :    0.067873
  24 O :   -0.181191
  25 C :   -0.079463
  26 C :   -0.028947
  27 C :   -0.118871
  28 C :   -0.128795
  29 C :   -0.125765
  30 C :   -0.129080
  31 C :   -0.119215
  32 H :    0.135176
  33 H :    0.113609
  34 H :    0.111264
  35 H :    0.130731
  36 H :    0.116502
  37 H :    0.149188
  38 H :    0.118190
  39 H :    0.124587
  40 H :    0.117604
  41 H :    0.114172
  42 H :    0.222564
  43 H :    0.230260
  44 H :    0.248892
  45 H :    0.132727
  46 H :    0.133378
  47 H :    0.125834
  48 H :    0.123866
  49 H :    0.136749
  50 H :    0.130957
  51 H :    0.130464
  52 H :    0.131437
  53 H :    0.133240
  54 H :    0.146300
  55 H :    0.137343
  56 H :    0.112270
  57 H :    0.113478
  58 H :    0.133605
  59 H :    0.131635
  60 H :    0.131294
  61 H :    0.131352
  62 H :    0.132935

  Mayer bond orders larger than 0.100000
B(  0-C ,  1-O ) :   0.9273 B(  0-C , 32-H ) :   0.9452 B(  0-C , 33-H ) :   0.9300
B(  0-C , 34-H ) :   0.9305 B(  1-O ,  2-C ) :   0.9246 B(  2-C ,  3-C ) :   1.3690
B(  2-C , 23-C ) :   1.3249 B(  3-C ,  4-C ) :   1.4032 B(  3-C , 35-H ) :   0.9106
B(  4-C ,  5-C ) :   0.9552 B(  4-C , 21-C ) :   1.4485 B(  5-C ,  6-N ) :   0.9545
B(  5-C , 36-H ) :   0.9275 B(  5-C , 37-H ) :   0.9179 B(  6-N ,  7-C ) :   0.9558
B(  6-N , 10-C ) :   1.0340 B(  7-C ,  8-C ) :   0.9777 B(  7-C , 38-H ) :   0.9248
B(  7-C , 39-H ) :   0.9305 B(  8-C ,  9-N ) :   1.0067 B(  8-C , 40-H ) :   0.9277
B(  8-C , 41-H ) :   0.9398 B(  9-N , 42-H ) :   0.8658 B(  9-N , 43-H ) :   0.8484
B( 10-C , 11-O ) :   1.7216 B( 10-C , 12-N ) :   1.0682 B( 12-N , 13-C ) :   0.8988
B( 12-N , 44-H ) :   0.8131 B( 13-C , 14-C ) :   0.9864 B( 13-C , 15-C ) :   0.9722
B( 13-C , 45-H ) :   0.9183 B( 14-C , 46-H ) :   0.9355 B( 14-C , 47-H ) :   0.9395
B( 14-C , 48-H ) :   0.9449 B( 15-C , 16-C ) :   1.4141 B( 15-C , 20-C ) :   1.4421
B( 16-C , 17-C ) :   1.4418 B( 16-C , 49-H ) :   0.9189 B( 17-C , 18-C ) :   1.4503
B( 17-C , 50-H ) :   0.9304 B( 18-C , 19-C ) :   1.4587 B( 18-C , 51-H ) :   0.9306
B( 19-C , 20-C ) :   1.4328 B( 19-C , 52-H ) :   0.9297 B( 20-C , 53-H ) :   0.9232
B( 21-C , 22-C ) :   1.4066 B( 21-C , 54-H ) :   0.9074 B( 22-C , 23-C ) :   1.3768
B( 22-C , 55-H ) :   0.9185 B( 23-C , 24-O ) :   0.9304 B( 24-O , 25-C ) :   0.9039
B( 25-C , 26-C ) :   0.9909 B( 25-C , 56-H ) :   0.9125 B( 25-C , 57-H ) :   0.9118
B( 26-C , 27-C ) :   1.4365 B( 26-C , 31-C ) :   1.4368 B( 27-C , 28-C ) :   1.4412
B( 27-C , 58-H ) :   0.9249 B( 28-C , 29-C ) :   1.4532 B( 28-C , 59-H ) :   0.9296
B( 29-C , 30-C ) :   1.4530 B( 29-C , 60-H ) :   0.9305 B( 30-C , 31-C ) :   1.4411
B( 30-C , 61-H ) :   0.9298 B( 31-C , 62-H ) :   0.9253

FINAL SINGLE POINT ENERGY     -1398.436782342105

DIPOLE MOMENT
-------------

Method             : SCF
Type of density    : Electron Density
Multiplicity       :   1
Irrep              :   0
Energy             : -1398.4367823421048342 Eh
Relativity type    :
Basis              : AO
                                X                 Y                 Z
Electronic contribution:     10.690724655       6.336646200       2.759348705
Nuclear contribution   :    -10.692826388      -7.123298647      -3.719730039
                        -----------------------------------------
Total Dipole Moment    :     -0.002101732      -0.786652448      -0.960381334
                        -----------------------------------------
Magnitude (a.u.)       :      1.241434170
Magnitude (Debye)      :      3.155474889

Rotational constants in cm-1:             0.012202             0.001333             0.001299
Rotational constants in MHz :           365.793174            39.951504            38.933015

                             ****ORCA TERMINATED NORMALLY****
TOTAL RUN TIME: 0 days 0 hours 5 minutes 6 seconds 579 msec
