                         Program Version 6.0.0  -   RELEASE  -
|  1> ! B3LYP 6-31G* SP
|  2>
|  3> * xyz 0 1
|  4> O -1.4913 0.3917 -2.0717
|  5> S -0.2623 0.8645 -1.3464
|  6> O 0.7944 1.2086 -2.3590
|  7> C -0.6189 2.3079 -0.4038
|  8> C -1.9012 2.8772 -0.4191
|  9> C -2.1740 4.0115 0.3519
| 10> C -1.1687 4.5831 1.1373
| 11> C 0.1112 4.0209 1.1524
| 12> C 0.3865 2.8862 0.3833
| 13> N 0.3048 -0.4035 -0.2954
| 14> C -0.3420 -0.6201 1.0024
| 15> C -1.8074 -0.9104 0.8238
| 16> C -2.2150 -2.0824 0.1659
| 17> C -3.5746 -2.3428 -0.0305
| 18> C -4.5347 -1.4366 0.4284
| 19> C -4.1366 -0.2695 1.0862
| 20> C -2.7782 -0.0061 1.2861
| 21> C 1.5925 -0.9833 -0.5404
| 22> N 2.6036 -0.7604 0.3424
| 23> C 3.8474 -1.2767 0.1627
| 24> C 4.1324 -2.0605 -0.9659
| 25> C 5.4939 -2.6809 -1.1493
| 26> F 5.5189 -3.9157 -0.5285
| 27> F 5.7771 -2.8460 -2.4941
| 28> F 6.4756 -1.8774 -0.5955
| 29> C 3.0921 -2.3370 -1.8661
| 30> C 1.8197 -1.7962 -1.6633
| 31> Cl 0.5263 -2.2042 -2.7826
| 32> H -2.6912 2.4421 -1.0171
| 33> H -3.1651 4.4462 0.3420
| 34> H -1.3814 5.4605 1.7342
| 35> H 0.8889 4.4631 1.7615
| 36> H 1.3789 2.4535 0.4056
| 37> H 0.1209 -1.4864 1.5248
| 38> H -0.1824 0.2709 1.6467
| 39> H -1.4793 -2.7879 -0.2003
| 40> H -3.8838 -3.2457 -0.5410
| 41> H -5.5867 -1.6385 0.2739
| 42> H -4.8808 0.4323 1.4400
| 43> H -2.4852 0.9042 1.7942
| 44> H 4.6110 -1.0758 0.9028
| 45> H 3.2647 -2.9804 -2.7201
| 46> *
| 47>
| 48>                          ****END OF INPUT****

CARTESIAN COORDINATES (ANGSTROEM)
---------------------------------
  O     -1.491300    0.391700   -2.071700
  S     -0.262300    0.864500   -1.346400
  O      0.794400    1.208600   -2.359000
  C     -0.618900    2.307900   -0.403800
  C     -1.901200    2.877200   -0.419100
  C     -2.174000    4.011500    0.351900
  C     -1.168700    4.583100    1.137300
  C      0.111200    4.020900    1.152400
  C      0.386500    2.886200    0.383300
  N      0.304800   -0.403500   -0.295400
  C     -0.342000   -0.620100    1.002400
  C     -1.807400   -0.910400    0.823800
  C     -2.215000   -2.082400    0.165900
  C     -3.574600   -2.342800   -0.030500
  C     -4.534700   -1.436600    0.428400
  C     -4.136600   -0.269500    1.086200
  C     -2.778200   -0.006100    1.286100
  C      1.592500   -0.983300   -0.540400
  N      2.603600   -0.760400    0.342400
  C      3.847400   -1.276700    0.162700
  C      4.132400   -2.060500   -0.965900
  C      5.493900   -2.680900   -1.149300
  F      5.518900   -3.915700   -0.528500
  F      5.777100   -2.846000   -2.494100
  F      6.475600   -1.877400   -0.595500
  C      3.092100   -2.337000   -1.866100
  C      1.819700   -1.796200   -1.663300
  Cl     0.526300   -2.204200   -2.782600
  H     -2.691200    2.442100   -1.017100
  H     -3.165100    4.446200    0.342000
  H     -1.381400    5.460500    1.734200
  H      0.888900    4.463100    1.761500
  H      1.378900    2.453500    0.405600
  H      0.120900   -1.486400    1.524800
  H     -0.182400    0.270900    1.646700
  H     -1.479300   -2.787900   -0.200300
  H     -3.883800   -3.245700   -0.541000
  H     -5.586700   -1.638500    0.273900
  H     -4.880800    0.432300    1.440000
  H     -2.485200    0.904200    1.794200
  H      4.611000   -1.075800    0.902800
  H      3.264700   -2.980400   -2.720100

 Total Charge           Charge          ....    0
 Multiplicity           Mult            ....    1
 Number of Electrons    NEL             ....  218
 Basis Dimension        Dim             ....  428

ORBITAL ENERGIES
----------------

  NO   OCC          E(Eh)            E(eV)
   0   2.0000    -101.535370     -2762.9179
   1   2.0000     -89.096283     -2424.4331
   2   2.0000     -24.731715      -672.9842
   3   2.0000     -24.730386      -672.9480
   4   2.0000     -24.727862      -672.8793
   5   2.0000     -19.123110      -520.3663
   6   2.0000     -19.118512      -520.2412
   7   2.0000     -14.379235      -391.2789
   8   2.0000     -14.359942      -390.7539
   9   2.0000     -10.449038      -284.3328
  10   2.0000     -10.292138      -280.0633
  11   2.0000     -10.272161      -279.5197
  12   2.0000     -10.251808      -278.9659
  13   2.0000     -10.235683      -278.5271
  14   2.0000     -10.235363      -278.5184
  15   2.0000     -10.235330      -278.5175
  16   2.0000     -10.233736      -278.4741
  17   2.0000     -10.217216      -278.0246
  18   2.0000     -10.214647      -277.9547
  19   2.0000     -10.211547      -277.8703
  20   2.0000     -10.209532      -277.8155
  21   2.0000     -10.208502      -277.7875
  22   2.0000     -10.191668      -277.3294
  23   2.0000     -10.183090      -277.0960
  24   2.0000     -10.181468      -277.0518
  25   2.0000     -10.180911      -277.0367
  26   2.0000     -10.180660      -277.0299
  27   2.0000     -10.180130      -277.0154
  28   2.0000      -9.466413      -257.5942
  29   2.0000      -8.132090      -221.2854
  30   2.0000      -7.229887      -196.7352
  31   2.0000      -7.219999      -196.4662
  32   2.0000      -7.219370      -196.4490
  33   2.0000      -6.097559      -165.9230
  34   2.0000      -6.094795      -165.8478
  35   2.0000      -6.094562      -165.8415
  36   2.0000      -1.290941       -35.1283
  37   2.0000      -1.216273       -33.0965
  38   2.0000      -1.215049       -33.0632
  39   2.0000      -1.080769       -29.4092
  40   2.0000      -0.982927       -26.7468
  41   2.0000      -0.957872       -26.0650
  42   2.0000      -0.927836       -25.2477
  43   2.0000      -0.882330       -24.0094
  44   2.0000      -0.880027       -23.9468
  45   2.0000      -0.850749       -23.1501
  46   2.0000      -0.832001       -22.6399
  47   2.0000      -0.791176       -21.5290
  48   2.0000      -0.779231       -21.2040
  49   2.0000      -0.770404       -20.9637
  50   2.0000      -0.761835       -20.7306
  51   2.0000      -0.741257       -20.1706
  52   2.0000      -0.720042       -19.5933
  53   2.0000      -0.700887       -19.0721
  54   2.0000      -0.679123       -18.4799
  55   2.0000      -0.651526       -17.7289
  56   2.0000      -0.638632       -17.3781
  57   2.0000      -0.630446       -17.1553
  58   2.0000      -0.607096       -16.5199
  59   2.0000      -0.602121       -16.3845
  60   2.0000      -0.585056       -15.9202
  61   2.0000      -0.581768       -15.8307
  62   2.0000      -0.579336       -15.7645
  63   2.0000      -0.567548       -15.4438
  64   2.0000      -0.558883       -15.2080
  65   2.0000      -0.527964       -14.3666
  66   2.0000      -0.524886       -14.2829
  67   2.0000      -0.513802       -13.9813
  68   2.0000      -0.503496       -13.7008
  69   2.0000      -0.481448       -13.1009
  70   2.0000      -0.476956       -12.9786
  71   2.0000      -0.471645       -12.8341
  72   2.0000      -0.466501       -12.6941
  73   2.0000      -0.459498       -12.5036
  74   2.0000      -0.458825       -12.4853
  75   2.0000      -0.457902       -12.4602
  76   2.0000      -0.454583       -12.3698
  77   2.0000      -0.450083       -12.2474
  78   2.0000      -0.444481       -12.0949
  79   2.0000      -0.436284       -11.8719
  80   2.0000      -0.430212       -11.7067
  81   2.0000      -0.426657       -11.6099
  82   2.0000      -0.423512       -11.5244
  83   2.0000      -0.420841       -11.4517
  84   2.0000      -0.418792       -11.3959
  85   2.0000      -0.414159       -11.2698
  86   2.0000      -0.408487       -11.1155
  87   2.0000      -0.400594       -10.9007
  88   2.0000      -0.391397       -10.6505
  89   2.0000      -0.391066       -10.6414
  90   2.0000      -0.386270       -10.5109
  91   2.0000      -0.369450       -10.0533
  92   2.0000      -0.359751        -9.7893
  93   2.0000      -0.356577        -9.7030
  94   2.0000      -0.345539        -9.4026
  95   2.0000      -0.341676        -9.2975
  96   2.0000      -0.327556        -8.9132
  97   2.0000      -0.322017        -8.7625
  98   2.0000      -0.311804        -8.4846
  99   2.0000      -0.305264        -8.3067
 100   2.0000      -0.293365        -7.9829
 101   2.0000      -0.282576        -7.6893
 102   2.0000      -0.279902        -7.6165
 103   2.0000      -0.275420        -7.4946
 104   2.0000      -0.271990        -7.4012
 105   2.0000      -0.265726        -7.2308
 106   2.0000      -0.250652        -6.8206
 107   2.0000      -0.245783        -6.6881
 108   2.0000      -0.238339        -6.4855
 109   0.0000      -0.068460        -1.8629
 110   0.0000      -0.049001        -1.3334
 111   0.0000      -0.043082        -1.1723
 112   0.0000      -0.026336        -0.7166
 113   0.0000      -0.005048        -0.1374

MULLIKEN ATOMIC CHARGES
-----------------------
   0 O :   -0.537238
   1 S :    1.236386
   2 O :   -0.542726
   3 C :   -0.141930
   4 C :   -0.133761
   5 C :   -0.121010
   6 C :   -0.118359
   7 C :   -0.119982
   8 C :   -0.144218
   9 N :   -0.610623
  10 C :   -0.237244
  11 C :    0.145182
  12 C :   -0.133725
  13 C :   -0.124089
  14 C :   -0.119673
  15 C :   -0.126291
  16 C :   -0.174816
  17 C :    0.407595
  18 N :   -0.392066
  19 C :   -0.008167
  20 C :   -0.026013
  21 C :    0.902343
  22 F :   -0.292472
  23 F :   -0.300157
  24 F :   -0.301531
  25 C :   -0.132177
  26 C :   -0.083724
  27 Cl:    0.055037
  28 H :    0.191845
  29 H :    0.149570
  30 H :    0.147219
  31 H :    0.149394
  32 H :    0.178469
  33 H :    0.184272
  34 H :    0.160747
  35 H :    0.133546
  36 H :    0.131681
  37 H :    0.128571
  38 H :    0.124927
  39 H :    0.128783
  40 H :    0.177791
  41 H :    0.188637
Sum of atomic charges:   -0.0000000

LOEWDIN ATOMIC CHARGES
----------------------
   0 O :   -0.561854
   1 S :    1.267944
   2 O :   -0.570881
   3 C :   -0.189597
   4 C :   -0.093193
   5 C :   -0.125621
   6 C :   -0.105215
   7 C :   -0.123840
   8 C :   -0.103584
   9 N :   -0.281636
  10 C :   -0.145182
  11 C :   -0.038607
  12 C :   -0.109119
  13 C :   -0.120762
  14 C :   -0.124020
  15 C :   -0.129673
  16 C :   -0.134416
  17 C :    0.060732
  18 N :   -0.126504
  19 C :   -0.052979
  20 C :   -0.078582
  21 C :    0.312395
  22 F :   -0.110034
  23 F :   -0.109062
  24 F :   -0.109168
  25 C :   -0.088641
  26 C :   -0.085949
  27 Cl:    0.083500
  28 H :    0.163944
  29 H :    0.142158
  30 H :    0.140041
  31 H :    0.141934
  32 H :    0.154881
  33 H :    0.151254
  34 H :    0.126539
  35 H :    0.134723
  36 H :    0.133292
  37 H :    0.131727
  38 H :    0.129886
  39 H :    0.130613
  40 H :    0.149482
  41 H :    0.163073

  Mayer bond orders larger than 0.100000
B(  0-O ,  1-S ) :   1.6351 B(  1-S ,  2-O ) :   1.6505 B(  1-S ,  3-C ) :   0.8173
B(  1-S ,  9-N ) :   0.7588 B(  3-C ,  4-C ) :   1.4054 B(  3-C ,  8-C ) :   1.3810
B(  4-C ,  5-C ) :   1.4368 B(  4-C , 28-H ) :   0.9056 B(  5-C ,  6-C ) :   1.4463
B(  5-C , 29-H ) :   0.9274 B(  6-C ,  7-C ) :   1.4444 B(  6-C , 30-H ) :   0.9274
B(  7-C ,  8-C ) :   1.4543 B(  7-C , 31-H ) :   0.9273 B(  8-C , 32-H ) :   0.9110
B(  9-N , 10-C ) :   0.9051 B(  9-N , 17-C ) :   0.9565 B( 10-C , 11-C ) :   0.9595
B( 10-C , 33-H ) :   0.9191 B( 10-C , 34-H ) :   0.9217 B( 11-C , 12-C ) :   1.4174
B( 11-C , 16-C ) :   1.4381 B( 12-C , 13-C ) :   1.4571 B( 12-C , 35-H ) :   0.9221
B( 13-C , 14-C ) :   1.4436 B( 13-C , 36-H ) :   0.9292 B( 14-C , 15-C ) :   1.4629
B( 14-C , 37-H ) :   0.9301 B( 15-C , 16-C ) :   1.4339 B( 15-C , 38-H ) :   0.9300
B( 16-C , 39-H ) :   0.9195 B( 17-C , 18-N ) :   1.3788 B( 17-C , 26-C ) :   1.3377
B( 18-N , 19-C ) :   1.4088 B( 19-C , 20-C ) :   1.3656 B( 19-C , 40-H ) :   0.9191
B( 20-C , 21-C ) :   0.9737 B( 20-C , 25-C ) :   1.4048 B( 21-C , 22-F ) :   0.9889
B( 21-C , 23-F ) :   0.9526 B( 21-C , 24-F ) :   0.9495 B( 25-C , 26-C ) :   1.3934
B( 25-C , 41-H ) :   0.9084 B( 26-C , 27-Cl) :   1.0802

FINAL SINGLE POINT ENERGY     -2149.362743123513

DIPOLE MOMENT
-------------

Method             : SCF
Type of density    : Electron Density
Multiplicity       :   1
Irrep              :   0
Energy             : -2149.3627431235127005 Eh
Relativity type    :
Basis              : AO
                                X                 Y                 Z
Electronic contribution:     37.608387237     -21.199439009     -17.483390288
Nuclear contribution   :    -38.112024465      21.837614932      19.494341382
                        -----------------------------------------
Total Dipole Moment    :     -0.503637228       0.638175923       2.010951094
                        -----------------------------------------
Magnitude (a.u.)       :      2.169065068
Magnitude (Debye)      :      5.513325251

Rotational constants in cm-1:             0.008704             0.003160             0.002710
Rotational constants in MHz :           260.924915            94.735661            81.245986

                             ****ORCA TERMINATED NORMALLY****
TOTAL RUN TIME: 0 days 0 hours 8 minutes 29 seconds 924 msec
