                         Program Version 6.0.0  -   RELEASE  -
|  1> ! B3LYP 6-31G* SP
|  2>
|  3> * xyz 0 1
|  4> O 4.9827 -2.0647 -3.5075
|  5> C 4.5099 -2.5607 -2.4491
|  6> O 4.8320 -3.8719 -2.1079
|  7> C 3.6221 -1.7600 -1.5776
|  8> C 3.2900 -0.4352 -1.9144
|  9> C 2.4485 0.3152 -1.0885
| 10> C 1.9259 -0.2449 0.0826
| 11> S 0.8481 0.7091 1.0964
| 12> O 0.3686 -0.1018 2.2679
| 13> O 1.6084 1.9016 1.6057
| 14> N -0.5233 1.2384 0.1692
| 15> C -1.1813 0.3133 -0.7592
| 16> C -1.8199 -0.8219 -0.0061
| 17> C -2.9585 -0.5900 0.7829
| 18> C -3.5341 -1.6346 1.5124
| 19> C -2.9767 -2.9153 1.4610
| 20> C -1.8432 -3.1535 0.6789
| 21> C -1.2652 -2.1120 -0.0530
| 22> C -1.1544 2.4758 0.5219
| 23> N -1.5832 2.6658 1.8005
| 24> C -2.1908 3.8165 2.1926
| 25> C -2.3875 4.8501 1.2759
| 26> C -1.9453 4.6909 -0.0380
| 27> C -1.3204 3.5021 -0.4262
| 28> Cl -0.7037 3.3510 -2.0663
| 29> C 2.2553 -1.5622 0.4264
| 30> C 3.0961 -2.3154 -0.3981
| 31> H 5.4388 -4.4289 -2.6975
| 32> H 3.6780 0.0209 -2.8165
| 33> H 2.1974 1.3317 -1.3654
| 34> H -1.9675 0.8381 -1.3443
| 35> H -0.4389 -0.0641 -1.4941
| 36> H -3.3962 0.3992 0.8354
| 37> H -4.4109 -1.4508 2.1198
| 38> H -3.4225 -3.7225 2.0276
| 39> H -1.4113 -4.1452 0.6409
| 40> H -0.3860 -2.3117 -0.6525
| 41> H -2.5211 3.9286 3.2166
| 42> H -2.8699 5.7690 1.5831
| 43> H -2.0793 5.4949 -0.7504
| 44> H 1.8572 -2.0124 1.3264
| 45> H 3.3319 -3.3327 -0.1119
| 46> *
| 47>
| 48>                          ****END OF INPUT****

CARTESIAN COORDINATES (ANGSTROEM)
---------------------------------
  O      4.982700   -2.064700   -3.507500
  C      4.509900   -2.560700   -2.449100
  O      4.832000   -3.871900   -2.107900
  C      3.622100   -1.760000   -1.577600
  C      3.290000   -0.435200   -1.914400
  C      2.448500    0.315200   -1.088500
  C      1.925900   -0.244900    0.082600
  S      0.848100    0.709100    1.096400
  O      0.368600   -0.101800    2.267900
  O      1.608400    1.901600    1.605700
  N     -0.523300    1.238400    0.169200
  C     -1.181300    0.313300   -0.759200
  C     -1.819900   -0.821900   -0.006100
  C     -2.958500   -0.590000    0.782900
  C     -3.534100   -1.634600    1.512400
  C     -2.976700   -2.915300    1.461000
  C     -1.843200   -3.153500    0.678900
  C     -1.265200   -2.112000   -0.053000
  C     -1.154400    2.475800    0.521900
  N     -1.583200    2.665800    1.800500
  C     -2.190800    3.816500    2.192600
  C     -2.387500    4.850100    1.275900
  C     -1.945300    4.690900   -0.038000
  C     -1.320400    3.502100   -0.426200
  Cl    -0.703700    3.351000   -2.066300
  C      2.255300   -1.562200    0.426400
  C      3.096100   -2.315400   -0.398100
  H      5.438800   -4.428900   -2.697500
  H      3.678000    0.020900   -2.816500
  H      2.197400    1.331700   -1.365400
  H     -1.967500    0.838100   -1.344300
  H     -0.438900   -0.064100   -1.494100
  H     -3.396200    0.399200    0.835400
  H     -4.410900   -1.450800    2.119800
  H     -3.422500   -3.722500    2.027600
  H     -1.411300   -4.145200    0.640900
  H     -0.386000   -2.311700   -0.652500
  H     -2.521100    3.928600    3.216600
  H     -2.869900    5.769000    1.583100
  H     -2.079300    5.494900   -0.750400
  H      1.857200   -2.012400    1.326400
  H      3.331900   -3.332700   -0.111900

 Total Charge           Charge          ....    0
 Multiplicity           Mult            ....    1
 Number of Electrons    NEL             ....  208
 Basis Dimension        Dim             ....  416

ORBITAL ENERGIES
----------------

  NO   OCC          E(Eh)            E(eV)
   0   2.0000    -101.545404     -2763.1909
   1   2.0000     -89.095114     -2424.4013
   2   2.0000     -19.198339      -522.4134
   3   2.0000     -19.140533      -520.8404
   4   2.0000     -19.119661      -520.2724
   5   2.0000     -19.113739      -520.1113
   6   2.0000     -14.374544      -391.1512
   7   2.0000     -14.344878      -390.3440
   8   2.0000     -10.337748      -281.3044
   9   2.0000     -10.284174      -279.8466
  10   2.0000     -10.267147      -279.3833
  11   2.0000     -10.245375      -278.7908
  12   2.0000     -10.235246      -278.5152
  13   2.0000     -10.235047      -278.5098
  14   2.0000     -10.234566      -278.4967
  15   2.0000     -10.223598      -278.1982
  16   2.0000     -10.222339      -278.1640
  17   2.0000     -10.221580      -278.1433
  18   2.0000     -10.220231      -278.1066
  19   2.0000     -10.219668      -278.0913
  20   2.0000     -10.209507      -277.8148
  21   2.0000     -10.188044      -277.2308
  22   2.0000     -10.180334      -277.0210
  23   2.0000     -10.178969      -276.9838
  24   2.0000     -10.178614      -276.9742
  25   2.0000     -10.178193      -276.9627
  26   2.0000     -10.177681      -276.9488
  27   2.0000      -9.476762      -257.8758
  28   2.0000      -8.130819      -221.2508
  29   2.0000      -7.239899      -197.0077
  30   2.0000      -7.230435      -196.7501
  31   2.0000      -7.229984      -196.7379
  32   2.0000      -6.096210      -165.8863
  33   2.0000      -6.093773      -165.8200
  34   2.0000      -6.093177      -165.8038
  35   2.0000      -1.083059       -29.4715
  36   2.0000      -1.077567       -29.3221
  37   2.0000      -0.997389       -27.1403
  38   2.0000      -0.972831       -26.4721
  39   2.0000      -0.954033       -25.9606
  40   2.0000      -0.919769       -25.0282
  41   2.0000      -0.892902       -24.2971
  42   2.0000      -0.882975       -24.0270
  43   2.0000      -0.847110       -23.0510
  44   2.0000      -0.810684       -22.0598
  45   2.0000      -0.803123       -21.8541
  46   2.0000      -0.779010       -21.1979
  47   2.0000      -0.774378       -21.0719
  48   2.0000      -0.752712       -20.4823
  49   2.0000      -0.739041       -20.1103
  50   2.0000      -0.714564       -19.4443
  51   2.0000      -0.687930       -18.7195
  52   2.0000      -0.663916       -18.0661
  53   2.0000      -0.644250       -17.5309
  54   2.0000      -0.637934       -17.3591
  55   2.0000      -0.620141       -16.8749
  56   2.0000      -0.603764       -16.4293
  57   2.0000      -0.598066       -16.2742
  58   2.0000      -0.583403       -15.8752
  59   2.0000      -0.558834       -15.2066
  60   2.0000      -0.542954       -14.7745
  61   2.0000      -0.528658       -14.3855
  62   2.0000      -0.510332       -13.8868
  63   2.0000      -0.506376       -13.7792
  64   2.0000      -0.497222       -13.5301
  65   2.0000      -0.489357       -13.3161
  66   2.0000      -0.479812       -13.0563
  67   2.0000      -0.473192       -12.8762
  68   2.0000      -0.465609       -12.6699
  69   2.0000      -0.462211       -12.5774
  70   2.0000      -0.458981       -12.4895
  71   2.0000      -0.451073       -12.2743
  72   2.0000      -0.449881       -12.2419
  73   2.0000      -0.444561       -12.0971
  74   2.0000      -0.428724       -11.6662
  75   2.0000      -0.425614       -11.5816
  76   2.0000      -0.421380       -11.4663
  77   2.0000      -0.416310       -11.3284
  78   2.0000      -0.415467       -11.3054
  79   2.0000      -0.413454       -11.2507
  80   2.0000      -0.405594       -11.0368
  81   2.0000      -0.395483       -10.7617
  82   2.0000      -0.392317       -10.6755
  83   2.0000      -0.387526       -10.5451
  84   2.0000      -0.370134       -10.0719
  85   2.0000      -0.358047        -9.7430
  86   2.0000      -0.357119        -9.7177
  87   2.0000      -0.347594        -9.4585
  88   2.0000      -0.338724        -9.2172
  89   2.0000      -0.329917        -8.9775
  90   2.0000      -0.323754        -8.8098
  91   2.0000      -0.319012        -8.6808
  92   2.0000      -0.307323        -8.3627
  93   2.0000      -0.305148        -8.3035
  94   2.0000      -0.290980        -7.9180
  95   2.0000      -0.282271        -7.6810
  96   2.0000      -0.280826        -7.6417
  97   2.0000      -0.277174        -7.5423
  98   2.0000      -0.270339        -7.3563
  99   2.0000      -0.264770        -7.2048
 100   2.0000      -0.262336        -7.1385
 101   2.0000      -0.245146        -6.6708
 102   2.0000      -0.242402        -6.5961
 103   2.0000      -0.233068        -6.3421
 104   0.0000      -0.087088        -2.3698
 105   0.0000      -0.044509        -1.2111
 106   0.0000      -0.035644        -0.9699
 107   0.0000      -0.033605        -0.9144
 108   0.0000      -0.004119        -0.1121

MULLIKEN ATOMIC CHARGES
-----------------------
   0 O :   -0.442928
   1 C :    0.529232
   2 O :   -0.623291
   3 C :    0.083605
   4 C :   -0.141389
   5 C :   -0.146704
   6 C :   -0.139982
   7 S :    1.222153
   8 O :   -0.527357
   9 O :   -0.531492
  10 N :   -0.604336
  11 C :   -0.273067
  12 C :    0.177742
  13 C :   -0.144931
  14 C :   -0.123900
  15 C :   -0.120102
  16 C :   -0.123517
  17 C :   -0.172156
  18 C :    0.404551
  19 N :   -0.350742
  20 C :    0.020717
  21 C :   -0.126039
  22 C :   -0.105758
  23 C :   -0.094898
  24 Cl:    0.003252
  25 C :   -0.140912
  26 C :   -0.148983
  27 H :    0.435112
  28 H :    0.182119
  29 H :    0.187519
  30 H :    0.184871
  31 H :    0.163598
  32 H :    0.128241
  33 H :    0.129330
  34 H :    0.127402
  35 H :    0.124444
  36 H :    0.122504
  37 H :    0.165082
  38 H :    0.148698
  39 H :    0.168313
  40 H :    0.198678
  41 H :    0.175323
Sum of atomic charges:    0.0000000

LOEWDIN ATOMIC CHARGES
----------------------
   0 O :   -0.259153
   1 C :    0.180076
   2 O :   -0.334071
   3 C :   -0.037607
   4 C :   -0.086626
   5 C :   -0.103639
   6 C :   -0.173650
   7 S :    1.267961
   8 O :   -0.563434
   9 O :   -0.567250
  10 N :   -0.279398
  11 C :   -0.150658
  12 C :   -0.035146
  13 C :   -0.115706
  14 C :   -0.120887
  15 C :   -0.125474
  16 C :   -0.126501
  17 C :   -0.135730
  18 C :    0.055619
  19 N :   -0.102021
  20 C :   -0.057898
  21 C :   -0.136544
  22 C :   -0.105714
  23 C :   -0.100448
  24 Cl:    0.044268
  25 C :   -0.097188
  26 C :   -0.100899
  27 H :    0.350471
  28 H :    0.161043
  29 H :    0.159895
  30 H :    0.149590
  31 H :    0.130651
  32 H :    0.132469
  33 H :    0.132208
  34 H :    0.131267
  35 H :    0.129752
  36 H :    0.127595
  37 H :    0.143751
  38 H :    0.143355
  39 H :    0.152398
  40 H :    0.167268
  41 H :    0.156004

  Mayer bond orders larger than 0.100000
B(  0-O ,  1-C ) :   1.8637 B(  1-C ,  2-O ) :   1.0261 B(  1-C ,  3-C ) :   1.0073
B(  2-O , 27-H ) :   0.7412 B(  3-C ,  4-C ) :   1.4002 B(  3-C , 26-C ) :   1.3847
B(  4-C ,  5-C ) :   1.4280 B(  4-C , 28-H ) :   0.9093 B(  5-C ,  6-C ) :   1.3711
B(  5-C , 29-H ) :   0.9092 B(  6-C ,  7-S ) :   0.8103 B(  6-C , 25-C ) :   1.4065
B(  7-S ,  8-O ) :   1.6536 B(  7-S ,  9-O ) :   1.6624 B(  7-S , 10-N ) :   0.7763
B( 10-N , 11-C ) :   0.9197 B( 10-N , 18-C ) :   0.9457 B( 11-C , 12-C ) :   0.9404
B( 11-C , 30-H ) :   0.9199 B( 11-C , 31-H ) :   0.9239 B( 12-C , 13-C ) :   1.4240
B( 12-C , 17-C ) :   1.4377 B( 13-C , 14-C ) :   1.4547 B( 13-C , 32-H ) :   0.9220
B( 14-C , 15-C ) :   1.4461 B( 14-C , 33-H ) :   0.9294 B( 15-C , 16-C ) :   1.4623
B( 15-C , 34-H ) :   0.9302 B( 16-C , 17-C ) :   1.4391 B( 16-C , 35-H ) :   0.9298
B( 17-C , 36-H ) :   0.9188 B( 18-C , 19-N ) :   1.3904 B( 18-C , 23-C ) :   1.3398
B( 19-N , 20-C ) :   1.4201 B( 20-C , 21-C ) :   1.4073 B( 20-C , 37-H ) :   0.9253
B( 21-C , 22-C ) :   1.4547 B( 21-C , 38-H ) :   0.9226 B( 22-C , 23-C ) :   1.4138
B( 22-C , 39-H ) :   0.9191 B( 23-C , 24-Cl) :   1.0259 B( 25-C , 26-C ) :   1.4066
B( 25-C , 40-H ) :   0.9036 B( 26-C , 41-H ) :   0.9145

FINAL SINGLE POINT ENERGY     -2000.921379577612

DIPOLE MOMENT
-------------

Method             : SCF
Type of density    : Electron Density
Multiplicity       :   1
Irrep              :   0
Energy             : -2000.9213795776117877 Eh
Relativity type    :
Basis              : AO
                                X                 Y                 Z
Electronic contribution:      7.588405364      11.600150709      -5.421407900
Nuclear contribution   :     -8.528032609     -11.966801489       4.326871845
                        -----------------------------------------
Total Dipole Moment    :     -0.939627245      -0.366650780      -1.094536055
                        -----------------------------------------
Magnitude (a.u.)       :      1.488402274
Magnitude (Debye)      :      3.783217924

Rotational constants in cm-1:             0.008101             0.003808             0.003079
Rotational constants in MHz :           242.851534           114.173984            92.296582

                             ****ORCA TERMINATED NORMALLY****
TOTAL RUN TIME: 0 days 0 hours 7 minutes 29 seconds 208 msec
