                         Program Version 6.0.0  -   RELEASE  -
|  1> ! B3LYP 6-31G* SP
|  2>
|  3> * xyz 0 1
|  4> C 0.3770 2.4865 -1.5503
|  5> C 1.3592 1.5465 -0.8831
|  6> C 0.8975 0.4385 -0.1442
|  7> N -0.4948 0.1040 -0.0799
|  8> C -1.1788 0.0772 1.2133
|  9> C -2.0532 1.2913 1.3567
| 10> C -3.4483 1.1825 1.2520
| 11> C -4.2571 2.3156 1.3805
| 12> C -3.6773 3.5802 1.6054
| 13> O -4.4396 4.7503 1.7510
| 14> C -5.8656 4.8057 1.7791
| 15> F -6.3518 4.0265 2.8130
| 16> F -6.2593 6.1125 1.9847
| 17> F -6.3852 4.3697 0.5727
| 18> C -2.2834 3.6860 1.6899
| 19> C -1.4756 2.5519 1.5703
| 20> S -1.2599 -0.6197 -1.4620
| 21> O -2.6170 -0.0023 -1.6570
| 22> O -0.4416 -0.3737 -2.6993
| 23> C -1.3942 -2.3554 -1.2051
| 24> C -0.2356 -3.1165 -1.0123
| 25> C -0.3239 -4.4949 -0.7990
| 26> C -1.5767 -5.1336 -0.7802
| 27> C -1.6755 -6.5944 -0.5643
| 28> O -0.6350 -7.2867 -0.3962
| 29> O -2.9196 -7.2199 -0.5472
| 30> C -2.7368 -4.3630 -0.9725
| 31> C -2.6453 -2.9832 -1.1802
| 32> N 1.7796 -0.3527 0.5117
| 33> C 3.1232 -0.1661 0.4894
| 34> C 3.9521 -1.1604 1.2774
| 35> C 4.6113 -2.1902 0.3531
| 36> O 4.9040 -0.4988 2.0705
| 37> C 3.6591 0.8928 -0.2922
| 38> C 5.0504 1.1170 -0.4133
| 39> C 5.5418 2.1654 -1.1903
| 40> C 4.6645 3.0081 -1.8627
| 41> C 3.2877 2.8104 -1.7641
| 42> C 2.7593 1.7579 -0.9817
| 43> H 0.5860 3.5322 -1.2449
| 44> H 0.4644 2.3967 -2.6514
| 45> H -0.6724 2.2819 -1.2690
| 46> H -0.4430 0.0540 2.0470
| 47> H -1.7795 -0.8538 1.3010
| 48> H -3.9107 0.2198 1.0742
| 49> H -5.3283 2.1947 1.3030
| 50> H -1.8242 4.6531 1.8563
| 51> H -0.3991 2.6559 1.6405
| 52> H 0.7374 -2.6425 -1.0268
| 53> H 0.5881 -5.0597 -0.6501
| 54> H -2.9981 -8.2204 -0.4045
| 55> H -3.7156 -4.8247 -0.9627
| 56> H -3.5513 -2.4097 -1.3202
| 57> H 3.2632 -1.7205 1.9541
| 58> H 3.8321 -2.7253 -0.2306
| 59> H 5.3189 -1.7146 -0.3542
| 60> H 5.1669 -2.9376 0.9582
| 61> H 5.2374 -1.1601 2.7308
| 62> H 5.7794 0.4917 0.0770
| 63> H 6.6106 2.3227 -1.2737
| 64> H 5.0531 3.8166 -2.4702
| 65> H 2.6490 3.4846 -2.3176
| 66> *
| 67>
| 68>                          ****END OF INPUT****

CARTESIAN COORDINATES (ANGSTROEM)
---------------------------------
  C      0.377000    2.486500   -1.550300
  C      1.359200    1.546500   -0.883100
  C      0.897500    0.438500   -0.144200
  N     -0.494800    0.104000   -0.079900
  C     -1.178800    0.077200    1.213300
  C     -2.053200    1.291300    1.356700
  C     -3.448300    1.182500    1.252000
  C     -4.257100    2.315600    1.380500
  C     -3.677300    3.580200    1.605400
  O     -4.439600    4.750300    1.751000
  C     -5.865600    4.805700    1.779100
  F     -6.351800    4.026500    2.813000
  F     -6.259300    6.112500    1.984700
  F     -6.385200    4.369700    0.572700
  C     -2.283400    3.686000    1.689900
  C     -1.475600    2.551900    1.570300
  S     -1.259900   -0.619700   -1.462000
  O     -2.617000   -0.002300   -1.657000
  O     -0.441600   -0.373700   -2.699300
  C     -1.394200   -2.355400   -1.205100
  C     -0.235600   -3.116500   -1.012300
  C     -0.323900   -4.494900   -0.799000
  C     -1.576700   -5.133600   -0.780200
  C     -1.675500   -6.594400   -0.564300
  O     -0.635000   -7.286700   -0.396200
  O     -2.919600   -7.219900   -0.547200
  C     -2.736800   -4.363000   -0.972500
  C     -2.645300   -2.983200   -1.180200
  N      1.779600   -0.352700    0.511700
  C      3.123200   -0.166100    0.489400
  C      3.952100   -1.160400    1.277400
  C      4.611300   -2.190200    0.353100
  O      4.904000   -0.498800    2.070500
  C      3.659100    0.892800   -0.292200
  C      5.050400    1.117000   -0.413300
  C      5.541800    2.165400   -1.190300
  C      4.664500    3.008100   -1.862700
  C      3.287700    2.810400   -1.764100
  C      2.759300    1.757900   -0.981700
  H      0.586000    3.532200   -1.244900
  H      0.464400    2.396700   -2.651400
  H     -0.672400    2.281900   -1.269000
  H     -0.443000    0.054000    2.047000
  H     -1.779500   -0.853800    1.301000
  H     -3.910700    0.219800    1.074200
  H     -5.328300    2.194700    1.303000
  H     -1.824200    4.653100    1.856300
  H     -0.399100    2.655900    1.640500
  H      0.737400   -2.642500   -1.026800
  H      0.588100   -5.059700   -0.650100
  H     -2.998100   -8.220400   -0.404500
  H     -3.715600   -4.824700   -0.962700
  H     -3.551300   -2.409700   -1.320200
  H      3.263200   -1.720500    1.954100
  H      3.832100   -2.725300   -0.230600
  H      5.318900   -1.714600   -0.354200
  H      5.166900   -2.937600    0.958200
  H      5.237400   -1.160100    2.730800
  H      5.779400    0.491700    0.077000
  H      6.610600    2.322700   -1.273700
  H      5.053100    3.816600   -2.470200
  H      2.649000    3.484600   -2.317600

 Total Charge           Charge          ....    0
 Multiplicity           Mult            ....    1
 Number of Electrons    NEL             ....  290
 Basis Dimension        Dim             ....  596

ORBITAL ENERGIES
----------------

  NO   OCC          E(Eh)            E(eV)
   0   2.0000     -89.098159     -2424.4842
   1   2.0000     -24.736732      -673.1207
   2   2.0000     -24.734168      -673.0509
   3   2.0000     -24.733336      -673.0283
   4   2.0000     -19.206933      -522.6472
   5   2.0000     -19.196968      -522.3760
   6   2.0000     -19.148561      -521.0588
   7   2.0000     -19.138757      -520.7921
   8   2.0000     -19.127760      -520.4928
   9   2.0000     -19.127435      -520.4840
  10   2.0000     -14.371469      -391.0676
  11   2.0000     -14.330980      -389.9658
  12   2.0000     -10.498747      -285.6854
  13   2.0000     -10.336149      -281.2609
  14   2.0000     -10.262232      -279.2495
  15   2.0000     -10.255461      -279.0653
  16   2.0000     -10.242391      -278.7096
  17   2.0000     -10.242021      -278.6996
  18   2.0000     -10.232716      -278.4464
  19   2.0000     -10.232191      -278.4321
  20   2.0000     -10.232137      -278.4306
  21   2.0000     -10.220048      -278.1016
  22   2.0000     -10.219632      -278.0903
  23   2.0000     -10.217457      -278.0311
  24   2.0000     -10.217324      -278.0275
  25   2.0000     -10.204794      -277.6866
  26   2.0000     -10.202951      -277.6364
  27   2.0000     -10.201318      -277.5920
  28   2.0000     -10.191940      -277.3368
  29   2.0000     -10.191614      -277.3279
  30   2.0000     -10.191195      -277.3165
  31   2.0000     -10.190738      -277.3041
  32   2.0000     -10.190125      -277.2874
  33   2.0000     -10.189453      -277.2691
  34   2.0000     -10.189370      -277.2669
  35   2.0000     -10.189006      -277.2570
  36   2.0000     -10.188838      -277.2524
  37   2.0000     -10.179681      -277.0032
  38   2.0000     -10.168591      -276.7014
  39   2.0000      -8.133944      -221.3359
  40   2.0000      -6.098995      -165.9621
  41   2.0000      -6.096990      -165.9075
  42   2.0000      -6.096542      -165.8953
  43   2.0000      -1.299299       -35.3557
  44   2.0000      -1.220104       -33.2007
  45   2.0000      -1.219333       -33.1797
  46   2.0000      -1.084808       -29.5191
  47   2.0000      -1.081494       -29.4290
  48   2.0000      -1.076566       -29.2949
  49   2.0000      -1.031555       -28.0700
  50   2.0000      -0.995731       -27.0952
  51   2.0000      -0.964784       -26.2531
  52   2.0000      -0.962547       -26.1922
  53   2.0000      -0.914852       -24.8944
  54   2.0000      -0.890372       -24.2283
  55   2.0000      -0.860827       -23.4243
  56   2.0000      -0.857013       -23.3205
  57   2.0000      -0.810408       -22.0523
  58   2.0000      -0.805084       -21.9075
  59   2.0000      -0.782405       -21.2903
  60   2.0000      -0.776413       -21.1273
  61   2.0000      -0.774188       -21.0667
  62   2.0000      -0.752409       -20.4741
  63   2.0000      -0.750896       -20.4329
  64   2.0000      -0.737720       -20.0744
  65   2.0000      -0.725130       -19.7318
  66   2.0000      -0.707591       -19.2545
  67   2.0000      -0.690765       -18.7967
  68   2.0000      -0.675559       -18.3829
  69   2.0000      -0.653511       -17.7829
  70   2.0000      -0.643243       -17.5035
  71   2.0000      -0.639325       -17.3969
  72   2.0000      -0.627651       -17.0793
  73   2.0000      -0.623302       -16.9609
  74   2.0000      -0.619549       -16.8588
  75   2.0000      -0.612650       -16.6710
  76   2.0000      -0.591984       -16.1087
  77   2.0000      -0.591114       -16.0850
  78   2.0000      -0.586848       -15.9690
  79   2.0000      -0.575144       -15.6505
  80   2.0000      -0.567931       -15.4542
  81   2.0000      -0.555355       -15.1120
  82   2.0000      -0.542297       -14.7566
  83   2.0000      -0.538987       -14.6666
  84   2.0000      -0.517743       -14.0885
  85   2.0000      -0.505546       -13.7566
  86   2.0000      -0.495256       -13.4766
  87   2.0000      -0.491269       -13.3681
  88   2.0000      -0.490009       -13.3338
  89   2.0000      -0.486902       -13.2493
  90   2.0000      -0.476452       -12.9649
  91   2.0000      -0.473884       -12.8950
  92   2.0000      -0.470742       -12.8095
  93   2.0000      -0.465234       -12.6597
  94   2.0000      -0.463872       -12.6226
  95   2.0000      -0.460381       -12.5276
  96   2.0000      -0.455395       -12.3919
  97   2.0000      -0.451990       -12.2993
  98   2.0000      -0.448487       -12.2039
  99   2.0000      -0.447072       -12.1654
 100   2.0000      -0.443191       -12.0598
 101   2.0000      -0.441590       -12.0163
 102   2.0000      -0.440072       -11.9750
 103   2.0000      -0.438240       -11.9251
 104   2.0000      -0.430307       -11.7092
 105   2.0000      -0.428305       -11.6548
 106   2.0000      -0.426554       -11.6071
 107   2.0000      -0.424094       -11.5402
 108   2.0000      -0.418739       -11.3945
 109   2.0000      -0.415958       -11.3188
 110   2.0000      -0.411443       -11.1959
 111   2.0000      -0.406424       -11.0594
 112   2.0000      -0.400734       -10.9045
 113   2.0000      -0.398486       -10.8434
 114   2.0000      -0.395714       -10.7679
 115   2.0000      -0.391893       -10.6639
 116   2.0000      -0.387857       -10.5541
 117   2.0000      -0.385947       -10.5022
 118   2.0000      -0.382438       -10.4067
 119   2.0000      -0.377961       -10.2848
 120   2.0000      -0.375118       -10.2075
 121   2.0000      -0.369932       -10.0664
 122   2.0000      -0.368414       -10.0251
 123   2.0000      -0.362831        -9.8731
 124   2.0000      -0.353258        -9.6126
 125   2.0000      -0.348756        -9.4901
 126   2.0000      -0.342542        -9.3210
 127   2.0000      -0.341959        -9.3052
 128   2.0000      -0.327062        -8.8998
 129   2.0000      -0.323191        -8.7945
 130   2.0000      -0.321609        -8.7514
 131   2.0000      -0.306815        -8.3489
 132   2.0000      -0.301371        -8.2007
 133   2.0000      -0.285723        -7.7749
 134   2.0000      -0.282023        -7.6742
 135   2.0000      -0.279768        -7.6129
 136   2.0000      -0.276731        -7.5302
 137   2.0000      -0.274779        -7.4771
 138   2.0000      -0.273285        -7.4365
 139   2.0000      -0.265586        -7.2270
 140   2.0000      -0.256551        -6.9811
 141   2.0000      -0.253843        -6.9074
 142   2.0000      -0.250721        -6.8225
 143   2.0000      -0.232800        -6.3348
 144   2.0000      -0.216250        -5.8845
 145   0.0000      -0.083629        -2.2757
 146   0.0000      -0.057735        -1.5711
 147   0.0000      -0.031344        -0.8529
 148   0.0000      -0.030171        -0.8210
 149   0.0000      -0.008251        -0.2245

MULLIKEN ATOMIC CHARGES
-----------------------
   0 C :   -0.543732
   1 C :    0.122992
   2 C :    0.291266
   3 N :   -0.602634
   4 C :   -0.266196
   5 C :    0.191755
   6 C :   -0.146072
   7 C :   -0.189624
   8 C :    0.352467
   9 O :   -0.546897
  10 C :    1.085423
  11 F :   -0.292132
  12 F :   -0.279572
  13 F :   -0.290229
  14 C :   -0.172163
  15 C :   -0.168247
  16 S :    1.221807
  17 O :   -0.545800
  18 O :   -0.542761
  19 C :   -0.128473
  20 C :   -0.139119
  21 C :   -0.141975
  22 C :    0.082969
  23 C :    0.528260
  24 O :   -0.445336
  25 O :   -0.623585
  26 C :   -0.146098
  27 C :   -0.152220
  28 N :   -0.446794
  29 C :    0.186854
  30 C :    0.097680
  31 C :   -0.458772
  32 O :   -0.627841
  33 C :    0.095413
  34 C :   -0.194657
  35 C :   -0.126408
  36 C :   -0.116746
  37 C :   -0.199665
  38 C :    0.119570
  39 H :    0.146259
  40 H :    0.183342
  41 H :    0.199262
  42 H :    0.188051
  43 H :    0.156373
  44 H :    0.136638
  45 H :    0.151242
  46 H :    0.146136
  47 H :    0.141284
  48 H :    0.185948
  49 H :    0.178055
  50 H :    0.434203
  51 H :    0.172716
  52 H :    0.186815
  53 H :    0.133021
  54 H :    0.151690
  55 H :    0.158310
  56 H :    0.135270
  57 H :    0.400777
  58 H :    0.158769
  59 H :    0.134106
  60 H :    0.135719
  61 H :    0.143306
Sum of atomic charges:   -0.0000000

LOEWDIN ATOMIC CHARGES
----------------------
   0 C :   -0.363326
   1 C :    0.001164
   2 C :    0.014452
   3 N :   -0.275143
   4 C :   -0.146312
   5 C :   -0.036055
   6 C :   -0.109208
   7 C :   -0.157197
   8 C :    0.086491
   9 O :   -0.161218
  10 C :    0.359210
  11 F :   -0.105402
  12 F :   -0.087577
  13 F :   -0.104513
  14 C :   -0.141679
  15 C :   -0.120213
  16 S :    1.264511
  17 O :   -0.571106
  18 O :   -0.565412
  19 C :   -0.175393
  20 C :   -0.099200
  21 C :   -0.086402
  22 C :   -0.039591
  23 C :    0.180121
  24 O :   -0.261584
  25 O :   -0.334620
  26 C :   -0.099784
  27 C :   -0.107214
  28 N :   -0.147649
  29 C :    0.040179
  30 C :   -0.022398
  31 C :   -0.368435
  32 O :   -0.391489
  33 C :   -0.020805
  34 C :   -0.111966
  35 C :   -0.127459
  36 C :   -0.116413
  37 C :   -0.122094
  38 C :   -0.003653
  39 H :    0.128235
  40 H :    0.149602
  41 H :    0.152511
  42 H :    0.150320
  43 H :    0.130837
  44 H :    0.137076
  45 H :    0.141815
  46 H :    0.143888
  47 H :    0.138614
  48 H :    0.159076
  49 H :    0.159388
  50 H :    0.349958
  51 H :    0.154738
  52 H :    0.161051
  53 H :    0.118448
  54 H :    0.130945
  55 H :    0.131354
  56 H :    0.121057
  57 H :    0.317707
  58 H :    0.146424
  59 H :    0.134615
  60 H :    0.135409
  61 H :    0.141314

  Mayer bond orders larger than 0.100000
B(  0-C ,  1-C ) :   1.0093 B(  0-C , 39-H ) :   0.9274 B(  0-C , 40-H ) :   0.9187
B(  0-C , 41-H ) :   0.9173 B(  1-C ,  2-C ) :   1.4426 B(  1-C , 38-C ) :   1.2564
B(  2-C ,  3-N ) :   0.8898 B(  2-C , 28-N ) :   1.2637 B(  3-N ,  4-C ) :   0.9210
B(  3-N , 16-S ) :   0.7964 B(  4-C ,  5-C ) :   0.9411 B(  4-C , 42-H ) :   0.9174
B(  4-C , 43-H ) :   0.9250 B(  5-C ,  6-C ) :   1.4421 B(  5-C , 15-C ) :   1.4227
B(  6-C ,  7-C ) :   1.4312 B(  6-C , 44-H ) :   0.9196 B(  7-C ,  8-C ) :   1.3954
B(  7-C , 45-H ) :   0.9096 B(  8-C ,  9-O ) :   0.8223 B(  8-C , 14-C ) :   1.4156
B(  9-O , 10-C ) :   0.9911 B( 10-C , 11-F ) :   0.9696 B( 10-C , 12-F ) :   1.0077
B( 10-C , 13-F ) :   0.9687 B( 14-C , 15-C ) :   1.4406 B( 14-C , 46-H ) :   0.9188
B( 15-C , 47-H ) :   0.9203 B( 16-S , 17-O ) :   1.6255 B( 16-S , 18-O ) :   1.6482
B( 16-S , 19-C ) :   0.8083 B( 19-C , 20-C ) :   1.3754 B( 19-C , 27-C ) :   1.4035
B( 20-C , 21-C ) :   1.4344 B( 20-C , 48-H ) :   0.9028 B( 21-C , 22-C ) :   1.3965
B( 21-C , 49-H ) :   0.9103 B( 22-C , 23-C ) :   1.0079 B( 22-C , 26-C ) :   1.3889
B( 23-C , 24-O ) :   1.8619 B( 23-C , 25-O ) :   1.0252 B( 25-O , 50-H ) :   0.7417
B( 26-C , 27-C ) :   1.4076 B( 26-C , 51-H ) :   0.9149 B( 27-C , 52-H ) :   0.9084
B( 28-N , 29-C ) :   1.4568 B( 29-C , 30-C ) :   0.9795 B( 29-C , 33-C ) :   1.2363
B( 30-C , 31-C ) :   0.9779 B( 30-C , 32-O ) :   0.9250 B( 30-C , 53-H ) :   0.9231
B( 31-C , 54-H ) :   0.9380 B( 31-C , 55-H ) :   0.9398 B( 31-C , 56-H ) :   0.9442
B( 32-O , 57-H ) :   0.7835 B( 33-C , 34-C ) :   1.3044 B( 33-C , 38-C ) :   1.2795
B( 34-C , 35-C ) :   1.5030 B( 34-C , 37-C ) :   0.1042 B( 34-C , 58-H ) :   0.8997
B( 35-C , 36-C ) :   1.3573 B( 35-C , 59-H ) :   0.9297 B( 36-C , 37-C ) :   1.5074
B( 36-C , 60-H ) :   0.9291 B( 37-C , 38-C ) :   1.2943 B( 37-C , 61-H ) :   0.9152

FINAL SINGLE POINT ENERGY     -2300.066873853858

DIPOLE MOMENT
-------------

Method             : SCF
Type of density    : Electron Density
Multiplicity       :   1
Irrep              :   0
Energy             : -2300.0668738538579419 Eh
Relativity type    :
Basis              : AO
                                X                 Y                 Z
Electronic contribution:    -49.529471941      21.966021069       7.788365351
Nuclear contribution   :     50.651286402     -23.201070785      -6.674427523
                        -----------------------------------------
Total Dipole Moment    :      1.121814461      -1.235049716       1.113937828
                        -----------------------------------------
Magnitude (a.u.)       :      2.006158761
Magnitude (Debye)      :      5.099250325

Rotational constants in cm-1:             0.002842             0.001847             0.001251
Rotational constants in MHz :            85.186027            55.371801            37.494145

                             ****ORCA TERMINATED NORMALLY****
TOTAL RUN TIME: 0 days 0 hours 8 minutes 9 seconds 540 msec
