                         Program Version 6.0.0  -   RELEASE  -
|  1> ! B3LYP 6-31G* SP
|  2>
|  3> * xyz 0 1
|  4> C -2.2882 -1.7285 2.7334
|  5> C -1.6065 -0.5905 1.9790
|  6> N -1.3832 -0.9570 0.5678
|  7> C -0.4953 -2.0480 0.2517
|  8> O -0.8643 -2.9262 -0.5749
|  9> C 0.8341 -2.1745 0.8918
| 10> C 1.2989 -3.4478 1.2620
| 11> C 2.5525 -3.5991 1.8565
| 12> C 3.3592 -2.4839 2.0788
| 13> C 2.9196 -1.2139 1.7006
| 14> C 1.6583 -1.0455 1.0943
| 15> O 1.2021 0.2148 0.6697
| 16> C 1.9568 1.4261 0.7025
| 17> C 3.0636 1.3978 -0.3261
| 18> C 2.7712 0.9446 -1.6258
| 19> C 3.7622 0.9182 -2.6093
| 20> C 5.0528 1.3570 -2.3134
| 21> C 5.3538 1.8307 -1.0350
| 22> C 4.3687 1.8625 -0.0397
| 23> Cl 4.8151 2.4993 1.5403
| 24> C -2.0970 -0.2738 -0.5304
| 25> C -3.6214 -0.4167 -0.3807
| 26> C -4.3825 0.1845 -1.5801
| 27> C -3.5858 1.2541 -2.3542
| 28> C -2.6528 2.0903 -1.4511
| 29> N -3.4146 2.9692 -0.5572
| 30> C -1.6657 1.2088 -0.6416
| 31> H -2.4915 -1.4134 3.7785
| 32> H -3.2504 -1.9895 2.2448
| 33> H -1.6341 -2.6255 2.7559
| 34> H -0.6432 -0.3486 2.4730
| 35> H -2.2454 0.3127 2.0624
| 36> H 0.6836 -4.3250 1.1026
| 37> H 2.8984 -4.5828 2.1465
| 38> H 4.3306 -2.6040 2.5412
| 39> H 3.5724 -0.3722 1.8799
| 40> H 2.3226 1.6005 1.7343
| 41> H 1.2772 2.2679 0.4547
| 42> H 1.7736 0.6065 -1.8778
| 43> H 3.5280 0.5596 -3.6033
| 44> H 5.8194 1.3369 -3.0772
| 45> H 6.3560 2.1790 -0.8193
| 46> H -1.8258 -0.7578 -1.4970
| 47> H -3.9606 0.0856 0.5493
| 48> H -3.8834 -1.4930 -0.2857
| 49> H -5.3352 0.6275 -1.2161
| 50> H -4.6542 -0.6294 -2.2872
| 51> H -4.2904 1.9214 -2.8963
| 52> H -2.9645 0.7489 -3.1264
| 53> H -2.0470 2.7441 -2.1181
| 54> H -4.0531 2.4036 0.0456
| 55> H -4.0111 3.6047 -1.1355
| 56> H -0.6726 1.2343 -1.1414
| 57> H -1.5108 1.6555 0.3630
| 58> *
| 59>
| 60>                          ****END OF INPUT****

CARTESIAN COORDINATES (ANGSTROEM)
---------------------------------
  C     -2.288200   -1.728500    2.733400
  C     -1.606500   -0.590500    1.979000
  N     -1.383200   -0.957000    0.567800
  C     -0.495300   -2.048000    0.251700
  O     -0.864300   -2.926200   -0.574900
  C      0.834100   -2.174500    0.891800
  C      1.298900   -3.447800    1.262000
  C      2.552500   -3.599100    1.856500
  C      3.359200   -2.483900    2.078800
  C      2.919600   -1.213900    1.700600
  C      1.658300   -1.045500    1.094300
  O      1.202100    0.214800    0.669700
  C      1.956800    1.426100    0.702500
  C      3.063600    1.397800   -0.326100
  C      2.771200    0.944600   -1.625800
  C      3.762200    0.918200   -2.609300
  C      5.052800    1.357000   -2.313400
  C      5.353800    1.830700   -1.035000
  C      4.368700    1.862500   -0.039700
  Cl     4.815100    2.499300    1.540300
  C     -2.097000   -0.273800   -0.530400
  C     -3.621400   -0.416700   -0.380700
  C     -4.382500    0.184500   -1.580100
  C     -3.585800    1.254100   -2.354200
  C     -2.652800    2.090300   -1.451100
  N     -3.414600    2.969200   -0.557200
  C     -1.665700    1.208800   -0.641600
  H     -2.491500   -1.413400    3.778500
  H     -3.250400   -1.989500    2.244800
  H     -1.634100   -2.625500    2.755900
  H     -0.643200   -0.348600    2.473000
  H     -2.245400    0.312700    2.062400
  H      0.683600   -4.325000    1.102600
  H      2.898400   -4.582800    2.146500
  H      4.330600   -2.604000    2.541200
  H      3.572400   -0.372200    1.879900
  H      2.322600    1.600500    1.734300
  H      1.277200    2.267900    0.454700
  H      1.773600    0.606500   -1.877800
  H      3.528000    0.559600   -3.603300
  H      5.819400    1.336900   -3.077200
  H      6.356000    2.179000   -0.819300
  H     -1.825800   -0.757800   -1.497000
  H     -3.960600    0.085600    0.549300
  H     -3.883400   -1.493000   -0.285700
  H     -5.335200    0.627500   -1.216100
  H     -4.654200   -0.629400   -2.287200
  H     -4.290400    1.921400   -2.896300
  H     -2.964500    0.748900   -3.126400
  H     -2.047000    2.744100   -2.118100
  H     -4.053100    2.403600    0.045600
  H     -4.011100    3.604700   -1.135500
  H     -0.672600    1.234300   -1.141400
  H     -1.510800    1.655500    0.363000

 Total Charge           Charge          ....    0
 Multiplicity           Mult            ....    1
 Number of Electrons    NEL             ....  206
 Basis Dimension        Dim             ....  436

ORBITAL ENERGIES
----------------

  NO   OCC          E(Eh)            E(eV)
   0   2.0000    -101.536507     -2762.9488
   1   2.0000     -19.172358      -521.7064
   2   2.0000     -19.101227      -519.7708
   3   2.0000     -14.325241      -389.8096
   4   2.0000     -14.301070      -389.1519
   5   2.0000     -10.274759      -279.5904
   6   2.0000     -10.256575      -279.0956
   7   2.0000     -10.253879      -279.0222
   8   2.0000     -10.249508      -278.9033
   9   2.0000     -10.211553      -277.8705
  10   2.0000     -10.207859      -277.7700
  11   2.0000     -10.206442      -277.7314
  12   2.0000     -10.201306      -277.5917
  13   2.0000     -10.200050      -277.5575
  14   2.0000     -10.196508      -277.4611
  15   2.0000     -10.196058      -277.4489
  16   2.0000     -10.193596      -277.3818
  17   2.0000     -10.193311      -277.3741
  18   2.0000     -10.188311      -277.2380
  19   2.0000     -10.187234      -277.2087
  20   2.0000     -10.184606      -277.1372
  21   2.0000     -10.177907      -276.9549
  22   2.0000     -10.171783      -276.7883
  23   2.0000     -10.169055      -276.7140
  24   2.0000     -10.168013      -276.6857
  25   2.0000     -10.166353      -276.6405
  26   2.0000     -10.164397      -276.5873
  27   2.0000      -9.468080      -257.6396
  28   2.0000      -7.231064      -196.7672
  29   2.0000      -7.221756      -196.5140
  30   2.0000      -7.221413      -196.5046
  31   2.0000      -1.052387       -28.6369
  32   2.0000      -0.998254       -27.1639
  33   2.0000      -0.900297       -24.4983
  34   2.0000      -0.894400       -24.3379
  35   2.0000      -0.874912       -23.8076
  36   2.0000      -0.853186       -23.2164
  37   2.0000      -0.838995       -22.8302
  38   2.0000      -0.794890       -21.6301
  39   2.0000      -0.784941       -21.3593
  40   2.0000      -0.757688       -20.6177
  41   2.0000      -0.745268       -20.2798
  42   2.0000      -0.744448       -20.2575
  43   2.0000      -0.738061       -20.0837
  44   2.0000      -0.718349       -19.5473
  45   2.0000      -0.706747       -19.2316
  46   2.0000      -0.689852       -18.7718
  47   2.0000      -0.637512       -17.3476
  48   2.0000      -0.620711       -16.8904
  49   2.0000      -0.619577       -16.8595
  50   2.0000      -0.604530       -16.4501
  51   2.0000      -0.597943       -16.2709
  52   2.0000      -0.595228       -16.1970
  53   2.0000      -0.584748       -15.9118
  54   2.0000      -0.547320       -14.8933
  55   2.0000      -0.527444       -14.3525
  56   2.0000      -0.517199       -14.0737
  57   2.0000      -0.514730       -14.0065
  58   2.0000      -0.497808       -13.5460
  59   2.0000      -0.491656       -13.3786
  60   2.0000      -0.485062       -13.1992
  61   2.0000      -0.478599       -13.0233
  62   2.0000      -0.472450       -12.8560
  63   2.0000      -0.462079       -12.5738
  64   2.0000      -0.456319       -12.4171
  65   2.0000      -0.452531       -12.3140
  66   2.0000      -0.445255       -12.1160
  67   2.0000      -0.441613       -12.0169
  68   2.0000      -0.436750       -11.8846
  69   2.0000      -0.433907       -11.8072
  70   2.0000      -0.430478       -11.7139
  71   2.0000      -0.424591       -11.5537
  72   2.0000      -0.419815       -11.4237
  73   2.0000      -0.402944       -10.9647
  74   2.0000      -0.396066       -10.7775
  75   2.0000      -0.390487       -10.6257
  76   2.0000      -0.387905       -10.5554
  77   2.0000      -0.382241       -10.4013
  78   2.0000      -0.376674       -10.2498
  79   2.0000      -0.371821       -10.1178
  80   2.0000      -0.368649       -10.0314
  81   2.0000      -0.366539        -9.9740
  82   2.0000      -0.363423        -9.8893
  83   2.0000      -0.361730        -9.8432
  84   2.0000      -0.354769        -9.6538
  85   2.0000      -0.352545        -9.5932
  86   2.0000      -0.346480        -9.4282
  87   2.0000      -0.340463        -9.2645
  88   2.0000      -0.337198        -9.1756
  89   2.0000      -0.333444        -9.0735
  90   2.0000      -0.326075        -8.8729
  91   2.0000      -0.317553        -8.6411
  92   2.0000      -0.312739        -8.5101
  93   2.0000      -0.310857        -8.4588
  94   2.0000      -0.300324        -8.1722
  95   2.0000      -0.297158        -8.0861
  96   2.0000      -0.259004        -7.0479
  97   2.0000      -0.254561        -6.9269
  98   2.0000      -0.248446        -6.7606
  99   2.0000      -0.233515        -6.3543
 100   2.0000      -0.223721        -6.0878
 101   2.0000      -0.221800        -6.0355
 102   2.0000      -0.201096        -5.4721
 103   0.0000      -0.034282        -0.9329
 104   0.0000      -0.019810        -0.5391
 105   0.0000      -0.015329        -0.4171
 106   0.0000       0.005402         0.1470
 107   0.0000       0.025170         0.6849

MULLIKEN ATOMIC CHARGES
-----------------------
   0 C :   -0.432799
   1 C :   -0.142581
   2 N :   -0.396159
   3 C :    0.431430
   4 O :   -0.465036
   5 C :    0.034405
   6 C :   -0.149936
   7 C :   -0.136793
   8 C :   -0.117531
   9 C :   -0.201754
  10 C :    0.332612
  11 O :   -0.517538
  12 C :   -0.113070
  13 C :    0.106077
  14 C :   -0.149950
  15 C :   -0.125989
  16 C :   -0.113558
  17 C :   -0.129170
  18 C :   -0.124535
  19 Cl:   -0.016235
  20 C :    0.036006
  21 C :   -0.275083
  22 C :   -0.272112
  23 C :   -0.264303
  24 C :    0.028459
  25 N :   -0.710219
  26 C :   -0.282330
  27 H :    0.133055
  28 H :    0.153627
  29 H :    0.150629
  30 H :    0.148257
  31 H :    0.145861
  32 H :    0.156434
  33 H :    0.129671
  34 H :    0.136406
  35 H :    0.150482
  36 H :    0.163784
  37 H :    0.180870
  38 H :    0.160096
  39 H :    0.139840
  40 H :    0.140456
  41 H :    0.152011
  42 H :    0.152813
  43 H :    0.117835
  44 H :    0.155855
  45 H :    0.122895
  46 H :    0.140785
  47 H :    0.120467
  48 H :    0.124985
  49 H :    0.122034
  50 H :    0.289846
  51 H :    0.287399
  52 H :    0.137903
  53 H :    0.153398
Sum of atomic charges:    0.0000000

LOEWDIN ATOMIC CHARGES
----------------------
   0 C :   -0.366688
   1 C :   -0.157790
   2 N :   -0.108646
   3 C :    0.144947
   4 O :   -0.271946
   5 C :   -0.073676
   6 C :   -0.092206
   7 C :   -0.147293
   8 C :   -0.110368
   9 C :   -0.170118
  10 C :    0.099807
  11 O :   -0.176270
  12 C :   -0.088656
  13 C :   -0.046533
  14 C :   -0.114480
  15 C :   -0.123278
  16 C :   -0.122063
  17 C :   -0.131249
  18 C :   -0.091720
  19 Cl:    0.029966
  20 C :   -0.048450
  21 C :   -0.239800
  22 C :   -0.237912
  23 C :   -0.245253
  24 C :   -0.079784
  25 N :   -0.468180
  26 C :   -0.234907
  27 H :    0.121092
  28 H :    0.127383
  29 H :    0.126874
  30 H :    0.122549
  31 H :    0.124461
  32 H :    0.148702
  33 H :    0.132834
  34 H :    0.135718
  35 H :    0.142661
  36 H :    0.129633
  37 H :    0.145767
  38 H :    0.145064
  39 H :    0.137093
  40 H :    0.138245
  41 H :    0.144252
  42 H :    0.134899
  43 H :    0.108200
  44 H :    0.132369
  45 H :    0.113636
  46 H :    0.124732
  47 H :    0.115895
  48 H :    0.114624
  49 H :    0.115560
  50 H :    0.218097
  51 H :    0.219739
  52 H :    0.121661
  53 H :    0.130807

  Mayer bond orders larger than 0.100000
B(  0-C ,  1-C ) :   1.0041 B(  0-C , 27-H ) :   0.9443 B(  0-C , 28-H ) :   0.9469
B(  0-C , 29-H ) :   0.9465 B(  1-C ,  2-N ) :   0.9490 B(  1-C , 30-H ) :   0.9239
B(  1-C , 31-H ) :   0.9331 B(  2-N ,  3-C ) :   1.0593 B(  2-N , 20-C ) :   0.9415
B(  3-C ,  4-O ) :   1.8224 B(  3-C ,  5-C ) :   0.9465 B(  5-C ,  6-C ) :   1.4113
B(  5-C , 10-C ) :   1.3501 B(  6-C ,  7-C ) :   1.4384 B(  6-C , 32-H ) :   0.9168
B(  7-C ,  8-C ) :   1.4383 B(  7-C , 33-H ) :   0.9299 B(  8-C ,  9-C ) :   1.4501
B(  8-C , 34-H ) :   0.9291 B(  9-C , 10-C ) :   1.3585 B(  9-C , 35-H ) :   0.9109
B( 10-C , 11-O ) :   0.9017 B( 11-O , 12-C ) :   0.9028 B( 12-C , 13-C ) :   0.9676
B( 12-C , 36-H ) :   0.9125 B( 12-C , 37-H ) :   0.9175 B( 13-C , 14-C ) :   1.4242
B( 13-C , 18-C ) :   1.3837 B( 14-C , 15-C ) :   1.4466 B( 14-C , 38-H ) :   0.9134
B( 15-C , 16-C ) :   1.4433 B( 15-C , 39-H ) :   0.9280 B( 16-C , 17-C ) :   1.4608
B( 16-C , 40-H ) :   0.9279 B( 17-C , 18-C ) :   1.4046 B( 17-C , 41-H ) :   0.9229
B( 18-C , 19-Cl) :   1.0162 B( 20-C , 21-C ) :   0.9993 B( 20-C , 26-C ) :   0.9826
B( 20-C , 42-H ) :   0.9171 B( 21-C , 22-C ) :   0.9858 B( 21-C , 43-H ) :   0.9348
B( 21-C , 44-H ) :   0.9372 B( 22-C , 23-C ) :   0.9999 B( 22-C , 45-H ) :   0.9463
B( 22-C , 46-H ) :   0.9460 B( 23-C , 24-C ) :   0.9898 B( 23-C , 47-H ) :   0.9407
B( 23-C , 48-H ) :   0.9333 B( 24-C , 25-N ) :   1.0114 B( 24-C , 26-C ) :   0.9625
B( 24-C , 49-H ) :   0.9383 B( 25-N , 50-H ) :   0.8554 B( 25-N , 51-H ) :   0.8631
B( 26-C , 52-H ) :   0.9349 B( 26-C , 53-H ) :   0.9239

FINAL SINGLE POINT ENERGY     -1573.926439040503

DIPOLE MOMENT
-------------

Method             : SCF
Type of density    : Electron Density
Multiplicity       :   1
Irrep              :   0
Energy             : -1573.9264390405030554 Eh
Relativity type    :
Basis              : AO
                                X                 Y                 Z
Electronic contribution:     40.699974192       2.868817034       6.055333302
Nuclear contribution   :    -40.405188094      -2.144973643      -6.140921949
                        -----------------------------------------
Total Dipole Moment    :      0.294786098       0.723843392      -0.085588648
                        -----------------------------------------
Magnitude (a.u.)       :      0.786240113
Magnitude (Debye)      :      1.998463547

Rotational constants in cm-1:             0.007651             0.003959             0.003142
Rotational constants in MHz :           229.378544           118.699289            94.199864

                             ****ORCA TERMINATED NORMALLY****
TOTAL RUN TIME: 0 days 0 hours 7 minutes 52 seconds 880 msec
