                         Program Version 6.0.0  -   RELEASE  -
|  1> ! B3LYP 6-31G* SP
|  2>
|  3> * xyz 0 1
|  4> C 1.3213 3.2669 -0.3430
|  5> O 0.5400 2.1079 -0.0735
|  6> C 1.0486 0.7995 -0.0309
|  7> C 2.4210 0.5258 -0.2637
|  8> C 2.8387 -0.7998 -0.2050
|  9> N 4.0726 -1.2946 -0.3860
| 10> N 4.0218 -2.6137 -0.2333
| 11> C 2.7429 -2.9639 0.0480
| 12> C 1.9782 -1.8183 0.0687
| 13> C 0.6269 -1.6027 0.3059
| 14> C 0.1532 -0.2734 0.2473
| 15> C -1.2761 -0.0018 0.5052
| 16> C -1.6290 0.5673 1.7393
| 17> C -2.9658 0.8174 2.0482
| 18> C -3.9652 0.4982 1.1311
| 19> C -3.6320 -0.0601 -0.1047
| 20> C -2.2860 -0.2996 -0.4485
| 21> C -1.9514 -0.9005 -1.8007
| 22> F -3.0237 -0.8145 -2.6724
| 23> F -0.8864 -0.2305 -2.3761
| 24> F -1.6204 -2.2333 -1.6446
| 25> H 1.7770 3.1937 -1.3530
| 26> H 0.6653 4.1608 -0.3131
| 27> H 2.1132 3.3809 0.4272
| 28> H 3.1357 1.3076 -0.4813
| 29> H 4.9389 -0.7556 -0.6079
| 30> H 2.4039 -3.9762 0.2231
| 31> H -0.0341 -2.4299 0.5336
| 32> H -0.8649 0.8079 2.4689
| 33> H -3.2279 1.2516 3.0044
| 34> H -5.0027 0.6836 1.3779
| 35> H -4.4335 -0.3007 -0.7911
| 36> *
| 37>
| 38>                          ****END OF INPUT****

CARTESIAN COORDINATES (ANGSTROEM)
---------------------------------
  C      1.321300    3.266900   -0.343000
  O      0.540000    2.107900   -0.073500
  C      1.048600    0.799500   -0.030900
  C      2.421000    0.525800   -0.263700
  C      2.838700   -0.799800   -0.205000
  N      4.072600   -1.294600   -0.386000
  N      4.021800   -2.613700   -0.233300
  C      2.742900   -2.963900    0.048000
  C      1.978200   -1.818300    0.068700
  C      0.626900   -1.602700    0.305900
  C      0.153200   -0.273400    0.247300
  C     -1.276100   -0.001800    0.505200
  C     -1.629000    0.567300    1.739300
  C     -2.965800    0.817400    2.048200
  C     -3.965200    0.498200    1.131100
  C     -3.632000   -0.060100   -0.104700
  C     -2.286000   -0.299600   -0.448500
  C     -1.951400   -0.900500   -1.800700
  F     -3.023700   -0.814500   -2.672400
  F     -0.886400   -0.230500   -2.376100
  F     -1.620400   -2.233300   -1.644600
  H      1.777000    3.193700   -1.353000
  H      0.665300    4.160800   -0.313100
  H      2.113200    3.380900    0.427200
  H      3.135700    1.307600   -0.481300
  H      4.938900   -0.755600   -0.607900
  H      2.403900   -3.976200    0.223100
  H     -0.034100   -2.429900    0.533600
  H     -0.864900    0.807900    2.468900
  H     -3.227900    1.251600    3.004400
  H     -5.002700    0.683600    1.377900
  H     -4.433500   -0.300700   -0.791100

 Total Charge           Charge          ....    0
 Multiplicity           Mult            ....    1
 Number of Electrons    NEL             ....  150
 Basis Dimension        Dim             ....  316

ORBITAL ENERGIES
----------------

  NO   OCC          E(Eh)            E(eV)
   0   2.0000     -24.712657      -672.4656
   1   2.0000     -24.709032      -672.3670
   2   2.0000     -24.706358      -672.2942
   3   2.0000     -19.167147      -521.5646
   4   2.0000     -14.398231      -391.7958
   5   2.0000     -14.342904      -390.2903
   6   2.0000     -10.425708      -283.6979
   7   2.0000     -10.252029      -278.9719
   8   2.0000     -10.239324      -278.6262
   9   2.0000     -10.209938      -277.8265
  10   2.0000     -10.206316      -277.7280
  11   2.0000     -10.203387      -277.6483
  12   2.0000     -10.193289      -277.3735
  13   2.0000     -10.191327      -277.3201
  14   2.0000     -10.190972      -277.3105
  15   2.0000     -10.188744      -277.2498
  16   2.0000     -10.187396      -277.2132
  17   2.0000     -10.186476      -277.1881
  18   2.0000     -10.186443      -277.1872
  19   2.0000     -10.183831      -277.1161
  20   2.0000     -10.165499      -276.6173
  21   2.0000      -1.270433       -34.5702
  22   2.0000      -1.196296       -32.5529
  23   2.0000      -1.193334       -32.4723
  24   2.0000      -1.050062       -28.5736
  25   2.0000      -1.043949       -28.4073
  26   2.0000      -0.870169       -23.6785
  27   2.0000      -0.848729       -23.0951
  28   2.0000      -0.818781       -22.2802
  29   2.0000      -0.785550       -21.3759
  30   2.0000      -0.771530       -20.9944
  31   2.0000      -0.748161       -20.3585
  32   2.0000      -0.726704       -19.7746
  33   2.0000      -0.698678       -19.0120
  34   2.0000      -0.685531       -18.6542
  35   2.0000      -0.640040       -17.4164
  36   2.0000      -0.615601       -16.7514
  37   2.0000      -0.612282       -16.6610
  38   2.0000      -0.602106       -16.3841
  39   2.0000      -0.582858       -15.8604
  40   2.0000      -0.561187       -15.2707
  41   2.0000      -0.557025       -15.1574
  42   2.0000      -0.548172       -14.9165
  43   2.0000      -0.545132       -14.8338
  44   2.0000      -0.504933       -13.7399
  45   2.0000      -0.497364       -13.5340
  46   2.0000      -0.476905       -12.9772
  47   2.0000      -0.466893       -12.7048
  48   2.0000      -0.464839       -12.6489
  49   2.0000      -0.456203       -12.4139
  50   2.0000      -0.447139       -12.1673
  51   2.0000      -0.446199       -12.1417
  52   2.0000      -0.444467       -12.0946
  53   2.0000      -0.442886       -12.0515
  54   2.0000      -0.435733       -11.8569
  55   2.0000      -0.434623       -11.8267
  56   2.0000      -0.419714       -11.4210
  57   2.0000      -0.410257       -11.1637
  58   2.0000      -0.404647       -11.0110
  59   2.0000      -0.399148       -10.8614
  60   2.0000      -0.388473       -10.5709
  61   2.0000      -0.386393       -10.5143
  62   2.0000      -0.368142       -10.0177
  63   2.0000      -0.361720        -9.8429
  64   2.0000      -0.357024        -9.7151
  65   2.0000      -0.348975        -9.4961
  66   2.0000      -0.343392        -9.3442
  67   2.0000      -0.318155        -8.6574
  68   2.0000      -0.308014        -8.3815
  69   2.0000      -0.278558        -7.5799
  70   2.0000      -0.270989        -7.3740
  71   2.0000      -0.257017        -6.9938
  72   2.0000      -0.251666        -6.8482
  73   2.0000      -0.221291        -6.0216
  74   2.0000      -0.202328        -5.5056
  75   0.0000      -0.022223        -0.6047
  76   0.0000      -0.019885        -0.5411
  77   0.0000      -0.004015        -0.1092
  78   0.0000       0.029469         0.8019
  79   0.0000       0.066209         1.8016

MULLIKEN ATOMIC CHARGES
-----------------------
   0 C :   -0.192387
   1 O :   -0.509124
   2 C :    0.338463
   3 C :   -0.262151
   4 C :    0.374106
   5 N :   -0.516859
   6 N :   -0.236202
   7 C :   -0.052812
   8 C :    0.090910
   9 C :   -0.219388
  10 C :   -0.052157
  11 C :    0.055568
  12 C :   -0.137479
  13 C :   -0.124514
  14 C :   -0.118130
  15 C :   -0.181418
  16 C :   -0.044386
  17 C :    0.919848
  18 F :   -0.307506
  19 F :   -0.302786
  20 F :   -0.301351
  21 H :    0.147997
  22 H :    0.171435
  23 H :    0.142929
  24 H :    0.123511
  25 H :    0.346003
  26 H :    0.147355
  27 H :    0.143409
  28 H :    0.140095
  29 H :    0.133523
  30 H :    0.133999
  31 H :    0.149498
Sum of atomic charges:    0.0000000

LOEWDIN ATOMIC CHARGES
----------------------
   0 C :   -0.197761
   1 O :   -0.189636
   2 C :    0.097293
   3 C :   -0.201252
   4 C :    0.004442
   5 N :   -0.078669
   6 N :   -0.127404
   7 C :   -0.125685
   8 C :   -0.073002
   9 C :   -0.105215
  10 C :   -0.051759
  11 C :    0.012183
  12 C :   -0.113508
  13 C :   -0.117213
  14 C :   -0.130792
  15 C :   -0.116591
  16 C :   -0.068157
  17 C :    0.313267
  18 F :   -0.113388
  19 F :   -0.109128
  20 F :   -0.113259
  21 H :    0.117009
  22 H :    0.136578
  23 H :    0.114303
  24 H :    0.132913
  25 H :    0.270999
  26 H :    0.140553
  27 H :    0.142774
  28 H :    0.139370
  29 H :    0.134080
  30 H :    0.134751
  31 H :    0.141902

  Mayer bond orders larger than 0.100000
B(  0-C ,  1-O ) :   0.9216 B(  0-C , 21-H ) :   0.9293 B(  0-C , 22-H ) :   0.9449
B(  0-C , 23-H ) :   0.9299 B(  1-O ,  2-C ) :   0.9375 B(  2-C ,  3-C ) :   1.3848
B(  2-C , 10-C ) :   1.2878 B(  3-C ,  4-C ) :   1.3042 B(  3-C ,  9-C ) :   0.1024
B(  3-C , 24-H ) :   0.9117 B(  4-C ,  5-N ) :   0.9377 B(  4-C ,  8-C ) :   1.3369
B(  5-N ,  6-N ) :   1.2087 B(  5-N , 25-H ) :   0.8340 B(  6-N ,  7-C ) :   1.5109
B(  7-C ,  8-C ) :   1.2535 B(  7-C , 26-H ) :   0.9338 B(  8-C ,  9-C ) :   1.2947
B(  9-C , 10-C ) :   1.4786 B(  9-C , 27-H ) :   0.9168 B( 10-C , 11-C ) :   0.9508
B( 11-C , 12-C ) :   1.4235 B( 11-C , 16-C ) :   1.4108 B( 12-C , 13-C ) :   1.4310
B( 12-C , 28-H ) :   0.9246 B( 13-C , 14-C ) :   1.4484 B( 13-C , 29-H ) :   0.9286
B( 14-C , 15-C ) :   1.4374 B( 14-C , 30-H ) :   0.9300 B( 15-C , 16-C ) :   1.3886
B( 15-C , 31-H ) :   0.9198 B( 16-C , 17-C ) :   0.9746 B( 17-C , 18-F ) :   0.9413
B( 17-C , 19-F ) :   0.9431 B( 17-C , 20-F ) :   0.9561

FINAL SINGLE POINT ENERGY     -1061.851269050323

DIPOLE MOMENT
-------------

Method             : SCF
Type of density    : Electron Density
Multiplicity       :   1
Irrep              :   0
Energy             : -1061.8512690503230260 Eh
Relativity type    :
Basis              : AO
                                X                 Y                 Z
Electronic contribution:     -7.315058061     -11.186376739     -12.262272629
Nuclear contribution   :      7.502026824      12.581501793      12.936936855
                        -----------------------------------------
Total Dipole Moment    :      0.186968763       1.395125054       0.674664226
                        -----------------------------------------
Magnitude (a.u.)       :      1.560930188
Magnitude (Debye)      :      3.967569230

Rotational constants in cm-1:             0.015800             0.007782             0.006704
Rotational constants in MHz :           473.676534           233.290000           200.982980

                             ****ORCA TERMINATED NORMALLY****
TOTAL RUN TIME: 0 days 0 hours 4 minutes 8 seconds 620 msec
