                         Program Version 6.0.0  -   RELEASE  -
|  1> ! B3LYP 6-31G* SP
|  2>
|  3> * xyz 0 1
|  4> C -4.0230 1.9126 -2.2626
|  5> N -4.1232 0.8199 -1.2788
|  6> C -3.5292 0.9489 -0.0436
|  7> O -2.9171 2.0077 0.2614
|  8> C -3.6066 -0.1101 0.8692
|  9> C -3.0667 -0.2184 2.1867
| 10> C -2.2324 0.8269 2.8705
| 11> C -0.8010 0.7027 2.4445
| 12> O -0.3710 1.4207 1.5018
| 13> N 0.0587 -0.2495 3.0901
| 14> C 1.3990 -0.5251 2.6649
| 15> N 1.9494 -0.0395 1.5323
| 16> C 3.2316 -0.4654 1.3575
| 17> C 4.0315 -0.0638 0.1683
| 18> C 5.1711 -0.7966 -0.2167
| 19> C 5.9066 -0.4337 -1.3476
| 20> C 5.5102 0.6581 -2.1352
| 21> C 6.3142 1.0810 -3.3388
| 22> F 7.0866 0.0364 -3.8172
| 23> F 5.4700 1.4956 -4.3539
| 24> F 7.1444 2.1280 -2.9872
| 25> C 4.3914 1.4076 -1.7423
| 26> C 3.6532 1.0501 -0.6098
| 27> F 2.5828 1.8129 -0.2703
| 28> C 3.7006 -1.3044 2.3753
| 29> S 2.4680 -1.5089 3.5023
| 30> N -3.2962 -1.4104 2.8076
| 31> S -4.1787 -2.3309 1.7388
| 32> C -4.2805 -1.2457 0.4791
| 33> N -4.8657 -1.3911 -0.7396
| 34> C -5.5198 -2.6524 -1.1156
| 35> C -4.7538 -0.3555 -1.6348
| 36> O -5.2278 -0.4841 -2.7991
| 37> H -4.9566 1.9924 -2.8601
| 38> H -3.8840 2.8988 -1.7701
| 39> H -3.1684 1.7227 -2.9454
| 40> H -2.6199 1.8461 2.6691
| 41> H -2.2971 0.6851 3.9707
| 42> H -0.3061 -0.7675 3.9209
| 43> H 5.4936 -1.6642 0.3415
| 44> H 6.7828 -1.0143 -1.6077
| 45> H 4.0882 2.2757 -2.3150
| 46> H 4.6854 -1.7418 2.4542
| 47> H -6.3595 -2.4707 -1.8210
| 48> H -5.9563 -3.1583 -0.2286
| 49> H -4.7786 -3.3277 -1.5941
| 50> *
| 51>
| 52>                          ****END OF INPUT****

CARTESIAN COORDINATES (ANGSTROEM)
---------------------------------
  C     -4.023000    1.912600   -2.262600
  N     -4.123200    0.819900   -1.278800
  C     -3.529200    0.948900   -0.043600
  O     -2.917100    2.007700    0.261400
  C     -3.606600   -0.110100    0.869200
  C     -3.066700   -0.218400    2.186700
  C     -2.232400    0.826900    2.870500
  C     -0.801000    0.702700    2.444500
  O     -0.371000    1.420700    1.501800
  N      0.058700   -0.249500    3.090100
  C      1.399000   -0.525100    2.664900
  N      1.949400   -0.039500    1.532300
  C      3.231600   -0.465400    1.357500
  C      4.031500   -0.063800    0.168300
  C      5.171100   -0.796600   -0.216700
  C      5.906600   -0.433700   -1.347600
  C      5.510200    0.658100   -2.135200
  C      6.314200    1.081000   -3.338800
  F      7.086600    0.036400   -3.817200
  F      5.470000    1.495600   -4.353900
  F      7.144400    2.128000   -2.987200
  C      4.391400    1.407600   -1.742300
  C      3.653200    1.050100   -0.609800
  F      2.582800    1.812900   -0.270300
  C      3.700600   -1.304400    2.375300
  S      2.468000   -1.508900    3.502300
  N     -3.296200   -1.410400    2.807600
  S     -4.178700   -2.330900    1.738800
  C     -4.280500   -1.245700    0.479100
  N     -4.865700   -1.391100   -0.739600
  C     -5.519800   -2.652400   -1.115600
  C     -4.753800   -0.355500   -1.634800
  O     -5.227800   -0.484100   -2.799100
  H     -4.956600    1.992400   -2.860100
  H     -3.884000    2.898800   -1.770100
  H     -3.168400    1.722700   -2.945400
  H     -2.619900    1.846100    2.669100
  H     -2.297100    0.685100    3.970700
  H     -0.306100   -0.767500    3.920900
  H      5.493600   -1.664200    0.341500
  H      6.782800   -1.014300   -1.607700
  H      4.088200    2.275700   -2.315000
  H      4.685400   -1.741800    2.454200
  H     -6.359500   -2.470700   -1.821000
  H     -5.956300   -3.158300   -0.228600
  H     -4.778600   -3.327700   -1.594100

 Total Charge           Charge          ....    0
 Multiplicity           Mult            ....    1
 Number of Electrons    NEL             ....  254
 Basis Dimension        Dim             ....  496

ORBITAL ENERGIES
----------------

  NO   OCC          E(Eh)            E(eV)
   0   2.0000     -88.936580     -2420.0874
   1   2.0000     -88.908698     -2419.3287
   2   2.0000     -24.717264      -672.5909
   3   2.0000     -24.714429      -672.5138
   4   2.0000     -24.712085      -672.4500
   5   2.0000     -24.690009      -671.8493
   6   2.0000     -19.125627      -520.4348
   7   2.0000     -19.113351      -520.1007
   8   2.0000     -19.112802      -520.0858
   9   2.0000     -14.427044      -392.5798
  10   2.0000     -14.402529      -391.9127
  11   2.0000     -14.392129      -391.6298
  12   2.0000     -14.371682      -391.0734
  13   2.0000     -14.323215      -389.7545
  14   2.0000     -10.431688      -283.8607
  15   2.0000     -10.340399      -281.3766
  16   2.0000     -10.300505      -280.2910
  17   2.0000     -10.297000      -280.1956
  18   2.0000     -10.289419      -279.9893
  19   2.0000     -10.286764      -279.9171
  20   2.0000     -10.276123      -279.6275
  21   2.0000     -10.262379      -279.2535
  22   2.0000     -10.252275      -278.9786
  23   2.0000     -10.230412      -278.3837
  24   2.0000     -10.221224      -278.1336
  25   2.0000     -10.214215      -277.9429
  26   2.0000     -10.213749      -277.9303
  27   2.0000     -10.213213      -277.9157
  28   2.0000     -10.212157      -277.8869
  29   2.0000     -10.209285      -277.8088
  30   2.0000     -10.201900      -277.6078
  31   2.0000     -10.200048      -277.5574
  32   2.0000     -10.198635      -277.5190
  33   2.0000      -8.010768      -217.9841
  34   2.0000      -7.986391      -217.3207
  35   2.0000      -5.975074      -162.5900
  36   2.0000      -5.969782      -162.4460
  37   2.0000      -5.966792      -162.3647
  38   2.0000      -5.949428      -161.8922
  39   2.0000      -5.945369      -161.7817
  40   2.0000      -5.943241      -161.7238
  41   2.0000      -1.275733       -34.7145
  42   2.0000      -1.202092       -32.7106
  43   2.0000      -1.201438       -32.6928
  44   2.0000      -1.199554       -32.6415
  45   2.0000      -1.081402       -29.4264
  46   2.0000      -1.026220       -27.9249
  47   2.0000      -1.017233       -27.6803
  48   2.0000      -1.003656       -27.3109
  49   2.0000      -0.974095       -26.5065
  50   2.0000      -0.971669       -26.4404
  51   2.0000      -0.945072       -25.7167
  52   2.0000      -0.913877       -24.8679
  53   2.0000      -0.872599       -23.7446
  54   2.0000      -0.827052       -22.5052
  55   2.0000      -0.816692       -22.2233
  56   2.0000      -0.813973       -22.1493
  57   2.0000      -0.796395       -21.6710
  58   2.0000      -0.765253       -20.8236
  59   2.0000      -0.755785       -20.5660
  60   2.0000      -0.748225       -20.3602
  61   2.0000      -0.734642       -19.9906
  62   2.0000      -0.714861       -19.4524
  63   2.0000      -0.690815       -18.7980
  64   2.0000      -0.666684       -18.1414
  65   2.0000      -0.651258       -17.7216
  66   2.0000      -0.635413       -17.2905
  67   2.0000      -0.631054       -17.1719
  68   2.0000      -0.610930       -16.6243
  69   2.0000      -0.600773       -16.3479
  70   2.0000      -0.596764       -16.2388
  71   2.0000      -0.578101       -15.7309
  72   2.0000      -0.566544       -15.4164
  73   2.0000      -0.564505       -15.3610
  74   2.0000      -0.562861       -15.3162
  75   2.0000      -0.551260       -15.0005
  76   2.0000      -0.534198       -14.5363
  77   2.0000      -0.523619       -14.2484
  78   2.0000      -0.519721       -14.1423
  79   2.0000      -0.508442       -13.8354
  80   2.0000      -0.497889       -13.5482
  81   2.0000      -0.494646       -13.4600
  82   2.0000      -0.486268       -13.2320
  83   2.0000      -0.478901       -13.0316
  84   2.0000      -0.475249       -12.9322
  85   2.0000      -0.469783       -12.7834
  86   2.0000      -0.459437       -12.5019
  87   2.0000      -0.453549       -12.3417
  88   2.0000      -0.450228       -12.2513
  89   2.0000      -0.444017       -12.0823
  90   2.0000      -0.443355       -12.0643
  91   2.0000      -0.441211       -12.0060
  92   2.0000      -0.438566       -11.9340
  93   2.0000      -0.437486       -11.9046
  94   2.0000      -0.429421       -11.6851
  95   2.0000      -0.422552       -11.4982
  96   2.0000      -0.417317       -11.3558
  97   2.0000      -0.416035       -11.3209
  98   2.0000      -0.413040       -11.2394
  99   2.0000      -0.407746       -11.0953
 100   2.0000      -0.406340       -11.0571
 101   2.0000      -0.401539       -10.9264
 102   2.0000      -0.394639       -10.7387
 103   2.0000      -0.393731       -10.7140
 104   2.0000      -0.389826       -10.6077
 105   2.0000      -0.386137       -10.5073
 106   2.0000      -0.384620       -10.4660
 107   2.0000      -0.377444       -10.2708
 108   2.0000      -0.376022       -10.2321
 109   2.0000      -0.371460       -10.1079
 110   2.0000      -0.365120        -9.9354
 111   2.0000      -0.358603        -9.7581
 112   2.0000      -0.344637        -9.3781
 113   2.0000      -0.341338        -9.2883
 114   2.0000      -0.327327        -8.9070
 115   2.0000      -0.308552        -8.3961
 116   2.0000      -0.294869        -8.0238
 117   2.0000      -0.283451        -7.7131
 118   2.0000      -0.281892        -7.6707
 119   2.0000      -0.273839        -7.4515
 120   2.0000      -0.268334        -7.3017
 121   2.0000      -0.261897        -7.1266
 122   2.0000      -0.252882        -6.8813
 123   2.0000      -0.249732        -6.7955
 124   2.0000      -0.249441        -6.7876
 125   2.0000      -0.226781        -6.1710
 126   2.0000      -0.214469        -5.8360
 127   0.0000      -0.051372        -1.3979
 128   0.0000      -0.046809        -1.2737
 129   0.0000      -0.036864        -1.0031
 130   0.0000      -0.021375        -0.5816
 131   0.0000      -0.007510        -0.2044

MULLIKEN ATOMIC CHARGES
-----------------------
   0 C :   -0.315456
   1 N :   -0.480147
   2 C :    0.516840
   3 O :   -0.467059
   4 C :    0.058654
   5 C :    0.177153
   6 C :   -0.404740
   7 C :    0.553153
   8 O :   -0.391140
   9 N :   -0.658284
  10 C :    0.252780
  11 N :   -0.358727
  12 C :    0.227303
  13 C :    0.041319
  14 C :   -0.171401
  15 C :   -0.174136
  16 C :    0.002079
  17 C :    0.898455
  18 F :   -0.306143
  19 F :   -0.303764
  20 F :   -0.296199
  21 C :   -0.245777
  22 C :    0.378354
  23 F :   -0.282565
  24 C :   -0.392084
  25 S :    0.251174
  26 N :   -0.497842
  27 S :    0.394525
  28 C :    0.042887
  29 N :   -0.448639
  30 C :   -0.337417
  31 C :    0.687660
  32 O :   -0.496687
  33 H :    0.189153
  34 H :    0.203344
  35 H :    0.185392
  36 H :    0.226025
  37 H :    0.162461
  38 H :    0.348564
  39 H :    0.140303
  40 H :    0.151169
  41 H :    0.167088
  42 H :    0.181603
  43 H :    0.216442
  44 H :    0.181049
  45 H :    0.193277
Sum of atomic charges:    0.0000000

LOEWDIN ATOMIC CHARGES
----------------------
   0 C :   -0.259017
   1 N :   -0.027191
   2 C :    0.114685
   3 O :   -0.267255
   4 C :   -0.123513
   5 C :    0.044164
   6 C :   -0.242603
   7 C :    0.152260
   8 O :   -0.217135
   9 N :   -0.209109
  10 C :   -0.081770
  11 N :   -0.143744
  12 C :   -0.003028
  13 C :   -0.032483
  14 C :   -0.117089
  15 C :   -0.126142
  16 C :   -0.065582
  17 C :    0.310953
  18 F :   -0.112839
  19 F :   -0.113077
  20 F :   -0.112665
  21 C :   -0.136666
  22 C :    0.137155
  23 F :   -0.074494
  24 C :   -0.346007
  25 S :    0.389527
  26 N :   -0.338675
  27 S :    0.469090
  28 C :   -0.118851
  29 N :   -0.022733
  30 C :   -0.261063
  31 C :    0.145403
  32 O :   -0.303906
  33 H :    0.149170
  34 H :    0.157474
  35 H :    0.144551
  36 H :    0.179980
  37 H :    0.141811
  38 H :    0.268290
  39 H :    0.138659
  40 H :    0.143562
  41 H :    0.155317
  42 H :    0.159939
  43 H :    0.164534
  44 H :    0.144085
  45 H :    0.146030

  Mayer bond orders larger than 0.100000
B(  0-C ,  1-N ) :   0.9142 B(  0-C , 33-H ) :   0.9290 B(  0-C , 34-H ) :   0.9200
B(  0-C , 35-H ) :   0.9386 B(  1-N ,  2-C ) :   0.9706 B(  1-N , 31-C ) :   1.0518
B(  2-C ,  3-O ) :   1.7939 B(  2-C ,  4-C ) :   1.0778 B(  4-C ,  5-C ) :   1.2566
B(  4-C , 28-C ) :   1.3511 B(  5-C ,  6-C ) :   0.9911 B(  5-C , 26-N ) :   1.5152
B(  6-C ,  7-C ) :   0.9486 B(  6-C , 36-H ) :   0.8925 B(  6-C , 37-H ) :   0.9141
B(  7-C ,  8-O ) :   1.9212 B(  7-C ,  9-N ) :   0.9758 B(  9-N , 10-C ) :   0.9528
B(  9-N , 38-H ) :   0.8163 B( 10-C , 11-N ) :   1.5123 B( 10-C , 24-C ) :   0.1083
B( 10-C , 25-S ) :   1.1339 B( 11-N , 12-C ) :   1.2695 B( 12-C , 13-C ) :   1.0315
B( 12-C , 24-C ) :   1.5111 B( 13-C , 14-C ) :   1.3973 B( 13-C , 22-C ) :   1.2983
B( 14-C , 15-C ) :   1.4321 B( 14-C , 39-H ) :   0.9210 B( 15-C , 16-C ) :   1.4085
B( 15-C , 40-H ) :   0.9194 B( 16-C , 17-C ) :   0.9806 B( 16-C , 21-C ) :   1.3801
B( 17-C , 18-F ) :   0.9457 B( 17-C , 19-F ) :   0.9527 B( 17-C , 20-F ) :   0.9856
B( 21-C , 22-C ) :   1.3750 B( 21-C , 41-H ) :   0.9096 B( 22-C , 23-F ) :   0.9555
B( 24-C , 25-S ) :   1.1223 B( 24-C , 42-H ) :   0.9028 B( 26-N , 27-S ) :   1.0954
B( 26-N , 28-C ) :   0.1312 B( 27-S , 28-C ) :   1.1548 B( 28-C , 29-N ) :   0.9995
B( 29-N , 30-C ) :   0.9237 B( 29-N , 31-C ) :   1.0234 B( 30-C , 43-H ) :   0.9205
B( 30-C , 44-H ) :   0.9240 B( 30-C , 45-H ) :   0.9315 B( 31-C , 32-O ) :   1.7969

FINAL SINGLE POINT ENERGY     -2426.027475682786

DIPOLE MOMENT
-------------

Method             : SCF
Type of density    : Electron Density
Multiplicity       :   1
Irrep              :   0
Energy             : -2426.0274756827857345 Eh
Relativity type    :
Basis              : AO
                                X                 Y                 Z
Electronic contribution:     35.628549783       5.424985581      -6.994271997
Nuclear contribution   :    -36.862240868      -7.457246869       8.436422276
                        -----------------------------------------
Total Dipole Moment    :     -1.233691085      -2.032261288       1.442150278
                        -----------------------------------------
Magnitude (a.u.)       :      2.780625300
Magnitude (Debye)      :      7.067787827

Rotational constants in cm-1:             0.005449             0.001677             0.001425
Rotational constants in MHz :           163.354674            50.290131            42.717682

                             ****ORCA TERMINATED NORMALLY****
TOTAL RUN TIME: 0 days 0 hours 4 minutes 57 seconds 396 msec
