                         Program Version 6.0.0  -   RELEASE  -
|  1> ! B3LYP 6-31G* SP
|  2>
|  3> * xyz 0 1
|  4> C -3.0825 -1.9536 -1.2959
|  5> C -2.0970 -2.4417 -0.2570
|  6> C -1.1865 -1.5439 0.3478
|  7> N -1.0984 -0.1764 -0.0710
|  8> C -0.4465 0.1526 -1.3420
|  9> C 1.0445 0.2309 -1.1591
| 10> C 1.8141 -0.9420 -1.1370
| 11> C 3.1916 -0.8778 -0.9134
| 12> C 3.8266 0.3622 -0.7199
| 13> C 5.3059 0.4223 -0.4165
| 14> F 5.8263 1.6432 -0.8235
| 15> F 5.9683 -0.5660 -1.1233
| 16> C 5.5234 0.1713 1.0865
| 17> C 6.8015 0.7406 1.6863
| 18> C 5.4592 1.3904 1.9953
| 19> C 3.0477 1.5328 -0.7202
| 20> C 1.6698 1.4677 -0.9438
| 21> S -1.3926 1.0730 1.0986
| 22> O -0.0934 1.4827 1.7327
| 23> O -2.3132 0.5602 2.1698
| 24> C -2.1628 2.4466 0.3135
| 25> C -3.4479 2.3045 -0.2201
| 26> C -4.0635 3.3780 -0.8692
| 27> C -3.3976 4.6092 -1.0002
| 28> C -4.0419 5.7461 -1.6933
| 29> O -5.2053 5.6293 -2.1666
| 30> O -3.3682 6.9566 -1.8313
| 31> C -2.1055 4.7440 -0.4647
| 32> C -1.4931 3.6707 0.1888
| 33> N -0.3586 -1.9747 1.3355
| 34> C -0.3401 -3.2603 1.7611
| 35> C -1.1801 -4.2066 1.1707
| 36> C -1.1423 -5.5451 1.5900
| 37> C -1.9759 -6.4902 0.9930
| 38> C -2.8491 -6.1090 -0.0253
| 39> C -2.8997 -4.7791 -0.4504
| 40> C -2.0698 -3.8030 0.1436
| 41> H -3.1138 -0.8490 -1.3694
| 42> H -2.8118 -2.3645 -2.2908
| 43> H -4.1090 -2.2765 -1.0266
| 44> H -0.6849 -0.6175 -2.1076
| 45> H -0.8428 1.1137 -1.7338
| 46> H 1.3445 -1.9080 -1.2806
| 47> H 3.7608 -1.7982 -0.8801
| 48> H 5.1755 -0.7810 1.5415
| 49> H 7.4493 1.3393 1.0116
| 50> H 7.2165 0.1521 2.5306
| 51> H 5.3043 2.3716 1.4996
| 52> H 5.0820 1.1795 3.0179
| 53> H 3.5021 2.4983 -0.5383
| 54> H 1.0891 2.3818 -0.9364
| 55> H -3.9716 1.3603 -0.1365
| 56> H -5.0581 3.2424 -1.2714
| 57> H -3.7996 7.7408 -2.3054
| 58> H -1.5660 5.6782 -0.5511
| 59> H -0.4966 3.7967 0.5919
| 60> H 0.3442 -3.5437 2.5512
| 61> H -0.4663 -5.8599 2.3762
| 62> H -1.9422 -7.5219 1.3176
| 63> H -3.4889 -6.8480 -0.4898
| 64> H -3.5839 -4.5318 -1.2502
| 65> *
| 66>
| 67>                          ****END OF INPUT****

CARTESIAN COORDINATES (ANGSTROEM)
---------------------------------
  C     -3.082500   -1.953600   -1.295900
  C     -2.097000   -2.441700   -0.257000
  C     -1.186500   -1.543900    0.347800
  N     -1.098400   -0.176400   -0.071000
  C     -0.446500    0.152600   -1.342000
  C      1.044500    0.230900   -1.159100
  C      1.814100   -0.942000   -1.137000
  C      3.191600   -0.877800   -0.913400
  C      3.826600    0.362200   -0.719900
  C      5.305900    0.422300   -0.416500
  F      5.826300    1.643200   -0.823500
  F      5.968300   -0.566000   -1.123300
  C      5.523400    0.171300    1.086500
  C      6.801500    0.740600    1.686300
  C      5.459200    1.390400    1.995300
  C      3.047700    1.532800   -0.720200
  C      1.669800    1.467700   -0.943800
  S     -1.392600    1.073000    1.098600
  O     -0.093400    1.482700    1.732700
  O     -2.313200    0.560200    2.169800
  C     -2.162800    2.446600    0.313500
  C     -3.447900    2.304500   -0.220100
  C     -4.063500    3.378000   -0.869200
  C     -3.397600    4.609200   -1.000200
  C     -4.041900    5.746100   -1.693300
  O     -5.205300    5.629300   -2.166600
  O     -3.368200    6.956600   -1.831300
  C     -2.105500    4.744000   -0.464700
  C     -1.493100    3.670700    0.188800
  N     -0.358600   -1.974700    1.335500
  C     -0.340100   -3.260300    1.761100
  C     -1.180100   -4.206600    1.170700
  C     -1.142300   -5.545100    1.590000
  C     -1.975900   -6.490200    0.993000
  C     -2.849100   -6.109000   -0.025300
  C     -2.899700   -4.779100   -0.450400
  C     -2.069800   -3.803000    0.143600
  H     -3.113800   -0.849000   -1.369400
  H     -2.811800   -2.364500   -2.290800
  H     -4.109000   -2.276500   -1.026600
  H     -0.684900   -0.617500   -2.107600
  H     -0.842800    1.113700   -1.733800
  H      1.344500   -1.908000   -1.280600
  H      3.760800   -1.798200   -0.880100
  H      5.175500   -0.781000    1.541500
  H      7.449300    1.339300    1.011600
  H      7.216500    0.152100    2.530600
  H      5.304300    2.371600    1.499600
  H      5.082000    1.179500    3.017900
  H      3.502100    2.498300   -0.538300
  H      1.089100    2.381800   -0.936400
  H     -3.971600    1.360300   -0.136500
  H     -5.058100    3.242400   -1.271400
  H     -3.799600    7.740800   -2.305400
  H     -1.566000    5.678200   -0.551100
  H     -0.496600    3.796700    0.591900
  H      0.344200   -3.543700    2.551200
  H     -0.466300   -5.859900    2.376200
  H     -1.942200   -7.521900    1.317600
  H     -3.488900   -6.848000   -0.489800
  H     -3.583900   -4.531800   -1.250200

 Total Charge           Charge          ....    0
 Multiplicity           Mult            ....    1
 Number of Electrons    NEL             ....  272
 Basis Dimension        Dim             ....  570

ORBITAL ENERGIES
----------------

  NO   OCC          E(Eh)            E(eV)
   0   2.0000     -89.093565     -2424.3592
   1   2.0000     -24.692468      -671.9162
   2   2.0000     -24.678521      -671.5367
   3   2.0000     -19.199864      -522.4549
   4   2.0000     -19.142067      -520.8821
   5   2.0000     -19.119368      -520.2645
   6   2.0000     -19.114734      -520.1383
   7   2.0000     -14.369232      -391.0067
   8   2.0000     -14.326240      -389.8368
   9   2.0000     -10.339496      -281.3520
  10   2.0000     -10.338719      -281.3309
  11   2.0000     -10.260074      -279.1908
  12   2.0000     -10.246632      -278.8250
  13   2.0000     -10.236788      -278.5572
  14   2.0000     -10.236049      -278.5371
  15   2.0000     -10.225925      -278.2616
  16   2.0000     -10.224118      -278.2124
  17   2.0000     -10.222194      -278.1600
  18   2.0000     -10.221888      -278.1517
  19   2.0000     -10.221732      -278.1475
  20   2.0000     -10.210606      -277.8447
  21   2.0000     -10.207018      -277.7471
  22   2.0000     -10.199117      -277.5321
  23   2.0000     -10.198211      -277.5074
  24   2.0000     -10.197259      -277.4815
  25   2.0000     -10.196616      -277.4640
  26   2.0000     -10.195340      -277.4293
  27   2.0000     -10.192566      -277.3538
  28   2.0000     -10.191115      -277.3143
  29   2.0000     -10.189867      -277.2804
  30   2.0000     -10.188455      -277.2419
  31   2.0000     -10.182382      -277.0767
  32   2.0000     -10.181789      -277.0606
  33   2.0000     -10.181368      -277.0491
  34   2.0000     -10.181337      -277.0483
  35   2.0000     -10.180254      -277.0188
  36   2.0000     -10.178461      -276.9700
  37   2.0000      -8.129352      -221.2109
  38   2.0000      -6.094500      -165.8398
  39   2.0000      -6.092370      -165.7818
  40   2.0000      -6.091889      -165.7687
  41   2.0000      -1.224859       -33.3301
  42   2.0000      -1.170651       -31.8550
  43   2.0000      -1.084659       -29.5151
  44   2.0000      -1.077440       -29.3186
  45   2.0000      -0.998832       -27.1796
  46   2.0000      -0.960482       -26.1360
  47   2.0000      -0.954572       -25.9752
  48   2.0000      -0.913198       -24.8494
  49   2.0000      -0.895053       -24.3556
  50   2.0000      -0.864560       -23.5259
  51   2.0000      -0.857106       -23.3230
  52   2.0000      -0.846583       -23.0367
  53   2.0000      -0.812820       -22.1179
  54   2.0000      -0.807824       -21.9820
  55   2.0000      -0.783559       -21.3217
  56   2.0000      -0.781390       -21.2627
  57   2.0000      -0.772198       -21.0126
  58   2.0000      -0.745002       -20.2725
  59   2.0000      -0.741983       -20.1904
  60   2.0000      -0.724034       -19.7020
  61   2.0000      -0.715326       -19.4650
  62   2.0000      -0.693147       -18.8615
  63   2.0000      -0.667060       -18.1516
  64   2.0000      -0.654991       -17.8232
  65   2.0000      -0.644627       -17.5412
  66   2.0000      -0.643227       -17.5031
  67   2.0000      -0.620058       -16.8726
  68   2.0000      -0.608459       -16.5570
  69   2.0000      -0.600801       -16.3486
  70   2.0000      -0.596113       -16.2211
  71   2.0000      -0.589328       -16.0364
  72   2.0000      -0.582738       -15.8571
  73   2.0000      -0.573397       -15.6029
  74   2.0000      -0.561028       -15.2664
  75   2.0000      -0.544174       -14.8077
  76   2.0000      -0.533178       -14.5085
  77   2.0000      -0.528757       -14.3882
  78   2.0000      -0.524862       -14.2822
  79   2.0000      -0.515624       -14.0308
  80   2.0000      -0.513444       -13.9715
  81   2.0000      -0.501918       -13.6579
  82   2.0000      -0.492594       -13.4042
  83   2.0000      -0.483764       -13.1639
  84   2.0000      -0.478708       -13.0263
  85   2.0000      -0.476531       -12.9671
  86   2.0000      -0.468792       -12.7565
  87   2.0000      -0.463343       -12.6082
  88   2.0000      -0.459473       -12.5029
  89   2.0000      -0.454844       -12.3769
  90   2.0000      -0.453402       -12.3377
  91   2.0000      -0.450312       -12.2536
  92   2.0000      -0.446458       -12.1487
  93   2.0000      -0.445404       -12.1200
  94   2.0000      -0.443325       -12.0635
  95   2.0000      -0.438272       -11.9260
  96   2.0000      -0.429890       -11.6979
  97   2.0000      -0.421683       -11.4746
  98   2.0000      -0.419856       -11.4249
  99   2.0000      -0.416411       -11.3311
 100   2.0000      -0.414792       -11.2871
 101   2.0000      -0.408103       -11.1050
 102   2.0000      -0.403228       -10.9724
 103   2.0000      -0.399324       -10.8662
 104   2.0000      -0.396049       -10.7770
 105   2.0000      -0.393660       -10.7120
 106   2.0000      -0.392364       -10.6768
 107   2.0000      -0.389741       -10.6054
 108   2.0000      -0.386273       -10.5110
 109   2.0000      -0.377435       -10.2705
 110   2.0000      -0.374208       -10.1827
 111   2.0000      -0.372152       -10.1268
 112   2.0000      -0.368934       -10.0392
 113   2.0000      -0.361418        -9.8347
 114   2.0000      -0.355117        -9.6632
 115   2.0000      -0.352324        -9.5872
 116   2.0000      -0.350727        -9.5438
 117   2.0000      -0.339902        -9.2492
 118   2.0000      -0.324796        -8.8382
 119   2.0000      -0.322748        -8.7824
 120   2.0000      -0.317740        -8.6461
 121   2.0000      -0.306500        -8.3403
 122   2.0000      -0.300134        -8.1671
 123   2.0000      -0.290480        -7.9044
 124   2.0000      -0.287381        -7.8200
 125   2.0000      -0.284270        -7.7354
 126   2.0000      -0.282023        -7.6742
 127   2.0000      -0.280404        -7.6302
 128   2.0000      -0.278694        -7.5836
 129   2.0000      -0.270660        -7.3650
 130   2.0000      -0.266793        -7.2598
 131   2.0000      -0.247978        -6.7478
 132   2.0000      -0.246959        -6.7201
 133   2.0000      -0.240637        -6.5481
 134   2.0000      -0.235777        -6.4158
 135   2.0000      -0.219959        -5.9854
 136   0.0000      -0.088736        -2.4146
 137   0.0000      -0.060592        -1.6488
 138   0.0000      -0.036442        -0.9916
 139   0.0000      -0.029631        -0.8063
 140   0.0000      -0.009254        -0.2518

MULLIKEN ATOMIC CHARGES
-----------------------
   0 C :   -0.544519
   1 C :    0.095120
   2 C :    0.329175
   3 N :   -0.606310
   4 C :   -0.285730
   5 C :    0.200387
   6 C :   -0.155519
   7 C :   -0.169696
   8 C :    0.043033
   9 C :    0.669585
  10 F :   -0.341056
  11 F :   -0.337190
  12 C :   -0.172524
  13 C :   -0.317109
  14 C :   -0.304498
  15 C :   -0.162886
  16 C :   -0.146529
  17 S :    1.213623
  18 O :   -0.529171
  19 O :   -0.536086
  20 C :   -0.143056
  21 C :   -0.142787
  22 C :   -0.140542
  23 C :    0.084543
  24 C :    0.529565
  25 O :   -0.443455
  26 O :   -0.622703
  27 C :   -0.146636
  28 C :   -0.145987
  29 N :   -0.361149
  30 C :   -0.049136
  31 C :    0.134600
  32 C :   -0.201321
  33 C :   -0.127336
  34 C :   -0.120238
  35 C :   -0.200578
  36 C :    0.124595
  37 H :    0.169340
  38 H :    0.160891
  39 H :    0.168192
  40 H :    0.171617
  41 H :    0.163570
  42 H :    0.128187
  43 H :    0.138996
  44 H :    0.165106
  45 H :    0.165823
  46 H :    0.149650
  47 H :    0.161511
  48 H :    0.157318
  49 H :    0.137194
  50 H :    0.118564
  51 H :    0.182214
  52 H :    0.181149
  53 H :    0.435652
  54 H :    0.175716
  55 H :    0.193717
  56 H :    0.155040
  57 H :    0.140731
  58 H :    0.136149
  59 H :    0.137113
  60 H :    0.136078
Sum of atomic charges:   -0.0000000

LOEWDIN ATOMIC CHARGES
----------------------
   0 C :   -0.361342
   1 C :   -0.017417
   2 C :    0.036767
   3 N :   -0.279913
   4 C :   -0.150959
   5 C :   -0.028408
   6 C :   -0.121473
   7 C :   -0.120514
   8 C :   -0.042247
   9 C :    0.236621
  10 F :   -0.131624
  11 F :   -0.135641
  12 C :   -0.159418
  13 C :   -0.254722
  14 C :   -0.248886
  15 C :   -0.117579
  16 C :   -0.119378
  17 S :    1.262628
  18 O :   -0.565551
  19 O :   -0.568272
  20 C :   -0.174907
  21 C :   -0.102980
  22 C :   -0.085956
  23 C :   -0.037584
  24 C :    0.180313
  25 O :   -0.259661
  26 O :   -0.333304
  27 C :   -0.098243
  28 C :   -0.105317
  29 N :   -0.109983
  30 C :   -0.055310
  31 C :   -0.029240
  32 C :   -0.110313
  33 C :   -0.127168
  34 C :   -0.117403
  35 C :   -0.126081
  36 C :   -0.006760
  37 H :    0.136665
  38 H :    0.136120
  39 H :    0.139857
  40 H :    0.139420
  41 H :    0.132981
  42 H :    0.132122
  43 H :    0.137283
  44 H :    0.146622
  45 H :    0.140050
  46 H :    0.132903
  47 H :    0.137242
  48 H :    0.137389
  49 H :    0.136652
  50 H :    0.127642
  51 H :    0.157098
  52 H :    0.160657
  53 H :    0.350850
  54 H :    0.156124
  55 H :    0.163479
  56 H :    0.138854
  57 H :    0.137950
  58 H :    0.135572
  59 H :    0.136309
  60 H :    0.137381

  Mayer bond orders larger than 0.100000
B(  0-C ,  1-C ) :   0.9968 B(  0-C , 37-H ) :   0.9299 B(  0-C , 38-H ) :   0.9269
B(  0-C , 39-H ) :   0.9287 B(  1-C ,  2-C ) :   1.4385 B(  1-C , 30-C ) :   0.1018
B(  1-C , 36-C ) :   1.2663 B(  2-C ,  3-N ) :   0.8927 B(  2-C , 29-N ) :   1.2842
B(  3-N ,  4-C ) :   0.9360 B(  3-N , 17-S ) :   0.7954 B(  4-C ,  5-C ) :   0.9358
B(  4-C , 40-H ) :   0.9222 B(  4-C , 41-H ) :   0.9253 B(  5-C ,  6-C ) :   1.4270
B(  5-C , 16-C ) :   1.4355 B(  6-C ,  7-C ) :   1.4306 B(  6-C , 42-H ) :   0.9229
B(  7-C ,  8-C ) :   1.4056 B(  7-C , 43-H ) :   0.9216 B(  8-C ,  9-C ) :   0.9714
B(  8-C , 15-C ) :   1.4141 B(  9-C , 10-F ) :   0.8664 B(  9-C , 11-F ) :   0.8978
B(  9-C , 12-C ) :   1.0007 B( 12-C , 13-C ) :   0.9382 B( 12-C , 14-C ) :   0.9332
B( 12-C , 44-H ) :   0.9238 B( 13-C , 14-C ) :   0.9599 B( 13-C , 45-H ) :   0.9376
B( 13-C , 46-H ) :   0.9451 B( 14-C , 47-H ) :   0.9394 B( 14-C , 48-H ) :   0.9424
B( 15-C , 16-C ) :   1.4261 B( 15-C , 49-H ) :   0.9210 B( 16-C , 50-H ) :   0.9192
B( 17-S , 18-O ) :   1.6501 B( 17-S , 19-O ) :   1.6504 B( 17-S , 20-C ) :   0.8070
B( 20-C , 21-C ) :   1.3751 B( 20-C , 28-C ) :   1.4018 B( 21-C , 22-C ) :   1.4290
B( 21-C , 51-H ) :   0.9099 B( 22-C , 23-C ) :   1.3993 B( 22-C , 52-H ) :   0.9093
B( 23-C , 24-C ) :   1.0071 B( 23-C , 27-C ) :   1.3877 B( 24-C , 25-O ) :   1.8627
B( 24-C , 26-O ) :   1.0274 B( 26-O , 53-H ) :   0.7409 B( 27-C , 28-C ) :   1.4070
B( 27-C , 54-H ) :   0.9142 B( 28-C , 55-H ) :   0.9039 B( 29-N , 30-C ) :   1.4973
B( 30-C , 31-C ) :   1.2299 B( 30-C , 56-H ) :   0.9263 B( 31-C , 32-C ) :   1.2844
B( 31-C , 36-C ) :   1.2906 B( 32-C , 33-C ) :   1.5128 B( 32-C , 35-C ) :   0.1061
B( 32-C , 57-H ) :   0.9230 B( 33-C , 34-C ) :   1.3531 B( 33-C , 58-H ) :   0.9292
B( 34-C , 35-C ) :   1.5096 B( 34-C , 59-H ) :   0.9291 B( 35-C , 36-C ) :   1.2932
B( 35-C , 60-H ) :   0.9171

FINAL SINGLE POINT ENERGY     -2088.530184465876

DIPOLE MOMENT
-------------

Method             : SCF
Type of density    : Electron Density
Multiplicity       :   1
Irrep              :   0
Energy             : -2088.5301844658756636 Eh
Relativity type    :
Basis              : AO
                                X                 Y                 Z
Electronic contribution:      4.543164885      11.852170387      -2.118965187
Nuclear contribution   :     -5.413207575     -12.423576058       0.771269998
                        -----------------------------------------
Total Dipole Moment    :     -0.870042689      -0.571405671      -1.347695190
                        -----------------------------------------
Magnitude (a.u.)       :      1.702868476
Magnitude (Debye)      :      4.328347686

Rotational constants in cm-1:             0.002913             0.002409             0.001463
Rotational constants in MHz :            87.337933            72.222036            43.849916

                             ****ORCA TERMINATED NORMALLY****
TOTAL RUN TIME: 0 days 0 hours 12 minutes 23 seconds 788 msec
