                         Program Version 6.0.0  -   RELEASE  -
|  1> ! B3LYP 6-31G* SP
|  2>
|  3> * xyz 0 1
|  4> C -2.9936 0.6151 3.0009
|  5> N -3.6454 0.3167 1.7142
|  6> C -3.1163 -0.6218 0.8564
|  7> O -2.0656 -1.2564 1.1457
|  8> C -3.7687 -0.8594 -0.3464
|  9> C -3.5088 -1.6877 -1.4226
| 10> C -2.3316 -2.5892 -1.6437
| 11> C -1.1490 -1.7891 -2.1001
| 12> O -1.1521 -1.2987 -3.2615
| 13> N -0.0279 -1.5930 -1.2241
| 14> C 0.9950 -0.6068 -1.4214
| 15> N 2.0996 -0.5461 -0.6488
| 16> C 2.9120 0.4959 -0.9847
| 17> C 4.1926 0.7389 -0.2701
| 18> C 4.7339 -0.2631 0.5547
| 19> C 5.9374 -0.0564 1.2344
| 20> C 6.6300 1.1599 1.1064
| 21> C 7.9256 1.4059 1.8422
| 22> F 8.9098 1.7705 0.9405
| 23> F 8.3520 0.2771 2.5214
| 24> F 7.7478 2.4296 2.7552
| 25> C 6.0846 2.1701 0.2948
| 26> F 6.7159 3.3650 0.1655
| 27> C 4.8807 1.9611 -0.3860
| 28> C 2.4374 1.2795 -2.0424
| 29> S 0.9670 0.6410 -2.5502
| 30> C -4.5294 -1.4272 -2.3320
| 31> O -5.3549 -0.5231 -1.8378
| 32> C -4.9054 -0.1802 -0.6526
| 33> N -5.4556 0.7317 0.1925
| 34> C -6.6689 1.4666 -0.1861
| 35> C -4.8078 0.9899 1.3802
| 36> O -5.2807 1.8539 2.1723
| 37> H -2.0368 0.0683 3.1330
| 38> H -2.7675 1.7011 3.0659
| 39> H -3.6691 0.3330 3.8364
| 40> H -2.1001 -3.1394 -0.7076
| 41> H -2.5807 -3.3460 -2.4181
| 42> H 0.0506 -2.1993 -0.3771
| 43> H 4.2308 -1.2149 0.6707
| 44> H 6.3214 -0.8528 1.8589
| 45> H 4.4871 2.7687 -0.9871
| 46> H 2.9210 2.1383 -2.4856
| 47> H -4.6416 -1.8836 -3.3066
| 48> H -6.3934 2.4840 -0.5358
| 49> H -7.3572 1.5511 0.6821
| 50> H -7.2238 0.9460 -0.9962
| 51> *
| 52>
| 53>                          ****END OF INPUT****

CARTESIAN COORDINATES (ANGSTROEM)
---------------------------------
  C     -2.993600    0.615100    3.000900
  N     -3.645400    0.316700    1.714200
  C     -3.116300   -0.621800    0.856400
  O     -2.065600   -1.256400    1.145700
  C     -3.768700   -0.859400   -0.346400
  C     -3.508800   -1.687700   -1.422600
  C     -2.331600   -2.589200   -1.643700
  C     -1.149000   -1.789100   -2.100100
  O     -1.152100   -1.298700   -3.261500
  N     -0.027900   -1.593000   -1.224100
  C      0.995000   -0.606800   -1.421400
  N      2.099600   -0.546100   -0.648800
  C      2.912000    0.495900   -0.984700
  C      4.192600    0.738900   -0.270100
  C      4.733900   -0.263100    0.554700
  C      5.937400   -0.056400    1.234400
  C      6.630000    1.159900    1.106400
  C      7.925600    1.405900    1.842200
  F      8.909800    1.770500    0.940500
  F      8.352000    0.277100    2.521400
  F      7.747800    2.429600    2.755200
  C      6.084600    2.170100    0.294800
  F      6.715900    3.365000    0.165500
  C      4.880700    1.961100   -0.386000
  C      2.437400    1.279500   -2.042400
  S      0.967000    0.641000   -2.550200
  C     -4.529400   -1.427200   -2.332000
  O     -5.354900   -0.523100   -1.837800
  C     -4.905400   -0.180200   -0.652600
  N     -5.455600    0.731700    0.192500
  C     -6.668900    1.466600   -0.186100
  C     -4.807800    0.989900    1.380200
  O     -5.280700    1.853900    2.172300
  H     -2.036800    0.068300    3.133000
  H     -2.767500    1.701100    3.065900
  H     -3.669100    0.333000    3.836400
  H     -2.100100   -3.139400   -0.707600
  H     -2.580700   -3.346000   -2.418100
  H      0.050600   -2.199300   -0.377100
  H      4.230800   -1.214900    0.670700
  H      6.321400   -0.852800    1.858900
  H      4.487100    2.768700   -0.987100
  H      2.921000    2.138300   -2.485600
  H     -4.641600   -1.883600   -3.306600
  H     -6.393400    2.484000   -0.535800
  H     -7.357200    1.551100    0.682100
  H     -7.223800    0.946000   -0.996200

 Total Charge           Charge          ....    0
 Multiplicity           Mult            ....    1
 Number of Electrons    NEL             ....  246
 Basis Dimension        Dim             ....  494

ORBITAL ENERGIES
----------------

  NO   OCC          E(Eh)            E(eV)
   0   2.0000     -88.904581     -2419.2166
   1   2.0000     -24.716131      -672.5601
   2   2.0000     -24.708127      -672.3423
   3   2.0000     -24.707977      -672.3382
   4   2.0000     -24.707923      -672.3368
   5   2.0000     -19.261310      -524.1269
   6   2.0000     -19.133330      -520.6444
   7   2.0000     -19.123010      -520.3636
   8   2.0000     -19.117172      -520.2047
   9   2.0000     -14.423308      -392.4782
  10   2.0000     -14.405175      -391.9847
  11   2.0000     -14.393232      -391.6597
  12   2.0000     -14.332076      -389.9956
  13   2.0000     -10.430581      -283.8305
  14   2.0000     -10.339249      -281.3453
  15   2.0000     -10.313443      -280.6431
  16   2.0000     -10.310543      -280.5641
  17   2.0000     -10.300086      -280.2796
  18   2.0000     -10.291613      -280.0490
  19   2.0000     -10.284009      -279.8421
  20   2.0000     -10.252408      -278.9822
  21   2.0000     -10.246642      -278.8253
  22   2.0000     -10.229408      -278.3563
  23   2.0000     -10.225117      -278.2396
  24   2.0000     -10.216834      -278.0142
  25   2.0000     -10.214411      -277.9483
  26   2.0000     -10.213854      -277.9331
  27   2.0000     -10.212896      -277.9070
  28   2.0000     -10.209813      -277.8231
  29   2.0000     -10.202819      -277.6328
  30   2.0000     -10.199831      -277.5515
  31   2.0000     -10.197221      -277.4805
  32   2.0000     -10.189811      -277.2788
  33   2.0000      -7.980911      -217.1716
  34   2.0000      -5.944034      -161.7454
  35   2.0000      -5.939771      -161.6294
  36   2.0000      -5.937889      -161.5782
  37   2.0000      -1.272142       -34.6168
  38   2.0000      -1.220293       -33.2059
  39   2.0000      -1.198457       -32.6117
  40   2.0000      -1.194469       -32.5032
  41   2.0000      -1.189109       -32.3573
  42   2.0000      -1.076888       -29.3036
  43   2.0000      -1.034522       -28.1508
  44   2.0000      -1.028018       -27.9738
  45   2.0000      -0.984878       -26.7999
  46   2.0000      -0.978667       -26.6309
  47   2.0000      -0.947667       -25.7873
  48   2.0000      -0.915613       -24.9151
  49   2.0000      -0.872321       -23.7371
  50   2.0000      -0.862671       -23.4745
  51   2.0000      -0.812344       -22.1050
  52   2.0000      -0.803188       -21.8559
  53   2.0000      -0.796396       -21.6710
  54   2.0000      -0.766852       -20.8671
  55   2.0000      -0.756115       -20.5749
  56   2.0000      -0.754083       -20.5197
  57   2.0000      -0.736135       -20.0313
  58   2.0000      -0.726121       -19.7588
  59   2.0000      -0.687121       -18.6975
  60   2.0000      -0.673612       -18.3299
  61   2.0000      -0.654123       -17.7996
  62   2.0000      -0.637805       -17.3556
  63   2.0000      -0.632864       -17.2211
  64   2.0000      -0.623119       -16.9559
  65   2.0000      -0.617115       -16.7925
  66   2.0000      -0.592357       -16.1189
  67   2.0000      -0.579618       -15.7722
  68   2.0000      -0.568032       -15.4569
  69   2.0000      -0.562129       -15.2963
  70   2.0000      -0.561624       -15.2826
  71   2.0000      -0.557793       -15.1783
  72   2.0000      -0.552264       -15.0279
  73   2.0000      -0.535929       -14.5834
  74   2.0000      -0.524924       -14.2839
  75   2.0000      -0.516645       -14.0586
  76   2.0000      -0.515492       -14.0273
  77   2.0000      -0.498536       -13.5658
  78   2.0000      -0.495076       -13.4717
  79   2.0000      -0.489389       -13.3170
  80   2.0000      -0.487080       -13.2541
  81   2.0000      -0.472334       -12.8529
  82   2.0000      -0.466524       -12.6948
  83   2.0000      -0.465366       -12.6632
  84   2.0000      -0.464324       -12.6349
  85   2.0000      -0.455180       -12.3861
  86   2.0000      -0.451613       -12.2890
  87   2.0000      -0.443858       -12.0780
  88   2.0000      -0.440477       -11.9860
  89   2.0000      -0.439716       -11.9653
  90   2.0000      -0.437910       -11.9161
  91   2.0000      -0.435759       -11.8576
  92   2.0000      -0.429121       -11.6770
  93   2.0000      -0.417766       -11.3680
  94   2.0000      -0.416951       -11.3458
  95   2.0000      -0.413980       -11.2650
  96   2.0000      -0.409654       -11.1473
  97   2.0000      -0.409506       -11.1432
  98   2.0000      -0.406867       -11.0714
  99   2.0000      -0.405782       -11.0419
 100   2.0000      -0.397628       -10.8200
 101   2.0000      -0.393017       -10.6945
 102   2.0000      -0.391169       -10.6442
 103   2.0000      -0.389620       -10.6021
 104   2.0000      -0.382790       -10.4162
 105   2.0000      -0.375464       -10.2169
 106   2.0000      -0.373933       -10.1752
 107   2.0000      -0.363720        -9.8973
 108   2.0000      -0.361960        -9.8494
 109   2.0000      -0.345240        -9.3945
 110   2.0000      -0.335583        -9.1317
 111   2.0000      -0.316513        -8.6128
 112   2.0000      -0.297242        -8.0884
 113   2.0000      -0.295694        -8.0462
 114   2.0000      -0.284643        -7.7455
 115   2.0000      -0.277378        -7.5479
 116   2.0000      -0.274529        -7.4703
 117   2.0000      -0.266526        -7.2525
 118   2.0000      -0.262755        -7.1499
 119   2.0000      -0.257718        -7.0129
 120   2.0000      -0.250076        -6.8049
 121   2.0000      -0.221782        -6.0350
 122   2.0000      -0.215751        -5.8709
 123   0.0000      -0.047009        -1.2792
 124   0.0000      -0.037491        -1.0202
 125   0.0000      -0.028320        -0.7706
 126   0.0000      -0.011970        -0.3257
 127   0.0000      -0.008018        -0.2182

MULLIKEN ATOMIC CHARGES
-----------------------
   0 C :   -0.316839
   1 N :   -0.483293
   2 C :    0.512784
   3 O :   -0.517632
   4 C :    0.029831
   5 C :    0.054750
   6 C :   -0.429032
   7 C :    0.571775
   8 O :   -0.460239
   9 N :   -0.629912
  10 C :    0.264204
  11 N :   -0.431246
  12 C :    0.210549
  13 C :    0.144966
  14 C :   -0.172448
  15 C :   -0.155180
  16 C :   -0.114499
  17 C :    0.917666
  18 F :   -0.300490
  19 F :   -0.306833
  20 F :   -0.298960
  21 C :    0.385303
  22 F :   -0.303053
  23 C :   -0.269024
  24 C :   -0.400324
  25 S :    0.316463
  26 C :    0.009564
  27 O :   -0.383270
  28 C :    0.496581
  29 N :   -0.499570
  30 C :   -0.329952
  31 C :    0.681125
  32 O :   -0.501174
  33 H :    0.206039
  34 H :    0.185874
  35 H :    0.181303
  36 H :    0.178161
  37 H :    0.180544
  38 H :    0.369668
  39 H :    0.159976
  40 H :    0.160296
  41 H :    0.144991
  42 H :    0.183613
  43 H :    0.177900
  44 H :    0.189853
  45 H :    0.204444
  46 H :    0.184748
Sum of atomic charges:    0.0000000

LOEWDIN ATOMIC CHARGES
----------------------
   0 C :   -0.260175
   1 N :   -0.027146
   2 C :    0.113590
   3 O :   -0.314096
   4 C :   -0.114360
   5 C :   -0.027083
   6 C :   -0.236005
   7 C :    0.156964
   8 O :   -0.265760
   9 N :   -0.189540
  10 C :   -0.074377
  11 N :   -0.182967
  12 C :   -0.009508
  13 C :    0.002645
  14 C :   -0.123280
  15 C :   -0.107569
  16 C :   -0.101619
  17 C :    0.313786
  18 F :   -0.113083
  19 F :   -0.112199
  20 F :   -0.113121
  21 C :    0.134110
  22 F :   -0.094654
  23 C :   -0.153330
  24 C :   -0.345589
  25 S :    0.427371
  26 C :   -0.078902
  27 O :   -0.000836
  28 C :    0.099826
  29 N :   -0.022565
  30 C :   -0.259875
  31 C :    0.144755
  32 O :   -0.308072
  33 H :    0.158886
  34 H :    0.146053
  35 H :    0.143126
  36 H :    0.148596
  37 H :    0.155358
  38 H :    0.284079
  39 H :    0.149834
  40 H :    0.148255
  41 H :    0.145113
  42 H :    0.161588
  43 H :    0.153615
  44 H :    0.144837
  45 H :    0.156991
  46 H :    0.146333

  Mayer bond orders larger than 0.100000
B(  0-C ,  1-N ) :   0.9148 B(  0-C , 33-H ) :   0.9166 B(  0-C , 34-H ) :   0.9346
B(  0-C , 35-H ) :   0.9372 B(  1-N ,  2-C ) :   0.9704 B(  1-N , 31-C ) :   1.0457
B(  2-C ,  3-O ) :   1.7585 B(  2-C ,  4-C ) :   1.0853 B(  4-C ,  5-C ) :   1.3091
B(  4-C , 28-C ) :   1.3602 B(  5-C ,  6-C ) :   1.0069 B(  5-C , 26-C ) :   1.5770
B(  6-C ,  7-C ) :   0.9440 B(  6-C , 36-H ) :   0.9074 B(  6-C , 37-H ) :   0.9151
B(  7-C ,  8-O ) :   1.8232 B(  7-C ,  9-N ) :   1.0386 B(  9-N , 10-C ) :   0.9543
B(  9-N , 38-H ) :   0.7969 B( 10-C , 11-N ) :   1.4810 B( 10-C , 24-C ) :   0.1048
B( 10-C , 25-S ) :   1.1772 B( 11-N , 12-C ) :   1.2898 B( 12-C , 13-C ) :   1.0570
B( 12-C , 24-C ) :   1.5142 B( 13-C , 14-C ) :   1.3999 B( 13-C , 23-C ) :   1.3666
B( 14-C , 15-C ) :   1.4142 B( 14-C , 39-H ) :   0.9115 B( 15-C , 16-C ) :   1.4034
B( 15-C , 40-H ) :   0.9192 B( 16-C , 17-C ) :   0.9677 B( 16-C , 21-C ) :   1.3201
B( 17-C , 18-F ) :   0.9667 B( 17-C , 19-F ) :   0.9451 B( 17-C , 20-F ) :   0.9752
B( 21-C , 22-F ) :   0.9467 B( 21-C , 23-C ) :   1.3841 B( 23-C , 41-H ) :   0.9102
B( 24-C , 25-S ) :   1.1141 B( 24-C , 42-H ) :   0.9012 B( 26-C , 27-O ) :   0.9993
B( 26-C , 43-H ) :   0.9247 B( 27-O , 28-C ) :   1.0761 B( 28-C , 29-N ) :   0.9901
B( 29-N , 30-C ) :   0.9235 B( 29-N , 31-C ) :   1.0415 B( 30-C , 44-H ) :   0.9340
B( 30-C , 45-H ) :   0.9264 B( 30-C , 46-H ) :   0.9301 B( 31-C , 32-O ) :   1.7948

FINAL SINGLE POINT ENERGY     -2087.064384962581

DIPOLE MOMENT
-------------

Method             : SCF
Type of density    : Electron Density
Multiplicity       :   1
Irrep              :   0
Energy             : -2087.0643849625812436 Eh
Relativity type    :
Basis              : AO
                                X                 Y                 Z
Electronic contribution:     54.171284250      10.159464659       3.224147050
Nuclear contribution   :    -57.007069981     -11.067959944      -3.945108050
                        -----------------------------------------
Total Dipole Moment    :     -2.835785731      -0.908495286      -0.720961000
                        -----------------------------------------
Magnitude (a.u.)       :      3.063793263
Magnitude (Debye)      :      7.787543589

Rotational constants in cm-1:             0.008284             0.001348             0.001259
Rotational constants in MHz :           248.347618            40.426647            37.743539

                             ****ORCA TERMINATED NORMALLY****
TOTAL RUN TIME: 0 days 0 hours 7 minutes 36 seconds 448 msec
