                         Program Version 6.0.0  -   RELEASE  -
|  1> ! B3LYP 6-31G* SP
|  2>
|  3> * xyz 0 1
|  4> C -4.8374 2.8785 -0.9472
|  5> N -4.5493 1.4924 -0.5281
|  6> C -3.7187 0.7185 -1.2905
|  7> O -3.2178 1.2131 -2.3363
|  8> C -3.4171 -0.6111 -0.9085
|  9> C -2.5911 -1.4940 -1.6869
| 10> C -1.9438 -1.1270 -3.0114
| 11> C -0.7234 -0.2779 -2.8017
| 12> O -0.6230 0.8194 -3.4125
| 13> N 0.3435 -0.7458 -1.9622
| 14> C 1.3570 0.0988 -1.4016
| 15> N 2.4177 -0.3920 -0.7286
| 16> C 3.2204 0.5929 -0.2348
| 17> C 4.4463 0.2724 0.5423
| 18> C 4.6466 -1.0357 1.0164
| 19> C 5.7935 -1.3606 1.7406
| 20> C 6.7591 -0.3888 2.0056
| 21> F 7.8687 -0.7347 2.7066
| 22> C 6.5849 0.9280 1.5466
| 23> C 7.6494 1.9630 1.8261
| 24> F 7.8862 2.0302 3.1863
| 25> F 7.2730 3.2201 1.3878
| 26> F 8.8183 1.6039 1.1825
| 27> C 5.4295 1.2476 0.8062
| 28> C 2.7743 1.8910 -0.5085
| 29> S 1.3479 1.7813 -1.3912
| 30> C -2.3240 -2.7848 -1.2045
| 31> C -2.8540 -3.2256 -0.0052
| 32> C -3.6673 -2.3928 0.7472
| 33> C -3.9714 -1.0783 0.3186
| 34> N -4.7805 -0.2562 1.0747
| 35> C -5.3590 -0.7374 2.3491
| 36> C -5.0517 1.0215 0.6534
| 37> O -5.7718 1.7799 1.3647
| 38> H -4.0345 3.5527 -0.5792
| 39> H -5.8171 3.2315 -0.5582
| 40> H -4.9032 2.9584 -2.0534
| 41> H -1.6275 -2.0388 -3.5626
| 42> H -2.6741 -0.6386 -3.6880
| 43> H 0.3723 -1.7614 -1.7164
| 44> H 3.9138 -1.8114 0.8326
| 45> H 5.9338 -2.3727 2.0982
| 46> H 5.3090 2.2501 0.4220
| 47> H 3.2310 2.8184 -0.1939
| 48> H -1.6923 -3.4633 -1.7621
| 49> H -2.6327 -4.2252 0.3466
| 50> H -4.0466 -2.7994 1.6728
| 51> H -6.0224 0.0031 2.8410
| 52> H -5.9789 -1.6407 2.1672
| 53> H -4.5455 -0.9725 3.0682
| 54> *
| 55>
| 56>                          ****END OF INPUT****

CARTESIAN COORDINATES (ANGSTROEM)
---------------------------------
  C     -4.837400    2.878500   -0.947200
  N     -4.549300    1.492400   -0.528100
  C     -3.718700    0.718500   -1.290500
  O     -3.217800    1.213100   -2.336300
  C     -3.417100   -0.611100   -0.908500
  C     -2.591100   -1.494000   -1.686900
  C     -1.943800   -1.127000   -3.011400
  C     -0.723400   -0.277900   -2.801700
  O     -0.623000    0.819400   -3.412500
  N      0.343500   -0.745800   -1.962200
  C      1.357000    0.098800   -1.401600
  N      2.417700   -0.392000   -0.728600
  C      3.220400    0.592900   -0.234800
  C      4.446300    0.272400    0.542300
  C      4.646600   -1.035700    1.016400
  C      5.793500   -1.360600    1.740600
  C      6.759100   -0.388800    2.005600
  F      7.868700   -0.734700    2.706600
  C      6.584900    0.928000    1.546600
  C      7.649400    1.963000    1.826100
  F      7.886200    2.030200    3.186300
  F      7.273000    3.220100    1.387800
  F      8.818300    1.603900    1.182500
  C      5.429500    1.247600    0.806200
  C      2.774300    1.891000   -0.508500
  S      1.347900    1.781300   -1.391200
  C     -2.324000   -2.784800   -1.204500
  C     -2.854000   -3.225600   -0.005200
  C     -3.667300   -2.392800    0.747200
  C     -3.971400   -1.078300    0.318600
  N     -4.780500   -0.256200    1.074700
  C     -5.359000   -0.737400    2.349100
  C     -5.051700    1.021500    0.653400
  O     -5.771800    1.779900    1.364700
  H     -4.034500    3.552700   -0.579200
  H     -5.817100    3.231500   -0.558200
  H     -4.903200    2.958400   -2.053400
  H     -1.627500   -2.038800   -3.562600
  H     -2.674100   -0.638600   -3.688000
  H      0.372300   -1.761400   -1.716400
  H      3.913800   -1.811400    0.832600
  H      5.933800   -2.372700    2.098200
  H      5.309000    2.250100    0.422000
  H      3.231000    2.818400   -0.193900
  H     -1.692300   -3.463300   -1.762100
  H     -2.632700   -4.225200    0.346600
  H     -4.046600   -2.799400    1.672800
  H     -6.022400    0.003100    2.841000
  H     -5.978900   -1.640700    2.167200
  H     -4.545500   -0.972500    3.068200

 Total Charge           Charge          ....    0
 Multiplicity           Mult            ....    1
 Number of Electrons    NEL             ....  252
 Basis Dimension        Dim             ....  512

ORBITAL ENERGIES
----------------

  NO   OCC          E(Eh)            E(eV)
   0   2.0000     -88.902239     -2419.1529
   1   2.0000     -24.720394      -672.6761
   2   2.0000     -24.711646      -672.4381
   3   2.0000     -24.711515      -672.4345
   4   2.0000     -24.708199      -672.3443
   5   2.0000     -19.126329      -520.4539
   6   2.0000     -19.114771      -520.1394
   7   2.0000     -19.113992      -520.1182
   8   2.0000     -14.409372      -392.0989
   9   2.0000     -14.400040      -391.8450
  10   2.0000     -14.392530      -391.6407
  11   2.0000     -14.331429      -389.9780
  12   2.0000     -10.434476      -283.9365
  13   2.0000     -10.330528      -281.1080
  14   2.0000     -10.307799      -280.4895
  15   2.0000     -10.297356      -280.2053
  16   2.0000     -10.290210      -280.0109
  17   2.0000     -10.284158      -279.8462
  18   2.0000     -10.268030      -279.4073
  19   2.0000     -10.239331      -278.6264
  20   2.0000     -10.234761      -278.5020
  21   2.0000     -10.227376      -278.3011
  22   2.0000     -10.222202      -278.1603
  23   2.0000     -10.220140      -278.1041
  24   2.0000     -10.218267      -278.0532
  25   2.0000     -10.215195      -277.9696
  26   2.0000     -10.210233      -277.8346
  27   2.0000     -10.209324      -277.8098
  28   2.0000     -10.209307      -277.8094
  29   2.0000     -10.208610      -277.7904
  30   2.0000     -10.206477      -277.7324
  31   2.0000     -10.205305      -277.7005
  32   2.0000     -10.199454      -277.5413
  33   2.0000     -10.199008      -277.5291
  34   2.0000      -7.978524      -217.1067
  35   2.0000      -5.941678      -161.6813
  36   2.0000      -5.937399      -161.5649
  37   2.0000      -5.935461      -161.5121
  38   2.0000      -1.276571       -34.7373
  39   2.0000      -1.221080       -33.2273
  40   2.0000      -1.202541       -32.7228
  41   2.0000      -1.198219       -32.6052
  42   2.0000      -1.073147       -29.2018
  43   2.0000      -1.028892       -27.9976
  44   2.0000      -1.024542       -27.8792
  45   2.0000      -0.977012       -26.5858
  46   2.0000      -0.976791       -26.5798
  47   2.0000      -0.943308       -25.6687
  48   2.0000      -0.915749       -24.9188
  49   2.0000      -0.880139       -23.9498
  50   2.0000      -0.874895       -23.8071
  51   2.0000      -0.811119       -22.0717
  52   2.0000      -0.807553       -21.9746
  53   2.0000      -0.796883       -21.6843
  54   2.0000      -0.790564       -21.5123
  55   2.0000      -0.776847       -21.1391
  56   2.0000      -0.752633       -20.4802
  57   2.0000      -0.737397       -20.0656
  58   2.0000      -0.721614       -19.6361
  59   2.0000      -0.711027       -19.3480
  60   2.0000      -0.694950       -18.9106
  61   2.0000      -0.662614       -18.0306
  62   2.0000      -0.660677       -17.9779
  63   2.0000      -0.639027       -17.3888
  64   2.0000      -0.632564       -17.2129
  65   2.0000      -0.621705       -16.9175
  66   2.0000      -0.614564       -16.7231
  67   2.0000      -0.589100       -16.0302
  68   2.0000      -0.581485       -15.8230
  69   2.0000      -0.570233       -15.5168
  70   2.0000      -0.565694       -15.3933
  71   2.0000      -0.563183       -15.3250
  72   2.0000      -0.556516       -15.1436
  73   2.0000      -0.551940       -15.0190
  74   2.0000      -0.527785       -14.3618
  75   2.0000      -0.523209       -14.2372
  76   2.0000      -0.518219       -14.1015
  77   2.0000      -0.508291       -13.8313
  78   2.0000      -0.497310       -13.5325
  79   2.0000      -0.492516       -13.4020
  80   2.0000      -0.488684       -13.2978
  81   2.0000      -0.478748       -13.0274
  82   2.0000      -0.467419       -12.7191
  83   2.0000      -0.466589       -12.6965
  84   2.0000      -0.466082       -12.6827
  85   2.0000      -0.463101       -12.6016
  86   2.0000      -0.459574       -12.5056
  87   2.0000      -0.456987       -12.4353
  88   2.0000      -0.443582       -12.0705
  89   2.0000      -0.443184       -12.0596
  90   2.0000      -0.438609       -11.9352
  91   2.0000      -0.438389       -11.9292
  92   2.0000      -0.432172       -11.7600
  93   2.0000      -0.426314       -11.6006
  94   2.0000      -0.421269       -11.4633
  95   2.0000      -0.413779       -11.2595
  96   2.0000      -0.412482       -11.2242
  97   2.0000      -0.410622       -11.1736
  98   2.0000      -0.406257       -11.0548
  99   2.0000      -0.405441       -11.0326
 100   2.0000      -0.403696       -10.9851
 101   2.0000      -0.399289       -10.8652
 102   2.0000      -0.393190       -10.6992
 103   2.0000      -0.392213       -10.6726
 104   2.0000      -0.390982       -10.6392
 105   2.0000      -0.386597       -10.5198
 106   2.0000      -0.381700       -10.3866
 107   2.0000      -0.377840       -10.2816
 108   2.0000      -0.374275       -10.1845
 109   2.0000      -0.370871       -10.0919
 110   2.0000      -0.361641        -9.8408
 111   2.0000      -0.352185        -9.5834
 112   2.0000      -0.350180        -9.5289
 113   2.0000      -0.324581        -8.8323
 114   2.0000      -0.310499        -8.4491
 115   2.0000      -0.292474        -7.9586
 116   2.0000      -0.279601        -7.6083
 117   2.0000      -0.277222        -7.5436
 118   2.0000      -0.275301        -7.4913
 119   2.0000      -0.269842        -7.3428
 120   2.0000      -0.268851        -7.3158
 121   2.0000      -0.257454        -7.0057
 122   2.0000      -0.252466        -6.8699
 123   2.0000      -0.247234        -6.7276
 124   2.0000      -0.238673        -6.4946
 125   2.0000      -0.210732        -5.7343
 126   0.0000      -0.066446        -1.8081
 127   0.0000      -0.040634        -1.1057
 128   0.0000      -0.033130        -0.9015
 129   0.0000      -0.029077        -0.7912
 130   0.0000      -0.018222        -0.4958

MULLIKEN ATOMIC CHARGES
-----------------------
   0 C :   -0.314476
   1 N :   -0.463215
   2 C :    0.496278
   3 O :   -0.475283
   4 C :    0.009565
   5 C :    0.103550
   6 C :   -0.428952
   7 C :    0.584425
   8 O :   -0.429643
   9 N :   -0.647334
  10 C :    0.263054
  11 N :   -0.441673
  12 C :    0.212697
  13 C :    0.116919
  14 C :   -0.148447
  15 C :   -0.207239
  16 C :    0.385377
  17 F :   -0.302233
  18 C :   -0.120235
  19 C :    0.919062
  20 F :   -0.299110
  21 F :   -0.306025
  22 F :   -0.297074
  23 C :   -0.206999
  24 C :   -0.405359
  25 S :    0.322171
  26 C :   -0.208379
  27 C :   -0.103335
  28 C :   -0.197466
  29 C :    0.321615
  30 N :   -0.511402
  31 C :   -0.337077
  32 C :    0.671843
  33 O :   -0.507904
  34 H :    0.181242
  35 H :    0.196439
  36 H :    0.195639
  37 H :    0.164129
  38 H :    0.220704
  39 H :    0.349202
  40 H :    0.160802
  41 H :    0.152020
  42 H :    0.155260
  43 H :    0.183411
  44 H :    0.130700
  45 H :    0.146415
  46 H :    0.144689
  47 H :    0.226147
  48 H :    0.171908
  49 H :    0.173598
Sum of atomic charges:    0.0000000

LOEWDIN ATOMIC CHARGES
----------------------
   0 C :   -0.258186
   1 N :   -0.020332
   2 C :    0.110129
   3 O :   -0.270366
   4 C :   -0.072148
   5 C :    0.030215
   6 C :   -0.238386
   7 C :    0.155377
   8 O :   -0.233547
   9 N :   -0.205842
  10 C :   -0.075630
  11 N :   -0.192175
  12 C :   -0.010130
  13 C :   -0.021336
  14 C :   -0.097687
  15 C :   -0.152184
  16 C :    0.130504
  17 F :   -0.094685
  18 C :   -0.097225
  19 C :    0.313325
  20 F :   -0.110930
  21 F :   -0.111458
  22 F :   -0.110927
  23 C :   -0.105725
  24 C :   -0.350474
  25 S :    0.432170
  26 C :   -0.159058
  27 C :   -0.099545
  28 C :   -0.163290
  29 C :    0.055673
  30 N :   -0.026953
  31 C :   -0.265408
  32 C :    0.137417
  33 O :   -0.317209
  34 H :    0.142788
  35 H :    0.153300
  36 H :    0.152623
  37 H :    0.140882
  38 H :    0.174710
  39 H :    0.271176
  40 H :    0.150293
  41 H :    0.147943
  42 H :    0.145653
  43 H :    0.161329
  44 H :    0.131613
  45 H :    0.141325
  46 H :    0.142030
  47 H :    0.169118
  48 H :    0.135281
  49 H :    0.135961

  Mayer bond orders larger than 0.100000
B(  0-C ,  1-N ) :   0.9153 B(  0-C , 34-H ) :   0.9398 B(  0-C , 35-H ) :   0.9243
B(  0-C , 36-H ) :   0.9249 B(  1-N ,  2-C ) :   0.9948 B(  1-N , 32-C ) :   1.0429
B(  2-C ,  3-O ) :   1.7658 B(  2-C ,  4-C ) :   1.0535 B(  4-C ,  5-C ) :   1.3695
B(  4-C , 29-C ) :   1.2872 B(  5-C ,  6-C ) :   0.9751 B(  5-C , 26-C ) :   1.4213
B(  6-C ,  7-C ) :   0.9567 B(  6-C , 37-H ) :   0.9128 B(  6-C , 38-H ) :   0.8957
B(  7-C ,  8-O ) :   1.8389 B(  7-C ,  9-N ) :   1.0005 B(  9-N , 10-C ) :   0.9549
B(  9-N , 39-H ) :   0.8057 B( 10-C , 11-N ) :   1.4802 B( 10-C , 24-C ) :   0.1058
B( 10-C , 25-S ) :   1.1851 B( 11-N , 12-C ) :   1.2876 B( 12-C , 13-C ) :   1.0539
B( 12-C , 24-C ) :   1.5181 B( 13-C , 14-C ) :   1.3992 B( 13-C , 23-C ) :   1.3854
B( 14-C , 15-C ) :   1.4035 B( 14-C , 40-H ) :   0.9111 B( 15-C , 16-C ) :   1.3840
B( 15-C , 41-H ) :   0.9194 B( 16-C , 17-F ) :   0.9530 B( 16-C , 18-C ) :   1.3222
B( 18-C , 19-C ) :   0.9650 B( 18-C , 23-C ) :   1.4003 B( 19-C , 20-F ) :   0.9675
B( 19-C , 21-F ) :   0.9437 B( 19-C , 22-F ) :   0.9781 B( 23-C , 42-H ) :   0.9069
B( 24-C , 25-S ) :   1.1111 B( 24-C , 43-H ) :   0.9011 B( 26-C , 27-C ) :   1.4063
B( 26-C , 44-H ) :   0.9242 B( 27-C , 28-C ) :   1.4734 B( 27-C , 45-H ) :   0.9252
B( 28-C , 29-C ) :   1.3409 B( 28-C , 46-H ) :   0.9137 B( 29-C , 30-N ) :   0.9756
B( 30-N , 31-C ) :   0.9335 B( 30-N , 32-C ) :   1.0395 B( 31-C , 47-H ) :   0.9133
B( 31-C , 48-H ) :   0.9315 B( 31-C , 49-H ) :   0.9321 B( 32-C , 33-O ) :   1.7873

FINAL SINGLE POINT ENERGY     -2089.264628169114

DIPOLE MOMENT
-------------

Method             : SCF
Type of density    : Electron Density
Multiplicity       :   1
Irrep              :   0
Energy             : -2089.2646281691136210 Eh
Relativity type    :
Basis              : AO
                                X                 Y                 Z
Electronic contribution:     62.302793223      13.670015645       9.311511131
Nuclear contribution   :    -64.332416023     -16.060324023      -8.730990463
                        -----------------------------------------
Total Dipole Moment    :     -2.029622799      -2.390308378       0.580520668
                        -----------------------------------------
Magnitude (a.u.)       :      3.189035449
Magnitude (Debye)      :      8.105883926

Rotational constants in cm-1:             0.007397             0.001315             0.001304
Rotational constants in MHz :           221.745800            39.433013            39.080813

                             ****ORCA TERMINATED NORMALLY****
TOTAL RUN TIME: 0 days 0 hours 5 minutes 58 seconds 680 msec
