                         Program Version 6.0.0  -   RELEASE  -
|  1> ! B3LYP 6-31G* SP
|  2>
|  3> * xyz 0 1
|  4> C -5.9942 0.2441 0.8609
|  5> C -5.4717 -0.7479 -0.1698
|  6> N -4.1101 -0.4007 -0.5556
|  7> N -3.8012 0.4234 -1.5421
|  8> N -2.4864 0.5649 -1.5847
|  9> C -2.0219 -0.2016 -0.5766
| 10> C -0.5997 -0.3451 -0.2400
| 11> S 0.6688 0.4067 -1.0481
| 12> C 1.8574 -0.2739 -0.0600
| 13> C 3.3163 -0.0501 -0.1819
| 14> C 4.2046 -0.6800 0.7093
| 15> C 5.5833 -0.4738 0.6009
| 16> C 6.0915 0.3624 -0.3970
| 17> Cl 7.8215 0.6195 -0.5310
| 18> C 5.2189 0.9933 -1.2878
| 19> C 3.8394 0.7900 -1.1831
| 20> N 1.3013 -1.0706 0.8830
| 21> C -0.0549 -1.1119 0.7861
| 22> O -0.8279 -1.8713 1.6585
| 23> N -3.0273 -0.8085 0.0835
| 24> H -5.3530 0.2255 1.7678
| 25> H -5.9966 1.2703 0.4359
| 26> H -7.0315 -0.0277 1.1489
| 27> H -6.1297 -0.7342 -1.0654
| 28> H -5.4886 -1.7729 0.2595
| 29> H 3.8351 -1.3322 1.4907
| 30> H 6.2551 -0.9648 1.2934
| 31> H 5.6080 1.6419 -2.0624
| 32> H 3.1875 1.2913 -1.8863
| 33> H -0.3940 -2.4166 2.3935
| 34> *
| 35>
| 36>                          ****END OF INPUT****

CARTESIAN COORDINATES (ANGSTROEM)
---------------------------------
  C     -5.994200    0.244100    0.860900
  C     -5.471700   -0.747900   -0.169800
  N     -4.110100   -0.400700   -0.555600
  N     -3.801200    0.423400   -1.542100
  N     -2.486400    0.564900   -1.584700
  C     -2.021900   -0.201600   -0.576600
  C     -0.599700   -0.345100   -0.240000
  S      0.668800    0.406700   -1.048100
  C      1.857400   -0.273900   -0.060000
  C      3.316300   -0.050100   -0.181900
  C      4.204600   -0.680000    0.709300
  C      5.583300   -0.473800    0.600900
  C      6.091500    0.362400   -0.397000
  Cl     7.821500    0.619500   -0.531000
  C      5.218900    0.993300   -1.287800
  C      3.839400    0.790000   -1.183100
  N      1.301300   -1.070600    0.883000
  C     -0.054900   -1.111900    0.786100
  O     -0.827900   -1.871300    1.658500
  N     -3.027300   -0.808500    0.083500
  H     -5.353000    0.225500    1.767800
  H     -5.996600    1.270300    0.435900
  H     -7.031500   -0.027700    1.148900
  H     -6.129700   -0.734200   -1.065400
  H     -5.488600   -1.772900    0.259500
  H      3.835100   -1.332200    1.490700
  H      6.255100   -0.964800    1.293400
  H      5.608000    1.641900   -2.062400
  H      3.187500    1.291300   -1.886300
  H     -0.394000   -2.416600    2.393500

 Total Charge           Charge          ....    0
 Multiplicity           Mult            ....    1
 Number of Electrons    NEL             ....  158
 Basis Dimension        Dim             ....  308

ORBITAL ENERGIES
----------------

  NO   OCC          E(Eh)            E(eV)
   0   2.0000    -101.531851     -2762.8221
   1   2.0000     -88.905450     -2419.2403
   2   2.0000     -19.177268      -521.8400
   3   2.0000     -14.455822      -393.3629
   4   2.0000     -14.394368      -391.6907
   5   2.0000     -14.365153      -390.8957
   6   2.0000     -14.357180      -390.6787
   7   2.0000     -14.336289      -390.1103
   8   2.0000     -10.285246      -279.8758
   9   2.0000     -10.260491      -279.2022
  10   2.0000     -10.253188      -279.0034
  11   2.0000     -10.252827      -278.9936
  12   2.0000     -10.249197      -278.8948
  13   2.0000     -10.223597      -278.1982
  14   2.0000     -10.218990      -278.0728
  15   2.0000     -10.206033      -277.7203
  16   2.0000     -10.204097      -277.6676
  17   2.0000     -10.202791      -277.6321
  18   2.0000     -10.201332      -277.5923
  19   2.0000     -10.193511      -277.3795
  20   2.0000      -9.463766      -257.5222
  21   2.0000      -7.982126      -217.2047
  22   2.0000      -7.226775      -196.6505
  23   2.0000      -7.217411      -196.3957
  24   2.0000      -7.217026      -196.3853
  25   2.0000      -5.945118      -161.7749
  26   2.0000      -5.941148      -161.6668
  27   2.0000      -5.939126      -161.6118
  28   2.0000      -1.143322       -31.1114
  29   2.0000      -1.046161       -28.4675
  30   2.0000      -0.963950       -26.2304
  31   2.0000      -0.946667       -25.7601
  32   2.0000      -0.894698       -24.3460
  33   2.0000      -0.892675       -24.2909
  34   2.0000      -0.846138       -23.0246
  35   2.0000      -0.820596       -22.3295
  36   2.0000      -0.789184       -21.4748
  37   2.0000      -0.773289       -21.0423
  38   2.0000      -0.763030       -20.7631
  39   2.0000      -0.725433       -19.7400
  40   2.0000      -0.685751       -18.6602
  41   2.0000      -0.662358       -18.0237
  42   2.0000      -0.631159       -17.1747
  43   2.0000      -0.627424       -17.0731
  44   2.0000      -0.608372       -16.5546
  45   2.0000      -0.583389       -15.8748
  46   2.0000      -0.579351       -15.7649
  47   2.0000      -0.531994       -14.4763
  48   2.0000      -0.523360       -14.2413
  49   2.0000      -0.521579       -14.1929
  50   2.0000      -0.499481       -13.5916
  51   2.0000      -0.485017       -13.1980
  52   2.0000      -0.475968       -12.9517
  53   2.0000      -0.466150       -12.6846
  54   2.0000      -0.453808       -12.3487
  55   2.0000      -0.443195       -12.0600
  56   2.0000      -0.437444       -11.9035
  57   2.0000      -0.433490       -11.7959
  58   2.0000      -0.413516       -11.2523
  59   2.0000      -0.400048       -10.8859
  60   2.0000      -0.394544       -10.7361
  61   2.0000      -0.387688       -10.5495
  62   2.0000      -0.382063       -10.3965
  63   2.0000      -0.375632       -10.2215
  64   2.0000      -0.370512       -10.0821
  65   2.0000      -0.369017       -10.0415
  66   2.0000      -0.364222        -9.9110
  67   2.0000      -0.353969        -9.6320
  68   2.0000      -0.337975        -9.1968
  69   2.0000      -0.316249        -8.6056
  70   2.0000      -0.315112        -8.5746
  71   2.0000      -0.307796        -8.3756
  72   2.0000      -0.293633        -7.9902
  73   2.0000      -0.286881        -7.8064
  74   2.0000      -0.279834        -7.6147
  75   2.0000      -0.273456        -7.4411
  76   2.0000      -0.266439        -7.2502
  77   2.0000      -0.259057        -7.0493
  78   2.0000      -0.208390        -5.6706
  79   0.0000      -0.065148        -1.7728
  80   0.0000      -0.019095        -0.5196
  81   0.0000      -0.017574        -0.4782
  82   0.0000       0.005341         0.1453
  83   0.0000       0.019543         0.5318

MULLIKEN ATOMIC CHARGES
-----------------------
   0 C :   -0.445889
   1 C :   -0.143480
   2 N :   -0.029611
   3 N :   -0.066594
   4 N :   -0.325890
   5 C :    0.409184
   6 C :   -0.220768
   7 S :    0.302445
   8 C :   -0.021709
   9 C :    0.135799
  10 C :   -0.142246
  11 C :   -0.133334
  12 C :   -0.059340
  13 Cl:   -0.011628
  14 C :   -0.138331
  15 C :   -0.178787
  16 N :   -0.429895
  17 C :    0.489036
  18 O :   -0.635365
  19 N :   -0.299775
  20 H :    0.174997
  21 H :    0.173615
  22 H :    0.156661
  23 H :    0.188018
  24 H :    0.188704
  25 H :    0.166014
  26 H :    0.156893
  27 H :    0.157840
  28 H :    0.159722
  29 H :    0.423714
Sum of atomic charges:    0.0000000

LOEWDIN ATOMIC CHARGES
----------------------
   0 C :   -0.362289
   1 C :   -0.152427
   2 N :    0.097338
   3 N :   -0.076256
   4 N :   -0.127178
   5 C :   -0.005509
   6 C :   -0.245086
   7 S :    0.429290
   8 C :   -0.119271
   9 C :   -0.028293
  10 C :   -0.100076
  11 C :   -0.129880
  12 C :   -0.083399
  13 Cl:    0.041513
  14 C :   -0.129859
  15 C :   -0.116681
  16 N :   -0.186079
  17 C :    0.092917
  18 O :   -0.326044
  19 N :   -0.123100
  20 H :    0.139285
  21 H :    0.138681
  22 H :    0.134605
  23 H :    0.149853
  24 H :    0.150550
  25 H :    0.152949
  26 H :    0.147103
  27 H :    0.147508
  28 H :    0.146246
  29 H :    0.343590

  Mayer bond orders larger than 0.100000
B(  0-C ,  1-C ) :   1.0039 B(  0-C , 20-H ) :   0.9436 B(  0-C , 21-H ) :   0.9441
B(  0-C , 22-H ) :   0.9425 B(  1-C ,  2-N ) :   0.8987 B(  1-C , 23-H ) :   0.9270
B(  1-C , 24-H ) :   0.9265 B(  2-N ,  3-N ) :   1.2402 B(  2-N , 19-N ) :   1.2224
B(  3-N ,  4-N ) :   1.4312 B(  3-N , 19-N ) :   0.1308 B(  4-N ,  5-C ) :   1.2862
B(  5-C ,  6-C ) :   1.0426 B(  5-C , 19-N ) :   1.3849 B(  6-C ,  7-S ) :   1.0921
B(  6-C ,  8-C ) :   0.1233 B(  6-C , 17-C ) :   1.4228 B(  7-S ,  8-C ) :   1.1533
B(  8-C ,  9-C ) :   1.0258 B(  8-C , 16-N ) :   1.4397 B(  9-C , 10-C ) :   1.4016
B(  9-C , 15-C ) :   1.3873 B( 10-C , 11-C ) :   1.4365 B( 10-C , 25-H ) :   0.9102
B( 11-C , 12-C ) :   1.4045 B( 11-C , 26-H ) :   0.9230 B( 12-C , 13-Cl) :   1.0193
B( 12-C , 14-C ) :   1.4085 B( 14-C , 15-C ) :   1.4488 B( 14-C , 27-H ) :   0.9222
B( 15-C , 28-H ) :   0.9140 B( 16-N , 17-C ) :   1.2889 B( 17-C , 18-O ) :   0.9966
B( 18-O , 29-H ) :   0.7559

FINAL SINGLE POINT ENERGY     -1669.994908334735

DIPOLE MOMENT
-------------

Method             : SCF
Type of density    : Electron Density
Multiplicity       :   1
Irrep              :   0
Energy             : -1669.9949083347353280 Eh
Relativity type    :
Basis              : AO
                                X                 Y                 Z
Electronic contribution:     28.186269660       2.011939193      -5.355421758
Nuclear contribution   :    -29.134769108      -2.638221789       6.226133788
                        -----------------------------------------
Total Dipole Moment    :     -0.948499448      -0.626282596       0.870712030
                        -----------------------------------------
Magnitude (a.u.)       :      1.431789277
Magnitude (Debye)      :      3.639319120

Rotational constants in cm-1:             0.041631             0.003078             0.002897
Rotational constants in MHz :          1248.079690            92.281414            86.863815

                             ****ORCA TERMINATED NORMALLY****
TOTAL RUN TIME: 0 days 0 hours 2 minutes 51 seconds 816 msec
