                         Program Version 6.0.0  -   RELEASE  -
|  1> ! B3LYP 6-31G* SP
|  2>
|  3> * xyz 0 1
|  4> C 0.7556 0.3984 -2.0260
|  5> C 1.2603 -0.5319 -0.9456
|  6> C 0.7963 -0.4094 0.3857
|  7> N -0.2241 0.5334 0.7414
|  8> C -1.6291 0.2648 0.4215
|  9> C -2.0715 -1.0271 1.0518
| 10> C -2.5108 -1.0496 2.3992
| 11> C -2.8713 -2.2614 3.0159
| 12> C -2.7705 -3.4287 2.2637
| 13> C -3.0393 -4.7426 2.5821
| 14> Cl -3.6241 -5.3701 4.1088
| 15> C -2.7533 -5.4783 1.4386
| 16> N -2.3231 -4.6603 0.4504
| 17> C -2.3387 -3.4176 0.9631
| 18> C -1.9759 -2.2345 0.3234
| 19> S 0.2031 1.9233 1.6888
| 20> O 1.6266 1.8090 2.1596
| 21> O -0.6882 2.0039 2.8971
| 22> C 0.0380 3.3701 0.7012
| 23> C -1.0697 4.2137 0.8525
| 24> C -1.1998 5.3538 0.0540
| 25> C -0.2269 5.6614 -0.9144
| 26> C -0.3590 6.8665 -1.7613
| 27> O -1.3234 7.6606 -1.5958
| 28> O 0.5864 7.1394 -2.7467
| 29> C 0.8764 4.8041 -1.0676
| 30> C 1.0071 3.6684 -0.2631
| 31> N 1.2929 -1.2185 1.3585
| 32> C 2.2185 -2.1749 1.1082
| 33> C 2.6895 -2.3727 -0.1913
| 34> C 3.6309 -3.3787 -0.4567
| 35> C 4.0961 -3.5777 -1.7562
| 36> C 3.6229 -2.7813 -2.7990
| 37> C 2.6855 -1.7764 -2.5486
| 38> C 2.2072 -1.5487 -1.2390
| 39> H 0.1005 -0.1623 -2.7252
| 40> H 1.6115 0.8327 -2.5841
| 41> H 0.1854 1.2584 -1.6218
| 42> H -1.7623 0.2187 -0.6796
| 43> H -2.2733 1.0954 0.7831
| 44> H -2.5713 -0.1295 2.9668
| 45> H -3.2108 -2.2826 4.0425
| 46> H -2.8510 -6.5513 1.3369
| 47> H -2.0382 -4.9418 -0.5147
| 48> H -1.6205 -2.2496 -0.6993
| 49> H -1.8336 3.9917 1.5859
| 50> H -2.0627 5.9918 0.1934
| 51> H 0.5092 7.9657 -3.3289
| 52> H 1.6402 5.0097 -1.8073
| 53> H 1.8617 3.0172 -0.3977
| 54> H 2.5761 -2.7881 1.9265
| 55> H 4.0011 -4.0143 0.3377
| 56> H 4.8221 -4.3550 -1.9568
| 57> H 3.9825 -2.9445 -3.8063
| 58> H 2.3392 -1.1927 -3.3902
| 59> *
| 60>
| 61>                          ****END OF INPUT****

CARTESIAN COORDINATES (ANGSTROEM)
---------------------------------
  C      0.755600    0.398400   -2.026000
  C      1.260300   -0.531900   -0.945600
  C      0.796300   -0.409400    0.385700
  N     -0.224100    0.533400    0.741400
  C     -1.629100    0.264800    0.421500
  C     -2.071500   -1.027100    1.051800
  C     -2.510800   -1.049600    2.399200
  C     -2.871300   -2.261400    3.015900
  C     -2.770500   -3.428700    2.263700
  C     -3.039300   -4.742600    2.582100
  Cl    -3.624100   -5.370100    4.108800
  C     -2.753300   -5.478300    1.438600
  N     -2.323100   -4.660300    0.450400
  C     -2.338700   -3.417600    0.963100
  C     -1.975900   -2.234500    0.323400
  S      0.203100    1.923300    1.688800
  O      1.626600    1.809000    2.159600
  O     -0.688200    2.003900    2.897100
  C      0.038000    3.370100    0.701200
  C     -1.069700    4.213700    0.852500
  C     -1.199800    5.353800    0.054000
  C     -0.226900    5.661400   -0.914400
  C     -0.359000    6.866500   -1.761300
  O     -1.323400    7.660600   -1.595800
  O      0.586400    7.139400   -2.746700
  C      0.876400    4.804100   -1.067600
  C      1.007100    3.668400   -0.263100
  N      1.292900   -1.218500    1.358500
  C      2.218500   -2.174900    1.108200
  C      2.689500   -2.372700   -0.191300
  C      3.630900   -3.378700   -0.456700
  C      4.096100   -3.577700   -1.756200
  C      3.622900   -2.781300   -2.799000
  C      2.685500   -1.776400   -2.548600
  C      2.207200   -1.548700   -1.239000
  H      0.100500   -0.162300   -2.725200
  H      1.611500    0.832700   -2.584100
  H      0.185400    1.258400   -1.621800
  H     -1.762300    0.218700   -0.679600
  H     -2.273300    1.095400    0.783100
  H     -2.571300   -0.129500    2.966800
  H     -3.210800   -2.282600    4.042500
  H     -2.851000   -6.551300    1.336900
  H     -2.038200   -4.941800   -0.514700
  H     -1.620500   -2.249600   -0.699300
  H     -1.833600    3.991700    1.585900
  H     -2.062700    5.991800    0.193400
  H      0.509200    7.965700   -3.328900
  H      1.640200    5.009700   -1.807300
  H      1.861700    3.017200   -0.397700
  H      2.576100   -2.788100    1.926500
  H      4.001100   -4.014300    0.337700
  H      4.822100   -4.355000   -1.956800
  H      3.982500   -2.944500   -3.806300
  H      2.339200   -1.192700   -3.390200

 Total Charge           Charge          ....    0
 Multiplicity           Mult            ....    1
 Number of Electrons    NEL             ....  262
 Basis Dimension        Dim             ....  538

ORBITAL ENERGIES
----------------

  NO   OCC          E(Eh)            E(eV)
   0   2.0000    -101.521451     -2762.5391
   1   2.0000     -89.093022     -2424.3444
   2   2.0000     -19.197469      -522.3897
   3   2.0000     -19.138809      -520.7935
   4   2.0000     -19.121045      -520.3101
   5   2.0000     -19.119818      -520.2767
   6   2.0000     -14.385916      -391.4607
   7   2.0000     -14.366655      -390.9365
   8   2.0000     -14.325451      -389.8153
   9   2.0000     -10.336266      -281.2641
  10   2.0000     -10.259103      -279.1644
  11   2.0000     -10.241919      -278.6968
  12   2.0000     -10.232591      -278.4430
  13   2.0000     -10.230126      -278.3759
  14   2.0000     -10.221555      -278.1427
  15   2.0000     -10.221133      -278.1312
  16   2.0000     -10.219962      -278.0993
  17   2.0000     -10.218814      -278.0681
  18   2.0000     -10.217947      -278.0445
  19   2.0000     -10.217613      -278.0354
  20   2.0000     -10.216007      -277.9917
  21   2.0000     -10.211963      -277.8816
  22   2.0000     -10.209150      -277.8051
  23   2.0000     -10.208781      -277.7950
  24   2.0000     -10.200651      -277.5738
  25   2.0000     -10.200628      -277.5732
  26   2.0000     -10.199211      -277.5346
  27   2.0000     -10.199089      -277.5313
  28   2.0000     -10.197715      -277.4939
  29   2.0000     -10.193985      -277.3924
  30   2.0000     -10.184540      -277.1354
  31   2.0000     -10.181812      -277.0612
  32   2.0000     -10.171719      -276.7866
  33   2.0000     -10.171050      -276.7684
  34   2.0000     -10.168000      -276.6853
  35   2.0000      -9.452517      -257.2161
  36   2.0000      -8.128626      -221.1912
  37   2.0000      -7.215787      -196.3515
  38   2.0000      -7.205975      -196.0845
  39   2.0000      -7.205947      -196.0838
  40   2.0000      -6.093596      -165.8152
  41   2.0000      -6.091614      -165.7613
  42   2.0000      -6.091419      -165.7559
  43   2.0000      -1.082066       -29.4445
  44   2.0000      -1.078022       -29.3345
  45   2.0000      -1.005047       -27.3487
  46   2.0000      -0.996243       -27.1092
  47   2.0000      -0.959120       -26.0990
  48   2.0000      -0.955622       -26.0038
  49   2.0000      -0.910992       -24.7894
  50   2.0000      -0.890908       -24.2428
  51   2.0000      -0.865572       -23.5534
  52   2.0000      -0.859690       -23.3934
  53   2.0000      -0.837805       -22.7978
  54   2.0000      -0.811352       -22.0780
  55   2.0000      -0.806596       -21.9486
  56   2.0000      -0.781949       -21.2779
  57   2.0000      -0.777545       -21.1581
  58   2.0000      -0.774747       -21.0819
  59   2.0000      -0.749486       -20.3945
  60   2.0000      -0.742480       -20.2039
  61   2.0000      -0.729402       -19.8480
  62   2.0000      -0.713989       -19.4286
  63   2.0000      -0.699756       -19.0413
  64   2.0000      -0.676030       -18.3957
  65   2.0000      -0.654388       -17.8068
  66   2.0000      -0.646117       -17.5817
  67   2.0000      -0.638250       -17.3677
  68   2.0000      -0.626171       -17.0390
  69   2.0000      -0.619300       -16.8520
  70   2.0000      -0.599226       -16.3058
  71   2.0000      -0.596468       -16.2307
  72   2.0000      -0.584736       -15.9115
  73   2.0000      -0.572506       -15.5787
  74   2.0000      -0.560945       -15.2641
  75   2.0000      -0.547800       -14.9064
  76   2.0000      -0.539811       -14.6890
  77   2.0000      -0.529834       -14.4175
  78   2.0000      -0.510890       -13.9020
  79   2.0000      -0.503469       -13.7001
  80   2.0000      -0.493170       -13.4198
  81   2.0000      -0.487238       -13.2584
  82   2.0000      -0.478580       -13.0228
  83   2.0000      -0.475361       -12.9352
  84   2.0000      -0.471785       -12.8379
  85   2.0000      -0.468239       -12.7414
  86   2.0000      -0.462131       -12.5752
  87   2.0000      -0.453339       -12.3360
  88   2.0000      -0.450900       -12.2696
  89   2.0000      -0.449657       -12.2358
  90   2.0000      -0.445053       -12.1105
  91   2.0000      -0.442903       -12.0520
  92   2.0000      -0.440836       -11.9958
  93   2.0000      -0.439517       -11.9599
  94   2.0000      -0.431822       -11.7505
  95   2.0000      -0.429308       -11.6821
  96   2.0000      -0.423466       -11.5231
  97   2.0000      -0.419410       -11.4127
  98   2.0000      -0.414549       -11.2804
  99   2.0000      -0.410774       -11.1777
 100   2.0000      -0.405891       -11.0449
 101   2.0000      -0.401088       -10.9141
 102   2.0000      -0.395436       -10.7604
 103   2.0000      -0.389081       -10.5874
 104   2.0000      -0.385746       -10.4967
 105   2.0000      -0.381998       -10.3947
 106   2.0000      -0.371249       -10.1022
 107   2.0000      -0.369263       -10.0482
 108   2.0000      -0.359239        -9.7754
 109   2.0000      -0.354803        -9.6547
 110   2.0000      -0.352403        -9.5894
 111   2.0000      -0.344845        -9.3837
 112   2.0000      -0.342055        -9.3078
 113   2.0000      -0.329707        -8.9718
 114   2.0000      -0.321724        -8.7545
 115   2.0000      -0.320221        -8.7137
 116   2.0000      -0.304986        -8.2991
 117   2.0000      -0.301837        -8.2134
 118   2.0000      -0.295098        -8.0300
 119   2.0000      -0.291188        -7.9236
 120   2.0000      -0.283677        -7.7193
 121   2.0000      -0.278311        -7.5732
 122   2.0000      -0.275667        -7.5013
 123   2.0000      -0.271969        -7.4007
 124   2.0000      -0.265474        -7.2239
 125   2.0000      -0.262296        -7.1374
 126   2.0000      -0.249829        -6.7982
 127   2.0000      -0.243842        -6.6353
 128   2.0000      -0.226510        -6.1636
 129   2.0000      -0.219756        -5.9799
 130   2.0000      -0.195326        -5.3151
 131   0.0000      -0.084056        -2.2873
 132   0.0000      -0.061388        -1.6704
 133   0.0000      -0.033336        -0.9071
 134   0.0000      -0.030330        -0.8253
 135   0.0000      -0.012617        -0.3433

MULLIKEN ATOMIC CHARGES
-----------------------
   0 C :   -0.547130
   1 C :    0.090833
   2 C :    0.326868
   3 N :   -0.604893
   4 C :   -0.247513
   5 C :    0.159315
   6 C :   -0.180320
   7 C :   -0.192386
   8 C :    0.155221
   9 C :   -0.177300
  10 Cl:   -0.011243
  11 C :    0.019670
  12 N :   -0.628909
  13 C :    0.310601
  14 C :   -0.227100
  15 S :    1.203322
  16 O :   -0.533081
  17 O :   -0.541920
  18 C :   -0.118195
  19 C :   -0.151267
  20 C :   -0.138686
  21 C :    0.082548
  22 C :    0.527685
  23 O :   -0.443379
  24 O :   -0.624750
  25 C :   -0.149153
  26 C :   -0.148294
  27 N :   -0.349890
  28 C :   -0.049720
  29 C :    0.134575
  30 C :   -0.202554
  31 C :   -0.128521
  32 C :   -0.121455
  33 C :   -0.203929
  34 C :    0.123355
  35 H :    0.160844
  36 H :    0.161763
  37 H :    0.172014
  38 H :    0.147982
  39 H :    0.175069
  40 H :    0.153460
  41 H :    0.145336
  42 H :    0.156773
  43 H :    0.339950
  44 H :    0.112074
  45 H :    0.187902
  46 H :    0.181492
  47 H :    0.434119
  48 H :    0.171485
  49 H :    0.180957
  50 H :    0.157554
  51 H :    0.142245
  52 H :    0.135876
  53 H :    0.136143
  54 H :    0.134559
Sum of atomic charges:   -0.0000000

LOEWDIN ATOMIC CHARGES
----------------------
   0 C :   -0.362565
   1 C :   -0.022299
   2 C :    0.037988
   3 N :   -0.282820
   4 C :   -0.145681
   5 C :   -0.036686
   6 C :   -0.128345
   7 C :   -0.120258
   8 C :   -0.046725
   9 C :   -0.149491
  10 Cl:    0.036973
  11 C :   -0.111096
  12 N :   -0.108460
  13 C :    0.005860
  14 C :   -0.155561
  15 S :    1.264337
  16 O :   -0.561253
  17 O :   -0.572911
  18 C :   -0.174868
  19 C :   -0.107368
  20 C :   -0.085065
  21 C :   -0.040549
  22 C :    0.179186
  23 O :   -0.259625
  24 O :   -0.335590
  25 C :   -0.100661
  26 C :   -0.105669
  27 N :   -0.100475
  28 C :   -0.053797
  29 C :   -0.028964
  30 C :   -0.110863
  31 C :   -0.128108
  32 C :   -0.119706
  33 C :   -0.128243
  34 C :   -0.009234
  35 H :    0.135867
  36 H :    0.135849
  37 H :    0.139380
  38 H :    0.120412
  39 H :    0.144269
  40 H :    0.144058
  41 H :    0.142685
  42 H :    0.140514
  43 H :    0.270836
  44 H :    0.125349
  45 H :    0.161664
  46 H :    0.160769
  47 H :    0.349862
  48 H :    0.154030
  49 H :    0.156830
  50 H :    0.139976
  51 H :    0.138697
  52 H :    0.135319
  53 H :    0.135759
  54 H :    0.136470

  Mayer bond orders larger than 0.100000
B(  0-C ,  1-C ) :   0.9956 B(  0-C , 35-H ) :   0.9271 B(  0-C , 36-H ) :   0.9290
B(  0-C , 37-H ) :   0.9268 B(  1-C ,  2-C ) :   1.4370 B(  1-C , 28-C ) :   0.1010
B(  1-C , 34-C ) :   1.2622 B(  2-C ,  3-N ) :   0.8925 B(  2-C , 27-N ) :   1.2877
B(  3-N ,  4-C ) :   0.9139 B(  3-N , 15-S ) :   0.8113 B(  4-C ,  5-C ) :   0.9628
B(  4-C , 38-H ) :   0.9220 B(  4-C , 39-H ) :   0.9181 B(  5-C ,  6-C ) :   1.3627
B(  5-C , 14-C ) :   1.4539 B(  6-C ,  7-C ) :   1.4653 B(  6-C , 40-H ) :   0.9150
B(  7-C ,  8-C ) :   1.3426 B(  7-C , 14-C ) :   0.1009 B(  7-C , 41-H ) :   0.9197
B(  8-C ,  9-C ) :   1.2600 B(  8-C , 13-C ) :   1.3372 B(  9-C , 10-Cl) :   1.0258
B(  9-C , 11-C ) :   1.5272 B( 11-C , 12-N ) :   1.1202 B( 11-C , 42-H ) :   0.9278
B( 12-N , 13-C ) :   1.0043 B( 12-N , 43-H ) :   0.8336 B( 13-C , 14-C ) :   1.3381
B( 14-C , 44-H ) :   0.9153 B( 15-S , 16-O ) :   1.6460 B( 15-S , 17-O ) :   1.6260
B( 15-S , 18-C ) :   0.8105 B( 18-C , 19-C ) :   1.3885 B( 18-C , 26-C ) :   1.3868
B( 19-C , 20-C ) :   1.4140 B( 19-C , 45-H ) :   0.9079 B( 20-C , 21-C ) :   1.4050
B( 20-C , 46-H ) :   0.9095 B( 21-C , 22-C ) :   1.0085 B( 21-C , 25-C ) :   1.3803
B( 22-C , 23-O ) :   1.8643 B( 22-C , 24-O ) :   1.0236 B( 24-O , 47-H ) :   0.7418
B( 25-C , 26-C ) :   1.4228 B( 25-C , 48-H ) :   0.9150 B( 26-C , 49-H ) :   0.9108
B( 27-N , 28-C ) :   1.5030 B( 28-C , 29-C ) :   1.2279 B( 28-C , 50-H ) :   0.9259
B( 29-C , 30-C ) :   1.2850 B( 29-C , 34-C ) :   1.2922 B( 30-C , 31-C ) :   1.5117
B( 30-C , 33-C ) :   0.1059 B( 30-C , 51-H ) :   0.9227 B( 31-C , 32-C ) :   1.3539
B( 31-C , 52-H ) :   0.9293 B( 32-C , 33-C ) :   1.5093 B( 32-C , 53-H ) :   0.9293
B( 33-C , 34-C ) :   1.2932 B( 33-C , 54-H ) :   0.9175

FINAL SINGLE POINT ENERGY     -2325.233517858293

DIPOLE MOMENT
-------------

Method             : SCF
Type of density    : Electron Density
Multiplicity       :   1
Irrep              :   0
Energy             : -2325.2335178582929984 Eh
Relativity type    :
Basis              : AO
                                X                 Y                 Z
Electronic contribution:    -11.440172734      -6.244617980      20.082943945
Nuclear contribution   :     12.194401788       5.278707191     -24.065373284
                        -----------------------------------------
Total Dipole Moment    :      0.754229054      -0.965910788      -3.982429339
                        -----------------------------------------
Magnitude (a.u.)       :      4.166723960
Magnitude (Debye)      :     10.590970628

Rotational constants in cm-1:             0.004799             0.001959             0.001554
Rotational constants in MHz :           143.880586            58.720909            46.595300

                             ****ORCA TERMINATED NORMALLY****
TOTAL RUN TIME: 0 days 0 hours 9 minutes 43 seconds 538 msec
