                         Program Version 6.0.0  -   RELEASE  -
|  1> ! B3LYP 6-31G* SP
|  2>
|  3> * xyz 0 1
|  4> C 6.0132 2.9267 0.3840
|  5> O 4.7379 2.3265 0.5183
|  6> C 4.6297 1.2989 1.5149
|  7> C 4.4523 2.0043 2.8874
|  8> C 3.3746 0.4618 1.1482
|  9> C 2.9941 0.3991 -0.2155
| 10> C 1.8768 -0.3221 -0.6321
| 11> C 1.1160 -1.0409 0.2902
| 12> C -0.1517 -1.7254 -0.1404
| 13> N -1.2819 -0.8080 0.0054
| 14> C -1.4185 0.3007 -0.8909
| 15> N -1.7899 0.0543 -2.1742
| 16> C -1.9277 1.0394 -3.0936
| 17> C -1.6779 2.3680 -2.7420
| 18> C -1.8151 3.3897 -3.6944
| 19> C -1.5566 4.7149 -3.3436
| 20> C -1.1598 5.0300 -2.0442
| 21> C -1.0200 4.0230 -1.0855
| 22> C -1.2790 2.6742 -1.4165
| 23> C -1.1478 1.6248 -0.4700
| 24> C -0.6970 1.9088 0.9464
| 25> S -2.5857 -1.1990 1.0809
| 26> O -2.0340 -1.4796 2.4510
| 27> O -3.5375 -0.0393 1.1808
| 28> C -3.4459 -2.6013 0.4582
| 29> C -4.2204 -2.4800 -0.7013
| 30> C -4.8998 -3.5887 -1.2143
| 31> C -4.8101 -4.8381 -0.5742
| 32> C -5.5291 -6.0148 -1.1104
| 33> O -6.2342 -5.9131 -2.1508
| 34> O -5.4338 -7.2475 -0.4696
| 35> C -4.0237 -4.9544 0.5853
| 36> C -3.3448 -3.8439 1.0959
| 37> C 1.4945 -1.0415 1.6348
| 38> C 2.6178 -0.3270 2.0721
| 39> Cl 3.0042 -0.5237 3.7800
| 40> C 5.8500 0.3168 1.5335
| 41> F 6.1231 -0.1257 0.2505
| 42> F 6.9829 0.9207 2.0516
| 43> F 5.5805 -0.7910 2.3170
| 44> H 6.6944 2.2737 -0.1996
| 45> H 6.4750 3.2055 1.3517
| 46> H 5.8942 3.8649 -0.1951
| 47> H 4.8136 1.3755 3.7264
| 48> H 3.3892 2.2834 3.0541
| 49> H 5.0312 2.9455 2.9541
| 50> H 3.5594 0.9159 -0.9800
| 51> H 1.5978 -0.3088 -1.6787
| 52> H -0.3122 -2.6386 0.4730
| 53> H -0.0752 -2.0610 -1.1977
| 54> H -2.2293 0.7804 -4.1012
| 55> H -2.1201 3.1626 -4.7091
| 56> H -1.6630 5.4999 -4.0812
| 57> H -0.9588 6.0598 -1.7779
| 58> H -0.7087 4.3139 -0.0917
| 59> H 0.3208 2.3521 0.9319
| 60> H -1.4041 2.6137 1.4311
| 61> H -0.6534 1.0018 1.5794
| 62> H -4.2968 -1.5264 -1.2088
| 63> H -5.4939 -3.4673 -2.1114
| 64> H -5.9225 -8.0592 -0.8281
| 65> H -3.9311 -5.9032 1.0984
| 66> H -2.7405 -3.9574 1.9865
| 67> H 0.9084 -1.6043 2.3518
| 68> *
| 69>
| 70>                          ****END OF INPUT****

CARTESIAN COORDINATES (ANGSTROEM)
---------------------------------
  C      6.013200    2.926700    0.384000
  O      4.737900    2.326500    0.518300
  C      4.629700    1.298900    1.514900
  C      4.452300    2.004300    2.887400
  C      3.374600    0.461800    1.148200
  C      2.994100    0.399100   -0.215500
  C      1.876800   -0.322100   -0.632100
  C      1.116000   -1.040900    0.290200
  C     -0.151700   -1.725400   -0.140400
  N     -1.281900   -0.808000    0.005400
  C     -1.418500    0.300700   -0.890900
  N     -1.789900    0.054300   -2.174200
  C     -1.927700    1.039400   -3.093600
  C     -1.677900    2.368000   -2.742000
  C     -1.815100    3.389700   -3.694400
  C     -1.556600    4.714900   -3.343600
  C     -1.159800    5.030000   -2.044200
  C     -1.020000    4.023000   -1.085500
  C     -1.279000    2.674200   -1.416500
  C     -1.147800    1.624800   -0.470000
  C     -0.697000    1.908800    0.946400
  S     -2.585700   -1.199000    1.080900
  O     -2.034000   -1.479600    2.451000
  O     -3.537500   -0.039300    1.180800
  C     -3.445900   -2.601300    0.458200
  C     -4.220400   -2.480000   -0.701300
  C     -4.899800   -3.588700   -1.214300
  C     -4.810100   -4.838100   -0.574200
  C     -5.529100   -6.014800   -1.110400
  O     -6.234200   -5.913100   -2.150800
  O     -5.433800   -7.247500   -0.469600
  C     -4.023700   -4.954400    0.585300
  C     -3.344800   -3.843900    1.095900
  C      1.494500   -1.041500    1.634800
  C      2.617800   -0.327000    2.072100
  Cl     3.004200   -0.523700    3.780000
  C      5.850000    0.316800    1.533500
  F      6.123100   -0.125700    0.250500
  F      6.982900    0.920700    2.051600
  F      5.580500   -0.791000    2.317000
  H      6.694400    2.273700   -0.199600
  H      6.475000    3.205500    1.351700
  H      5.894200    3.864900   -0.195100
  H      4.813600    1.375500    3.726400
  H      3.389200    2.283400    3.054100
  H      5.031200    2.945500    2.954100
  H      3.559400    0.915900   -0.980000
  H      1.597800   -0.308800   -1.678700
  H     -0.312200   -2.638600    0.473000
  H     -0.075200   -2.061000   -1.197700
  H     -2.229300    0.780400   -4.101200
  H     -2.120100    3.162600   -4.709100
  H     -1.663000    5.499900   -4.081200
  H     -0.958800    6.059800   -1.777900
  H     -0.708700    4.313900   -0.091700
  H      0.320800    2.352100    0.931900
  H     -1.404100    2.613700    1.431100
  H     -0.653400    1.001800    1.579400
  H     -4.296800   -1.526400   -1.208800
  H     -5.493900   -3.467300   -2.111400
  H     -5.922500   -8.059200   -0.828100
  H     -3.931100   -5.903200    1.098400
  H     -2.740500   -3.957400    1.986500
  H      0.908400   -1.604300    2.351800

 Total Charge           Charge          ....    0
 Multiplicity           Mult            ....    1
 Number of Electrons    NEL             ....  306
 Basis Dimension        Dim             ....  616

ORBITAL ENERGIES
----------------

  NO   OCC          E(Eh)            E(eV)
   0   2.0000    -101.525295     -2762.6437
   1   2.0000     -89.097715     -2424.4721
   2   2.0000     -24.724782      -672.7955
   3   2.0000     -24.723123      -672.7504
   4   2.0000     -24.721568      -672.7081
   5   2.0000     -19.194691      -522.3141
   6   2.0000     -19.163645      -521.4693
   7   2.0000     -19.136281      -520.7247
   8   2.0000     -19.128451      -520.5116
   9   2.0000     -19.126967      -520.4712
  10   2.0000     -14.371454      -391.0671
  11   2.0000     -14.334068      -390.0498
  12   2.0000     -10.435977      -283.9774
  13   2.0000     -10.333608      -281.1918
  14   2.0000     -10.280595      -279.7492
  15   2.0000     -10.257908      -279.1319
  16   2.0000     -10.254756      -279.0461
  17   2.0000     -10.239721      -278.6370
  18   2.0000     -10.236011      -278.5360
  19   2.0000     -10.229514      -278.3592
  20   2.0000     -10.227748      -278.3112
  21   2.0000     -10.226199      -278.2690
  22   2.0000     -10.218103      -278.0487
  23   2.0000     -10.217603      -278.0351
  24   2.0000     -10.217027      -278.0194
  25   2.0000     -10.214907      -277.9618
  26   2.0000     -10.214542      -277.9518
  27   2.0000     -10.209792      -277.8226
  28   2.0000     -10.206141      -277.7232
  29   2.0000     -10.201629      -277.6004
  30   2.0000     -10.201519      -277.5974
  31   2.0000     -10.198645      -277.5192
  32   2.0000     -10.198252      -277.5085
  33   2.0000     -10.197063      -277.4762
  34   2.0000     -10.196144      -277.4512
  35   2.0000     -10.195216      -277.4259
  36   2.0000     -10.194632      -277.4100
  37   2.0000     -10.190433      -277.2958
  38   2.0000     -10.181481      -277.0522
  39   2.0000     -10.172301      -276.8024
  40   2.0000      -9.457150      -257.3421
  41   2.0000      -8.133512      -221.3241
  42   2.0000      -7.220351      -196.4757
  43   2.0000      -7.210738      -196.2142
  44   2.0000      -7.210248      -196.2008
  45   2.0000      -6.098519      -165.9491
  46   2.0000      -6.096596      -165.8968
  47   2.0000      -6.096113      -165.8837
  48   2.0000      -1.284194       -34.9447
  49   2.0000      -1.209430       -32.9103
  50   2.0000      -1.206712       -32.8363
  51   2.0000      -1.084845       -29.5201
  52   2.0000      -1.079254       -29.3680
  53   2.0000      -1.049429       -28.5564
  54   2.0000      -0.993387       -27.0314
  55   2.0000      -0.965371       -26.2691
  56   2.0000      -0.962698       -26.1964
  57   2.0000      -0.916257       -24.9326
  58   2.0000      -0.889902       -24.2155
  59   2.0000      -0.887603       -24.1529
  60   2.0000      -0.865164       -23.5423
  61   2.0000      -0.838627       -22.8202
  62   2.0000      -0.812436       -22.1075
  63   2.0000      -0.808475       -21.9997
  64   2.0000      -0.802125       -21.8269
  65   2.0000      -0.777606       -21.1597
  66   2.0000      -0.773671       -21.0527
  67   2.0000      -0.762758       -20.7557
  68   2.0000      -0.742149       -20.1949
  69   2.0000      -0.736896       -20.0520
  70   2.0000      -0.713867       -19.4253
  71   2.0000      -0.702373       -19.1125
  72   2.0000      -0.700781       -19.0692
  73   2.0000      -0.692824       -18.8527
  74   2.0000      -0.683318       -18.5940
  75   2.0000      -0.652881       -17.7658
  76   2.0000      -0.644492       -17.5375
  77   2.0000      -0.636650       -17.3241
  78   2.0000      -0.627844       -17.0845
  79   2.0000      -0.615582       -16.7508
  80   2.0000      -0.609840       -16.5946
  81   2.0000      -0.596490       -16.2313
  82   2.0000      -0.594841       -16.1864
  83   2.0000      -0.585982       -15.9454
  84   2.0000      -0.573830       -15.6147
  85   2.0000      -0.573042       -15.5933
  86   2.0000      -0.559687       -15.2299
  87   2.0000      -0.542491       -14.7619
  88   2.0000      -0.539703       -14.6861
  89   2.0000      -0.534169       -14.5355
  90   2.0000      -0.520234       -14.1563
  91   2.0000      -0.509979       -13.8772
  92   2.0000      -0.502099       -13.6628
  93   2.0000      -0.493210       -13.4209
  94   2.0000      -0.485828       -13.2201
  95   2.0000      -0.482652       -13.1336
  96   2.0000      -0.478607       -13.0236
  97   2.0000      -0.471538       -12.8312
  98   2.0000      -0.467987       -12.7346
  99   2.0000      -0.463967       -12.6252
 100   2.0000      -0.458765       -12.4836
 101   2.0000      -0.454966       -12.3803
 102   2.0000      -0.452784       -12.3209
 103   2.0000      -0.449205       -12.2235
 104   2.0000      -0.447744       -12.1837
 105   2.0000      -0.445697       -12.1280
 106   2.0000      -0.445223       -12.1151
 107   2.0000      -0.440998       -12.0002
 108   2.0000      -0.440430       -11.9847
 109   2.0000      -0.430965       -11.7271
 110   2.0000      -0.429702       -11.6928
 111   2.0000      -0.427611       -11.6359
 112   2.0000      -0.424246       -11.5443
 113   2.0000      -0.422755       -11.5037
 114   2.0000      -0.421841       -11.4789
 115   2.0000      -0.415707       -11.3120
 116   2.0000      -0.410997       -11.1838
 117   2.0000      -0.407709       -11.0943
 118   2.0000      -0.403957       -10.9922
 119   2.0000      -0.400897       -10.9090
 120   2.0000      -0.400541       -10.8993
 121   2.0000      -0.394920       -10.7463
 122   2.0000      -0.390661       -10.6304
 123   2.0000      -0.389281       -10.5929
 124   2.0000      -0.383587       -10.4379
 125   2.0000      -0.380404       -10.3513
 126   2.0000      -0.378065       -10.2877
 127   2.0000      -0.374780       -10.1983
 128   2.0000      -0.366357        -9.9691
 129   2.0000      -0.366070        -9.9613
 130   2.0000      -0.361779        -9.8445
 131   2.0000      -0.356218        -9.6932
 132   2.0000      -0.354088        -9.6352
 133   2.0000      -0.350895        -9.5483
 134   2.0000      -0.330239        -8.9862
 135   2.0000      -0.324631        -8.8336
 136   2.0000      -0.322187        -8.7672
 137   2.0000      -0.319579        -8.6962
 138   2.0000      -0.307392        -8.3646
 139   2.0000      -0.303491        -8.2584
 140   2.0000      -0.300245        -8.1701
 141   2.0000      -0.289308        -7.8725
 142   2.0000      -0.281988        -7.6733
 143   2.0000      -0.277270        -7.5449
 144   2.0000      -0.276838        -7.5331
 145   2.0000      -0.273602        -7.4451
 146   2.0000      -0.272723        -7.4212
 147   2.0000      -0.267654        -7.2832
 148   2.0000      -0.260313        -7.0835
 149   2.0000      -0.255288        -6.9467
 150   2.0000      -0.248991        -6.7754
 151   2.0000      -0.244555        -6.6547
 152   2.0000      -0.223501        -6.0818
 153   0.0000      -0.081185        -2.2092
 154   0.0000      -0.061518        -1.6740
 155   0.0000      -0.034610        -0.9418
 156   0.0000      -0.027984        -0.7615
 157   0.0000      -0.026662        -0.7255

MULLIKEN ATOMIC CHARGES
-----------------------
   0 C :   -0.217074
   1 O :   -0.490375
   2 C :    0.191243
   3 C :   -0.490769
   4 C :    0.049869
   5 C :   -0.141485
   6 C :   -0.173825
   7 C :    0.186222
   8 C :   -0.241753
   9 N :   -0.609078
  10 C :    0.302951
  11 N :   -0.402473
  12 C :   -0.060758
  13 C :    0.139901
  14 C :   -0.204095
  15 C :   -0.125353
  16 C :   -0.120696
  17 C :   -0.192964
  18 C :    0.116570
  19 C :    0.135554
  20 C :   -0.546789
  21 S :    1.224289
  22 O :   -0.556440
  23 O :   -0.544516
  24 C :   -0.125474
  25 C :   -0.134876
  26 C :   -0.142062
  27 C :    0.083072
  28 C :    0.527902
  29 O :   -0.444811
  30 O :   -0.623789
  31 C :   -0.146247
  32 C :   -0.153207
  33 C :   -0.176321
  34 C :   -0.107017
  35 Cl:   -0.004952
  36 C :    0.929195
  37 F :   -0.303162
  38 F :   -0.305367
  39 F :   -0.293937
  40 H :    0.152200
  41 H :    0.146898
  42 H :    0.155763
  43 H :    0.177413
  44 H :    0.173876
  45 H :    0.158850
  46 H :    0.159252
  47 H :    0.141246
  48 H :    0.172971
  49 H :    0.175702
  50 H :    0.150870
  51 H :    0.138435
  52 H :    0.136720
  53 H :    0.138903
  54 H :    0.144940
  55 H :    0.160643
  56 H :    0.170985
  57 H :    0.200917
  58 H :    0.188664
  59 H :    0.180306
  60 H :    0.433775
  61 H :    0.172178
  62 H :    0.183931
  63 H :    0.177460
Sum of atomic charges:   -0.0000000

LOEWDIN ATOMIC CHARGES
----------------------
   0 C :   -0.220934
   1 O :   -0.215548
   2 C :    0.053378
   3 C :   -0.364785
   4 C :   -0.033883
   5 C :   -0.109827
   6 C :   -0.133516
   7 C :   -0.023529
   8 C :   -0.143930
   9 N :   -0.279254
  10 C :    0.021645
  11 N :   -0.140251
  12 C :   -0.065433
  13 C :   -0.027275
  14 C :   -0.113317
  15 C :   -0.124176
  16 C :   -0.117035
  17 C :   -0.117185
  18 C :   -0.006171
  19 C :    0.010909
  20 C :   -0.361742
  21 S :    1.263693
  22 O :   -0.578976
  23 O :   -0.566869
  24 C :   -0.175672
  25 C :   -0.095441
  26 C :   -0.085434
  27 C :   -0.039546
  28 C :    0.179953
  29 O :   -0.261056
  30 O :   -0.334882
  31 C :   -0.100136
  32 C :   -0.109132
  33 C :   -0.128250
  34 C :   -0.079232
  35 Cl:    0.041187
  36 C :    0.301346
  37 F :   -0.110038
  38 F :   -0.110712
  39 F :   -0.100734
  40 H :    0.115200
  41 H :    0.113932
  42 H :    0.126186
  43 H :    0.141300
  44 H :    0.142426
  45 H :    0.132760
  46 H :    0.149518
  47 H :    0.137801
  48 H :    0.143678
  49 H :    0.136525
  50 H :    0.136070
  51 H :    0.136742
  52 H :    0.135770
  53 H :    0.137148
  54 H :    0.142034
  55 H :    0.136944
  56 H :    0.143243
  57 H :    0.152895
  58 H :    0.161946
  59 H :    0.160418
  60 H :    0.349544
  61 H :    0.154431
  62 H :    0.159450
  63 H :    0.155831

  Mayer bond orders larger than 0.100000
B(  0-C ,  1-O ) :   0.9236 B(  0-C , 40-H ) :   0.9276 B(  0-C , 41-H ) :   0.9205
B(  0-C , 42-H ) :   0.9468 B(  1-O ,  2-C ) :   0.8842 B(  2-C ,  3-C ) :   0.9551
B(  2-C ,  4-C ) :   0.9692 B(  2-C , 36-C ) :   0.9028 B(  3-C , 43-H ) :   0.9241
B(  3-C , 44-H ) :   0.9393 B(  3-C , 45-H ) :   0.9328 B(  4-C ,  5-C ) :   1.4204
B(  4-C , 34-C ) :   1.3554 B(  5-C ,  6-C ) :   1.4131 B(  5-C , 46-H ) :   0.9108
B(  6-C ,  7-C ) :   1.4329 B(  6-C , 47-H ) :   0.9204 B(  7-C ,  8-C ) :   0.9547
B(  7-C , 33-C ) :   1.4335 B(  8-C ,  9-N ) :   0.9229 B(  8-C , 48-H ) :   0.9188
B(  8-C , 49-H ) :   0.9180 B(  9-N , 10-C ) :   0.8893 B(  9-N , 21-S ) :   0.8066
B( 10-C , 11-N ) :   1.2781 B( 10-C , 19-C ) :   1.4330 B( 11-N , 12-C ) :   1.4927
B( 12-C , 13-C ) :   1.2419 B( 12-C , 50-H ) :   0.9265 B( 13-C , 14-C ) :   1.2834
B( 13-C , 18-C ) :   1.2911 B( 14-C , 15-C ) :   1.5125 B( 14-C , 17-C ) :   0.1060
B( 14-C , 51-H ) :   0.9234 B( 15-C , 16-C ) :   1.3526 B( 15-C , 52-H ) :   0.9292
B( 16-C , 17-C ) :   1.5074 B( 16-C , 53-H ) :   0.9289 B( 17-C , 18-C ) :   1.2968
B( 17-C , 54-H ) :   0.9148 B( 18-C , 19-C ) :   1.2616 B( 19-C , 20-C ) :   1.0091
B( 20-C , 55-H ) :   0.9230 B( 20-C , 56-H ) :   0.9234 B( 20-C , 57-H ) :   0.9166
B( 21-S , 22-O ) :   1.6076 B( 21-S , 23-O ) :   1.6461 B( 21-S , 24-C ) :   0.8125
B( 24-C , 25-C ) :   1.3785 B( 24-C , 32-C ) :   1.4005 B( 25-C , 26-C ) :   1.4319
B( 25-C , 58-H ) :   0.9056 B( 26-C , 27-C ) :   1.3958 B( 26-C , 59-H ) :   0.9099
B( 27-C , 28-C ) :   1.0083 B( 27-C , 31-C ) :   1.3889 B( 28-C , 29-O ) :   1.8626
B( 28-C , 30-O ) :   1.0246 B( 30-O , 60-H ) :   0.7420 B( 31-C , 32-C ) :   1.4092
B( 31-C , 61-H ) :   0.9150 B( 32-C , 62-H ) :   0.9093 B( 33-C , 34-C ) :   1.3930
B( 33-C , 63-H ) :   0.9060 B( 34-C , 35-Cl) :   1.0266 B( 36-C , 37-F ) :   0.9463
B( 36-C , 38-F ) :   0.9382 B( 36-C , 39-F ) :   0.9543

FINAL SINGLE POINT ENERGY     -2723.679060652942

DIPOLE MOMENT
-------------

Method             : SCF
Type of density    : Electron Density
Multiplicity       :   1
Irrep              :   0
Energy             : -2723.6790606529420984 Eh
Relativity type    :
Basis              : AO
                                X                 Y                 Z
Electronic contribution:     17.154350813     -19.597560053      14.442127358
Nuclear contribution   :    -16.464965286      20.059006987     -15.887923052
                        -----------------------------------------
Total Dipole Moment    :      0.689385527       0.461446935      -1.445795694
                        -----------------------------------------
Magnitude (a.u.)       :      1.666886579
Magnitude (Debye)      :      4.236888973

Rotational constants in cm-1:             0.003670             0.001469             0.001173
Rotational constants in MHz :           110.022982            44.039622            35.157005

                             ****ORCA TERMINATED NORMALLY****
TOTAL RUN TIME: 0 days 0 hours 8 minutes 38 seconds 960 msec
