                         Program Version 6.0.0  -   RELEASE  -
|  1> ! B3LYP def2-TZVP SP
|  2>
|  3> * xyz 0 1
|  4> O -0.7293 -0.3279 -2.5478
|  5> C -0.3098 0.0239 -1.4124
|  6> C 1.1497 0.0716 -1.1927
|  7> C 1.7124 -0.0029 0.0220
|  8> C 3.1786 0.0231 0.2464
|  9> C 3.6889 -0.5197 1.4382
| 10> C 5.0631 -0.5054 1.6947
| 11> C 5.9435 0.0609 0.7692
| 12> Br 7.8202 0.0819 1.1230
| 13> C 5.4476 0.6196 -0.4118
| 14> C 4.0738 0.6071 -0.6733
| 15> N -1.2464 0.3779 -0.3782
| 16> C -2.6699 0.2983 -0.5562
| 17> C -3.2643 0.9432 -1.6552
| 18> C -4.6507 0.9527 -1.8093
| 19> C -5.4621 0.3311 -0.8624
| 20> C -4.8905 -0.3067 0.2400
| 21> C -3.4932 -0.3388 0.4089
| 22> C -2.9340 -1.0695 1.5741
| 23> O -1.7328 -1.4510 1.5843
| 24> O -3.7486 -1.3703 2.6629
| 25> H 1.7732 0.0953 -2.0764
| 26> H 1.0867 -0.1611 0.8902
| 27> H 3.0230 -0.9634 2.1685
| 28> H 5.4422 -0.9338 2.6137
| 29> H 6.1254 1.0710 -1.1250
| 30> H 3.7208 1.0758 -1.5814
| 31> H -0.8993 0.7230 0.5432
| 32> H -2.6526 1.4644 -2.3804
| 33> H -5.0973 1.4542 -2.6582
| 34> H -6.5379 0.3432 -0.9821
| 35> H -5.5455 -0.7901 0.9541
| 36> H -3.3849 -1.8779 3.4607
| 37> *
| 38>
| 39>                          ****END OF INPUT****

CARTESIAN COORDINATES (ANGSTROEM)
---------------------------------
  O     -0.729300   -0.327900   -2.547800
  C     -0.309800    0.023900   -1.412400
  C      1.149700    0.071600   -1.192700
  C      1.712400   -0.002900    0.022000
  C      3.178600    0.023100    0.246400
  C      3.688900   -0.519700    1.438200
  C      5.063100   -0.505400    1.694700
  C      5.943500    0.060900    0.769200
  Br     7.820200    0.081900    1.123000
  C      5.447600    0.619600   -0.411800
  C      4.073800    0.607100   -0.673300
  N     -1.246400    0.377900   -0.378200
  C     -2.669900    0.298300   -0.556200
  C     -3.264300    0.943200   -1.655200
  C     -4.650700    0.952700   -1.809300
  C     -5.462100    0.331100   -0.862400
  C     -4.890500   -0.306700    0.240000
  C     -3.493200   -0.338800    0.408900
  C     -2.934000   -1.069500    1.574100
  O     -1.732800   -1.451000    1.584300
  O     -3.748600   -1.370300    2.662900
  H      1.773200    0.095300   -2.076400
  H      1.086700   -0.161100    0.890200
  H      3.023000   -0.963400    2.168500
  H      5.442200   -0.933800    2.613700
  H      6.125400    1.071000   -1.125000
  H      3.720800    1.075800   -1.581400
  H     -0.899300    0.723000    0.543200
  H     -2.652600    1.464400   -2.380400
  H     -5.097300    1.454200   -2.658200
  H     -6.537900    0.343200   -0.982100
  H     -5.545500   -0.790100    0.954100
  H     -3.384900   -1.877900    3.460700

 Total Charge           Charge          ....    0
 Multiplicity           Mult            ....    1
 Number of Electrons    NEL             ....  174
 Basis Dimension        Dim             ....  740

ORBITAL ENERGIES
----------------

  NO   OCC          E(Eh)            E(eV)
   0   2.0000    -482.863876    -13139.3941
   1   2.0000     -62.511192     -1701.0160
   2   2.0000     -56.326682     -1532.7269
   3   2.0000     -56.324191     -1532.6591
   4   2.0000     -56.324171     -1532.6586
   5   2.0000     -19.180871      -521.9380
   6   2.0000     -19.117273      -520.2075
   7   2.0000     -19.092570      -519.5353
   8   2.0000     -14.354720      -390.6118
   9   2.0000     -10.326707      -281.0040
  10   2.0000     -10.286858      -279.9196
  11   2.0000     -10.244375      -278.7636
  12   2.0000     -10.243419      -278.7376
  13   2.0000     -10.214010      -277.9374
  14   2.0000     -10.207455      -277.7590
  15   2.0000     -10.203504      -277.6515
  16   2.0000     -10.199414      -277.5402
  17   2.0000     -10.198836      -277.5244
  18   2.0000     -10.198608      -277.5182
  19   2.0000     -10.197851      -277.4976
  20   2.0000     -10.196697      -277.4662
  21   2.0000     -10.193094      -277.3682
  22   2.0000     -10.192865      -277.3620
  23   2.0000     -10.189292      -277.2647
  24   2.0000     -10.187636      -277.2197
  25   2.0000      -8.702105      -236.7963
  26   2.0000      -6.531564      -177.7329
  27   2.0000      -6.520727      -177.4380
  28   2.0000      -6.520307      -177.4266
  29   2.0000      -2.646192       -72.0066
  30   2.0000      -2.643168       -71.9243
  31   2.0000      -2.642888       -71.9166
  32   2.0000      -2.633929       -71.6729
  33   2.0000      -2.633924       -71.6727
  34   2.0000      -1.085232       -29.5307
  35   2.0000      -1.018395       -27.7119
  36   2.0000      -0.999973       -27.2106
  37   2.0000      -0.923788       -25.1375
  38   2.0000      -0.887266       -24.1437
  39   2.0000      -0.862513       -23.4702
  40   2.0000      -0.832108       -22.6428
  41   2.0000      -0.795657       -21.6509
  42   2.0000      -0.781315       -21.2607
  43   2.0000      -0.769257       -20.9325
  44   2.0000      -0.755131       -20.5482
  45   2.0000      -0.732286       -19.9265
  46   2.0000      -0.674186       -18.3455
  47   2.0000      -0.652100       -17.7445
  48   2.0000      -0.635794       -17.3008
  49   2.0000      -0.627694       -17.0804
  50   2.0000      -0.608217       -16.5504
  51   2.0000      -0.592877       -16.1330
  52   2.0000      -0.570161       -15.5149
  53   2.0000      -0.550408       -14.9774
  54   2.0000      -0.529307       -14.4032
  55   2.0000      -0.519222       -14.1287
  56   2.0000      -0.505388       -13.7523
  57   2.0000      -0.481531       -13.1031
  58   2.0000      -0.477489       -12.9931
  59   2.0000      -0.475977       -12.9520
  60   2.0000      -0.466326       -12.6894
  61   2.0000      -0.461756       -12.5650
  62   2.0000      -0.448283       -12.1984
  63   2.0000      -0.443839       -12.0775
  64   2.0000      -0.442812       -12.0495
  65   2.0000      -0.441081       -12.0024
  66   2.0000      -0.412825       -11.2335
  67   2.0000      -0.406937       -11.0733
  68   2.0000      -0.402307       -10.9473
  69   2.0000      -0.399049       -10.8587
  70   2.0000      -0.394279       -10.7289
  71   2.0000      -0.379786       -10.3345
  72   2.0000      -0.375694       -10.2232
  73   2.0000      -0.371453       -10.1077
  74   2.0000      -0.368730       -10.0337
  75   2.0000      -0.366974        -9.9859
  76   2.0000      -0.339858        -9.2480
  77   2.0000      -0.326920        -8.8960
  78   2.0000      -0.304729        -8.2921
  79   2.0000      -0.298042        -8.1101
  80   2.0000      -0.293331        -7.9819
  81   2.0000      -0.278546        -7.5796
  82   2.0000      -0.277355        -7.5472
  83   2.0000      -0.273365        -7.4386
  84   2.0000      -0.258643        -7.0380
  85   2.0000      -0.242783        -6.6065
  86   2.0000      -0.239013        -6.5039
  87   0.0000      -0.077815        -2.1174
  88   0.0000      -0.068306        -1.8587
  89   0.0000      -0.035560        -0.9676
  90   0.0000      -0.028402        -0.7729
  91   0.0000      -0.011355        -0.3090

MULLIKEN ATOMIC CHARGES
-----------------------
   0 O :   -0.395239
   1 C :    0.301933
   2 C :   -0.143357
   3 C :   -0.120946
   4 C :    0.210977
   5 C :   -0.194659
   6 C :   -0.140166
   7 C :    0.091817
   8 Br:   -0.074288
   9 C :   -0.146542
  10 C :   -0.181308
  11 N :   -0.284547
  12 C :    0.284822
  13 C :   -0.166553
  14 C :   -0.083520
  15 C :   -0.096654
  16 C :   -0.149062
  17 C :   -0.051905
  18 C :    0.307004
  19 O :   -0.363739
  20 O :   -0.415906
  21 H :    0.126901
  22 H :    0.131584
  23 H :    0.121923
  24 H :    0.126621
  25 H :    0.128006
  26 H :    0.122412
  27 H :    0.224656
  28 H :    0.121130
  29 H :    0.119363
  30 H :    0.114733
  31 H :    0.132436
  32 H :    0.342071
Sum of atomic charges:    0.0000000

LOEWDIN ATOMIC CHARGES
----------------------
   0 O :    0.038142
   1 C :   -0.354474
   2 C :   -0.115664
   3 C :   -0.086964
   4 C :   -0.125546
   5 C :   -0.090332
   6 C :   -0.135957
   7 C :   -0.364209
   8 Br:    0.335649
   9 C :   -0.135345
  10 C :   -0.084967
  11 N :    0.152803
  12 C :   -0.122175
  13 C :   -0.083952
  14 C :   -0.116005
  15 C :   -0.136284
  16 C :   -0.082762
  17 C :   -0.102328
  18 C :   -0.371311
  19 O :    0.032044
  20 O :    0.035088
  21 H :    0.155794
  22 H :    0.150756
  23 H :    0.150288
  24 H :    0.147558
  25 H :    0.147923
  26 H :    0.148854
  27 H :    0.196630
  28 H :    0.155397
  29 H :    0.146338
  30 H :    0.143989
  31 H :    0.153148
  32 H :    0.217875

  Mayer bond orders larger than 0.100000
B(  0-O ,  1-C ) :   1.8906 B(  1-C ,  2-C ) :   1.0806 B(  1-C , 11-N ) :   1.1511
B(  2-C ,  3-C ) :   1.7387 B(  2-C , 21-H ) :   0.9508 B(  3-C ,  4-C ) :   0.9892
B(  3-C , 22-H ) :   0.9314 B(  4-C ,  5-C ) :   1.3430 B(  4-C , 10-C ) :   1.3344
B(  5-C ,  6-C ) :   1.4087 B(  5-C , 23-H ) :   0.9687 B(  6-C ,  7-C ) :   1.3431
B(  6-C , 24-H ) :   0.9731 B(  7-C ,  8-Br) :   1.0364 B(  7-C ,  9-C ) :   1.3365
B(  9-C , 10-C ) :   1.4245 B(  9-C , 25-H ) :   0.9696 B( 10-C , 26-H ) :   0.9548
B( 11-N , 12-C ) :   0.8865 B( 11-N , 27-H ) :   0.8977 B( 12-C , 13-C ) :   1.4331
B( 12-C , 17-C ) :   1.3370 B( 13-C , 14-C ) :   1.4053 B( 13-C , 28-H ) :   0.9635
B( 14-C , 15-C ) :   1.3819 B( 14-C , 29-H ) :   0.9694 B( 15-C , 16-C ) :   1.4237
B( 15-C , 30-H ) :   0.9713 B( 16-C , 17-C ) :   1.3485 B( 16-C , 31-H ) :   0.9627
B( 17-C , 18-C ) :   1.0153 B( 17-C , 20-O ) :  -0.1017 B( 18-C , 19-O ) :   1.9672
B( 18-C , 20-O ) :   1.2396 B( 20-O , 32-H ) :   0.8387

FINAL SINGLE POINT ENERGY     -3471.220540281992

DIPOLE MOMENT
-------------

Method             : SCF
Type of density    : Electron Density
Multiplicity       :   1
Irrep              :   0
Energy             : -3471.2205402819918163 Eh
Relativity type    :
Basis              : AO
                                X                 Y                 Z
Electronic contribution:     77.838909757      -0.030167868      12.198423053
Nuclear contribution   :    -78.606033534       0.735893328     -11.064668183
                        -----------------------------------------
Total Dipole Moment    :     -0.767123777       0.705725460       1.133754870
                        -----------------------------------------
Magnitude (a.u.)       :      1.540106302
Magnitude (Debye)      :      3.914639117

Rotational constants in cm-1:             0.024931             0.002191             0.002037
Rotational constants in MHz :           747.408740            65.683152            61.058936

                             ****ORCA TERMINATED NORMALLY****
TOTAL RUN TIME: 0 days 0 hours 9 minutes 36 seconds 599 msec
