                         Program Version 6.0.0  -   RELEASE  -
|  1> ! B3LYP 6-31G* SP
|  2>
|  3> * xyz 0 1
|  4> O 6.7710 -2.1083 -0.5642
|  5> C 5.9068 -2.4873 0.2721
|  6> O 6.1154 -3.6684 0.9797
|  7> C 4.6835 -1.6872 0.5005
|  8> C 3.7220 -2.1114 1.4344
|  9> C 2.5641 -1.3588 1.6510
| 10> C 2.3492 -0.1737 0.9358
| 11> S 0.8845 0.7725 1.1777
| 12> O 1.2756 2.1274 1.6980
| 13> O -0.0163 0.1054 2.1795
| 14> N 0.0346 0.9444 -0.3283
| 15> C -0.0965 -0.2047 -1.2299
| 16> C -0.9447 -1.2734 -0.5976
| 17> C -0.3533 -2.4750 -0.1272
| 18> C -1.1353 -3.4602 0.5026
| 19> C -2.4977 -3.2153 0.6466
| 20> O -3.3985 -3.9890 1.2001
| 21> C -4.5614 -3.3663 1.1232
| 22> C -4.4126 -2.1351 0.4931
| 23> C -3.0727 -2.0603 0.1942
| 24> C -2.3319 -1.0629 -0.4337
| 25> C -0.7676 2.1141 -0.5329
| 26> N -1.7342 2.4261 0.3721
| 27> C -2.5297 3.5186 0.2328
| 28> C -2.3603 4.3832 -0.8596
| 29> C -3.2716 5.5683 -1.0539
| 30> F -2.6112 6.5876 -1.7178
| 31> F -4.3686 5.1809 -1.8003
| 32> F -3.7060 6.0568 0.1663
| 33> C -1.3777 4.0713 -1.8118
| 34> C -0.5675 2.9446 -1.6479
| 35> Cl 0.7133 2.6305 -2.8118
| 36> C 3.3037 0.2559 0.0069
| 37> C 4.4627 -0.4941 -0.2112
| 38> H 6.9494 -4.2238 0.8309
| 39> H 3.8622 -3.0257 1.9970
| 40> H 1.8348 -1.7078 2.3703
| 41> H 0.9122 -0.5949 -1.4822
| 42> H -0.5671 0.1013 -2.1894
| 43> H 0.7092 -2.6446 -0.2455
| 44> H -0.6911 -4.3775 0.8661
| 45> H -5.4910 -3.7694 1.5018
| 46> H -5.1805 -1.4014 0.2861
| 47> H -2.8092 -0.1537 -0.7778
| 48> H -3.2950 3.7080 0.9739
| 49> H -1.2342 4.7056 -2.6778
| 50> H 3.1456 1.1687 -0.5540
| 51> H 5.1836 -0.1411 -0.9379
| 52> *
| 53>
| 54>                          ****END OF INPUT****

CARTESIAN COORDINATES (ANGSTROEM)
---------------------------------
  O      6.771000   -2.108300   -0.564200
  C      5.906800   -2.487300    0.272100
  O      6.115400   -3.668400    0.979700
  C      4.683500   -1.687200    0.500500
  C      3.722000   -2.111400    1.434400
  C      2.564100   -1.358800    1.651000
  C      2.349200   -0.173700    0.935800
  S      0.884500    0.772500    1.177700
  O      1.275600    2.127400    1.698000
  O     -0.016300    0.105400    2.179500
  N      0.034600    0.944400   -0.328300
  C     -0.096500   -0.204700   -1.229900
  C     -0.944700   -1.273400   -0.597600
  C     -0.353300   -2.475000   -0.127200
  C     -1.135300   -3.460200    0.502600
  C     -2.497700   -3.215300    0.646600
  O     -3.398500   -3.989000    1.200100
  C     -4.561400   -3.366300    1.123200
  C     -4.412600   -2.135100    0.493100
  C     -3.072700   -2.060300    0.194200
  C     -2.331900   -1.062900   -0.433700
  C     -0.767600    2.114100   -0.532900
  N     -1.734200    2.426100    0.372100
  C     -2.529700    3.518600    0.232800
  C     -2.360300    4.383200   -0.859600
  C     -3.271600    5.568300   -1.053900
  F     -2.611200    6.587600   -1.717800
  F     -4.368600    5.180900   -1.800300
  F     -3.706000    6.056800    0.166300
  C     -1.377700    4.071300   -1.811800
  C     -0.567500    2.944600   -1.647900
  Cl     0.713300    2.630500   -2.811800
  C      3.303700    0.255900    0.006900
  C      4.462700   -0.494100   -0.211200
  H      6.949400   -4.223800    0.830900
  H      3.862200   -3.025700    1.997000
  H      1.834800   -1.707800    2.370300
  H      0.912200   -0.594900   -1.482200
  H     -0.567100    0.101300   -2.189400
  H      0.709200   -2.644600   -0.245500
  H     -0.691100   -4.377500    0.866100
  H     -5.491000   -3.769400    1.501800
  H     -5.180500   -1.401400    0.286100
  H     -2.809200   -0.153700   -0.777800
  H     -3.295000    3.708000    0.973900
  H     -1.234200    4.705600   -2.677800
  H      3.145600    1.168700   -0.554000
  H      5.183600   -0.141100   -0.937900

 Total Charge           Charge          ....    0
 Multiplicity           Mult            ....    1
 Number of Electrons    NEL             ....  260
 Basis Dimension        Dim             ....  512

ORBITAL ENERGIES
----------------

  NO   OCC          E(Eh)            E(eV)
   0   2.0000    -101.555171     -2763.4567
   1   2.0000     -89.101038     -2424.5625
   2   2.0000     -24.732934      -673.0173
   3   2.0000     -24.732826      -673.0144
   4   2.0000     -24.729854      -672.9335
   5   2.0000     -19.217551      -522.9362
   6   2.0000     -19.200950      -522.4844
   7   2.0000     -19.143351      -520.9171
   8   2.0000     -19.125516      -520.4317
   9   2.0000     -19.119220      -520.2604
  10   2.0000     -14.382040      -391.3552
  11   2.0000     -14.359275      -390.7357
  12   2.0000     -10.451314      -284.3947
  13   2.0000     -10.340690      -281.3845
  14   2.0000     -10.298447      -280.2350
  15   2.0000     -10.280307      -279.7414
  16   2.0000     -10.253252      -279.0052
  17   2.0000     -10.249903      -278.9140
  18   2.0000     -10.240528      -278.6589
  19   2.0000     -10.240118      -278.6478
  20   2.0000     -10.239146      -278.6213
  21   2.0000     -10.238822      -278.6125
  22   2.0000     -10.238522      -278.6043
  23   2.0000     -10.231550      -278.4146
  24   2.0000     -10.227779      -278.3120
  25   2.0000     -10.225636      -278.2537
  26   2.0000     -10.223938      -278.2075
  27   2.0000     -10.223335      -278.1911
  28   2.0000     -10.191443      -277.3233
  29   2.0000     -10.188203      -277.2351
  30   2.0000     -10.186877      -277.1990
  31   2.0000     -10.182817      -277.0885
  32   2.0000     -10.174966      -276.8749
  33   2.0000     -10.174158      -276.8529
  34   2.0000      -9.486407      -258.1383
  35   2.0000      -8.136770      -221.4128
  36   2.0000      -7.249652      -197.2731
  37   2.0000      -7.240045      -197.0116
  38   2.0000      -7.239571      -196.9987
  39   2.0000      -6.102215      -166.0497
  40   2.0000      -6.099677      -165.9807
  41   2.0000      -6.099105      -165.9651
  42   2.0000      -1.292879       -35.1810
  43   2.0000      -1.217981       -33.1429
  44   2.0000      -1.217147       -33.1203
  45   2.0000      -1.148014       -31.2391
  46   2.0000      -1.085746       -29.5446
  47   2.0000      -1.083543       -29.4847
  48   2.0000      -1.000109       -27.2144
  49   2.0000      -0.985646       -26.8208
  50   2.0000      -0.959703       -26.1148
  51   2.0000      -0.931336       -25.3430
  52   2.0000      -0.896988       -24.4083
  53   2.0000      -0.894135       -24.3307
  54   2.0000      -0.859829       -23.3971
  55   2.0000      -0.837362       -22.7858
  56   2.0000      -0.813370       -22.1329
  57   2.0000      -0.804534       -21.8925
  58   2.0000      -0.786046       -21.3894
  59   2.0000      -0.782861       -21.3027
  60   2.0000      -0.771047       -20.9812
  61   2.0000      -0.730067       -19.8661
  62   2.0000      -0.728449       -19.8221
  63   2.0000      -0.716008       -19.4836
  64   2.0000      -0.693823       -18.8799
  65   2.0000      -0.671627       -18.2759
  66   2.0000      -0.653247       -17.7758
  67   2.0000      -0.645726       -17.5711
  68   2.0000      -0.637132       -17.3373
  69   2.0000      -0.625284       -17.0148
  70   2.0000      -0.604338       -16.4449
  71   2.0000      -0.601791       -16.3756
  72   2.0000      -0.587411       -15.9843
  73   2.0000      -0.583799       -15.8860
  74   2.0000      -0.583517       -15.8783
  75   2.0000      -0.571751       -15.5581
  76   2.0000      -0.564774       -15.3683
  77   2.0000      -0.547423       -14.8961
  78   2.0000      -0.533176       -14.5085
  79   2.0000      -0.526887       -14.3373
  80   2.0000      -0.520094       -14.1525
  81   2.0000      -0.504489       -13.7278
  82   2.0000      -0.494023       -13.4431
  83   2.0000      -0.484599       -13.1866
  84   2.0000      -0.480064       -13.0632
  85   2.0000      -0.476511       -12.9665
  86   2.0000      -0.474047       -12.8995
  87   2.0000      -0.471847       -12.8396
  88   2.0000      -0.466427       -12.6921
  89   2.0000      -0.463425       -12.6104
  90   2.0000      -0.459863       -12.5135
  91   2.0000      -0.458522       -12.4770
  92   2.0000      -0.453816       -12.3490
  93   2.0000      -0.448093       -12.1932
  94   2.0000      -0.445275       -12.1166
  95   2.0000      -0.440586       -11.9890
  96   2.0000      -0.438162       -11.9230
  97   2.0000      -0.433395       -11.7933
  98   2.0000      -0.427496       -11.6328
  99   2.0000      -0.426185       -11.5971
 100   2.0000      -0.424374       -11.5478
 101   2.0000      -0.418645       -11.3919
 102   2.0000      -0.415156       -11.2970
 103   2.0000      -0.410426       -11.1683
 104   2.0000      -0.399086       -10.8597
 105   2.0000      -0.395959       -10.7746
 106   2.0000      -0.393763       -10.7148
 107   2.0000      -0.391005       -10.6398
 108   2.0000      -0.385613       -10.4931
 109   2.0000      -0.376611       -10.2481
 110   2.0000      -0.373274       -10.1573
 111   2.0000      -0.367664       -10.0047
 112   2.0000      -0.351945        -9.5769
 113   2.0000      -0.340336        -9.2610
 114   2.0000      -0.339401        -9.2356
 115   2.0000      -0.327898        -8.9226
 116   2.0000      -0.324173        -8.8212
 117   2.0000      -0.315420        -8.5830
 118   2.0000      -0.310633        -8.4527
 119   2.0000      -0.300455        -8.1758
 120   2.0000      -0.293603        -7.9894
 121   2.0000      -0.288065        -7.8386
 122   2.0000      -0.285397        -7.7660
 123   2.0000      -0.280159        -7.6235
 124   2.0000      -0.278467        -7.5775
 125   2.0000      -0.275741        -7.5033
 126   2.0000      -0.271807        -7.3962
 127   2.0000      -0.249212        -6.7814
 128   2.0000      -0.231714        -6.3052
 129   2.0000      -0.212589        -5.7848
 130   0.0000      -0.091533        -2.4908
 131   0.0000      -0.063605        -1.7308
 132   0.0000      -0.052178        -1.4198
 133   0.0000      -0.037564        -1.0222
 134   0.0000      -0.021376        -0.5817

MULLIKEN ATOMIC CHARGES
-----------------------
   0 O :   -0.441910
   1 C :    0.529902
   2 O :   -0.622965
   3 C :    0.083914
   4 C :   -0.148748
   5 C :   -0.140087
   6 C :   -0.140622
   7 S :    1.222129
   8 O :   -0.530304
   9 O :   -0.526044
  10 N :   -0.602840
  11 C :   -0.276710
  12 C :    0.152961
  13 C :   -0.180530
  14 C :   -0.192611
  15 C :    0.298786
  16 O :   -0.390039
  17 C :    0.049197
  18 C :   -0.229238
  19 C :    0.144476
  20 C :   -0.205099
  21 C :    0.415551
  22 N :   -0.348924
  23 C :   -0.002431
  24 C :   -0.027502
  25 C :    0.903870
  26 F :   -0.300785
  27 F :   -0.292502
  28 F :   -0.299229
  29 C :   -0.131968
  30 C :   -0.097614
  31 Cl:    0.019520
  32 C :   -0.146204
  33 C :   -0.140906
  34 H :    0.435925
  35 H :    0.176799
  36 H :    0.199557
  37 H :    0.165223
  38 H :    0.185417
  39 H :    0.124435
  40 H :    0.135746
  41 H :    0.161660
  42 H :    0.140598
  43 H :    0.126685
  44 H :    0.185744
  45 H :    0.187788
  46 H :    0.186663
  47 H :    0.183264
Sum of atomic charges:   -0.0000000

LOEWDIN ATOMIC CHARGES
----------------------
   0 O :   -0.258097
   1 C :    0.180146
   2 O :   -0.333562
   3 C :   -0.036350
   4 C :   -0.100369
   5 C :   -0.096339
   6 C :   -0.174351
   7 S :    1.268364
   8 O :   -0.566684
   9 O :   -0.562169
  10 N :   -0.278737
  11 C :   -0.151360
  12 C :   -0.044343
  13 C :   -0.142503
  14 C :   -0.141501
  15 C :    0.046987
  16 O :   -0.014553
  17 C :   -0.048974
  18 C :   -0.179996
  19 C :   -0.042001
  20 C :   -0.115796
  21 C :    0.066720
  22 N :   -0.095034
  23 C :   -0.043944
  24 C :   -0.078756
  25 C :    0.312590
  26 F :   -0.109650
  27 F :   -0.110076
  28 F :   -0.107202
  29 C :   -0.090837
  30 C :   -0.098331
  31 Cl:    0.056119
  32 C :   -0.103582
  33 C :   -0.086203
  34 H :    0.351049
  35 H :    0.156758
  36 H :    0.167723
  37 H :    0.131615
  38 H :    0.149314
  39 H :    0.130233
  40 H :    0.138761
  41 H :    0.143150
  42 H :    0.141006
  43 H :    0.133337
  44 H :    0.153914
  45 H :    0.162406
  46 H :    0.159495
  47 H :    0.161614

  Mayer bond orders larger than 0.100000
B(  0-O ,  1-C ) :   1.8640 B(  1-C ,  2-O ) :   1.0271 B(  1-C ,  3-C ) :   1.0067
B(  2-O , 34-H ) :   0.7407 B(  3-C ,  4-C ) :   1.3847 B(  3-C , 33-C ) :   1.4008
B(  4-C ,  5-C ) :   1.4067 B(  4-C , 35-H ) :   0.9141 B(  5-C ,  6-C ) :   1.4061
B(  5-C , 36-H ) :   0.9034 B(  6-C ,  7-S ) :   0.8114 B(  6-C , 32-C ) :   1.3699
B(  7-S ,  8-O ) :   1.6639 B(  7-S ,  9-O ) :   1.6545 B(  7-S , 10-N ) :   0.7721
B( 10-N , 11-C ) :   0.9160 B( 10-N , 21-C ) :   0.9583 B( 11-C , 12-C ) :   0.9370
B( 11-C , 37-H ) :   0.9246 B( 11-C , 38-H ) :   0.9206 B( 12-C , 13-C ) :   1.3756
B( 12-C , 20-C ) :   1.4368 B( 13-C , 14-C ) :   1.4567 B( 13-C , 39-H ) :   0.9200
B( 14-C , 15-C ) :   1.3896 B( 14-C , 20-C ) :   0.1039 B( 14-C , 40-H ) :   0.9182
B( 15-C , 16-O ) :   1.0061 B( 15-C , 19-C ) :   1.3129 B( 16-O , 17-C ) :   1.0653
B( 17-C , 18-C ) :   1.5947 B( 17-C , 41-H ) :   0.9320 B( 18-C , 19-C ) :   1.2614
B( 18-C , 42-H ) :   0.9273 B( 19-C , 20-C ) :   1.3478 B( 20-C , 43-H ) :   0.9162
B( 21-C , 22-N ) :   1.3823 B( 21-C , 30-C ) :   1.3330 B( 22-N , 23-C ) :   1.4107
B( 23-C , 24-C ) :   1.3552 B( 23-C , 44-H ) :   0.9170 B( 24-C , 25-C ) :   0.9734
B( 24-C , 29-C ) :   1.4081 B( 25-C , 26-F ) :   0.9516 B( 25-C , 27-F ) :   0.9884
B( 25-C , 28-F ) :   0.9521 B( 29-C , 30-C ) :   1.3994 B( 29-C , 45-H ) :   0.9077
B( 30-C , 31-Cl) :   1.0388 B( 32-C , 33-C ) :   1.4281 B( 32-C , 46-H ) :   0.9097
B( 33-C , 47-H ) :   0.9088

FINAL SINGLE POINT ENERGY     -2489.158668588934

DIPOLE MOMENT
-------------

Method             : SCF
Type of density    : Electron Density
Multiplicity       :   1
Irrep              :   0
Energy             : -2489.1586685889337787 Eh
Relativity type    :
Basis              : AO
                                X                 Y                 Z
Electronic contribution:    -12.831822062      35.836398856      -8.797969782
Nuclear contribution   :     12.853760938     -37.333981738       7.659549769
                        -----------------------------------------
Total Dipole Moment    :      0.021938876      -1.497582882      -1.138420013
                        -----------------------------------------
Magnitude (a.u.)       :      1.881285711
Magnitude (Debye)      :      4.781848258

Rotational constants in cm-1:             0.004551             0.002228             0.001666
Rotational constants in MHz :           136.433862            66.784138            49.946118

                             ****ORCA TERMINATED NORMALLY****
TOTAL RUN TIME: 0 days 0 hours 10 minutes 6 seconds 387 msec
