                         Program Version 6.0.0  -   RELEASE  -
|  1> ! B3LYP 6-31G* SP
|  2>
|  3> * xyz 0 1
|  4> C -0.1906 2.6356 -0.9685
|  5> C 0.6576 2.0518 0.1405
|  6> C 0.6345 0.6627 0.4138
|  7> N -0.1515 -0.2402 -0.3735
|  8> C -1.3251 -0.8848 0.2159
|  9> C -2.4837 0.0734 0.2165
| 10> C -3.3621 0.1170 -0.8761
| 11> C -4.3989 1.0533 -0.9106
| 12> C -4.5677 1.9687 0.1346
| 13> O -5.6306 2.8821 0.0473
| 14> C -5.9520 3.8686 1.0266
| 15> F -7.0751 4.5584 0.6138
| 16> F -4.9051 4.7626 1.1650
| 17> F -6.2219 3.2650 2.2428
| 18> C -3.6729 1.9390 1.2245
| 19> C -2.6393 0.9980 1.2617
| 20> S 0.4335 -0.7524 -1.9255
| 21> O 1.5243 0.1689 -2.3969
| 22> O -0.6882 -0.7034 -2.9251
| 23> C 1.0724 -2.3861 -1.7976
| 24> C 2.3452 -2.5965 -1.2559
| 25> C 2.8587 -3.8921 -1.1426
| 26> C 2.0989 -5.0005 -1.5613
| 27> C 2.6289 -6.3827 -1.4562
| 28> O 2.1532 -7.2848 -2.1997
| 29> N 3.6572 -6.7166 -0.5118
| 30> C 4.2316 -7.9964 -0.4869
| 31> N 4.7053 -9.0520 -0.4664
| 32> C 0.8212 -4.7787 -2.1074
| 33> C 0.3100 -3.4824 -2.2171
| 34> N 1.3537 0.1590 1.4505
| 35> C 2.1265 0.9362 2.2463
| 36> C 2.2137 2.3108 2.0132
| 37> C 3.0215 3.1158 2.8310
| 38> C 3.1105 4.4880 2.5959
| 39> C 2.3970 5.0653 1.5452
| 40> C 1.5870 4.2758 0.7242
| 41> C 1.4776 2.8848 0.9460
| 42> H -0.8499 3.4315 -0.5602
| 43> H -0.8528 1.8894 -1.4453
| 44> H 0.4657 3.0635 -1.7536
| 45> H -1.5932 -1.7982 -0.3590
| 46> H -1.0963 -1.2194 1.2519
| 47> H -3.2435 -0.5715 -1.7031
| 48> H -5.0707 1.0739 -1.7604
| 49> H -3.7624 2.6381 2.0448
| 50> H -1.9512 0.9986 2.0993
| 51> H 2.9424 -1.7563 -0.9244
| 52> H 3.8581 -4.0155 -0.7488
| 53> H 3.9453 -6.0398 0.2268
| 54> H 0.2106 -5.6097 -2.4394
| 55> H -0.6805 -3.3367 -2.6280
| 56> H 2.6757 0.4766 3.0589
| 57> H 3.5831 2.6833 3.6510
| 58> H 3.7344 5.1056 3.2290
| 59> H 2.4723 6.1301 1.3653
| 60> H 1.0573 4.7653 -0.0811
| 61> *
| 62>
| 63>                          ****END OF INPUT****

CARTESIAN COORDINATES (ANGSTROEM)
---------------------------------
  C     -0.190600    2.635600   -0.968500
  C      0.657600    2.051800    0.140500
  C      0.634500    0.662700    0.413800
  N     -0.151500   -0.240200   -0.373500
  C     -1.325100   -0.884800    0.215900
  C     -2.483700    0.073400    0.216500
  C     -3.362100    0.117000   -0.876100
  C     -4.398900    1.053300   -0.910600
  C     -4.567700    1.968700    0.134600
  O     -5.630600    2.882100    0.047300
  C     -5.952000    3.868600    1.026600
  F     -7.075100    4.558400    0.613800
  F     -4.905100    4.762600    1.165000
  F     -6.221900    3.265000    2.242800
  C     -3.672900    1.939000    1.224500
  C     -2.639300    0.998000    1.261700
  S      0.433500   -0.752400   -1.925500
  O      1.524300    0.168900   -2.396900
  O     -0.688200   -0.703400   -2.925100
  C      1.072400   -2.386100   -1.797600
  C      2.345200   -2.596500   -1.255900
  C      2.858700   -3.892100   -1.142600
  C      2.098900   -5.000500   -1.561300
  C      2.628900   -6.382700   -1.456200
  O      2.153200   -7.284800   -2.199700
  N      3.657200   -6.716600   -0.511800
  C      4.231600   -7.996400   -0.486900
  N      4.705300   -9.052000   -0.466400
  C      0.821200   -4.778700   -2.107400
  C      0.310000   -3.482400   -2.217100
  N      1.353700    0.159000    1.450500
  C      2.126500    0.936200    2.246300
  C      2.213700    2.310800    2.013200
  C      3.021500    3.115800    2.831000
  C      3.110500    4.488000    2.595900
  C      2.397000    5.065300    1.545200
  C      1.587000    4.275800    0.724200
  C      1.477600    2.884800    0.946000
  H     -0.849900    3.431500   -0.560200
  H     -0.852800    1.889400   -1.445300
  H      0.465700    3.063500   -1.753600
  H     -1.593200   -1.798200   -0.359000
  H     -1.096300   -1.219400    1.251900
  H     -3.243500   -0.571500   -1.703100
  H     -5.070700    1.073900   -1.760400
  H     -3.762400    2.638100    2.044800
  H     -1.951200    0.998600    2.099300
  H      2.942400   -1.756300   -0.924400
  H      3.858100   -4.015500   -0.748800
  H      3.945300   -6.039800    0.226800
  H      0.210600   -5.609700   -2.439400
  H     -0.680500   -3.336700   -2.628000
  H      2.675700    0.476600    3.058900
  H      3.583100    2.683300    3.651000
  H      3.734400    5.105600    3.229000
  H      2.472300    6.130100    1.365300
  H      1.057300    4.765300   -0.081100

 Total Charge           Charge          ....    0
 Multiplicity           Mult            ....    1
 Number of Electrons    NEL             ....  278
 Basis Dimension        Dim             ....  574

ORBITAL ENERGIES
----------------

  NO   OCC          E(Eh)            E(eV)
   0   2.0000     -89.107012     -2424.7251
   1   2.0000     -24.743240      -673.2978
   2   2.0000     -24.741544      -673.2516
   3   2.0000     -24.741139      -673.2406
   4   2.0000     -19.215028      -522.8675
   5   2.0000     -19.153831      -521.2022
   6   2.0000     -19.137026      -520.7449
   7   2.0000     -19.135994      -520.7169
   8   2.0000     -14.434158      -392.7734
   9   2.0000     -14.379193      -391.2777
  10   2.0000     -14.346821      -390.3968
  11   2.0000     -14.340094      -390.2138
  12   2.0000     -10.506076      -285.8849
  13   2.0000     -10.337625      -281.3011
  14   2.0000     -10.271368      -279.4981
  15   2.0000     -10.270888      -279.4851
  16   2.0000     -10.264330      -279.3066
  17   2.0000     -10.252445      -278.9832
  18   2.0000     -10.245039      -278.7817
  19   2.0000     -10.240631      -278.6617
  20   2.0000     -10.234760      -278.5020
  21   2.0000     -10.233018      -278.4546
  22   2.0000     -10.232329      -278.4358
  23   2.0000     -10.231486      -278.4129
  24   2.0000     -10.228501      -278.3317
  25   2.0000     -10.215523      -277.9785
  26   2.0000     -10.211750      -277.8758
  27   2.0000     -10.207085      -277.7489
  28   2.0000     -10.203919      -277.6628
  29   2.0000     -10.203298      -277.6459
  30   2.0000     -10.202180      -277.6154
  31   2.0000     -10.201269      -277.5906
  32   2.0000     -10.200248      -277.5628
  33   2.0000     -10.199772      -277.5499
  34   2.0000     -10.199342      -277.5382
  35   2.0000     -10.198382      -277.5121
  36   2.0000     -10.196633      -277.4645
  37   2.0000     -10.176667      -276.9212
  38   2.0000      -8.142793      -221.5767
  39   2.0000      -6.107732      -166.1998
  40   2.0000      -6.105877      -166.1494
  41   2.0000      -6.105470      -166.1383
  42   2.0000      -1.306135       -35.5417
  43   2.0000      -1.227060       -33.3900
  44   2.0000      -1.226401       -33.3721
  45   2.0000      -1.093840       -29.7649
  46   2.0000      -1.084695       -29.5161
  47   2.0000      -1.054918       -28.7058
  48   2.0000      -0.973309       -26.4851
  49   2.0000      -0.969982       -26.3945
  50   2.0000      -0.967551       -26.3284
  51   2.0000      -0.922167       -25.0934
  52   2.0000      -0.906530       -24.6679
  53   2.0000      -0.900432       -24.5020
  54   2.0000      -0.871453       -23.7134
  55   2.0000      -0.865720       -23.5574
  56   2.0000      -0.819749       -22.3065
  57   2.0000      -0.811781       -22.0897
  58   2.0000      -0.790606       -21.5135
  59   2.0000      -0.789120       -21.4730
  60   2.0000      -0.779866       -21.2212
  61   2.0000      -0.761067       -20.7097
  62   2.0000      -0.748884       -20.3782
  63   2.0000      -0.734626       -19.9902
  64   2.0000      -0.717866       -19.5341
  65   2.0000      -0.700109       -19.0509
  66   2.0000      -0.685003       -18.6399
  67   2.0000      -0.667026       -18.1507
  68   2.0000      -0.651825       -17.7371
  69   2.0000      -0.649473       -17.6730
  70   2.0000      -0.638346       -17.3703
  71   2.0000      -0.630521       -17.1573
  72   2.0000      -0.624541       -16.9946
  73   2.0000      -0.608378       -16.5548
  74   2.0000      -0.603647       -16.4261
  75   2.0000      -0.599270       -16.3070
  76   2.0000      -0.598397       -16.2832
  77   2.0000      -0.593641       -16.1538
  78   2.0000      -0.575910       -15.6713
  79   2.0000      -0.571483       -15.5508
  80   2.0000      -0.553094       -15.0504
  81   2.0000      -0.540414       -14.7054
  82   2.0000      -0.524432       -14.2705
  83   2.0000      -0.508929       -13.8487
  84   2.0000      -0.504454       -13.7269
  85   2.0000      -0.503888       -13.7115
  86   2.0000      -0.490632       -13.3508
  87   2.0000      -0.488251       -13.2860
  88   2.0000      -0.484044       -13.1715
  89   2.0000      -0.482210       -13.1216
  90   2.0000      -0.472031       -12.8446
  91   2.0000      -0.471773       -12.8376
  92   2.0000      -0.462723       -12.5913
  93   2.0000      -0.462402       -12.5826
  94   2.0000      -0.456509       -12.4222
  95   2.0000      -0.454503       -12.3676
  96   2.0000      -0.453780       -12.3480
  97   2.0000      -0.450558       -12.2603
  98   2.0000      -0.449049       -12.2192
  99   2.0000      -0.447546       -12.1783
 100   2.0000      -0.437777       -11.9125
 101   2.0000      -0.436573       -11.8797
 102   2.0000      -0.433303       -11.7908
 103   2.0000      -0.432625       -11.7723
 104   2.0000      -0.428712       -11.6659
 105   2.0000      -0.418631       -11.3915
 106   2.0000      -0.417843       -11.3701
 107   2.0000      -0.414024       -11.2662
 108   2.0000      -0.409369       -11.1395
 109   2.0000      -0.409066       -11.1312
 110   2.0000      -0.406772       -11.0688
 111   2.0000      -0.398661       -10.8481
 112   2.0000      -0.388866       -10.5816
 113   2.0000      -0.387928       -10.5561
 114   2.0000      -0.383289       -10.4298
 115   2.0000      -0.378402       -10.2968
 116   2.0000      -0.372978       -10.1492
 117   2.0000      -0.372102       -10.1254
 118   2.0000      -0.371386       -10.1059
 119   2.0000      -0.361280        -9.8309
 120   2.0000      -0.356236        -9.6937
 121   2.0000      -0.350603        -9.5404
 122   2.0000      -0.349302        -9.5050
 123   2.0000      -0.349038        -9.4978
 124   2.0000      -0.334491        -9.1020
 125   2.0000      -0.319983        -8.7072
 126   2.0000      -0.309785        -8.4297
 127   2.0000      -0.298416        -8.1203
 128   2.0000      -0.295442        -8.0394
 129   2.0000      -0.293550        -7.9879
 130   2.0000      -0.291752        -7.9390
 131   2.0000      -0.285157        -7.7595
 132   2.0000      -0.284300        -7.7362
 133   2.0000      -0.274615        -7.4727
 134   2.0000      -0.264190        -7.1890
 135   2.0000      -0.263880        -7.1805
 136   2.0000      -0.260318        -7.0836
 137   2.0000      -0.241504        -6.5717
 138   2.0000      -0.228689        -6.2229
 139   0.0000      -0.094813        -2.5800
 140   0.0000      -0.067151        -1.8273
 141   0.0000      -0.045429        -1.2362
 142   0.0000      -0.041203        -1.1212
 143   0.0000      -0.018393        -0.5005

MULLIKEN ATOMIC CHARGES
-----------------------
   0 C :   -0.542341
   1 C :    0.129934
   2 C :    0.300165
   3 N :   -0.600636
   4 C :   -0.251858
   5 C :    0.169198
   6 C :   -0.158997
   7 C :   -0.172247
   8 C :    0.352993
   9 O :   -0.544444
  10 C :    1.086217
  11 F :   -0.278333
  12 F :   -0.292044
  13 F :   -0.291618
  14 C :   -0.191916
  15 C :   -0.172772
  16 S :    1.224649
  17 O :   -0.547446
  18 O :   -0.551075
  19 C :   -0.119453
  20 C :   -0.132113
  21 C :   -0.164535
  22 C :    0.077671
  23 C :    0.512621
  24 O :   -0.426653
  25 N :   -0.681212
  26 C :    0.395097
  27 N :   -0.266018
  28 C :   -0.132753
  29 C :   -0.151699
  30 N :   -0.403138
  31 C :   -0.061714
  32 C :    0.139483
  33 C :   -0.204524
  34 C :   -0.125219
  35 C :   -0.120686
  36 C :   -0.194111
  37 C :    0.116329
  38 H :    0.155633
  39 H :    0.198958
  40 H :    0.177777
  41 H :    0.163676
  42 H :    0.178364
  43 H :    0.160140
  44 H :    0.153095
  45 H :    0.152387
  46 H :    0.143938
  47 H :    0.189180
  48 H :    0.146816
  49 H :    0.369042
  50 H :    0.184457
  51 H :    0.187425
  52 H :    0.149134
  53 H :    0.138366
  54 H :    0.138466
  55 H :    0.141253
  56 H :    0.147089
Sum of atomic charges:   -0.0000000

LOEWDIN ATOMIC CHARGES
----------------------
   0 C :   -0.361591
   1 C :    0.009499
   2 C :    0.019225
   3 N :   -0.275619
   4 C :   -0.145781
   5 C :   -0.040131
   6 C :   -0.112580
   7 C :   -0.138718
   8 C :    0.087604
   9 O :   -0.159353
  10 C :    0.360079
  11 F :   -0.086803
  12 F :   -0.105677
  13 F :   -0.105456
  14 C :   -0.161238
  15 C :   -0.123227
  16 S :    1.264440
  17 O :   -0.567008
  18 O :   -0.574684
  19 C :   -0.172979
  20 C :   -0.090925
  21 C :   -0.118119
  22 C :   -0.038128
  23 C :    0.162680
  24 O :   -0.235846
  25 N :   -0.211829
  26 C :    0.031460
  27 N :   -0.091005
  28 C :   -0.084141
  29 C :   -0.104186
  30 N :   -0.141977
  31 C :   -0.066615
  32 C :   -0.027943
  33 C :   -0.113714
  34 C :   -0.123372
  35 C :   -0.116007
  36 C :   -0.117347
  37 C :   -0.006832
  38 H :    0.134146
  39 H :    0.152970
  40 H :    0.147094
  41 H :    0.138155
  42 H :    0.139468
  43 H :    0.147651
  44 H :    0.147258
  45 H :    0.141889
  46 H :    0.138874
  47 H :    0.162470
  48 H :    0.139646
  49 H :    0.281161
  50 H :    0.162186
  51 H :    0.161223
  52 H :    0.135281
  53 H :    0.136665
  54 H :    0.136581
  55 H :    0.138236
  56 H :    0.142894

  Mayer bond orders larger than 0.100000
B(  0-C ,  1-C ) :   1.0106 B(  0-C , 38-H ) :   0.9254 B(  0-C , 39-H ) :   0.9172
B(  0-C , 40-H ) :   0.9207 B(  1-C ,  2-C ) :   1.4300 B(  1-C , 37-C ) :   1.2608
B(  2-C ,  3-N ) :   0.8916 B(  2-C , 30-N ) :   1.2818 B(  3-N ,  4-C ) :   0.9196
B(  3-N , 16-S ) :   0.8128 B(  4-C ,  5-C ) :   0.9505 B(  4-C , 41-H ) :   0.9227
B(  4-C , 42-H ) :   0.9183 B(  5-C ,  6-C ) :   1.4318 B(  5-C , 15-C ) :   1.4315
B(  6-C ,  7-C ) :   1.4376 B(  6-C , 43-H ) :   0.9128 B(  7-C ,  8-C ) :   1.4153
B(  7-C , 44-H ) :   0.9177 B(  8-C ,  9-O ) :   0.8252 B(  8-C , 14-C ) :   1.3918
B(  9-O , 10-C ) :   0.9903 B( 10-C , 11-F ) :   1.0088 B( 10-C , 12-F ) :   0.9683
B( 10-C , 13-F ) :   0.9679 B( 14-C , 15-C ) :   1.4296 B( 14-C , 45-H ) :   0.9097
B( 15-C , 46-H ) :   0.9207 B( 16-S , 17-O ) :   1.6325 B( 16-S , 18-O ) :   1.6159
B( 16-S , 19-C ) :   0.8084 B( 19-C , 20-C ) :   1.3988 B( 19-C , 29-C ) :   1.3863
B( 20-C , 21-C ) :   1.4425 B( 20-C , 47-H ) :   0.9066 B( 21-C , 22-C ) :   1.3755
B( 21-C , 48-H ) :   0.9191 B( 22-C , 23-C ) :   0.9916 B( 22-C , 28-C ) :   1.4053
B( 23-C , 24-O ) :   1.8850 B( 23-C , 25-N ) :   0.9380 B( 25-N , 26-C ) :   1.0076
B( 25-N , 49-H ) :   0.8006 B( 26-C , 27-N ) :   2.9677 B( 28-C , 29-C ) :   1.4168
B( 28-C , 50-H ) :   0.9097 B( 29-C , 51-H ) :   0.9079 B( 30-N , 31-C ) :   1.4940
B( 31-C , 32-C ) :   1.2422 B( 31-C , 52-H ) :   0.9267 B( 32-C , 33-C ) :   1.2834
B( 32-C , 37-C ) :   1.2909 B( 33-C , 34-C ) :   1.5122 B( 33-C , 36-C ) :   0.1058
B( 33-C , 53-H ) :   0.9235 B( 34-C , 35-C ) :   1.3527 B( 34-C , 54-H ) :   0.9289
B( 35-C , 36-C ) :   1.5069 B( 35-C , 55-H ) :   0.9285 B( 36-C , 37-C ) :   1.2970
B( 36-C , 56-H ) :   0.9147

FINAL SINGLE POINT ENERGY     -2218.633847322174

DIPOLE MOMENT
-------------

Method             : SCF
Type of density    : Electron Density
Multiplicity       :   1
Irrep              :   0
Energy             : -2218.6338473221735512 Eh
Relativity type    :
Basis              : AO
                                X                 Y                 Z
Electronic contribution:    -26.812866989       4.590489730       1.828161626
Nuclear contribution   :     27.215926157      -2.550640778       0.483489735
                        -----------------------------------------
Total Dipole Moment    :      0.403059168       2.039848952       2.311651361
                        -----------------------------------------
Magnitude (a.u.)       :      3.109207689
Magnitude (Debye)      :      7.902977886

Rotational constants in cm-1:             0.004441             0.001421             0.001183
Rotational constants in MHz :           133.133257            42.603809            35.460646

                             ****ORCA TERMINATED NORMALLY****
TOTAL RUN TIME: 0 days 0 hours 8 minutes 11 seconds 162 msec
