                         Program Version 6.0.0  -   RELEASE  -
|  1> ! B3LYP 6-31G* SP
|  2>
|  3> * xyz 0 1
|  4> C 9.9615 -0.1424 -1.5921
|  5> C 8.4999 -0.5066 -1.3718
|  6> O 7.6835 0.5120 -1.8944
|  7> N 6.3994 0.1588 -1.6206
|  8> C 5.7280 0.6986 -0.4749
|  9> O 6.2844 1.6215 0.1799
| 10> C 4.3957 0.2012 -0.0498
| 11> C 3.5953 0.9829 0.8032
| 12> C 2.3484 0.5185 1.2321
| 13> C 1.8849 -0.7391 0.8234
| 14> S 0.3149 -1.3211 1.3630
| 15> O -0.0291 -0.7115 2.6933
| 16> O 0.3602 -2.8143 1.5329
| 17> N -0.8890 -0.8842 0.1909
| 18> C -1.3614 -1.8618 -0.7932
| 19> C -2.7818 -2.2432 -0.4801
| 20> C -3.8460 -1.4747 -0.9756
| 21> C -5.1625 -1.7658 -0.6031
| 22> C -5.4308 -2.8311 0.2799
| 23> O -6.7298 -3.1612 0.6980
| 24> C -7.9149 -2.4435 0.3553
| 25> F -8.9932 -3.0461 0.9697
| 26> F -8.1123 -2.4684 -1.0168
| 27> F -7.8206 -1.1363 0.8002
| 28> C -4.3651 -3.5933 0.7741
| 29> C -3.0497 -3.2997 0.4037
| 30> C -1.1880 0.5027 0.0082
| 31> N -0.5060 1.1876 -0.9451
| 32> C -0.7080 2.5052 -1.1783
| 33> C -1.6475 3.2150 -0.4277
| 34> C -1.8580 4.5813 -0.6677
| 35> C -2.8034 5.2886 0.0775
| 36> C -3.5423 4.6390 1.0655
| 37> C -3.3417 3.2789 1.3155
| 38> C -2.3899 2.5431 0.5745
| 39> C -2.1583 1.1614 0.8003
| 40> C -2.9433 0.4084 1.8489
| 41> C 2.6709 -1.5216 -0.0297
| 42> C 3.9199 -1.0606 -0.4582
| 43> H 10.6154 -0.9375 -1.1722
| 44> H 10.1930 0.8186 -1.0833
| 45> H 10.1689 -0.0414 -2.6805
| 46> H 8.2891 -1.4698 -1.8883
| 47> H 8.3294 -0.6290 -0.2762
| 48> H 5.8833 -0.4196 -2.3176
| 49> H 3.9323 1.9588 1.1351
| 50> H 1.7455 1.1400 1.8831
| 51> H -1.2900 -1.4387 -1.8211
| 52> H -0.7145 -2.7662 -0.7860
| 53> H -3.6543 -0.6366 -1.6344
| 54> H -5.9602 -1.1476 -0.9952
| 55> H -4.5549 -4.4130 1.4576
| 56> H -2.2382 -3.8938 0.8094
| 57> H -0.1324 2.9972 -1.9524
| 58> H -1.2906 5.0994 -1.4309
| 59> H -2.9630 6.3434 -0.1102
| 60> H -4.2772 5.1884 1.6393
| 61> H -3.9359 2.8176 2.0909
| 62> H -2.7579 0.8540 2.8495
| 63> H -4.0268 0.4591 1.6094
| 64> H -2.6721 -0.6616 1.9084
| 65> H 2.3215 -2.4932 -0.3581
| 66> H 4.5156 -1.7067 -1.0872
| 67> *
| 68>
| 69>                          ****END OF INPUT****

CARTESIAN COORDINATES (ANGSTROEM)
---------------------------------
  C      9.961500   -0.142400   -1.592100
  C      8.499900   -0.506600   -1.371800
  O      7.683500    0.512000   -1.894400
  N      6.399400    0.158800   -1.620600
  C      5.728000    0.698600   -0.474900
  O      6.284400    1.621500    0.179900
  C      4.395700    0.201200   -0.049800
  C      3.595300    0.982900    0.803200
  C      2.348400    0.518500    1.232100
  C      1.884900   -0.739100    0.823400
  S      0.314900   -1.321100    1.363000
  O     -0.029100   -0.711500    2.693300
  O      0.360200   -2.814300    1.532900
  N     -0.889000   -0.884200    0.190900
  C     -1.361400   -1.861800   -0.793200
  C     -2.781800   -2.243200   -0.480100
  C     -3.846000   -1.474700   -0.975600
  C     -5.162500   -1.765800   -0.603100
  C     -5.430800   -2.831100    0.279900
  O     -6.729800   -3.161200    0.698000
  C     -7.914900   -2.443500    0.355300
  F     -8.993200   -3.046100    0.969700
  F     -8.112300   -2.468400   -1.016800
  F     -7.820600   -1.136300    0.800200
  C     -4.365100   -3.593300    0.774100
  C     -3.049700   -3.299700    0.403700
  C     -1.188000    0.502700    0.008200
  N     -0.506000    1.187600   -0.945100
  C     -0.708000    2.505200   -1.178300
  C     -1.647500    3.215000   -0.427700
  C     -1.858000    4.581300   -0.667700
  C     -2.803400    5.288600    0.077500
  C     -3.542300    4.639000    1.065500
  C     -3.341700    3.278900    1.315500
  C     -2.389900    2.543100    0.574500
  C     -2.158300    1.161400    0.800300
  C     -2.943300    0.408400    1.848900
  C      2.670900   -1.521600   -0.029700
  C      3.919900   -1.060600   -0.458200
  H     10.615400   -0.937500   -1.172200
  H     10.193000    0.818600   -1.083300
  H     10.168900   -0.041400   -2.680500
  H      8.289100   -1.469800   -1.888300
  H      8.329400   -0.629000   -0.276200
  H      5.883300   -0.419600   -2.317600
  H      3.932300    1.958800    1.135100
  H      1.745500    1.140000    1.883100
  H     -1.290000   -1.438700   -1.821100
  H     -0.714500   -2.766200   -0.786000
  H     -3.654300   -0.636600   -1.634400
  H     -5.960200   -1.147600   -0.995200
  H     -4.554900   -4.413000    1.457600
  H     -2.238200   -3.893800    0.809400
  H     -0.132400    2.997200   -1.952400
  H     -1.290600    5.099400   -1.430900
  H     -2.963000    6.343400   -0.110200
  H     -4.277200    5.188400    1.639300
  H     -3.935900    2.817600    2.090900
  H     -2.757900    0.854000    2.849500
  H     -4.026800    0.459100    1.609400
  H     -2.672100   -0.661600    1.908400
  H      2.321500   -2.493200   -0.358100
  H      4.515600   -1.706700   -1.087200

 Total Charge           Charge          ....    0
 Multiplicity           Mult            ....    1
 Number of Electrons    NEL             ....  290
 Basis Dimension        Dim             ....  598

ORBITAL ENERGIES
----------------

  NO   OCC          E(Eh)            E(eV)
   0   2.0000     -89.097647     -2424.4702
   1   2.0000     -24.741246      -673.2435
   2   2.0000     -24.738918      -673.1802
   3   2.0000     -24.738640      -673.1726
   4   2.0000     -19.211603      -522.7743
   5   2.0000     -19.200063      -522.4603
   6   2.0000     -19.130436      -520.5656
   7   2.0000     -19.125826      -520.4402
   8   2.0000     -19.115885      -520.1697
   9   2.0000     -14.407552      -392.0494
  10   2.0000     -14.370930      -391.0529
  11   2.0000     -14.335340      -390.0844
  12   2.0000     -10.503548      -285.8161
  13   2.0000     -10.299883      -280.2741
  14   2.0000     -10.267455      -279.3916
  15   2.0000     -10.259119      -279.1648
  16   2.0000     -10.236438      -278.5476
  17   2.0000     -10.234983      -278.5080
  18   2.0000     -10.230868      -278.3961
  19   2.0000     -10.227825      -278.3133
  20   2.0000     -10.224597      -278.2254
  21   2.0000     -10.218327      -278.0548
  22   2.0000     -10.216583      -278.0074
  23   2.0000     -10.214752      -277.9575
  24   2.0000     -10.211895      -277.8798
  25   2.0000     -10.209438      -277.8129
  26   2.0000     -10.208478      -277.7868
  27   2.0000     -10.203705      -277.6569
  28   2.0000     -10.200861      -277.5795
  29   2.0000     -10.200434      -277.5679
  30   2.0000     -10.199449      -277.5411
  31   2.0000     -10.198273      -277.5091
  32   2.0000     -10.195847      -277.4431
  33   2.0000     -10.194915      -277.4177
  34   2.0000     -10.194649      -277.4105
  35   2.0000     -10.194469      -277.4056
  36   2.0000     -10.191775      -277.3323
  37   2.0000     -10.179194      -276.9900
  38   2.0000     -10.171622      -276.7839
  39   2.0000      -8.133465      -221.3228
  40   2.0000      -6.098412      -165.9462
  41   2.0000      -6.096656      -165.8984
  42   2.0000      -6.096023      -165.8812
  43   2.0000      -1.303456       -35.4688
  44   2.0000      -1.224574       -33.3223
  45   2.0000      -1.223980       -33.3062
  46   2.0000      -1.119588       -30.4655
  47   2.0000      -1.085296       -29.5324
  48   2.0000      -1.081247       -29.4222
  49   2.0000      -1.008091       -27.4316
  50   2.0000      -0.966589       -26.3022
  51   2.0000      -0.963728       -26.2244
  52   2.0000      -0.916117       -24.9288
  53   2.0000      -0.885741       -24.1022
  54   2.0000      -0.868267       -23.6267
  55   2.0000      -0.861375       -23.4392
  56   2.0000      -0.857270       -23.3275
  57   2.0000      -0.808979       -22.0134
  58   2.0000      -0.799828       -21.7644
  59   2.0000      -0.785450       -21.3732
  60   2.0000      -0.775775       -21.1099
  61   2.0000      -0.772227       -21.0134
  62   2.0000      -0.756669       -20.5900
  63   2.0000      -0.748675       -20.3725
  64   2.0000      -0.743808       -20.2401
  65   2.0000      -0.725921       -19.7533
  66   2.0000      -0.702593       -19.1185
  67   2.0000      -0.692256       -18.8373
  68   2.0000      -0.672320       -18.2947
  69   2.0000      -0.647274       -17.6132
  70   2.0000      -0.644767       -17.5450
  71   2.0000      -0.634895       -17.2764
  72   2.0000      -0.632061       -17.1992
  73   2.0000      -0.622475       -16.9384
  74   2.0000      -0.619156       -16.8481
  75   2.0000      -0.603664       -16.4265
  76   2.0000      -0.596155       -16.2222
  77   2.0000      -0.595810       -16.2128
  78   2.0000      -0.591984       -16.1087
  79   2.0000      -0.588332       -16.0093
  80   2.0000      -0.571415       -15.5490
  81   2.0000      -0.565523       -15.3887
  82   2.0000      -0.554668       -15.0933
  83   2.0000      -0.536466       -14.5980
  84   2.0000      -0.530252       -14.4289
  85   2.0000      -0.516133       -14.0447
  86   2.0000      -0.504651       -13.7323
  87   2.0000      -0.498843       -13.5742
  88   2.0000      -0.486528       -13.2391
  89   2.0000      -0.484686       -13.1890
  90   2.0000      -0.483713       -13.1625
  91   2.0000      -0.476375       -12.9628
  92   2.0000      -0.471714       -12.8360
  93   2.0000      -0.469650       -12.7798
  94   2.0000      -0.467620       -12.7246
  95   2.0000      -0.466789       -12.7020
  96   2.0000      -0.460722       -12.5369
  97   2.0000      -0.458849       -12.4859
  98   2.0000      -0.451005       -12.2725
  99   2.0000      -0.450194       -12.2504
 100   2.0000      -0.446177       -12.1411
 101   2.0000      -0.445042       -12.1102
 102   2.0000      -0.444807       -12.1038
 103   2.0000      -0.434760       -11.8304
 104   2.0000      -0.433035       -11.7835
 105   2.0000      -0.429608       -11.6902
 106   2.0000      -0.428528       -11.6608
 107   2.0000      -0.426075       -11.5941
 108   2.0000      -0.420200       -11.4342
 109   2.0000      -0.416316       -11.3285
 110   2.0000      -0.408050       -11.1036
 111   2.0000      -0.405837       -11.0434
 112   2.0000      -0.404672       -11.0117
 113   2.0000      -0.401982       -10.9385
 114   2.0000      -0.399374       -10.8675
 115   2.0000      -0.395067       -10.7503
 116   2.0000      -0.390891       -10.6367
 117   2.0000      -0.383523       -10.4362
 118   2.0000      -0.378776       -10.3070
 119   2.0000      -0.374044       -10.1782
 120   2.0000      -0.372713       -10.1420
 121   2.0000      -0.371609       -10.1120
 122   2.0000      -0.367562       -10.0019
 123   2.0000      -0.364644        -9.9225
 124   2.0000      -0.357986        -9.7413
 125   2.0000      -0.355888        -9.6842
 126   2.0000      -0.352473        -9.5913
 127   2.0000      -0.345892        -9.4122
 128   2.0000      -0.343578        -9.3492
 129   2.0000      -0.328153        -8.9295
 130   2.0000      -0.310197        -8.4409
 131   2.0000      -0.294869        -8.0238
 132   2.0000      -0.292353        -7.9553
 133   2.0000      -0.291598        -7.9348
 134   2.0000      -0.285862        -7.7787
 135   2.0000      -0.275830        -7.5057
 136   2.0000      -0.274206        -7.4615
 137   2.0000      -0.269969        -7.3462
 138   2.0000      -0.260713        -7.0944
 139   2.0000      -0.259301        -7.0559
 140   2.0000      -0.256303        -6.9744
 141   2.0000      -0.252787        -6.8787
 142   2.0000      -0.249638        -6.7930
 143   2.0000      -0.237019        -6.4496
 144   2.0000      -0.226064        -6.1515
 145   0.0000      -0.071099        -1.9347
 146   0.0000      -0.064272        -1.7489
 147   0.0000      -0.036519        -0.9937
 148   0.0000      -0.027607        -0.7512
 149   0.0000      -0.014031        -0.3818

MULLIKEN ATOMIC CHARGES
-----------------------
   0 C :   -0.465024
   1 C :    0.013764
   2 O :   -0.326372
   3 N :   -0.384086
   4 C :    0.500622
   5 O :   -0.462202
   6 C :    0.085049
   7 C :   -0.140190
   8 C :   -0.138316
   9 C :   -0.109135
  10 S :    1.214966
  11 O :   -0.546829
  12 O :   -0.554901
  13 N :   -0.592528
  14 C :   -0.244091
  15 C :    0.162986
  16 C :   -0.172122
  17 C :   -0.192508
  18 C :    0.352429
  19 O :   -0.544820
  20 C :    1.085910
  21 F :   -0.277838
  22 F :   -0.292373
  23 F :   -0.292517
  24 C :   -0.170930
  25 C :   -0.166278
  26 C :    0.264941
  27 N :   -0.386540
  28 C :   -0.062172
  29 C :    0.138994
  30 C :   -0.204501
  31 C :   -0.125854
  32 C :   -0.120386
  33 C :   -0.195135
  34 C :    0.116059
  35 C :    0.125259
  36 C :   -0.531708
  37 C :   -0.142467
  38 C :   -0.163470
  39 H :    0.151046
  40 H :    0.171779
  41 H :    0.155042
  42 H :    0.116170
  43 H :    0.146788
  44 H :    0.331321
  45 H :    0.178257
  46 H :    0.183308
  47 H :    0.168723
  48 H :    0.180902
  49 H :    0.140667
  50 H :    0.150855
  51 H :    0.152579
  52 H :    0.169397
  53 H :    0.151519
  54 H :    0.139526
  55 H :    0.138201
  56 H :    0.140514
  57 H :    0.146610
  58 H :    0.169763
  59 H :    0.154081
  60 H :    0.199811
  61 H :    0.170963
  62 H :    0.136492
Sum of atomic charges:   -0.0000000

LOEWDIN ATOMIC CHARGES
----------------------
   0 C :   -0.368620
   1 C :   -0.102640
   2 O :   -0.140981
   3 N :   -0.133176
   4 C :    0.126841
   5 O :   -0.272266
   6 C :   -0.031828
   7 C :   -0.087508
   8 C :   -0.096591
   9 C :   -0.174414
  10 S :    1.266409
  11 O :   -0.569273
  12 O :   -0.577990
  13 N :   -0.276577
  14 C :   -0.146843
  15 C :   -0.039135
  16 C :   -0.123719
  17 C :   -0.162509
  18 C :    0.086476
  19 O :   -0.159969
  20 C :    0.360657
  21 F :   -0.085814
  22 F :   -0.107146
  23 F :   -0.106162
  24 C :   -0.138564
  25 C :   -0.113651
  26 C :    0.009959
  27 N :   -0.136022
  28 C :   -0.065779
  29 C :   -0.028768
  30 C :   -0.113213
  31 C :   -0.123551
  32 C :   -0.116755
  33 C :   -0.118427
  34 C :   -0.008861
  35 C :    0.006510
  36 C :   -0.359003
  37 C :   -0.101928
  38 C :   -0.122285
  39 H :    0.134356
  40 H :    0.138366
  41 H :    0.129778
  42 H :    0.100062
  43 H :    0.117187
  44 H :    0.245341
  45 H :    0.159697
  46 H :    0.159791
  47 H :    0.134142
  48 H :    0.147175
  49 H :    0.137540
  50 H :    0.141010
  51 H :    0.146936
  52 H :    0.151326
  53 H :    0.136536
  54 H :    0.137268
  55 H :    0.136406
  56 H :    0.137897
  57 H :    0.142703
  58 H :    0.143064
  59 H :    0.133626
  60 H :    0.153893
  61 H :    0.153131
  62 H :    0.135883

  Mayer bond orders larger than 0.100000
B(  0-C ,  1-C ) :   1.0227 B(  0-C , 39-H ) :   0.9442 B(  0-C , 40-H ) :   0.9446
B(  0-C , 41-H ) :   0.9480 B(  1-C ,  2-O ) :   0.8755 B(  1-C , 42-H ) :   0.9306
B(  1-C , 43-H ) :   0.9260 B(  2-O ,  3-N ) :   0.9773 B(  3-N ,  4-C ) :   0.9828
B(  3-N , 44-H ) :   0.8085 B(  4-C ,  5-O ) :   1.8466 B(  4-C ,  6-C ) :   0.9703
B(  6-C ,  7-C ) :   1.4035 B(  6-C , 38-C ) :   1.3833 B(  7-C ,  8-C ) :   1.4183
B(  7-C , 45-H ) :   0.9094 B(  8-C ,  9-C ) :   1.3865 B(  8-C , 46-H ) :   0.9099
B(  9-C , 10-S ) :   0.8130 B(  9-C , 37-C ) :   1.3990 B( 10-S , 11-O ) :   1.6381
B( 10-S , 12-O ) :   1.6055 B( 10-S , 13-N ) :   0.8136 B( 13-N , 14-C ) :   0.9222
B( 13-N , 26-C ) :   0.8965 B( 14-C , 15-C ) :   0.9564 B( 14-C , 47-H ) :   0.9192
B( 14-C , 48-H ) :   0.9148 B( 15-C , 16-C ) :   1.4326 B( 15-C , 25-C ) :   1.4309
B( 16-C , 17-C ) :   1.4257 B( 16-C , 49-H ) :   0.9215 B( 17-C , 18-C ) :   1.3939
B( 17-C , 50-H ) :   0.9099 B( 18-C , 19-O ) :   0.8238 B( 18-C , 24-C ) :   1.4130
B( 19-O , 20-C ) :   0.9913 B( 20-C , 21-F ) :   1.0095 B( 20-C , 22-F ) :   0.9656
B( 20-C , 23-F ) :   0.9687 B( 24-C , 25-C ) :   1.4358 B( 24-C , 51-H ) :   0.9181
B( 25-C , 52-H ) :   0.9109 B( 26-C , 27-N ) :   1.2901 B( 26-C , 35-C ) :   1.4301
B( 27-N , 28-C ) :   1.4969 B( 28-C , 29-C ) :   1.2398 B( 28-C , 53-H ) :   0.9263
B( 29-C , 30-C ) :   1.2838 B( 29-C , 34-C ) :   1.2914 B( 30-C , 31-C ) :   1.5114
B( 30-C , 33-C ) :   0.1063 B( 30-C , 54-H ) :   0.9232 B( 31-C , 32-C ) :   1.3532
B( 31-C , 55-H ) :   0.9289 B( 32-C , 33-C ) :   1.5066 B( 32-C , 56-H ) :   0.9286
B( 33-C , 34-C ) :   1.2975 B( 33-C , 57-H ) :   0.9145 B( 34-C , 35-C ) :   1.2570
B( 35-C , 36-C ) :   1.0128 B( 36-C , 58-H ) :   0.9231 B( 36-C , 59-H ) :   0.9226
B( 36-C , 60-H ) :   0.9192 B( 37-C , 38-C ) :   1.4362 B( 37-C , 61-H ) :   0.9127
B( 38-C , 62-H ) :   0.9184

FINAL SINGLE POINT ENERGY     -2280.144353287611

DIPOLE MOMENT
-------------

Method             : SCF
Type of density    : Electron Density
Multiplicity       :   1
Irrep              :   0
Energy             : -2280.1443532876110112 Eh
Relativity type    :
Basis              : AO
                                X                 Y                 Z
Electronic contribution:    -61.643267402     -15.415862581       5.839007937
Nuclear contribution   :     61.627616739      15.993153889      -7.730955912
                        -----------------------------------------
Total Dipole Moment    :     -0.015650663       0.577291307      -1.891947975
                        -----------------------------------------
Magnitude (a.u.)       :      1.978124702
Magnitude (Debye)      :      5.027993412

Rotational constants in cm-1:             0.005278             0.001193             0.001043
Rotational constants in MHz :           158.230427            35.757776            31.270073

                             ****ORCA TERMINATED NORMALLY****
TOTAL RUN TIME: 0 days 0 hours 8 minutes 3 seconds 603 msec
