                         Program Version 6.0.0  -   RELEASE  -
|  1> ! B3LYP 6-31G* SP
|  2>
|  3> * xyz 0 1
|  4> C -2.6353 0.0659 -1.2833
|  5> C -1.9143 -1.0654 -0.5829
|  6> C -0.9094 -0.7990 0.3791
|  7> N -0.5159 0.5400 0.7024
|  8> C 0.4403 1.2563 -0.1456
|  9> C 1.7616 0.5351 -0.1726
| 10> C 2.5618 0.4908 0.9762
| 11> C 3.7796 -0.1933 0.9629
| 12> C 4.2159 -0.8605 -0.1973
| 13> C 5.5722 -1.5360 -0.2168
| 14> F 5.5521 -2.6291 -1.0687
| 15> F 5.8802 -2.0125 1.0523
| 16> C 6.6259 -0.5339 -0.7318
| 17> C 7.2870 0.3530 0.3176
| 18> C 8.0665 -0.7956 -0.3124
| 19> C 3.4170 -0.7976 -1.3587
| 20> F 3.8251 -1.3718 -2.5190
| 21> C 2.1938 -0.1207 -1.3380
| 22> S -1.1725 1.2921 2.1232
| 23> O -1.6395 0.2378 3.0882
| 24> O -0.1149 2.1162 2.8049
| 25> C -2.5266 2.3134 1.6580
| 26> C -3.8265 1.7924 1.6350
| 27> C -4.8966 2.5870 1.2126
| 28> C -4.6797 3.9146 0.8021
| 29> C -5.8115 4.7521 0.3482
| 30> O -5.6154 5.9393 -0.0303
| 31> O -7.1053 4.2362 0.3340
| 32> C -3.3705 4.4294 0.8232
| 33> C -2.3023 3.6323 1.2455
| 34> N -0.2876 -1.8242 1.0183
| 35> C -0.5790 -3.1236 0.7675
| 36> C -1.5484 -3.4550 -0.1827
| 37> C -1.8472 -4.8006 -0.4486
| 38> C -2.8151 -5.1305 -1.3993
| 39> C -3.4896 -4.1235 -2.0898
| 40> C -3.2012 -2.7791 -1.8361
| 41> C -2.2282 -2.4202 -0.8746
| 42> H -2.3968 0.0451 -2.3669
| 43> H -3.7306 -0.0399 -1.1415
| 44> H -2.3590 1.0639 -0.8948
| 45> H 0.5991 2.2887 0.2339
| 46> H 0.0240 1.3555 -1.1711
| 47> H 2.2461 0.9917 1.8815
| 48> H 4.3858 -0.1930 1.8595
| 49> H 6.5071 -0.0775 -1.7395
| 50> H 6.9980 0.1763 1.3766
| 51> H 7.5850 1.3584 -0.0532
| 52> H 8.2410 -1.6548 0.3718
| 53> H 8.8305 -0.4606 -1.0456
| 54> H 1.5881 -0.0991 -2.2377
| 55> H -4.0102 0.7664 1.9293
| 56> H -5.8912 2.1590 1.2014
| 57> H -7.8872 4.8011 0.0239
| 58> H -3.1698 5.4461 0.5081
| 59> H -1.2997 4.0416 1.2413
| 60> H -0.0468 -3.8961 1.3092
| 61> H -1.3329 -5.5963 0.0786
| 62> H -3.0427 -6.1699 -1.6012
| 63> H -4.2399 -4.3849 -2.8254
| 64> H -3.7443 -2.0333 -2.4005
| 65> *
| 66>
| 67>                          ****END OF INPUT****

CARTESIAN COORDINATES (ANGSTROEM)
---------------------------------
  C     -2.635300    0.065900   -1.283300
  C     -1.914300   -1.065400   -0.582900
  C     -0.909400   -0.799000    0.379100
  N     -0.515900    0.540000    0.702400
  C      0.440300    1.256300   -0.145600
  C      1.761600    0.535100   -0.172600
  C      2.561800    0.490800    0.976200
  C      3.779600   -0.193300    0.962900
  C      4.215900   -0.860500   -0.197300
  C      5.572200   -1.536000   -0.216800
  F      5.552100   -2.629100   -1.068700
  F      5.880200   -2.012500    1.052300
  C      6.625900   -0.533900   -0.731800
  C      7.287000    0.353000    0.317600
  C      8.066500   -0.795600   -0.312400
  C      3.417000   -0.797600   -1.358700
  F      3.825100   -1.371800   -2.519000
  C      2.193800   -0.120700   -1.338000
  S     -1.172500    1.292100    2.123200
  O     -1.639500    0.237800    3.088200
  O     -0.114900    2.116200    2.804900
  C     -2.526600    2.313400    1.658000
  C     -3.826500    1.792400    1.635000
  C     -4.896600    2.587000    1.212600
  C     -4.679700    3.914600    0.802100
  C     -5.811500    4.752100    0.348200
  O     -5.615400    5.939300   -0.030300
  O     -7.105300    4.236200    0.334000
  C     -3.370500    4.429400    0.823200
  C     -2.302300    3.632300    1.245500
  N     -0.287600   -1.824200    1.018300
  C     -0.579000   -3.123600    0.767500
  C     -1.548400   -3.455000   -0.182700
  C     -1.847200   -4.800600   -0.448600
  C     -2.815100   -5.130500   -1.399300
  C     -3.489600   -4.123500   -2.089800
  C     -3.201200   -2.779100   -1.836100
  C     -2.228200   -2.420200   -0.874600
  H     -2.396800    0.045100   -2.366900
  H     -3.730600   -0.039900   -1.141500
  H     -2.359000    1.063900   -0.894800
  H      0.599100    2.288700    0.233900
  H      0.024000    1.355500   -1.171100
  H      2.246100    0.991700    1.881500
  H      4.385800   -0.193000    1.859500
  H      6.507100   -0.077500   -1.739500
  H      6.998000    0.176300    1.376600
  H      7.585000    1.358400   -0.053200
  H      8.241000   -1.654800    0.371800
  H      8.830500   -0.460600   -1.045600
  H      1.588100   -0.099100   -2.237700
  H     -4.010200    0.766400    1.929300
  H     -5.891200    2.159000    1.201400
  H     -7.887200    4.801100    0.023900
  H     -3.169800    5.446100    0.508100
  H     -1.299700    4.041600    1.241300
  H     -0.046800   -3.896100    1.309200
  H     -1.332900   -5.596300    0.078600
  H     -3.042700   -6.169900   -1.601200
  H     -4.239900   -4.384900   -2.825400
  H     -3.744300   -2.033300   -2.400500

 Total Charge           Charge          ....    0
 Multiplicity           Mult            ....    1
 Number of Electrons    NEL             ....  280
 Basis Dimension        Dim             ....  582

ORBITAL ENERGIES
----------------

  NO   OCC          E(Eh)            E(eV)
   0   2.0000     -89.099548     -2424.5220
   1   2.0000     -24.698137      -672.0705
   2   2.0000     -24.695419      -671.9965
   3   2.0000     -24.677201      -671.5008
   4   2.0000     -19.200277      -522.4661
   5   2.0000     -19.141970      -520.8795
   6   2.0000     -19.130216      -520.5596
   7   2.0000     -19.126110      -520.4479
   8   2.0000     -14.373288      -391.1171
   9   2.0000     -14.328115      -389.8878
  10   2.0000     -10.345447      -281.5139
  11   2.0000     -10.339487      -281.3517
  12   2.0000     -10.272731      -279.5352
  13   2.0000     -10.261086      -279.2184
  14   2.0000     -10.245848      -278.8037
  15   2.0000     -10.239079      -278.6195
  16   2.0000     -10.236303      -278.5440
  17   2.0000     -10.225255      -278.2433
  18   2.0000     -10.223723      -278.2017
  19   2.0000     -10.223464      -278.1946
  20   2.0000     -10.222293      -278.1627
  21   2.0000     -10.221972      -278.1540
  22   2.0000     -10.214767      -277.9579
  23   2.0000     -10.209729      -277.8209
  24   2.0000     -10.201839      -277.6062
  25   2.0000     -10.200886      -277.5802
  26   2.0000     -10.200379      -277.5664
  27   2.0000     -10.200246      -277.5628
  28   2.0000     -10.199722      -277.5486
  29   2.0000     -10.199454      -277.5412
  30   2.0000     -10.198096      -277.5043
  31   2.0000     -10.197845      -277.4975
  32   2.0000     -10.194368      -277.4029
  33   2.0000     -10.191938      -277.3367
  34   2.0000     -10.190747      -277.3043
  35   2.0000     -10.186145      -277.1791
  36   2.0000     -10.183157      -277.0978
  37   2.0000     -10.180137      -277.0156
  38   2.0000      -8.135148      -221.3686
  39   2.0000      -6.100116      -165.9926
  40   2.0000      -6.098204      -165.9406
  41   2.0000      -6.097876      -165.9317
  42   2.0000      -1.226269       -33.3685
  43   2.0000      -1.210959       -32.9519
  44   2.0000      -1.170045       -31.8386
  45   2.0000      -1.085134       -29.5280
  46   2.0000      -1.084600       -29.5135
  47   2.0000      -0.998883       -27.1810
  48   2.0000      -0.965201       -26.2645
  49   2.0000      -0.961630       -26.1673
  50   2.0000      -0.914975       -24.8977
  51   2.0000      -0.894642       -24.3444
  52   2.0000      -0.866761       -23.5858
  53   2.0000      -0.863441       -23.4954
  54   2.0000      -0.852164       -23.1886
  55   2.0000      -0.812723       -22.1153
  56   2.0000      -0.811062       -22.0701
  57   2.0000      -0.788880       -21.4665
  58   2.0000      -0.781016       -21.2525
  59   2.0000      -0.775760       -21.1095
  60   2.0000      -0.748320       -20.3628
  61   2.0000      -0.745469       -20.2852
  62   2.0000      -0.730411       -19.8755
  63   2.0000      -0.716008       -19.4836
  64   2.0000      -0.696079       -18.9413
  65   2.0000      -0.671005       -18.2590
  66   2.0000      -0.656173       -17.8554
  67   2.0000      -0.646617       -17.5954
  68   2.0000      -0.642924       -17.4949
  69   2.0000      -0.622678       -16.9439
  70   2.0000      -0.618423       -16.8281
  71   2.0000      -0.605587       -16.4789
  72   2.0000      -0.598663       -16.2905
  73   2.0000      -0.593916       -16.1613
  74   2.0000      -0.586591       -15.9620
  75   2.0000      -0.581499       -15.8234
  76   2.0000      -0.564295       -15.3553
  77   2.0000      -0.547054       -14.8861
  78   2.0000      -0.540878       -14.7180
  79   2.0000      -0.533594       -14.5198
  80   2.0000      -0.528925       -14.3928
  81   2.0000      -0.519448       -14.1349
  82   2.0000      -0.515324       -14.0227
  83   2.0000      -0.506398       -13.7798
  84   2.0000      -0.500571       -13.6212
  85   2.0000      -0.495666       -13.4878
  86   2.0000      -0.488613       -13.2958
  87   2.0000      -0.483768       -13.1640
  88   2.0000      -0.476828       -12.9752
  89   2.0000      -0.474581       -12.9140
  90   2.0000      -0.465862       -12.6767
  91   2.0000      -0.464807       -12.6480
  92   2.0000      -0.460726       -12.5370
  93   2.0000      -0.453241       -12.3333
  94   2.0000      -0.452644       -12.3171
  95   2.0000      -0.451067       -12.2742
  96   2.0000      -0.446952       -12.1622
  97   2.0000      -0.445765       -12.1299
  98   2.0000      -0.443676       -12.0730
  99   2.0000      -0.440155       -11.9772
 100   2.0000      -0.432172       -11.7600
 101   2.0000      -0.425061       -11.5665
 102   2.0000      -0.420225       -11.4349
 103   2.0000      -0.418932       -11.3997
 104   2.0000      -0.417278       -11.3547
 105   2.0000      -0.409266       -11.1367
 106   2.0000      -0.402694       -10.9578
 107   2.0000      -0.400767       -10.9054
 108   2.0000      -0.397808       -10.8249
 109   2.0000      -0.397007       -10.8031
 110   2.0000      -0.390580       -10.6282
 111   2.0000      -0.389540       -10.5999
 112   2.0000      -0.386615       -10.5203
 113   2.0000      -0.381065       -10.3693
 114   2.0000      -0.372564       -10.1380
 115   2.0000      -0.371830       -10.1180
 116   2.0000      -0.366673        -9.9777
 117   2.0000      -0.363568        -9.8932
 118   2.0000      -0.357796        -9.7361
 119   2.0000      -0.355207        -9.6657
 120   2.0000      -0.352783        -9.5997
 121   2.0000      -0.349112        -9.4998
 122   2.0000      -0.329368        -8.9626
 123   2.0000      -0.324682        -8.8350
 124   2.0000      -0.324199        -8.8219
 125   2.0000      -0.310416        -8.4468
 126   2.0000      -0.295438        -8.0393
 127   2.0000      -0.293733        -7.9929
 128   2.0000      -0.293464        -7.9856
 129   2.0000      -0.290867        -7.9149
 130   2.0000      -0.284643        -7.7455
 131   2.0000      -0.283307        -7.7092
 132   2.0000      -0.278755        -7.5853
 133   2.0000      -0.274508        -7.4697
 134   2.0000      -0.266703        -7.2574
 135   2.0000      -0.260447        -7.0871
 136   2.0000      -0.251551        -6.8451
 137   2.0000      -0.248606        -6.7649
 138   2.0000      -0.234802        -6.3893
 139   2.0000      -0.225912        -6.1474
 140   0.0000      -0.087359        -2.3772
 141   0.0000      -0.062937        -1.7126
 142   0.0000      -0.037338        -1.0160
 143   0.0000      -0.032986        -0.8976
 144   0.0000      -0.019568        -0.5325

MULLIKEN ATOMIC CHARGES
-----------------------
   0 C :   -0.544568
   1 C :    0.097158
   2 C :    0.312533
   3 N :   -0.606093
   4 C :   -0.242084
   5 C :    0.185972
   6 C :   -0.162799
   7 C :   -0.152702
   8 C :   -0.066236
   9 C :    0.694688
  10 F :   -0.332956
  11 F :   -0.338385
  12 C :   -0.175352
  13 C :   -0.310927
  14 C :   -0.313789
  15 C :    0.377708
  16 F :   -0.310751
  17 C :   -0.260573
  18 S :    1.204925
  19 O :   -0.530016
  20 O :   -0.549279
  21 C :   -0.116898
  22 C :   -0.146776
  23 C :   -0.148365
  24 C :    0.082202
  25 C :    0.528786
  26 O :   -0.443897
  27 O :   -0.623878
  28 C :   -0.139695
  29 C :   -0.151331
  30 N :   -0.356571
  31 C :   -0.048018
  32 C :    0.136421
  33 C :   -0.200838
  34 C :   -0.126484
  35 C :   -0.119815
  36 C :   -0.201395
  37 C :    0.124899
  38 H :    0.164212
  39 H :    0.164238
  40 H :    0.168705
  41 H :    0.185820
  42 H :    0.151532
  43 H :    0.174303
  44 H :    0.153419
  45 H :    0.167335
  46 H :    0.164692
  47 H :    0.150728
  48 H :    0.169459
  49 H :    0.151438
  50 H :    0.136312
  51 H :    0.187931
  52 H :    0.173645
  53 H :    0.434939
  54 H :    0.181756
  55 H :    0.179957
  56 H :    0.158920
  57 H :    0.143928
  58 H :    0.138097
  59 H :    0.137926
  60 H :    0.135887
Sum of atomic charges:    0.0000000

LOEWDIN ATOMIC CHARGES
----------------------
   0 C :   -0.362505
   1 C :   -0.017317
   2 C :    0.028202
   3 N :   -0.281902
   4 C :   -0.144694
   5 C :   -0.020057
   6 C :   -0.118498
   7 C :   -0.107796
   8 C :   -0.072622
   9 C :    0.243020
  10 F :   -0.132810
  11 F :   -0.130399
  12 C :   -0.160506
  13 C :   -0.253424
  14 C :   -0.251524
  15 C :    0.120631
  16 F :   -0.100554
  17 C :   -0.160672
  18 S :    1.264650
  19 O :   -0.559730
  20 O :   -0.572898
  21 C :   -0.175491
  22 C :   -0.104869
  23 C :   -0.099500
  24 C :   -0.040201
  25 C :    0.180066
  26 O :   -0.260343
  27 O :   -0.334757
  28 C :   -0.085284
  29 C :   -0.110048
  30 N :   -0.105311
  31 C :   -0.052559
  32 C :   -0.026400
  33 C :   -0.108968
  34 C :   -0.124931
  35 C :   -0.117288
  36 C :   -0.126193
  37 C :   -0.007945
  38 H :    0.137721
  39 H :    0.137813
  40 H :    0.137958
  41 H :    0.149591
  42 H :    0.121818
  43 H :    0.152798
  44 H :    0.144459
  45 H :    0.147028
  46 H :    0.138417
  47 H :    0.133790
  48 H :    0.141938
  49 H :    0.133840
  50 H :    0.139998
  51 H :    0.161016
  52 H :    0.155064
  53 H :    0.350360
  54 H :    0.160862
  55 H :    0.156798
  56 H :    0.140616
  57 H :    0.139388
  58 H :    0.136381
  59 H :    0.136615
  60 H :    0.137158

  Mayer bond orders larger than 0.100000
B(  0-C ,  1-C ) :   0.9971 B(  0-C , 38-H ) :   0.9268 B(  0-C , 39-H ) :   0.9275
B(  0-C , 40-H ) :   0.9300 B(  1-C ,  2-C ) :   1.4377 B(  1-C , 31-C ) :   0.1009
B(  1-C , 37-C ) :   1.2610 B(  2-C ,  3-N ) :   0.8802 B(  2-C , 30-N ) :   1.2956
B(  3-N ,  4-C ) :   0.9258 B(  3-N , 18-S ) :   0.8124 B(  4-C ,  5-C ) :   0.9656
B(  4-C , 41-H ) :   0.9111 B(  4-C , 42-H ) :   0.9211 B(  5-C ,  6-C ) :   1.4297
B(  5-C , 17-C ) :   1.4086 B(  6-C ,  7-C ) :   1.4334 B(  6-C , 43-H ) :   0.9058
B(  7-C ,  8-C ) :   1.3902 B(  7-C , 44-H ) :   0.9201 B(  8-C ,  9-C ) :   0.9580
B(  8-C , 15-C ) :   1.3366 B(  9-C , 10-F ) :   0.9034 B(  9-C , 11-F ) :   0.8694
B(  9-C , 12-C ) :   0.9984 B( 12-C , 13-C ) :   0.9299 B( 12-C , 14-C ) :   0.9396
B( 12-C , 45-H ) :   0.9234 B( 13-C , 14-C ) :   0.9604 B( 13-C , 46-H ) :   0.9376
B( 13-C , 47-H ) :   0.9433 B( 14-C , 48-H ) :   0.9373 B( 14-C , 49-H ) :   0.9452
B( 15-C , 16-F ) :   0.9331 B( 15-C , 17-C ) :   1.3706 B( 17-C , 50-H ) :   0.9140
B( 18-S , 19-O ) :   1.6494 B( 18-S , 20-O ) :   1.6085 B( 18-S , 21-C ) :   0.8141
B( 21-C , 22-C ) :   1.3940 B( 21-C , 29-C ) :   1.3771 B( 22-C , 23-C ) :   1.4147
B( 22-C , 51-H ) :   0.9082 B( 23-C , 24-C ) :   1.3825 B( 23-C , 52-H ) :   0.9147
B( 24-C , 25-C ) :   1.0084 B( 24-C , 28-C ) :   1.4024 B( 25-C , 26-O ) :   1.8626
B( 25-C , 27-O ) :   1.0252 B( 27-O , 53-H ) :   0.7413 B( 28-C , 29-C ) :   1.4222
B( 28-C , 54-H ) :   0.9091 B( 29-C , 55-H ) :   0.9109 B( 30-N , 31-C ) :   1.4998
B( 31-C , 32-C ) :   1.2305 B( 31-C , 56-H ) :   0.9254 B( 32-C , 33-C ) :   1.2852
B( 32-C , 37-C ) :   1.2923 B( 33-C , 34-C ) :   1.5106 B( 33-C , 36-C ) :   0.1063
B( 33-C , 57-H ) :   0.9224 B( 34-C , 35-C ) :   1.3547 B( 34-C , 58-H ) :   0.9289
B( 35-C , 36-C ) :   1.5079 B( 35-C , 59-H ) :   0.9290 B( 36-C , 37-C ) :   1.2945
B( 36-C , 60-H ) :   0.9173

FINAL SINGLE POINT ENERGY     -2187.733427780654

DIPOLE MOMENT
-------------

Method             : SCF
Type of density    : Electron Density
Multiplicity       :   1
Irrep              :   0
Energy             : -2187.7334277806535283 Eh
Relativity type    :
Basis              : AO
                                X                 Y                 Z
Electronic contribution:      8.147892624      -4.419135779       4.641801205
Nuclear contribution   :    -10.056242780       4.474189397      -6.677863435
                        -----------------------------------------
Total Dipole Moment    :     -1.908350156       0.055053618      -2.036062230
                        -----------------------------------------
Magnitude (a.u.)       :      2.791125332
Magnitude (Debye)      :      7.094476788

Rotational constants in cm-1:             0.004469             0.001638             0.001338
Rotational constants in MHz :           133.988078            49.091920            40.126553

                             ****ORCA TERMINATED NORMALLY****
TOTAL RUN TIME: 0 days 0 hours 12 minutes 54 seconds 63 msec
