                         Program Version 6.0.0  -   RELEASE  -
|  1> ! B3LYP 6-31G* SP
|  2>
|  3> * xyz 0 1
|  4> N 4.4177 5.7239 -1.3118
|  5> C 3.1708 5.6794 -0.6121
|  6> O 2.5581 6.7589 -0.3885
|  7> C 2.5978 4.3983 -0.1345
|  8> C 2.9306 3.1782 -0.7503
|  9> C 2.3754 1.9795 -0.2933
| 10> C 1.4739 1.9801 0.7775
| 11> S 0.7622 0.4681 1.3353
| 12> O 1.7950 -0.2809 2.1304
| 13> O -0.4168 0.7478 2.2253
| 14> N 0.2291 -0.5031 -0.0114
| 15> C -0.5317 0.1006 -1.1143
| 16> C -1.6714 0.9514 -0.6153
| 17> C -1.5583 2.3500 -0.5915
| 18> C -2.5957 3.1338 -0.0810
| 19> C -3.7688 2.5392 0.3977
| 20> O -4.7788 3.3757 0.8998
| 21> C -6.0418 2.9352 1.3949
| 22> F -6.7378 2.2711 0.3996
| 23> F -5.8634 2.1004 2.4844
| 24> F -6.7749 4.0361 1.7928
| 25> C -3.8918 1.1369 0.3550
| 26> C -2.8498 0.3526 -0.1482
| 27> C 0.9345 -1.7240 -0.2763
| 28> N 2.2471 -1.6570 -0.6203
| 29> C 2.9696 -2.7528 -0.9551
| 30> C 2.3584 -4.0076 -1.0017
| 31> C 3.0895 -5.1364 -1.4025
| 32> C 2.4682 -6.3831 -1.4794
| 33> C 1.1148 -6.5111 -1.1651
| 34> C 0.3761 -5.3958 -0.7623
| 35> C 0.9899 -4.1283 -0.6514
| 36> C 0.2812 -2.9771 -0.2156
| 37> C -1.1565 -3.0588 0.2608
| 38> C -1.3956 -3.9708 1.4625
| 39> C -1.4221 -2.4712 1.6464
| 40> C 1.1395 3.1908 1.3959
| 41> C 1.6894 4.3912 0.9388
| 42> H 4.7697 6.6309 -1.6925
| 43> H 5.0394 4.8880 -1.3775
| 44> H 3.5993 3.1458 -1.5997
| 45> H 2.6407 1.0531 -0.7840
| 46> H 0.1566 0.7032 -1.7445
| 47> H -0.9466 -0.6964 -1.7700
| 48> H -0.6647 2.8355 -0.9625
| 49> H -2.4877 4.2106 -0.0577
| 50> H -4.7847 0.6408 0.7072
| 51> H -2.9662 -0.7214 -0.1801
| 52> H 4.0141 -2.6354 -1.2155
| 53> H 4.1386 -5.0531 -1.6612
| 54> H 3.0347 -7.2513 -1.7904
| 55> H 0.6341 -7.4785 -1.2396
| 56> H -0.6764 -5.5367 -0.5548
| 57> H -1.9905 -2.9994 -0.4691
| 58> H -2.3987 -4.4471 1.4842
| 59> H -0.4962 -4.4561 1.9003
| 60> H -0.5453 -2.1046 2.2204
| 61> H -2.4460 -2.0731 1.8088
| 62> H 0.4492 3.2103 2.2284
| 63> H 1.4133 5.3134 1.4342
| 64> *
| 65>
| 66>                          ****END OF INPUT****

CARTESIAN COORDINATES (ANGSTROEM)
---------------------------------
  N      4.417700    5.723900   -1.311800
  C      3.170800    5.679400   -0.612100
  O      2.558100    6.758900   -0.388500
  C      2.597800    4.398300   -0.134500
  C      2.930600    3.178200   -0.750300
  C      2.375400    1.979500   -0.293300
  C      1.473900    1.980100    0.777500
  S      0.762200    0.468100    1.335300
  O      1.795000   -0.280900    2.130400
  O     -0.416800    0.747800    2.225300
  N      0.229100   -0.503100   -0.011400
  C     -0.531700    0.100600   -1.114300
  C     -1.671400    0.951400   -0.615300
  C     -1.558300    2.350000   -0.591500
  C     -2.595700    3.133800   -0.081000
  C     -3.768800    2.539200    0.397700
  O     -4.778800    3.375700    0.899800
  C     -6.041800    2.935200    1.394900
  F     -6.737800    2.271100    0.399600
  F     -5.863400    2.100400    2.484400
  F     -6.774900    4.036100    1.792800
  C     -3.891800    1.136900    0.355000
  C     -2.849800    0.352600   -0.148200
  C      0.934500   -1.724000   -0.276300
  N      2.247100   -1.657000   -0.620300
  C      2.969600   -2.752800   -0.955100
  C      2.358400   -4.007600   -1.001700
  C      3.089500   -5.136400   -1.402500
  C      2.468200   -6.383100   -1.479400
  C      1.114800   -6.511100   -1.165100
  C      0.376100   -5.395800   -0.762300
  C      0.989900   -4.128300   -0.651400
  C      0.281200   -2.977100   -0.215600
  C     -1.156500   -3.058800    0.260800
  C     -1.395600   -3.970800    1.462500
  C     -1.422100   -2.471200    1.646400
  C      1.139500    3.190800    1.395900
  C      1.689400    4.391200    0.938800
  H      4.769700    6.630900   -1.692500
  H      5.039400    4.888000   -1.377500
  H      3.599300    3.145800   -1.599700
  H      2.640700    1.053100   -0.784000
  H      0.156600    0.703200   -1.744500
  H     -0.946600   -0.696400   -1.770000
  H     -0.664700    2.835500   -0.962500
  H     -2.487700    4.210600   -0.057700
  H     -4.784700    0.640800    0.707200
  H     -2.966200   -0.721400   -0.180100
  H      4.014100   -2.635400   -1.215500
  H      4.138600   -5.053100   -1.661200
  H      3.034700   -7.251300   -1.790400
  H      0.634100   -7.478500   -1.239600
  H     -0.676400   -5.536700   -0.554800
  H     -1.990500   -2.999400   -0.469100
  H     -2.398700   -4.447100    1.484200
  H     -0.496200   -4.456100    1.900300
  H     -0.545300   -2.104600    2.220400
  H     -2.446000   -2.073100    1.808800
  H      0.449200    3.210300    2.228400
  H      1.413300    5.313400    1.434200

 Total Charge           Charge          ....    0
 Multiplicity           Mult            ....    1
 Number of Electrons    NEL             ....  280
 Basis Dimension        Dim             ....  580

ORBITAL ENERGIES
----------------

  NO   OCC          E(Eh)            E(eV)
   0   2.0000     -89.091225     -2424.2955
   1   2.0000     -24.737037      -673.1290
   2   2.0000     -24.734968      -673.0727
   3   2.0000     -24.733867      -673.0427
   4   2.0000     -19.208340      -522.6855
   5   2.0000     -19.118781      -520.2485
   6   2.0000     -19.116893      -520.1971
   7   2.0000     -19.116386      -520.1833
   8   2.0000     -14.369780      -391.0216
   9   2.0000     -14.362787      -390.8313
  10   2.0000     -14.334959      -390.0741
  11   2.0000     -10.499521      -285.7065
  12   2.0000     -10.302508      -280.3455
  13   2.0000     -10.264523      -279.3119
  14   2.0000     -10.261076      -279.2181
  15   2.0000     -10.236393      -278.5464
  16   2.0000     -10.235355      -278.5182
  17   2.0000     -10.228115      -278.3212
  18   2.0000     -10.222899      -278.1792
  19   2.0000     -10.215442      -277.9763
  20   2.0000     -10.214657      -277.9549
  21   2.0000     -10.213018      -277.9103
  22   2.0000     -10.209263      -277.8082
  23   2.0000     -10.209070      -277.8029
  24   2.0000     -10.207750      -277.7670
  25   2.0000     -10.201305      -277.5916
  26   2.0000     -10.198473      -277.5146
  27   2.0000     -10.198047      -277.5030
  28   2.0000     -10.197748      -277.4948
  29   2.0000     -10.196124      -277.4506
  30   2.0000     -10.195378      -277.4303
  31   2.0000     -10.194313      -277.4014
  32   2.0000     -10.192708      -277.3577
  33   2.0000     -10.191902      -277.3357
  34   2.0000     -10.191717      -277.3307
  35   2.0000     -10.191405      -277.3222
  36   2.0000     -10.179994      -277.0117
  37   2.0000     -10.175683      -276.8944
  38   2.0000      -8.126991      -221.1467
  39   2.0000      -6.092239      -165.7783
  40   2.0000      -6.089813      -165.7122
  41   2.0000      -6.089607      -165.7066
  42   2.0000      -1.299427       -35.3592
  43   2.0000      -1.220423       -33.2094
  44   2.0000      -1.219672       -33.1890
  45   2.0000      -1.078053       -29.3353
  46   2.0000      -1.076621       -29.2963
  47   2.0000      -1.016225       -27.6529
  48   2.0000      -0.963569       -26.2200
  49   2.0000      -0.954100       -25.9624
  50   2.0000      -0.914852       -24.8944
  51   2.0000      -0.889764       -24.2117
  52   2.0000      -0.880385       -23.9565
  53   2.0000      -0.867939       -23.6178
  54   2.0000      -0.860504       -23.4155
  55   2.0000      -0.852776       -23.2052
  56   2.0000      -0.798084       -21.7170
  57   2.0000      -0.790280       -21.5046
  58   2.0000      -0.783408       -21.3176
  59   2.0000      -0.772843       -21.0301
  60   2.0000      -0.771347       -20.9894
  61   2.0000      -0.754679       -20.5359
  62   2.0000      -0.736901       -20.0521
  63   2.0000      -0.722825       -19.6691
  64   2.0000      -0.697233       -18.9727
  65   2.0000      -0.675795       -18.3893
  66   2.0000      -0.659836       -17.9551
  67   2.0000      -0.644779       -17.5453
  68   2.0000      -0.631458       -17.1828
  69   2.0000      -0.629926       -17.1411
  70   2.0000      -0.625239       -17.0136
  71   2.0000      -0.619306       -16.8522
  72   2.0000      -0.601729       -16.3739
  73   2.0000      -0.591563       -16.0972
  74   2.0000      -0.587894       -15.9974
  75   2.0000      -0.583223       -15.8703
  76   2.0000      -0.580547       -15.7975
  77   2.0000      -0.572261       -15.5720
  78   2.0000      -0.569985       -15.5101
  79   2.0000      -0.555978       -15.1289
  80   2.0000      -0.537703       -14.6317
  81   2.0000      -0.529472       -14.4077
  82   2.0000      -0.521045       -14.1783
  83   2.0000      -0.509265       -13.8578
  84   2.0000      -0.505710       -13.7611
  85   2.0000      -0.493791       -13.4367
  86   2.0000      -0.489600       -13.3227
  87   2.0000      -0.488421       -13.2906
  88   2.0000      -0.482215       -13.1217
  89   2.0000      -0.475669       -12.9436
  90   2.0000      -0.469236       -12.7685
  91   2.0000      -0.466029       -12.6813
  92   2.0000      -0.465332       -12.6623
  93   2.0000      -0.458432       -12.4746
  94   2.0000      -0.455871       -12.4049
  95   2.0000      -0.453439       -12.3387
  96   2.0000      -0.447737       -12.1835
  97   2.0000      -0.443717       -12.0741
  98   2.0000      -0.440713       -11.9924
  99   2.0000      -0.438530       -11.9330
 100   2.0000      -0.434132       -11.8133
 101   2.0000      -0.431012       -11.7284
 102   2.0000      -0.430107       -11.7038
 103   2.0000      -0.425218       -11.5708
 104   2.0000      -0.424815       -11.5598
 105   2.0000      -0.421821       -11.4783
 106   2.0000      -0.413925       -11.2635
 107   2.0000      -0.411986       -11.2107
 108   2.0000      -0.411454       -11.1962
 109   2.0000      -0.407942       -11.1007
 110   2.0000      -0.401825       -10.9342
 111   2.0000      -0.392426       -10.6784
 112   2.0000      -0.387536       -10.5454
 113   2.0000      -0.380939       -10.3659
 114   2.0000      -0.378938       -10.3114
 115   2.0000      -0.373365       -10.1598
 116   2.0000      -0.367847       -10.0096
 117   2.0000      -0.366698        -9.9784
 118   2.0000      -0.362012        -9.8509
 119   2.0000      -0.352838        -9.6012
 120   2.0000      -0.351098        -9.5539
 121   2.0000      -0.345300        -9.3961
 122   2.0000      -0.344200        -9.3662
 123   2.0000      -0.317921        -8.6511
 124   2.0000      -0.309665        -8.4264
 125   2.0000      -0.303266        -8.2523
 126   2.0000      -0.295844        -8.0503
 127   2.0000      -0.289327        -7.8730
 128   2.0000      -0.279730        -7.6118
 129   2.0000      -0.276959        -7.5364
 130   2.0000      -0.274532        -7.4704
 131   2.0000      -0.272009        -7.4017
 132   2.0000      -0.267780        -7.2867
 133   2.0000      -0.263437        -7.1685
 134   2.0000      -0.255362        -6.9488
 135   2.0000      -0.254062        -6.9134
 136   2.0000      -0.252472        -6.8701
 137   2.0000      -0.245423        -6.6783
 138   2.0000      -0.234501        -6.3811
 139   2.0000      -0.222740        -6.0611
 140   0.0000      -0.070468        -1.9175
 141   0.0000      -0.062996        -1.7142
 142   0.0000      -0.030831        -0.8390
 143   0.0000      -0.028368        -0.7719
 144   0.0000      -0.010597        -0.2884

MULLIKEN ATOMIC CHARGES
-----------------------
   0 N :   -0.776325
   1 C :    0.502205
   2 O :   -0.469945
   3 C :    0.087737
   4 C :   -0.165587
   5 C :   -0.158550
   6 C :   -0.138929
   7 S :    1.249879
   8 O :   -0.538442
   9 O :   -0.549882
  10 N :   -0.611731
  11 C :   -0.224387
  12 C :    0.132707
  13 C :   -0.166179
  14 C :   -0.169279
  15 C :    0.358572
  16 O :   -0.545436
  17 C :    1.086212
  18 F :   -0.293169
  19 F :   -0.289701
  20 F :   -0.279145
  21 C :   -0.187150
  22 C :   -0.130322
  23 C :    0.331828
  24 N :   -0.391973
  25 C :   -0.041122
  26 C :    0.132815
  27 C :   -0.204507
  28 C :   -0.126198
  29 C :   -0.123114
  30 C :   -0.189017
  31 C :    0.117178
  32 C :    0.049261
  33 C :   -0.192746
  34 C :   -0.313057
  35 C :   -0.295949
  36 C :   -0.142757
  37 C :   -0.144320
  38 H :    0.354731
  39 H :    0.333992
  40 H :    0.141404
  41 H :    0.190534
  42 H :    0.152912
  43 H :    0.173434
  44 H :    0.145137
  45 H :    0.150701
  46 H :    0.150290
  47 H :    0.133992
  48 H :    0.151451
  49 H :    0.137826
  50 H :    0.135459
  51 H :    0.137707
  52 H :    0.151120
  53 H :    0.148747
  54 H :    0.141415
  55 H :    0.162431
  56 H :    0.198703
  57 H :    0.147826
  58 H :    0.192798
  59 H :    0.177914
Sum of atomic charges:   -0.0000000

LOEWDIN ATOMIC CHARGES
----------------------
   0 N :   -0.402257
   1 C :    0.141516
   2 O :   -0.282845
   3 C :   -0.033117
   4 C :   -0.122270
   5 C :   -0.113683
   6 C :   -0.177290
   7 S :    1.266887
   8 O :   -0.565952
   9 O :   -0.567902
  10 N :   -0.276733
  11 C :   -0.142323
  12 C :   -0.042533
  13 C :   -0.120650
  14 C :   -0.139466
  15 C :    0.092648
  16 O :   -0.159005
  17 C :    0.360156
  18 F :   -0.106731
  19 F :   -0.103880
  20 F :   -0.087460
  21 C :   -0.154452
  22 C :   -0.102214
  23 C :    0.041140
  24 N :   -0.134873
  25 C :   -0.054833
  26 C :   -0.030984
  27 C :   -0.113615
  28 C :   -0.126964
  29 C :   -0.118430
  30 C :   -0.118599
  31 C :   -0.002730
  32 C :   -0.012712
  33 C :   -0.149049
  34 C :   -0.256878
  35 C :   -0.236431
  36 C :   -0.095800
  37 C :   -0.093210
  38 H :    0.267441
  39 H :    0.250811
  40 H :    0.138195
  41 H :    0.159609
  42 H :    0.120399
  43 H :    0.144275
  44 H :    0.139682
  45 H :    0.146154
  46 H :    0.141278
  47 H :    0.137433
  48 H :    0.136965
  49 H :    0.136490
  50 H :    0.135202
  51 H :    0.136504
  52 H :    0.145192
  53 H :    0.130394
  54 H :    0.128141
  55 H :    0.138418
  56 H :    0.154490
  57 H :    0.132247
  58 H :    0.164964
  59 H :    0.159238

  Mayer bond orders larger than 0.100000
B(  0-N ,  1-C ) :   1.0616 B(  0-N , 38-H ) :   0.8221 B(  0-N , 39-H ) :   0.8255
B(  1-C ,  2-O ) :   1.8372 B(  1-C ,  3-C ) :   0.9778 B(  3-C ,  4-C ) :   1.3881
B(  3-C , 37-C ) :   1.4014 B(  4-C ,  5-C ) :   1.4306 B(  4-C , 40-H ) :   0.9201
B(  5-C ,  6-C ) :   1.3941 B(  5-C , 41-H ) :   0.8885 B(  6-C ,  7-S ) :   0.8118
B(  6-C , 36-C ) :   1.3936 B(  7-S ,  8-O ) :   1.6488 B(  7-S ,  9-O ) :   1.6128
B(  7-S , 10-N ) :   0.7792 B( 10-N , 11-C ) :   0.9112 B( 10-N , 23-C ) :   0.9152
B( 11-C , 12-C ) :   0.9723 B( 11-C , 42-H ) :   0.9202 B( 11-C , 43-H ) :   0.9188
B( 12-C , 13-C ) :   1.4296 B( 12-C , 22-C ) :   1.4307 B( 13-C , 14-C ) :   1.4332
B( 13-C , 44-H ) :   0.9163 B( 14-C , 15-C ) :   1.4242 B( 14-C , 45-H ) :   0.9175
B( 15-C , 16-O ) :   0.8248 B( 15-C , 21-C ) :   1.3858 B( 16-O , 17-C ) :   0.9907
B( 17-C , 18-F ) :   0.9667 B( 17-C , 19-F ) :   0.9699 B( 17-C , 20-F ) :   1.0079
B( 21-C , 22-C ) :   1.4403 B( 21-C , 46-H ) :   0.9098 B( 22-C , 47-H ) :   0.9146
B( 23-C , 24-N ) :   1.2702 B( 23-C , 32-C ) :   1.4252 B( 24-N , 25-C ) :   1.4866
B( 25-C , 26-C ) :   1.2403 B( 25-C , 48-H ) :   0.9259 B( 26-C , 27-C ) :   1.2814
B( 26-C , 31-C ) :   1.2840 B( 27-C , 28-C ) :   1.5164 B( 27-C , 30-C ) :   0.1056
B( 27-C , 49-H ) :   0.9237 B( 28-C , 29-C ) :   1.3490 B( 28-C , 50-H ) :   0.9294
B( 29-C , 30-C ) :   1.5057 B( 29-C , 51-H ) :   0.9292 B( 30-C , 31-C ) :   1.2997
B( 30-C , 52-H ) :   0.9106 B( 31-C , 32-C ) :   1.2549 B( 32-C , 33-C ) :   1.0270
B( 33-C , 34-C ) :   0.9277 B( 33-C , 35-C ) :   0.9306 B( 33-C , 53-H ) :   0.9150
B( 34-C , 35-C ) :   0.9475 B( 34-C , 54-H ) :   0.9432 B( 34-C , 55-H ) :   0.9409
B( 35-C , 56-H ) :   0.9258 B( 35-C , 57-H ) :   0.9427 B( 36-C , 37-C ) :   1.4163
B( 36-C , 58-H ) :   0.9065 B( 37-C , 59-H ) :   0.9114

FINAL SINGLE POINT ENERGY     -2203.770165646598

DIPOLE MOMENT
-------------

Method             : SCF
Type of density    : Electron Density
Multiplicity       :   1
Irrep              :   0
Energy             : -2203.7701656465983433 Eh
Relativity type    :
Basis              : AO
                                X                 Y                 Z
Electronic contribution:    -32.621590847      26.553111224      11.268798002
Nuclear contribution   :     33.935063337     -28.206655810     -13.710672478
                        -----------------------------------------
Total Dipole Moment    :      1.313472490      -1.653544587      -2.441874476
                        -----------------------------------------
Magnitude (a.u.)       :      3.228338681
Magnitude (Debye)      :      8.205784804

Rotational constants in cm-1:             0.003236             0.002181             0.001408
Rotational constants in MHz :            97.021579            65.389634            42.216057

                             ****ORCA TERMINATED NORMALLY****
TOTAL RUN TIME: 0 days 0 hours 13 minutes 23 seconds 631 msec
