                         Program Version 6.0.0  -   RELEASE  -
|  1> ! B3LYP 6-31G* SP
|  2>
|  3> * xyz 0 1
|  4> C 4.2622 0.0705 -1.9206
|  5> C 3.0557 -0.1302 -1.0128
|  6> O 2.3629 1.0916 -0.8447
|  7> N 2.6359 1.5615 0.4051
|  8> C 3.7279 2.5178 0.5798
|  9> C 1.8169 1.1908 1.5330
| 10> O 2.2207 1.4503 2.6994
| 11> C 0.5160 0.5045 1.3651
| 12> S -0.3835 0.3928 -0.0558
| 13> C -1.6416 -0.4691 0.6594
| 14> C -2.8987 -0.8610 -0.0072
| 15> C -4.1140 -0.6005 0.6498
| 16> C -5.3323 -0.8855 0.0292
| 17> C -5.3523 -1.4353 -1.2523
| 18> C -4.1537 -1.7215 -1.9083
| 19> C -2.9241 -1.4605 -1.2907
| 20> O -1.7608 -1.8417 -1.9615
| 21> N -1.4192 -0.6410 1.9816
| 22> C -0.2270 -0.1140 2.3725
| 23> O 0.2052 -0.1930 3.6925
| 24> H 3.9425 0.5195 -2.8848
| 25> H 4.7436 -0.9096 -2.1234
| 26> H 5.0058 0.7351 -1.4341
| 27> H 2.3675 -0.8517 -1.5026
| 28> H 3.3830 -0.6004 -0.0542
| 29> H 3.3462 3.4446 1.0573
| 30> H 4.5196 2.0706 1.2167
| 31> H 4.1664 2.7888 -0.4035
| 32> H -4.1201 -0.1474 1.6343
| 33> H -6.2625 -0.6661 0.5380
| 34> H -6.2975 -1.6484 -1.7346
| 35> H -4.1790 -2.1701 -2.8935
| 36> H -0.8486 -1.8473 -1.5257
| 37> H -0.3629 -0.6482 4.3968
| 38> *
| 39>
| 40>                          ****END OF INPUT****

CARTESIAN COORDINATES (ANGSTROEM)
---------------------------------
  C      4.262200    0.070500   -1.920600
  C      3.055700   -0.130200   -1.012800
  O      2.362900    1.091600   -0.844700
  N      2.635900    1.561500    0.405100
  C      3.727900    2.517800    0.579800
  C      1.816900    1.190800    1.533000
  O      2.220700    1.450300    2.699400
  C      0.516000    0.504500    1.365100
  S     -0.383500    0.392800   -0.055800
  C     -1.641600   -0.469100    0.659400
  C     -2.898700   -0.861000   -0.007200
  C     -4.114000   -0.600500    0.649800
  C     -5.332300   -0.885500    0.029200
  C     -5.352300   -1.435300   -1.252300
  C     -4.153700   -1.721500   -1.908300
  C     -2.924100   -1.460500   -1.290700
  O     -1.760800   -1.841700   -1.961500
  N     -1.419200   -0.641000    1.981600
  C     -0.227000   -0.114000    2.372500
  O      0.205200   -0.193000    3.692500
  H      3.942500    0.519500   -2.884800
  H      4.743600   -0.909600   -2.123400
  H      5.005800    0.735100   -1.434100
  H      2.367500   -0.851700   -1.502600
  H      3.383000   -0.600400   -0.054200
  H      3.346200    3.444600    1.057300
  H      4.519600    2.070600    1.216700
  H      4.166400    2.788800   -0.403500
  H     -4.120100   -0.147400    1.634300
  H     -6.262500   -0.666100    0.538000
  H     -6.297500   -1.648400   -1.734600
  H     -4.179000   -2.170100   -2.893500
  H     -0.848600   -1.847300   -1.525700
  H     -0.362900   -0.648200    4.396800

 Total Charge           Charge          ....    0
 Multiplicity           Mult            ....    1
 Number of Electrons    NEL             ....  154
 Basis Dimension        Dim             ....  312

ORBITAL ENERGIES
----------------

  NO   OCC          E(Eh)            E(eV)
   0   2.0000     -88.905370     -2419.2381
   1   2.0000     -19.200722      -522.4782
   2   2.0000     -19.172752      -521.7171
   3   2.0000     -19.172554      -521.7117
   4   2.0000     -19.106159      -519.9050
   5   2.0000     -14.397986      -391.7891
   6   2.0000     -14.336288      -390.1102
   7   2.0000     -10.294616      -280.1307
   8   2.0000     -10.288410      -279.9619
   9   2.0000     -10.261512      -279.2299
  10   2.0000     -10.260833      -279.2115
  11   2.0000     -10.237938      -278.5885
  12   2.0000     -10.217896      -278.0431
  13   2.0000     -10.214124      -277.9405
  14   2.0000     -10.207238      -277.7531
  15   2.0000     -10.192506      -277.3522
  16   2.0000     -10.191763      -277.3320
  17   2.0000     -10.186649      -277.1928
  18   2.0000     -10.181945      -277.0648
  19   2.0000     -10.181806      -277.0610
  20   2.0000      -7.981836      -217.1968
  21   2.0000      -5.944838      -161.7673
  22   2.0000      -5.940694      -161.6545
  23   2.0000      -5.939020      -161.6090
  24   2.0000      -1.118632       -30.4395
  25   2.0000      -1.043362       -28.3913
  26   2.0000      -1.037921       -28.2433
  27   2.0000      -1.001265       -27.2458
  28   2.0000      -0.963179       -26.2094
  29   2.0000      -0.863028       -23.4842
  30   2.0000      -0.856666       -23.3111
  31   2.0000      -0.817840       -22.2546
  32   2.0000      -0.783344       -21.3159
  33   2.0000      -0.757410       -20.6102
  34   2.0000      -0.745671       -20.2907
  35   2.0000      -0.731186       -19.8966
  36   2.0000      -0.697617       -18.9831
  37   2.0000      -0.644243       -17.5307
  38   2.0000      -0.639507       -17.4019
  39   2.0000      -0.615986       -16.7618
  40   2.0000      -0.605947       -16.4887
  41   2.0000      -0.587931       -15.9984
  42   2.0000      -0.562524       -15.3071
  43   2.0000      -0.542380       -14.7589
  44   2.0000      -0.535278       -14.5656
  45   2.0000      -0.511268       -13.9123
  46   2.0000      -0.499467       -13.5912
  47   2.0000      -0.491660       -13.3787
  48   2.0000      -0.484187       -13.1754
  49   2.0000      -0.472594       -12.8599
  50   2.0000      -0.449796       -12.2396
  51   2.0000      -0.442124       -12.0308
  52   2.0000      -0.434313       -11.8182
  53   2.0000      -0.430240       -11.7074
  54   2.0000      -0.421194       -11.4613
  55   2.0000      -0.412837       -11.2339
  56   2.0000      -0.405972       -11.0471
  57   2.0000      -0.403857       -10.9895
  58   2.0000      -0.396052       -10.7771
  59   2.0000      -0.389300       -10.5934
  60   2.0000      -0.381645       -10.3851
  61   2.0000      -0.376114       -10.2346
  62   2.0000      -0.370854       -10.0915
  63   2.0000      -0.361358        -9.8331
  64   2.0000      -0.356495        -9.7007
  65   2.0000      -0.353597        -9.6219
  66   2.0000      -0.349258        -9.5038
  67   2.0000      -0.339529        -9.2390
  68   2.0000      -0.330232        -8.9861
  69   2.0000      -0.298890        -8.1332
  70   2.0000      -0.285289        -7.7631
  71   2.0000      -0.277655        -7.5554
  72   2.0000      -0.261564        -7.1175
  73   2.0000      -0.242626        -6.6022
  74   2.0000      -0.233942        -6.3659
  75   2.0000      -0.228913        -6.2291
  76   2.0000      -0.215751        -5.8709
  77   0.0000      -0.058923        -1.6034
  78   0.0000      -0.006454        -0.1756
  79   0.0000       0.003436         0.0935
  80   0.0000       0.024769         0.6740
  81   0.0000       0.030367         0.8263

MULLIKEN ATOMIC CHARGES
-----------------------
   0 C :   -0.446220
   1 C :   -0.021455
   2 O :   -0.369170
   3 N :   -0.193003
   4 C :   -0.303826
   5 C :    0.523371
   6 O :   -0.464598
   7 C :   -0.267405
   8 S :    0.285197
   9 C :   -0.068842
  10 C :    0.082803
  11 C :   -0.145769
  12 C :   -0.139594
  13 C :   -0.112993
  14 C :   -0.168823
  15 C :    0.325055
  16 O :   -0.672657
  17 N :   -0.402283
  18 C :    0.499614
  19 O :   -0.617864
  20 H :    0.160106
  21 H :    0.145194
  22 H :    0.151369
  23 H :    0.135251
  24 H :    0.158487
  25 H :    0.177341
  26 H :    0.172591
  27 H :    0.167072
  28 H :    0.153029
  29 H :    0.131568
  30 H :    0.137487
  31 H :    0.145102
  32 H :    0.421020
  33 H :    0.422844
Sum of atomic charges:    0.0000000

LOEWDIN ATOMIC CHARGES
----------------------
   0 C :   -0.372850
   1 C :   -0.110349
   2 O :   -0.146510
   3 N :   -0.021494
   4 C :   -0.275154
   5 C :    0.128673
   6 O :   -0.272750
   7 C :   -0.278847
   8 S :    0.408297
   9 C :   -0.121184
  10 C :   -0.071907
  11 C :   -0.096777
  12 C :   -0.147985
  13 C :   -0.111012
  14 C :   -0.149334
  15 C :    0.096136
  16 O :   -0.348123
  17 N :   -0.182173
  18 C :    0.109731
  19 O :   -0.313252
  20 H :    0.132370
  21 H :    0.130086
  22 H :    0.126474
  23 H :    0.113920
  24 H :    0.125490
  25 H :    0.139604
  26 H :    0.134310
  27 H :    0.137866
  28 H :    0.145803
  29 H :    0.133872
  30 H :    0.136972
  31 H :    0.144337
  32 H :    0.332634
  33 H :    0.343125

  Mayer bond orders larger than 0.100000
B(  0-C ,  1-C ) :   1.0163 B(  0-C , 20-H ) :   0.9483 B(  0-C , 21-H ) :   0.9410
B(  0-C , 22-H ) :   0.9465 B(  1-C ,  2-O ) :   0.8755 B(  1-C , 23-H ) :   0.9373
B(  1-C , 24-H ) :   0.9284 B(  2-O ,  3-N ) :   0.9364 B(  3-N ,  4-C ) :   0.9247
B(  3-N ,  5-C ) :   1.0139 B(  4-C , 25-H ) :   0.9355 B(  4-C , 26-H ) :   0.9325
B(  4-C , 27-H ) :   0.9348 B(  5-C ,  6-O ) :   1.8127 B(  5-C ,  7-C ) :   0.9830
B(  7-C ,  8-S ) :   1.0679 B(  7-C ,  9-C ) :   0.1194 B(  7-C , 18-C ) :   1.4158
B(  8-S ,  9-C ) :   1.1591 B(  9-C , 10-C ) :   0.9640 B(  9-C , 17-N ) :   1.4502
B( 10-C , 11-C ) :   1.4061 B( 10-C , 15-C ) :   1.3211 B( 11-C , 12-C ) :   1.4456
B( 11-C , 28-H ) :   0.9187 B( 12-C , 13-C ) :   1.4342 B( 12-C , 29-H ) :   0.9293
B( 13-C , 14-C ) :   1.4562 B( 13-C , 30-H ) :   0.9290 B( 14-C , 15-C ) :   1.3936
B( 14-C , 31-H ) :   0.9183 B( 15-C , 16-O ) :   0.9373 B( 16-O , 32-H ) :   0.7339
B( 17-N , 18-C ) :   1.3019 B( 18-C , 19-O ) :   1.0179 B( 19-O , 33-H ) :   0.7552

FINAL SINGLE POINT ENERGY     -1311.702226233538

DIPOLE MOMENT
-------------

Method             : SCF
Type of density    : Electron Density
Multiplicity       :   1
Irrep              :   0
Energy             : -1311.7022262335381129 Eh
Relativity type    :
Basis              : AO
                                X                 Y                 Z
Electronic contribution:    -13.181646069      -0.892310764       8.134538925
Nuclear contribution   :     13.212005732       0.383880026      -8.909851504
                        -----------------------------------------
Total Dipole Moment    :      0.030359663      -0.508430737      -0.775312578
                        -----------------------------------------
Magnitude (a.u.)       :      0.927649243
Magnitude (Debye)      :      2.357896991

Rotational constants in cm-1:             0.019212             0.005929             0.004831
Rotational constants in MHz :           575.955444           177.754965           144.834360

                             ****ORCA TERMINATED NORMALLY****
TOTAL RUN TIME: 0 days 0 hours 4 minutes 13 seconds 98 msec
