                         Program Version 6.0.0  -   RELEASE  -
|  1> ! B3LYP 6-31G* SP
|  2>
|  3> * xyz 0 1
|  4> N 6.6641 -1.3659 2.6068
|  5> C 5.8125 -1.2616 1.8303
|  6> C 4.7530 -1.1319 0.8643
|  7> C 3.6336 -1.9671 0.9358
|  8> C 2.6041 -1.8406 0.0002
|  9> C 2.6831 -0.8797 -1.0204
| 10> S 1.3477 -0.7159 -2.1685
| 11> O 0.3261 -1.7923 -1.9225
| 12> O 1.8754 -0.8672 -3.5676
| 13> N 0.6160 0.8599 -1.9836
| 14> C 0.2647 1.1153 -0.5851
| 15> C -0.9595 2.0049 -0.6224
| 16> S -1.8328 2.1293 0.9539
| 17> O -1.0537 3.0543 1.8465
| 18> O -3.1826 2.7480 0.7179
| 19> C -2.0222 0.5927 1.8055
| 20> C -3.2749 -0.0359 1.8820
| 21> C -3.4121 -1.2522 2.5579
| 22> C -2.3035 -1.8410 3.1748
| 23> Cl -2.4763 -3.3688 4.0188
| 24> C -1.0585 -1.2063 3.1238
| 25> C -0.9201 0.0106 2.4502
| 26> C -1.7444 1.5138 -1.8502
| 27> O -2.4068 2.6120 -2.4331
| 28> C -2.7769 0.3906 -1.5631
| 29> O -2.1732 -0.7223 -0.9640
| 30> C -0.6170 0.9994 -2.7795
| 31> C 3.8090 -0.0326 -1.0855
| 32> Cl 3.9614 1.2172 -2.3159
| 33> C 4.8380 -0.1663 -0.1450
| 34> H 3.5548 -2.7141 1.7167
| 35> H 1.7431 -2.4910 0.0806
| 36> H 1.1064 1.6258 -0.0696
| 37> H 0.0367 0.1696 -0.0521
| 38> H -0.5946 3.0334 -0.8485
| 39> H -4.1446 0.4082 1.4167
| 40> H -4.3800 -1.7349 2.6023
| 41> H -0.1986 -1.6531 3.6064
| 42> H 0.0480 0.4947 2.4238
| 43> H -2.7891 2.3097 -3.2987
| 44> H -3.2460 0.0748 -2.5223
| 45> H -3.5935 0.7769 -0.9187
| 46> H -2.8956 -1.3882 -0.8248
| 47> H -0.4160 1.7443 -3.5795
| 48> H -0.9070 0.0570 -3.2958
| 49> H 5.7014 0.4866 -0.1989
| 50> *
| 51>
| 52>                          ****END OF INPUT****

CARTESIAN COORDINATES (ANGSTROEM)
---------------------------------
  N      6.664100   -1.365900    2.606800
  C      5.812500   -1.261600    1.830300
  C      4.753000   -1.131900    0.864300
  C      3.633600   -1.967100    0.935800
  C      2.604100   -1.840600    0.000200
  C      2.683100   -0.879700   -1.020400
  S      1.347700   -0.715900   -2.168500
  O      0.326100   -1.792300   -1.922500
  O      1.875400   -0.867200   -3.567600
  N      0.616000    0.859900   -1.983600
  C      0.264700    1.115300   -0.585100
  C     -0.959500    2.004900   -0.622400
  S     -1.832800    2.129300    0.953900
  O     -1.053700    3.054300    1.846500
  O     -3.182600    2.748000    0.717900
  C     -2.022200    0.592700    1.805500
  C     -3.274900   -0.035900    1.882000
  C     -3.412100   -1.252200    2.557900
  C     -2.303500   -1.841000    3.174800
  Cl    -2.476300   -3.368800    4.018800
  C     -1.058500   -1.206300    3.123800
  C     -0.920100    0.010600    2.450200
  C     -1.744400    1.513800   -1.850200
  O     -2.406800    2.612000   -2.433100
  C     -2.776900    0.390600   -1.563100
  O     -2.173200   -0.722300   -0.964000
  C     -0.617000    0.999400   -2.779500
  C      3.809000   -0.032600   -1.085500
  Cl     3.961400    1.217200   -2.315900
  C      4.838000   -0.166300   -0.145000
  H      3.554800   -2.714100    1.716700
  H      1.743100   -2.491000    0.080600
  H      1.106400    1.625800   -0.069600
  H      0.036700    0.169600   -0.052100
  H     -0.594600    3.033400   -0.848500
  H     -4.144600    0.408200    1.416700
  H     -4.380000   -1.734900    2.602300
  H     -0.198600   -1.653100    3.606400
  H      0.048000    0.494700    2.423800
  H     -2.789100    2.309700   -3.298700
  H     -3.246000    0.074800   -2.522300
  H     -3.593500    0.776900   -0.918700
  H     -2.895600   -1.388200   -0.824800
  H     -0.416000    1.744300   -3.579500
  H     -0.907000    0.057000   -3.295800
  H      5.701400    0.486600   -0.198900

 Total Charge           Charge          ....    0
 Multiplicity           Mult            ....    1
 Number of Electrons    NEL             ....  252
 Basis Dimension        Dim             ....  468

ORBITAL ENERGIES
----------------

  NO   OCC          E(Eh)            E(eV)
   0   2.0000    -101.560193     -2763.5933
   1   2.0000    -101.553924     -2763.4228
   2   2.0000     -89.109257     -2424.7861
   3   2.0000     -89.085371     -2424.1362
   4   2.0000     -19.171608      -521.6860
   5   2.0000     -19.165704      -521.5253
   6   2.0000     -19.138904      -520.7961
   7   2.0000     -19.136795      -520.7387
   8   2.0000     -19.125688      -520.4364
   9   2.0000     -19.124092      -520.3930
  10   2.0000     -14.388304      -391.5257
  11   2.0000     -14.363160      -390.8415
  12   2.0000     -10.305166      -280.4178
  13   2.0000     -10.281943      -279.7859
  14   2.0000     -10.281575      -279.7759
  15   2.0000     -10.276450      -279.6364
  16   2.0000     -10.274328      -279.5787
  17   2.0000     -10.251446      -278.9560
  18   2.0000     -10.251346      -278.9533
  19   2.0000     -10.250598      -278.9330
  20   2.0000     -10.250329      -278.9256
  21   2.0000     -10.250230      -278.9229
  22   2.0000     -10.249513      -278.9034
  23   2.0000     -10.246914      -278.8327
  24   2.0000     -10.246822      -278.8302
  25   2.0000     -10.238874      -278.6139
  26   2.0000     -10.235058      -278.5101
  27   2.0000     -10.233197      -278.4595
  28   2.0000     -10.229433      -278.3570
  29   2.0000     -10.228824      -278.3404
  30   2.0000      -9.491672      -258.2815
  31   2.0000      -9.485772      -258.1210
  32   2.0000      -8.146859      -221.6873
  33   2.0000      -8.126198      -221.1251
  34   2.0000      -7.255264      -197.4258
  35   2.0000      -7.248891      -197.2524
  36   2.0000      -7.245180      -197.1514
  37   2.0000      -7.244451      -197.1315
  38   2.0000      -7.239397      -196.9940
  39   2.0000      -7.238927      -196.9812
  40   2.0000      -6.111284      -166.2965
  41   2.0000      -6.110192      -166.2668
  42   2.0000      -6.109255      -166.2413
  43   2.0000      -6.089638      -165.7075
  44   2.0000      -6.089360      -165.6999
  45   2.0000      -6.089025      -165.6908
  46   2.0000      -1.099099       -29.9080
  47   2.0000      -1.082255       -29.4497
  48   2.0000      -1.058671       -28.8079
  49   2.0000      -1.043570       -28.3970
  50   2.0000      -0.975980       -26.5578
  51   2.0000      -0.969794       -26.3894
  52   2.0000      -0.963333       -26.2136
  53   2.0000      -0.943970       -25.6867
  54   2.0000      -0.927840       -25.2478
  55   2.0000      -0.919463       -25.0199
  56   2.0000      -0.881778       -23.9944
  57   2.0000      -0.870967       -23.7002
  58   2.0000      -0.839515       -22.8444
  59   2.0000      -0.828761       -22.5517
  60   2.0000      -0.790787       -21.5184
  61   2.0000      -0.788329       -21.4515
  62   2.0000      -0.784582       -21.3496
  63   2.0000      -0.773001       -21.0344
  64   2.0000      -0.735507       -20.0142
  65   2.0000      -0.706033       -19.2121
  66   2.0000      -0.695010       -18.9122
  67   2.0000      -0.664102       -18.0711
  68   2.0000      -0.663147       -18.0451
  69   2.0000      -0.654122       -17.7996
  70   2.0000      -0.629302       -17.1242
  71   2.0000      -0.619150       -16.8479
  72   2.0000      -0.594464       -16.1762
  73   2.0000      -0.588077       -16.0024
  74   2.0000      -0.568306       -15.4644
  75   2.0000      -0.557265       -15.1640
  76   2.0000      -0.541579       -14.7371
  77   2.0000      -0.535407       -14.5692
  78   2.0000      -0.521230       -14.1834
  79   2.0000      -0.516827       -14.0636
  80   2.0000      -0.508011       -13.8237
  81   2.0000      -0.506166       -13.7735
  82   2.0000      -0.497773       -13.5451
  83   2.0000      -0.489909       -13.3311
  84   2.0000      -0.479723       -13.0539
  85   2.0000      -0.477075       -12.9819
  86   2.0000      -0.475656       -12.9433
  87   2.0000      -0.471519       -12.8307
  88   2.0000      -0.463764       -12.6197
  89   2.0000      -0.457572       -12.4512
  90   2.0000      -0.454048       -12.3553
  91   2.0000      -0.449298       -12.2260
  92   2.0000      -0.442293       -12.0354
  93   2.0000      -0.439278       -11.9534
  94   2.0000      -0.429875       -11.6975
  95   2.0000      -0.424430       -11.5493
  96   2.0000      -0.418481       -11.3875
  97   2.0000      -0.415742       -11.3129
  98   2.0000      -0.411154       -11.1881
  99   2.0000      -0.409581       -11.1453
 100   2.0000      -0.399631       -10.8745
 101   2.0000      -0.395587       -10.7645
 102   2.0000      -0.393435       -10.7059
 103   2.0000      -0.383192       -10.4272
 104   2.0000      -0.377270       -10.2660
 105   2.0000      -0.362835        -9.8732
 106   2.0000      -0.360709        -9.8154
 107   2.0000      -0.359828        -9.7914
 108   2.0000      -0.350121        -9.5273
 109   2.0000      -0.345494        -9.4014
 110   2.0000      -0.340306        -9.2602
 111   2.0000      -0.336541        -9.1578
 112   2.0000      -0.323394        -8.8000
 113   2.0000      -0.319819        -8.7027
 114   2.0000      -0.313625        -8.5342
 115   2.0000      -0.304068        -8.2741
 116   2.0000      -0.300092        -8.1659
 117   2.0000      -0.298676        -8.1274
 118   2.0000      -0.293528        -7.9873
 119   2.0000      -0.292266        -7.9530
 120   2.0000      -0.289687        -7.8828
 121   2.0000      -0.287742        -7.8299
 122   2.0000      -0.281505        -7.6601
 123   2.0000      -0.276356        -7.5200
 124   2.0000      -0.267419        -7.2768
 125   2.0000      -0.262819        -7.1517
 126   0.0000      -0.101661        -2.7663
 127   0.0000      -0.066214        -1.8018
 128   0.0000      -0.062390        -1.6977
 129   0.0000      -0.044607        -1.2138
 130   0.0000      -0.021591        -0.5875

MULLIKEN ATOMIC CHARGES
-----------------------
   0 N :   -0.282048
   1 C :    0.098412
   2 C :    0.134155
   3 C :   -0.125149
   4 C :   -0.145591
   5 C :   -0.158747
   6 S :    1.222400
   7 O :   -0.545579
   8 O :   -0.528600
   9 N :   -0.523605
  10 C :   -0.180788
  11 C :   -0.384833
  12 S :    1.124199
  13 O :   -0.545879
  14 O :   -0.550224
  15 C :   -0.119330
  16 C :   -0.134881
  17 C :   -0.129520
  18 C :   -0.057461
  19 Cl:    0.011028
  20 C :   -0.123069
  21 C :   -0.131329
  22 C :    0.328893
  23 O :   -0.629184
  24 C :   -0.083386
  25 O :   -0.604712
  26 C :   -0.184399
  27 C :   -0.089036
  28 Cl:    0.075240
  29 C :   -0.123502
  30 H :    0.178257
  31 H :    0.207595
  32 H :    0.184022
  33 H :    0.192013
  34 H :    0.248728
  35 H :    0.188922
  36 H :    0.168524
  37 H :    0.165226
  38 H :    0.177271
  39 H :    0.402287
  40 H :    0.116370
  41 H :    0.167020
  42 H :    0.410673
  43 H :    0.179587
  44 H :    0.205136
  45 H :    0.194893
Sum of atomic charges:    0.0000000

LOEWDIN ATOMIC CHARGES
----------------------
   0 N :   -0.064392
   1 C :   -0.005286
   2 C :   -0.027870
   3 C :   -0.100402
   4 C :   -0.090430
   5 C :   -0.187094
   6 S :    1.251058
   7 O :   -0.574351
   8 O :   -0.561077
   9 N :   -0.298916
  10 C :   -0.182817
  11 C :   -0.255029
  12 S :    1.220620
  13 O :   -0.585833
  14 O :   -0.582103
  15 C :   -0.183789
  16 C :   -0.092731
  17 C :   -0.132961
  18 C :   -0.067628
  19 Cl:    0.058587
  20 C :   -0.129002
  21 C :   -0.097584
  22 C :    0.050868
  23 O :   -0.357150
  24 C :   -0.131201
  25 O :   -0.394080
  26 C :   -0.166761
  27 C :   -0.059771
  28 Cl:    0.098028
  29 C :   -0.100315
  30 H :    0.158177
  31 H :    0.172849
  32 H :    0.139119
  33 H :    0.138128
  34 H :    0.192296
  35 H :    0.160798
  36 H :    0.152525
  37 H :    0.151233
  38 H :    0.154636
  39 H :    0.320739
  40 H :    0.102996
  41 H :    0.120539
  42 H :    0.324573
  43 H :    0.139551
  44 H :    0.153592
  45 H :    0.167660

  Mayer bond orders larger than 0.100000
B(  0-N ,  1-C ) :   3.0040 B(  1-C ,  2-C ) :   0.9867 B(  2-C ,  3-C ) :   1.3989
B(  2-C , 29-C ) :   1.4011 B(  3-C ,  4-C ) :   1.4191 B(  3-C , 30-H ) :   0.9183
B(  4-C ,  5-C ) :   1.4038 B(  4-C , 31-H ) :   0.8984 B(  5-C ,  6-S ) :   0.8009
B(  5-C , 27-C ) :   1.3413 B(  6-S ,  7-O ) :   1.5934 B(  6-S ,  8-O ) :   1.6582
B(  6-S ,  9-N ) :   0.7963 B(  9-N , 10-C ) :   0.9237 B(  9-N , 26-C ) :   0.9329
B( 10-C , 11-C ) :   0.9704 B( 10-C , 32-H ) :   0.9215 B( 10-C , 33-H ) :   0.8815
B( 11-C , 12-S ) :   0.7813 B( 11-C , 22-C ) :   0.9378 B( 11-C , 34-H ) :   0.8817
B( 12-S , 13-O ) :   1.6633 B( 12-S , 14-O ) :   1.6218 B( 12-S , 15-C ) :   0.8007
B( 15-C , 16-C ) :   1.4015 B( 15-C , 21-C ) :   1.3866 B( 16-C , 17-C ) :   1.4396
B( 16-C , 35-H ) :   0.9046 B( 17-C , 18-C ) :   1.4069 B( 17-C , 36-H ) :   0.9208
B( 18-C , 19-Cl) :   1.0368 B( 18-C , 20-C ) :   1.4105 B( 20-C , 21-C ) :   1.4446
B( 20-C , 37-H ) :   0.9213 B( 21-C , 38-H ) :   0.9112 B( 22-C , 23-O ) :   0.9223
B( 22-C , 24-C ) :   0.9740 B( 22-C , 26-C ) :   0.9414 B( 23-O , 39-H ) :   0.7773
B( 24-C , 25-O ) :   0.9549 B( 24-C , 40-H ) :   0.9170 B( 24-C , 41-H ) :   0.8948
B( 25-O , 42-H ) :   0.7751 B( 26-C , 43-H ) :   0.9197 B( 26-C , 44-H ) :   0.8969
B( 27-C , 28-Cl) :   1.0941 B( 27-C , 29-C ) :   1.3922 B( 29-C , 45-H ) :   0.9110

FINAL SINGLE POINT ENERGY     -2971.935242950758

DIPOLE MOMENT
-------------

Method             : SCF
Type of density    : Electron Density
Multiplicity       :   1
Irrep              :   0
Energy             : -2971.9352429507575835 Eh
Relativity type    :
Basis              : AO
                                X                 Y                 Z
Electronic contribution:     14.761344384      -5.780535181       6.296517843
Nuclear contribution   :    -15.705793400       4.452932875      -6.700837216
                        -----------------------------------------
Total Dipole Moment    :     -0.944449016      -1.327602305      -0.404319373
                        -----------------------------------------
Magnitude (a.u.)       :      1.678685790
Magnitude (Debye)      :      4.266880183

Rotational constants in cm-1:             0.004838             0.003208             0.002409
Rotational constants in MHz :           145.038542            96.183821            72.233974

                             ****ORCA TERMINATED NORMALLY****
TOTAL RUN TIME: 0 days 0 hours 8 minutes 42 seconds 654 msec
