                         Program Version 6.0.0  -   RELEASE  -
|  1> ! B3LYP 6-31G* SP
|  2>
|  3> * xyz 0 1
|  4> O 2.6001 -1.9453 -2.0276
|  5> C 2.2328 -1.0609 -1.2089
|  6> C 0.8364 -1.0706 -0.7272
|  7> S -0.1406 0.2873 -0.5372
|  8> C -1.5110 -0.6006 -0.1251
|  9> C -2.8156 -0.0206 0.2613
| 10> C -2.8324 1.1695 1.0123
| 11> C -4.0389 1.7129 1.4589
| 12> C -5.2439 1.0768 1.1637
| 13> C -5.2472 -0.0951 0.4059
| 14> C -4.0474 -0.6423 -0.0664
| 15> O -4.1242 -1.7751 -0.8795
| 16> N -1.2427 -1.9257 -0.1183
| 17> C 0.0459 -2.1939 -0.4601
| 18> O 0.5123 -3.5062 -0.5039
| 19> N 3.1831 -0.0699 -0.7838
| 20> C 3.0041 0.7785 0.3776
| 21> C 4.3506 1.4227 0.5383
| 22> C 5.0359 1.1011 -0.7827
| 23> O 4.4274 -0.0440 -1.3310
| 24> H -1.9084 1.6673 1.2791
| 25> H -4.0380 2.6232 2.0445
| 26> H -6.1776 1.4963 1.5157
| 27> H -6.1895 -0.5711 0.1652
| 28> H -3.3365 -2.1462 -1.3925
| 29> H 1.4815 -3.7300 -0.6880
| 30> H 2.2380 1.5546 0.1713
| 31> H 2.7324 0.1757 1.2714
| 32> H 4.9040 0.9493 1.3791
| 33> H 4.2719 2.5195 0.7032
| 34> H 4.9183 1.9500 -1.4914
| 35> H 6.1190 0.9128 -0.6243
| 36> *
| 37>
| 38>                          ****END OF INPUT****

CARTESIAN COORDINATES (ANGSTROEM)
---------------------------------
  O      2.600100   -1.945300   -2.027600
  C      2.232800   -1.060900   -1.208900
  C      0.836400   -1.070600   -0.727200
  S     -0.140600    0.287300   -0.537200
  C     -1.511000   -0.600600   -0.125100
  C     -2.815600   -0.020600    0.261300
  C     -2.832400    1.169500    1.012300
  C     -4.038900    1.712900    1.458900
  C     -5.243900    1.076800    1.163700
  C     -5.247200   -0.095100    0.405900
  C     -4.047400   -0.642300   -0.066400
  O     -4.124200   -1.775100   -0.879500
  N     -1.242700   -1.925700   -0.118300
  C      0.045900   -2.193900   -0.460100
  O      0.512300   -3.506200   -0.503900
  N      3.183100   -0.069900   -0.783800
  C      3.004100    0.778500    0.377600
  C      4.350600    1.422700    0.538300
  C      5.035900    1.101100   -0.782700
  O      4.427400   -0.044000   -1.331000
  H     -1.908400    1.667300    1.279100
  H     -4.038000    2.623200    2.044500
  H     -6.177600    1.496300    1.515700
  H     -6.189500   -0.571100    0.165200
  H     -3.336500   -2.146200   -1.392500
  H      1.481500   -3.730000   -0.688000
  H      2.238000    1.554600    0.171300
  H      2.732400    0.175700    1.271400
  H      4.904000    0.949300    1.379100
  H      4.271900    2.519500    0.703200
  H      4.918300    1.950000   -1.491400
  H      6.119000    0.912800   -0.624300

 Total Charge           Charge          ....    0
 Multiplicity           Mult            ....    1
 Number of Electrons    NEL             ....  152
 Basis Dimension        Dim             ....  308

ORBITAL ENERGIES
----------------

  NO   OCC          E(Eh)            E(eV)
   0   2.0000     -88.907399     -2419.2933
   1   2.0000     -19.198093      -522.4067
   2   2.0000     -19.170572      -521.6578
   3   2.0000     -19.161346      -521.4067
   4   2.0000     -19.108501      -519.9687
   5   2.0000     -14.408403      -392.0726
   6   2.0000     -14.340205      -390.2168
   7   2.0000     -10.300439      -280.2892
   8   2.0000     -10.291372      -280.0425
   9   2.0000     -10.265330      -279.3338
  10   2.0000     -10.260407      -279.1999
  11   2.0000     -10.249622      -278.9064
  12   2.0000     -10.238058      -278.5917
  13   2.0000     -10.220488      -278.1136
  14   2.0000     -10.209892      -277.8253
  15   2.0000     -10.209165      -277.8055
  16   2.0000     -10.196844      -277.4702
  17   2.0000     -10.192383      -277.3488
  18   2.0000     -10.185755      -277.1685
  19   2.0000     -10.183916      -277.1185
  20   2.0000      -7.984600      -217.2720
  21   2.0000      -5.947533      -161.8406
  22   2.0000      -5.943492      -161.7306
  23   2.0000      -5.941744      -161.6831
  24   2.0000      -1.132675       -30.8216
  25   2.0000      -1.041561       -28.3423
  26   2.0000      -1.026404       -27.9299
  27   2.0000      -1.004198       -27.3256
  28   2.0000      -0.966341       -26.2955
  29   2.0000      -0.879924       -23.9439
  30   2.0000      -0.857820       -23.3425
  31   2.0000      -0.821400       -22.3514
  32   2.0000      -0.816020       -22.2050
  33   2.0000      -0.784957       -21.3598
  34   2.0000      -0.745402       -20.2834
  35   2.0000      -0.729162       -19.8415
  36   2.0000      -0.682371       -18.5683
  37   2.0000      -0.646472       -17.5914
  38   2.0000      -0.638010       -17.3611
  39   2.0000      -0.622170       -16.9301
  40   2.0000      -0.607592       -16.5334
  41   2.0000      -0.586779       -15.9671
  42   2.0000      -0.579182       -15.7603
  43   2.0000      -0.545030       -14.8310
  44   2.0000      -0.536306       -14.5936
  45   2.0000      -0.532743       -14.4967
  46   2.0000      -0.502771       -13.6811
  47   2.0000      -0.489826       -13.3288
  48   2.0000      -0.478956       -13.0331
  49   2.0000      -0.468492       -12.7483
  50   2.0000      -0.451997       -12.2995
  51   2.0000      -0.450169       -12.2497
  52   2.0000      -0.442392       -12.0381
  53   2.0000      -0.441295       -12.0082
  54   2.0000      -0.431381       -11.7385
  55   2.0000      -0.423933       -11.5358
  56   2.0000      -0.412650       -11.2288
  57   2.0000      -0.401878       -10.9357
  58   2.0000      -0.395391       -10.7591
  59   2.0000      -0.390377       -10.6227
  60   2.0000      -0.374952       -10.2030
  61   2.0000      -0.371164       -10.0999
  62   2.0000      -0.368554       -10.0289
  63   2.0000      -0.362861        -9.8739
  64   2.0000      -0.353021        -9.6062
  65   2.0000      -0.340763        -9.2726
  66   2.0000      -0.336352        -9.1526
  67   2.0000      -0.330769        -9.0007
  68   2.0000      -0.323445        -8.8014
  69   2.0000      -0.291171        -7.9232
  70   2.0000      -0.278808        -7.5868
  71   2.0000      -0.264079        -7.1859
  72   2.0000      -0.251653        -6.8478
  73   2.0000      -0.231817        -6.3081
  74   2.0000      -0.214864        -5.8467
  75   2.0000      -0.207576        -5.6484
  76   0.0000      -0.060389        -1.6433
  77   0.0000      -0.007552        -0.2055
  78   0.0000       0.001920         0.0522
  79   0.0000       0.021395         0.5822
  80   0.0000       0.029562         0.8044

MULLIKEN ATOMIC CHARGES
-----------------------
   0 O :   -0.477167
   1 C :    0.497194
   2 C :   -0.282464
   3 S :    0.273908
   4 C :   -0.045460
   5 C :    0.091717
   6 C :   -0.179176
   7 C :   -0.139180
   8 C :   -0.113199
   9 C :   -0.168123
  10 C :    0.349551
  11 O :   -0.669625
  12 N :   -0.398350
  13 C :    0.501417
  14 O :   -0.640904
  15 N :   -0.187414
  16 C :   -0.126586
  17 C :   -0.341597
  18 C :   -0.007755
  19 O :   -0.350521
  20 H :    0.141544
  21 H :    0.129332
  22 H :    0.138008
  23 H :    0.148353
  24 H :    0.433437
  25 H :    0.441498
  26 H :    0.171046
  27 H :    0.171602
  28 H :    0.165460
  29 H :    0.165500
  30 H :    0.145040
  31 H :    0.162912
Sum of atomic charges:   -0.0000000

LOEWDIN ATOMIC CHARGES
----------------------
   0 O :   -0.290974
   1 C :    0.112688
   2 C :   -0.293338
   3 S :    0.398291
   4 C :   -0.113537
   5 C :   -0.069066
   6 C :   -0.115912
   7 C :   -0.150014
   8 C :   -0.110615
   9 C :   -0.146233
  10 C :    0.112053
  11 O :   -0.341228
  12 N :   -0.167523
  13 C :    0.108594
  14 O :   -0.329548
  15 N :   -0.003263
  16 C :   -0.164849
  17 C :   -0.246919
  18 C :   -0.093206
  19 O :   -0.133920
  20 H :    0.138180
  21 H :    0.132859
  22 H :    0.137256
  23 H :    0.146200
  24 H :    0.343237
  25 H :    0.351917
  26 H :    0.131104
  27 H :    0.135340
  28 H :    0.134604
  29 H :    0.140173
  30 H :    0.114332
  31 H :    0.133317

  Mayer bond orders larger than 0.100000
B(  0-O ,  1-C ) :   1.8069 B(  1-C ,  2-C ) :   0.9610 B(  1-C , 15-N ) :   1.0453
B(  2-C ,  3-S ) :   1.0658 B(  2-C ,  4-C ) :   0.1159 B(  2-C , 13-C ) :   1.3986
B(  3-S ,  4-C ) :   1.1625 B(  4-C ,  5-C ) :   0.9883 B(  4-C , 12-N ) :   1.4286
B(  5-C ,  6-C ) :   1.3883 B(  5-C , 10-C ) :   1.3072 B(  6-C ,  7-C ) :   1.4543
B(  6-C , 20-H ) :   0.9188 B(  7-C ,  8-C ) :   1.4345 B(  7-C , 21-H ) :   0.9294
B(  8-C ,  9-C ) :   1.4559 B(  8-C , 22-H ) :   0.9288 B(  9-C , 10-C ) :   1.3890
B(  9-C , 23-H ) :   0.9174 B( 10-C , 11-O ) :   0.9664 B( 11-O , 24-H ) :   0.7311
B( 12-N , 13-C ) :   1.3201 B( 13-C , 14-O ) :   1.0321 B( 14-O , 25-H ) :   0.7282
B( 15-N , 16-C ) :   0.9298 B( 15-N , 19-O ) :   0.9141 B( 16-C , 17-C ) :   0.9899
B( 16-C , 26-H ) :   0.9188 B( 16-C , 27-H ) :   0.9248 B( 17-C , 18-C ) :   0.9872
B( 17-C , 28-H ) :   0.9415 B( 17-C , 29-H ) :   0.9414 B( 18-C , 19-O ) :   0.9026
B( 18-C , 30-H ) :   0.9283 B( 18-C , 31-H ) :   0.9375

FINAL SINGLE POINT ENERGY     -1310.493105273568

DIPOLE MOMENT
-------------

Method             : SCF
Type of density    : Electron Density
Multiplicity       :   1
Irrep              :   0
Energy             : -1310.4931052735676076 Eh
Relativity type    :
Basis              : AO
                                X                 Y                 Z
Electronic contribution:     -5.497880663      -8.923791185      -5.826332161
Nuclear contribution   :      6.336172982      11.017129101       7.066055417
                        -----------------------------------------
Total Dipole Moment    :      0.838292319       2.093337916       1.239723257
                        -----------------------------------------
Magnitude (a.u.)       :      2.573268621
Magnitude (Debye)      :      6.540729034

Rotational constants in cm-1:             0.023109             0.005261             0.004452
Rotational constants in MHz :           692.790291           157.712877           133.464709

                             ****ORCA TERMINATED NORMALLY****
TOTAL RUN TIME: 0 days 0 hours 3 minutes 34 seconds 939 msec
