                         Program Version 6.0.0  -   RELEASE  -
|  1> ! B3LYP 6-31G* SP
|  2>
|  3> * xyz 0 1
|  4> C 6.5132 2.8053 1.0418
|  5> C 5.4007 2.2016 0.1965
|  6> O 5.9605 1.3881 -0.8261
|  7> C 5.5302 0.0242 -0.8084
|  8> C 6.0827 -0.6063 -2.1014
|  9> C 3.9939 -0.0943 -0.8870
| 10> C 3.2827 -1.1533 -0.2799
| 11> C 1.8940 -1.2438 -0.4033
| 12> C 1.1812 -0.2869 -1.1404
| 13> C -0.3184 -0.3655 -1.2381
| 14> N -0.9286 -0.3012 0.0922
| 15> C -1.5690 -1.4526 0.6562
| 16> N -0.9512 -2.1007 1.6775
| 17> C -1.4748 -3.2038 2.2631
| 18> C -2.6913 -3.7249 1.8178
| 19> C -3.2282 -4.8772 2.4151
| 20> C -4.4404 -5.3991 1.9649
| 21> C -5.1204 -4.7819 0.9151
| 22> C -4.5989 -3.6341 0.3123
| 23> C -3.3780 -3.0804 0.7582
| 24> C -2.8224 -1.9081 0.1810
| 25> C -3.5586 -1.1526 -0.9043
| 26> S -0.9143 1.1784 1.0001
| 27> O 0.3545 1.9424 0.7354
| 28> O -0.9763 0.8723 2.4717
| 29> C -2.3071 2.1454 0.5370
| 30> C -3.5286 1.9787 1.1997
| 31> C -4.6412 2.7388 0.8268
| 32> C -4.5481 3.6735 -0.2189
| 33> C -5.7259 4.4798 -0.6066
| 34> O -5.6446 5.3197 -1.5441
| 35> O -6.9383 4.3179 0.0603
| 36> C -3.3210 3.8251 -0.8899
| 37> C -2.2100 3.0633 -0.5157
| 38> C 1.8807 0.7401 -1.7855
| 39> C 3.2702 0.8265 -1.6723
| 40> C 6.1813 -0.7167 0.4076
| 41> F 6.1539 -2.0925 0.2373
| 42> F 5.5331 -0.4126 1.5929
| 43> F 7.5072 -0.3344 0.5282
| 44> H 6.9921 2.0199 1.6648
| 45> H 7.2784 3.2778 0.3877
| 46> H 6.0887 3.5796 1.7174
| 47> H 4.6758 1.6865 0.8638
| 48> H 4.8492 3.0343 -0.2899
| 49> H 7.1939 -0.5844 -2.1058
| 50> H 5.7515 -1.6626 -2.2055
| 51> H 5.7300 -0.0419 -2.9914
| 52> H 3.7841 -1.9158 0.2959
| 53> H 1.3750 -2.0609 0.0795
| 54> H -0.5898 -1.3195 -1.7421
| 55> H -0.7228 0.4611 -1.8615
| 56> H -0.9350 -3.6767 3.0731
| 57> H -2.7122 -5.3741 3.2286
| 58> H -4.8518 -6.2869 2.4275
| 59> H -6.0555 -5.1978 0.5646
| 60> H -5.1554 -3.1989 -0.5063
| 61> H -4.5973 -0.9324 -0.5731
| 62> H -3.0925 -0.1756 -1.1408
| 63> H -3.5859 -1.7621 -1.8340
| 64> H -3.6218 1.2593 2.0057
| 65> H -5.5725 2.5964 1.3598
| 66> H -7.7518 4.8597 -0.2024
| 67> H -3.2182 4.5286 -1.7059
| 68> H -1.2769 3.1862 -1.0508
| 69> H 1.3518 1.4782 -2.3786
| 70> H 3.7846 1.6239 -2.1957
| 71> *
| 72>
| 73>                          ****END OF INPUT****

CARTESIAN COORDINATES (ANGSTROEM)
---------------------------------
  C      6.513200    2.805300    1.041800
  C      5.400700    2.201600    0.196500
  O      5.960500    1.388100   -0.826100
  C      5.530200    0.024200   -0.808400
  C      6.082700   -0.606300   -2.101400
  C      3.993900   -0.094300   -0.887000
  C      3.282700   -1.153300   -0.279900
  C      1.894000   -1.243800   -0.403300
  C      1.181200   -0.286900   -1.140400
  C     -0.318400   -0.365500   -1.238100
  N     -0.928600   -0.301200    0.092200
  C     -1.569000   -1.452600    0.656200
  N     -0.951200   -2.100700    1.677500
  C     -1.474800   -3.203800    2.263100
  C     -2.691300   -3.724900    1.817800
  C     -3.228200   -4.877200    2.415100
  C     -4.440400   -5.399100    1.964900
  C     -5.120400   -4.781900    0.915100
  C     -4.598900   -3.634100    0.312300
  C     -3.378000   -3.080400    0.758200
  C     -2.822400   -1.908100    0.181000
  C     -3.558600   -1.152600   -0.904300
  S     -0.914300    1.178400    1.000100
  O      0.354500    1.942400    0.735400
  O     -0.976300    0.872300    2.471700
  C     -2.307100    2.145400    0.537000
  C     -3.528600    1.978700    1.199700
  C     -4.641200    2.738800    0.826800
  C     -4.548100    3.673500   -0.218900
  C     -5.725900    4.479800   -0.606600
  O     -5.644600    5.319700   -1.544100
  O     -6.938300    4.317900    0.060300
  C     -3.321000    3.825100   -0.889900
  C     -2.210000    3.063300   -0.515700
  C      1.880700    0.740100   -1.785500
  C      3.270200    0.826500   -1.672300
  C      6.181300   -0.716700    0.407600
  F      6.153900   -2.092500    0.237300
  F      5.533100   -0.412600    1.592900
  F      7.507200   -0.334400    0.528200
  H      6.992100    2.019900    1.664800
  H      7.278400    3.277800    0.387700
  H      6.088700    3.579600    1.717400
  H      4.675800    1.686500    0.863800
  H      4.849200    3.034300   -0.289900
  H      7.193900   -0.584400   -2.105800
  H      5.751500   -1.662600   -2.205500
  H      5.730000   -0.041900   -2.991400
  H      3.784100   -1.915800    0.295900
  H      1.375000   -2.060900    0.079500
  H     -0.589800   -1.319500   -1.742100
  H     -0.722800    0.461100   -1.861500
  H     -0.935000   -3.676700    3.073100
  H     -2.712200   -5.374100    3.228600
  H     -4.851800   -6.286900    2.427500
  H     -6.055500   -5.197800    0.564600
  H     -5.155400   -3.198900   -0.506300
  H     -4.597300   -0.932400   -0.573100
  H     -3.092500   -0.175600   -1.140800
  H     -3.585900   -1.762100   -1.834000
  H     -3.621800    1.259300    2.005700
  H     -5.572500    2.596400    1.359800
  H     -7.751800    4.859700   -0.202400
  H     -3.218200    4.528600   -1.705900
  H     -1.276900    3.186200   -1.050800
  H      1.351800    1.478200   -2.378600
  H      3.784600    1.623900   -2.195700

 Total Charge           Charge          ....    0
 Multiplicity           Mult            ....    1
 Number of Electrons    NEL             ....  298
 Basis Dimension        Dim             ....  618

ORBITAL ENERGIES
----------------

  NO   OCC          E(Eh)            E(eV)
   0   2.0000     -89.096768     -2424.4463
   1   2.0000     -24.716753      -672.5770
   2   2.0000     -24.713615      -672.4916
   3   2.0000     -24.710110      -672.3963
   4   2.0000     -19.199226      -522.4375
   5   2.0000     -19.144513      -520.9487
   6   2.0000     -19.140933      -520.8513
   7   2.0000     -19.124627      -520.4076
   8   2.0000     -19.122642      -520.3535
   9   2.0000     -14.371098      -391.0574
  10   2.0000     -14.331164      -389.9708
  11   2.0000     -10.423536      -283.6388
  12   2.0000     -10.338480      -281.3243
  13   2.0000     -10.263323      -279.2792
  14   2.0000     -10.260868      -279.2124
  15   2.0000     -10.244005      -278.7536
  16   2.0000     -10.236777      -278.5569
  17   2.0000     -10.234890      -278.5055
  18   2.0000     -10.226483      -278.2767
  19   2.0000     -10.223544      -278.1968
  20   2.0000     -10.222406      -278.1658
  21   2.0000     -10.220758      -278.1210
  22   2.0000     -10.220359      -278.1101
  23   2.0000     -10.215348      -277.9738
  24   2.0000     -10.211744      -277.8757
  25   2.0000     -10.209558      -277.8162
  26   2.0000     -10.204075      -277.6670
  27   2.0000     -10.202718      -277.6301
  28   2.0000     -10.201884      -277.6074
  29   2.0000     -10.201261      -277.5904
  30   2.0000     -10.199815      -277.5511
  31   2.0000     -10.195833      -277.4427
  32   2.0000     -10.190988      -277.3109
  33   2.0000     -10.184704      -277.1399
  34   2.0000     -10.177633      -276.9475
  35   2.0000     -10.176820      -276.9253
  36   2.0000     -10.176101      -276.9058
  37   2.0000     -10.173630      -276.8386
  38   2.0000     -10.173572      -276.8370
  39   2.0000     -10.154354      -276.3140
  40   2.0000      -8.132189      -221.2881
  41   2.0000      -6.097275      -165.9153
  42   2.0000      -6.095189      -165.8585
  43   2.0000      -6.094900      -165.8507
  44   2.0000      -1.273456       -34.6525
  45   2.0000      -1.199894       -32.6508
  46   2.0000      -1.195682       -32.5362
  47   2.0000      -1.083763       -29.4907
  48   2.0000      -1.080941       -29.4139
  49   2.0000      -1.032558       -28.0973
  50   2.0000      -0.997960       -27.1559
  51   2.0000      -0.964184       -26.2368
  52   2.0000      -0.958468       -26.0812
  53   2.0000      -0.916319       -24.9343
  54   2.0000      -0.893255       -24.3067
  55   2.0000      -0.868764       -23.6403
  56   2.0000      -0.849420       -23.1139
  57   2.0000      -0.814079       -22.1522
  58   2.0000      -0.810209       -22.0469
  59   2.0000      -0.800196       -21.7744
  60   2.0000      -0.780217       -21.2308
  61   2.0000      -0.779585       -21.2136
  62   2.0000      -0.759510       -20.6673
  63   2.0000      -0.746463       -20.3123
  64   2.0000      -0.737373       -20.0650
  65   2.0000      -0.722942       -19.6723
  66   2.0000      -0.716957       -19.5094
  67   2.0000      -0.705407       -19.1951
  68   2.0000      -0.689137       -18.7524
  69   2.0000      -0.681892       -18.5552
  70   2.0000      -0.656310       -17.8591
  71   2.0000      -0.649122       -17.6635
  72   2.0000      -0.641589       -17.4585
  73   2.0000      -0.623367       -16.9627
  74   2.0000      -0.618273       -16.8241
  75   2.0000      -0.604946       -16.4614
  76   2.0000      -0.602281       -16.3889
  77   2.0000      -0.599673       -16.3179
  78   2.0000      -0.593164       -16.1408
  79   2.0000      -0.575962       -15.6727
  80   2.0000      -0.563235       -15.3264
  81   2.0000      -0.562896       -15.3172
  82   2.0000      -0.560261       -15.2455
  83   2.0000      -0.546242       -14.8640
  84   2.0000      -0.535152       -14.5622
  85   2.0000      -0.530517       -14.4361
  86   2.0000      -0.514433       -13.9984
  87   2.0000      -0.507341       -13.8055
  88   2.0000      -0.498214       -13.5571
  89   2.0000      -0.494153       -13.4466
  90   2.0000      -0.484104       -13.1731
  91   2.0000      -0.481731       -13.1086
  92   2.0000      -0.475876       -12.9492
  93   2.0000      -0.469656       -12.7800
  94   2.0000      -0.463794       -12.6205
  95   2.0000      -0.462055       -12.5731
  96   2.0000      -0.456205       -12.4140
  97   2.0000      -0.452963       -12.3257
  98   2.0000      -0.451362       -12.2822
  99   2.0000      -0.449047       -12.2192
 100   2.0000      -0.446754       -12.1568
 101   2.0000      -0.444814       -12.1040
 102   2.0000      -0.442586       -12.0434
 103   2.0000      -0.441153       -12.0044
 104   2.0000      -0.434974       -11.8362
 105   2.0000      -0.431705       -11.7473
 106   2.0000      -0.423861       -11.5338
 107   2.0000      -0.421203       -11.4615
 108   2.0000      -0.417556       -11.3623
 109   2.0000      -0.416119       -11.3232
 110   2.0000      -0.412356       -11.2208
 111   2.0000      -0.411581       -11.1997
 112   2.0000      -0.405187       -11.0257
 113   2.0000      -0.403042       -10.9673
 114   2.0000      -0.401329       -10.9207
 115   2.0000      -0.397878       -10.8268
 116   2.0000      -0.394699       -10.7403
 117   2.0000      -0.392925       -10.6920
 118   2.0000      -0.389986       -10.6121
 119   2.0000      -0.388243       -10.5646
 120   2.0000      -0.384014       -10.4496
 121   2.0000      -0.377807       -10.2806
 122   2.0000      -0.374158       -10.1814
 123   2.0000      -0.371493       -10.1088
 124   2.0000      -0.369265       -10.0482
 125   2.0000      -0.361912        -9.8481
 126   2.0000      -0.358112        -9.7447
 127   2.0000      -0.355995        -9.6871
 128   2.0000      -0.349475        -9.5097
 129   2.0000      -0.342360        -9.3161
 130   2.0000      -0.332896        -9.0586
 131   2.0000      -0.329543        -8.9673
 132   2.0000      -0.323668        -8.8074
 133   2.0000      -0.323143        -8.7932
 134   2.0000      -0.307731        -8.3738
 135   2.0000      -0.303179        -8.2499
 136   2.0000      -0.296441        -8.0666
 137   2.0000      -0.291131        -7.9221
 138   2.0000      -0.289205        -7.8697
 139   2.0000      -0.281434        -7.6582
 140   2.0000      -0.277772        -7.5586
 141   2.0000      -0.275433        -7.4949
 142   2.0000      -0.265815        -7.2332
 143   2.0000      -0.258279        -7.0281
 144   2.0000      -0.254874        -6.9355
 145   2.0000      -0.249678        -6.7941
 146   2.0000      -0.239634        -6.5208
 147   2.0000      -0.232116        -6.3162
 148   2.0000      -0.223845        -6.0911
 149   0.0000      -0.085896        -2.3374
 150   0.0000      -0.065081        -1.7709
 151   0.0000      -0.036767        -1.0005
 152   0.0000      -0.032138        -0.8745
 153   0.0000      -0.005609        -0.1526

MULLIKEN ATOMIC CHARGES
-----------------------
   0 C :   -0.443931
   1 C :   -0.041332
   2 O :   -0.491442
   3 C :    0.146627
   4 C :   -0.467098
   5 C :    0.102203
   6 C :   -0.183729
   7 C :   -0.158812
   8 C :    0.194371
   9 C :   -0.254426
  10 N :   -0.599245
  11 C :    0.295502
  12 N :   -0.353760
  13 C :   -0.054579
  14 C :    0.135533
  15 C :   -0.201386
  16 C :   -0.126590
  17 C :   -0.120342
  18 C :   -0.201628
  19 C :    0.123871
  20 C :    0.098211
  21 C :   -0.540796
  22 S :    1.207063
  23 O :   -0.534021
  24 O :   -0.528629
  25 C :   -0.119815
  26 C :   -0.145792
  27 C :   -0.149280
  28 C :    0.083225
  29 C :    0.528120
  30 O :   -0.444170
  31 O :   -0.624046
  32 C :   -0.140056
  33 C :   -0.153450
  34 C :   -0.152073
  35 C :   -0.170232
  36 C :    0.943366
  37 F :   -0.306932
  38 F :   -0.303919
  39 F :   -0.301726
  40 H :    0.151203
  41 H :    0.148720
  42 H :    0.136329
  43 H :    0.165823
  44 H :    0.130462
  45 H :    0.161050
  46 H :    0.160430
  47 H :    0.163679
  48 H :    0.139767
  49 H :    0.144375
  50 H :    0.178027
  51 H :    0.149233
  52 H :    0.157773
  53 H :    0.142974
  54 H :    0.137886
  55 H :    0.138176
  56 H :    0.137137
  57 H :    0.164163
  58 H :    0.168983
  59 H :    0.163335
  60 H :    0.186798
  61 H :    0.173119
  62 H :    0.434638
  63 H :    0.180807
  64 H :    0.181456
  65 H :    0.117790
  66 H :    0.141016
Sum of atomic charges:   -0.0000000

LOEWDIN ATOMIC CHARGES
----------------------
   0 C :   -0.370593
   1 C :   -0.112319
   2 O :   -0.212501
   3 C :    0.043041
   4 C :   -0.349350
   5 C :   -0.025883
   6 C :   -0.134112
   7 C :   -0.117542
   8 C :   -0.027988
   9 C :   -0.143325
  10 N :   -0.282031
  11 C :    0.024520
  12 N :   -0.109350
  13 C :   -0.055917
  14 C :   -0.029031
  15 C :   -0.109792
  16 C :   -0.126313
  17 C :   -0.116801
  18 C :   -0.126840
  19 C :   -0.008015
  20 C :   -0.022977
  21 C :   -0.360897
  22 S :    1.269120
  23 O :   -0.560353
  24 O :   -0.556588
  25 C :   -0.175738
  26 C :   -0.104780
  27 C :   -0.099731
  28 C :   -0.040426
  29 C :    0.180127
  30 O :   -0.260556
  31 O :   -0.335072
  32 C :   -0.085853
  33 C :   -0.110607
  34 C :   -0.121469
  35 C :   -0.123853
  36 C :    0.305076
  37 F :   -0.113484
  38 F :   -0.107818
  39 F :   -0.107376
  40 H :    0.126124
  41 H :    0.126990
  42 H :    0.125060
  43 H :    0.127974
  44 H :    0.110959
  45 H :    0.133147
  46 H :    0.135967
  47 H :    0.138033
  48 H :    0.136668
  49 H :    0.140325
  50 H :    0.146889
  51 H :    0.122782
  52 H :    0.140023
  53 H :    0.138938
  54 H :    0.136341
  55 H :    0.136780
  56 H :    0.137749
  57 H :    0.137851
  58 H :    0.138443
  59 H :    0.137655
  60 H :    0.160485
  61 H :    0.154825
  62 H :    0.349971
  63 H :    0.160414
  64 H :    0.157692
  65 H :    0.127154
  66 H :    0.138159

  Mayer bond orders larger than 0.100000
B(  0-C ,  1-C ) :   1.0170 B(  0-C , 40-H ) :   0.9449 B(  0-C , 41-H ) :   0.9495
B(  0-C , 42-H ) :   0.9428 B(  1-C ,  2-O ) :   0.8889 B(  1-C , 43-H ) :   0.9144
B(  1-C , 44-H ) :   0.9384 B(  2-O ,  3-C ) :   0.9092 B(  3-C ,  4-C ) :   0.9822
B(  3-C ,  5-C ) :   0.9328 B(  3-C , 36-C ) :   0.9006 B(  4-C , 45-H ) :   0.9329
B(  4-C , 46-H ) :   0.9364 B(  4-C , 47-H ) :   0.9375 B(  5-C ,  6-C ) :   1.4140
B(  5-C , 35-C ) :   1.4134 B(  6-C ,  7-C ) :   1.4317 B(  6-C , 48-H ) :   0.9088
B(  7-C ,  8-C ) :   1.4269 B(  7-C , 49-H ) :   0.9117 B(  8-C ,  9-C ) :   0.9553
B(  8-C , 34-C ) :   1.4365 B(  9-C , 10-N ) :   0.9165 B(  9-C , 50-H ) :   0.9183
B(  9-C , 51-H ) :   0.9269 B( 10-N , 11-C ) :   0.8914 B( 10-N , 22-S ) :   0.8015
B( 11-C , 12-N ) :   1.2902 B( 11-C , 20-C ) :   1.4301 B( 12-N , 13-C ) :   1.4977
B( 13-C , 14-C ) :   1.2302 B( 13-C , 20-C ) :   0.1014 B( 13-C , 52-H ) :   0.9255
B( 14-C , 15-C ) :   1.2830 B( 14-C , 19-C ) :   1.2927 B( 15-C , 16-C ) :   1.5133
B( 15-C , 18-C ) :   0.1061 B( 15-C , 53-H ) :   0.9226 B( 16-C , 17-C ) :   1.3534
B( 16-C , 54-H ) :   0.9289 B( 17-C , 18-C ) :   1.5091 B( 17-C , 55-H ) :   0.9289
B( 18-C , 19-C ) :   1.2936 B( 18-C , 56-H ) :   0.9171 B( 19-C , 20-C ) :   1.2634
B( 20-C , 21-C ) :   0.9981 B( 21-C , 57-H ) :   0.9289 B( 21-C , 58-H ) :   0.9302
B( 21-C , 59-H ) :   0.9266 B( 22-S , 23-O ) :   1.6389 B( 22-S , 24-O ) :   1.6504
B( 22-S , 25-C ) :   0.8122 B( 25-C , 26-C ) :   1.3932 B( 25-C , 33-C ) :   1.3790
B( 26-C , 27-C ) :   1.4166 B( 26-C , 60-H ) :   0.9086 B( 27-C , 28-C ) :   1.3827
B( 27-C , 61-H ) :   0.9148 B( 28-C , 29-C ) :   1.0086 B( 28-C , 32-C ) :   1.4028
B( 29-C , 30-O ) :   1.8628 B( 29-C , 31-O ) :   1.0248 B( 31-O , 62-H ) :   0.7415
B( 32-C , 33-C ) :   1.4194 B( 32-C , 63-H ) :   0.9096 B( 33-C , 64-H ) :   0.9098
B( 34-C , 35-C ) :   1.4262 B( 34-C , 65-H ) :   0.9230 B( 35-C , 66-H ) :   0.9177
B( 36-C , 37-F ) :   0.9139 B( 36-C , 38-F ) :   0.9334 B( 36-C , 39-F ) :   0.9493

FINAL SINGLE POINT ENERGY     -2303.436551953876

DIPOLE MOMENT
-------------

Method             : SCF
Type of density    : Electron Density
Multiplicity       :   1
Irrep              :   0
Energy             : -2303.4365519538760054 Eh
Relativity type    :
Basis              : AO
                                X                 Y                 Z
Electronic contribution:     10.847363104      -1.277714282      11.184855116
Nuclear contribution   :    -14.135761306      -0.172170343     -12.335006459
                        -----------------------------------------
Total Dipole Moment    :     -3.288398203      -1.449884625      -1.150151343
                        -----------------------------------------
Magnitude (a.u.)       :      3.773403805
Magnitude (Debye)      :      9.591230245

Rotational constants in cm-1:             0.003570             0.001529             0.001166
Rotational constants in MHz :           107.033107            45.844808            34.949608

                             ****ORCA TERMINATED NORMALLY****
TOTAL RUN TIME: 0 days 0 hours 9 minutes 1 seconds 293 msec
