                         Program Version 6.0.0  -   RELEASE  -
|  1> ! B3LYP 6-31G* SP
|  2>
|  3> * xyz 0 1
|  4> O 6.0308 -1.6658 -1.5872
|  5> C 5.0951 -2.4078 -1.1827
|  6> O 5.1857 -3.7842 -1.3738
|  7> C 3.9125 -1.8243 -0.5121
|  8> C 2.8704 -2.6538 -0.0621
|  9> C 1.7507 -2.1055 0.5701
| 10> C 1.6551 -0.7208 0.7590
| 11> S 0.2407 -0.0114 1.5306
| 12> O -0.7628 -1.0760 1.8767
| 13> O 0.6828 0.6726 2.7940
| 14> N -0.4985 1.1446 0.4641
| 15> C -0.6480 0.8347 -0.9615
| 16> C -1.6063 -0.3092 -1.1529
| 17> C -2.9786 -0.1239 -0.9177
| 18> C -3.8679 -1.1934 -1.0597
| 19> C -3.3938 -2.4536 -1.4345
| 20> C -2.0295 -2.6461 -1.6689
| 21> C -1.1371 -1.5791 -1.5292
| 22> C -1.1956 2.2584 1.0358
| 23> N -2.1866 2.0317 1.9419
| 24> C -2.8850 3.0469 2.5150
| 25> C -2.5915 4.3714 2.1835
| 26> Cl -3.4864 5.6885 2.9187
| 27> C -1.5700 4.6356 1.2687
| 28> C -0.8600 3.5799 0.6895
| 29> Cl 0.4713 3.9366 -0.4030
| 30> C 2.6903 0.1104 0.3164
| 31> C 3.8112 -0.4351 -0.3154
| 32> H 5.9909 -4.1940 -1.8320
| 33> H 2.9179 -3.7267 -0.1996
| 34> H 0.9579 -2.7626 0.9029
| 35> H 0.3464 0.5977 -1.3955
| 36> H -1.0331 1.7177 -1.5163
| 37> H -3.3573 0.8464 -0.6213
| 38> H -4.9244 -1.0459 -0.8766
| 39> H -4.0833 -3.2809 -1.5424
| 40> H -1.6631 -3.6227 -1.9575
| 41> H -0.0828 -1.7443 -1.7118
| 42> H -3.6675 2.8223 3.2276
| 43> H -1.3217 5.6589 1.0162
| 44> H 2.6248 1.1825 0.4544
| 45> H 4.5964 0.2306 -0.6513
| 46> *
| 47>
| 48>                          ****END OF INPUT****

CARTESIAN COORDINATES (ANGSTROEM)
---------------------------------
  O      6.030800   -1.665800   -1.587200
  C      5.095100   -2.407800   -1.182700
  O      5.185700   -3.784200   -1.373800
  C      3.912500   -1.824300   -0.512100
  C      2.870400   -2.653800   -0.062100
  C      1.750700   -2.105500    0.570100
  C      1.655100   -0.720800    0.759000
  S      0.240700   -0.011400    1.530600
  O     -0.762800   -1.076000    1.876700
  O      0.682800    0.672600    2.794000
  N     -0.498500    1.144600    0.464100
  C     -0.648000    0.834700   -0.961500
  C     -1.606300   -0.309200   -1.152900
  C     -2.978600   -0.123900   -0.917700
  C     -3.867900   -1.193400   -1.059700
  C     -3.393800   -2.453600   -1.434500
  C     -2.029500   -2.646100   -1.668900
  C     -1.137100   -1.579100   -1.529200
  C     -1.195600    2.258400    1.035800
  N     -2.186600    2.031700    1.941900
  C     -2.885000    3.046900    2.515000
  C     -2.591500    4.371400    2.183500
  Cl    -3.486400    5.688500    2.918700
  C     -1.570000    4.635600    1.268700
  C     -0.860000    3.579900    0.689500
  Cl     0.471300    3.936600   -0.403000
  C      2.690300    0.110400    0.316400
  C      3.811200   -0.435100   -0.315400
  H      5.990900   -4.194000   -1.832000
  H      2.917900   -3.726700   -0.199600
  H      0.957900   -2.762600    0.902900
  H      0.346400    0.597700   -1.395500
  H     -1.033100    1.717700   -1.516300
  H     -3.357300    0.846400   -0.621300
  H     -4.924400   -1.045900   -0.876600
  H     -4.083300   -3.280900   -1.542400
  H     -1.663100   -3.622700   -1.957500
  H     -0.082800   -1.744300   -1.711800
  H     -3.667500    2.822300    3.227600
  H     -1.321700    5.658900    1.016200
  H      2.624800    1.182500    0.454400
  H      4.596400    0.230600   -0.651300

 Total Charge           Charge          ....    0
 Multiplicity           Mult            ....    1
 Number of Electrons    NEL             ....  224
 Basis Dimension        Dim             ....  432

ORBITAL ENERGIES
----------------

  NO   OCC          E(Eh)            E(eV)
   0   2.0000    -101.554237     -2763.4313
   1   2.0000    -101.548110     -2763.2646
   2   2.0000     -89.099735     -2424.5271
   3   2.0000     -19.200583      -522.4744
   4   2.0000     -19.142932      -520.9057
   5   2.0000     -19.124299      -520.3986
   6   2.0000     -19.118338      -520.2364
   7   2.0000     -14.380842      -391.3226
   8   2.0000     -14.359219      -390.7342
   9   2.0000     -10.340165      -281.3702
  10   2.0000     -10.293426      -280.0984
  11   2.0000     -10.279503      -279.7195
  12   2.0000     -10.273272      -279.5499
  13   2.0000     -10.249048      -278.8908
  14   2.0000     -10.248852      -278.8854
  15   2.0000     -10.240021      -278.6451
  16   2.0000     -10.238092      -278.5927
  17   2.0000     -10.236079      -278.5379
  18   2.0000     -10.227027      -278.2916
  19   2.0000     -10.224920      -278.2342
  20   2.0000     -10.223311      -278.1904
  21   2.0000     -10.222714      -278.1742
  22   2.0000     -10.191613      -277.3279
  23   2.0000     -10.183634      -277.1108
  24   2.0000     -10.182088      -277.0687
  25   2.0000     -10.182016      -277.0667
  26   2.0000     -10.181381      -277.0495
  27   2.0000     -10.180716      -277.0314
  28   2.0000      -9.485500      -258.1136
  29   2.0000      -9.479887      -257.9608
  30   2.0000      -8.135487      -221.3779
  31   2.0000      -7.248733      -197.2481
  32   2.0000      -7.243081      -197.0943
  33   2.0000      -7.239135      -196.9869
  34   2.0000      -7.238673      -196.9743
  35   2.0000      -7.233420      -196.8314
  36   2.0000      -7.233073      -196.8219
  37   2.0000      -6.100915      -166.0143
  38   2.0000      -6.098399      -165.9459
  39   2.0000      -6.097831      -165.9304
  40   2.0000      -1.085336       -29.5335
  41   2.0000      -1.082358       -29.4525
  42   2.0000      -0.999704       -27.2033
  43   2.0000      -0.984058       -26.7776
  44   2.0000      -0.958622       -26.0854
  45   2.0000      -0.932751       -25.3814
  46   2.0000      -0.896431       -24.3931
  47   2.0000      -0.893195       -24.3051
  48   2.0000      -0.886423       -24.1208
  49   2.0000      -0.850169       -23.1343
  50   2.0000      -0.813007       -22.1230
  51   2.0000      -0.796490       -21.6736
  52   2.0000      -0.782213       -21.2851
  53   2.0000      -0.779982       -21.2244
  54   2.0000      -0.754788       -20.5388
  55   2.0000      -0.742260       -20.1979
  56   2.0000      -0.717673       -19.5289
  57   2.0000      -0.690561       -18.7911
  58   2.0000      -0.670689       -18.2504
  59   2.0000      -0.651049       -17.7160
  60   2.0000      -0.643600       -17.5132
  61   2.0000      -0.622341       -16.9348
  62   2.0000      -0.607463       -16.5299
  63   2.0000      -0.602009       -16.3815
  64   2.0000      -0.587603       -15.9895
  65   2.0000      -0.564513       -15.3612
  66   2.0000      -0.547523       -14.8988
  67   2.0000      -0.538926       -14.6649
  68   2.0000      -0.523797       -14.2532
  69   2.0000      -0.510025       -13.8785
  70   2.0000      -0.497241       -13.5306
  71   2.0000      -0.492765       -13.4088
  72   2.0000      -0.483927       -13.1683
  73   2.0000      -0.478230       -13.0133
  74   2.0000      -0.473565       -12.8864
  75   2.0000      -0.465762       -12.6740
  76   2.0000      -0.463056       -12.6004
  77   2.0000      -0.454955       -12.3799
  78   2.0000      -0.453224       -12.3328
  79   2.0000      -0.447177       -12.1683
  80   2.0000      -0.440569       -11.9885
  81   2.0000      -0.438413       -11.9298
  82   2.0000      -0.432469       -11.7681
  83   2.0000      -0.422374       -11.4934
  84   2.0000      -0.420692       -11.4476
  85   2.0000      -0.419707       -11.4208
  86   2.0000      -0.416616       -11.3367
  87   2.0000      -0.402219       -10.9449
  88   2.0000      -0.396667       -10.7939
  89   2.0000      -0.390453       -10.6248
  90   2.0000      -0.378675       -10.3043
  91   2.0000      -0.372912       -10.1475
  92   2.0000      -0.361272        -9.8307
  93   2.0000      -0.358040        -9.7428
  94   2.0000      -0.352371        -9.5885
  95   2.0000      -0.343056        -9.3350
  96   2.0000      -0.340645        -9.2694
  97   2.0000      -0.330966        -9.0060
  98   2.0000      -0.326162        -8.8753
  99   2.0000      -0.321300        -8.7430
 100   2.0000      -0.310387        -8.4461
 101   2.0000      -0.306449        -8.3389
 102   2.0000      -0.293241        -7.9795
 103   2.0000      -0.287387        -7.8202
 104   2.0000      -0.285399        -7.7661
 105   2.0000      -0.279589        -7.6080
 106   2.0000      -0.276052        -7.5118
 107   2.0000      -0.273428        -7.4403
 108   2.0000      -0.267979        -7.2921
 109   2.0000      -0.249154        -6.7798
 110   2.0000      -0.245820        -6.6891
 111   2.0000      -0.237116        -6.4522
 112   0.0000      -0.090423        -2.4605
 113   0.0000      -0.056218        -1.5298
 114   0.0000      -0.046687        -1.2704
 115   0.0000      -0.036821        -1.0019
 116   0.0000      -0.009357        -0.2546

MULLIKEN ATOMIC CHARGES
-----------------------
   0 O :   -0.442172
   1 C :    0.529717
   2 O :   -0.623047
   3 C :    0.083877
   4 C :   -0.148617
   5 C :   -0.140697
   6 C :   -0.140229
   7 S :    1.221675
   8 O :   -0.526343
   9 O :   -0.530283
  10 N :   -0.604053
  11 C :   -0.275925
  12 C :    0.179303
  13 C :   -0.146353
  14 C :   -0.123800
  15 C :   -0.119944
  16 C :   -0.123233
  17 C :   -0.171335
  18 C :    0.403800
  19 N :   -0.342685
  20 C :    0.024050
  21 C :   -0.070699
  22 Cl:    0.011651
  23 C :   -0.107861
  24 C :   -0.085299
  25 Cl:    0.017641
  26 C :   -0.146610
  27 C :   -0.140970
  28 H :    0.435754
  29 H :    0.176421
  30 H :    0.199214
  31 H :    0.165494
  32 H :    0.185084
  33 H :    0.126738
  34 H :    0.130943
  35 H :    0.128962
  36 H :    0.125746
  37 H :    0.122859
  38 H :    0.183328
  39 H :    0.188178
  40 H :    0.186788
  41 H :    0.182933
Sum of atomic charges:   -0.0000000

LOEWDIN ATOMIC CHARGES
----------------------
   0 O :   -0.258322
   1 C :    0.180092
   2 O :   -0.333697
   3 C :   -0.036716
   4 C :   -0.100326
   5 C :   -0.097022
   6 C :   -0.174234
   7 S :    1.267842
   8 O :   -0.562463
   9 O :   -0.566453
  10 N :   -0.279372
  11 C :   -0.151039
  12 C :   -0.035674
  13 C :   -0.116721
  14 C :   -0.120343
  15 C :   -0.124498
  16 C :   -0.125659
  17 C :   -0.135111
  18 C :    0.055425
  19 N :   -0.090897
  20 C :   -0.061498
  21 C :   -0.100374
  22 Cl:    0.058995
  23 C :   -0.111449
  24 C :   -0.095213
  25 Cl:    0.055333
  26 C :   -0.103768
  27 C :   -0.086180
  28 H :    0.350927
  29 H :    0.156557
  30 H :    0.167490
  31 H :    0.131697
  32 H :    0.149412
  33 H :    0.131625
  34 H :    0.132944
  35 H :    0.132001
  36 H :    0.130379
  37 H :    0.127730
  38 H :    0.154039
  39 H :    0.163568
  40 H :    0.159512
  41 H :    0.161461

  Mayer bond orders larger than 0.100000
B(  0-O ,  1-C ) :   1.8640 B(  1-C ,  2-O ) :   1.0269 B(  1-C ,  3-C ) :   1.0069
B(  2-O , 28-H ) :   0.7408 B(  3-C ,  4-C ) :   1.3849 B(  3-C , 27-C ) :   1.4006
B(  4-C ,  5-C ) :   1.4066 B(  4-C , 29-H ) :   0.9142 B(  5-C ,  6-C ) :   1.4062
B(  5-C , 30-H ) :   0.9036 B(  6-C ,  7-S ) :   0.8109 B(  6-C , 26-C ) :   1.3702
B(  7-S ,  8-O ) :   1.6543 B(  7-S ,  9-O ) :   1.6637 B(  7-S , 10-N ) :   0.7727
B( 10-N , 11-C ) :   0.9177 B( 10-N , 18-C ) :   0.9529 B( 11-C , 12-C ) :   0.9397
B( 11-C , 31-H ) :   0.9237 B( 11-C , 32-H ) :   0.9201 B( 12-C , 13-C ) :   1.4236
B( 12-C , 17-C ) :   1.4374 B( 13-C , 14-C ) :   1.4548 B( 13-C , 33-H ) :   0.9225
B( 14-C , 15-C ) :   1.4466 B( 14-C , 34-H ) :   0.9291 B( 15-C , 16-C ) :   1.4619
B( 15-C , 35-H ) :   0.9299 B( 16-C , 17-C ) :   1.4399 B( 16-C , 36-H ) :   0.9296
B( 17-C , 37-H ) :   0.9187 B( 18-C , 19-N ) :   1.3797 B( 18-C , 24-C ) :   1.3340
B( 19-N , 20-C ) :   1.4248 B( 20-C , 21-C ) :   1.3614 B( 20-C , 38-H ) :   0.9198
B( 21-C , 22-Cl) :   1.0268 B( 21-C , 23-C ) :   1.4117 B( 23-C , 24-C ) :   1.4129
B( 23-C , 39-H ) :   0.9117 B( 24-C , 25-Cl) :   1.0358 B( 26-C , 27-C ) :   1.4283
B( 26-C , 40-H ) :   0.9095 B( 27-C , 41-H ) :   0.9090

FINAL SINGLE POINT ENERGY     -2460.448995445565

DIPOLE MOMENT
-------------

Method             : SCF
Type of density    : Electron Density
Multiplicity       :   1
Irrep              :   0
Energy             : -2460.4489954455652878 Eh
Relativity type    :
Basis              : AO
                                X                 Y                 Z
Electronic contribution:     -1.469324552      26.539195557      12.110880839
Nuclear contribution   :      1.588315777     -26.788419411     -13.870502144
                        -----------------------------------------
Total Dipole Moment    :      0.118991226      -0.249223854      -1.759621305
                        -----------------------------------------
Magnitude (a.u.)       :      1.781162143
Magnitude (Debye)      :      4.527354373

Rotational constants in cm-1:             0.007733             0.002814             0.002368
Rotational constants in MHz :           231.838898            84.374807            70.985571

                             ****ORCA TERMINATED NORMALLY****
TOTAL RUN TIME: 0 days 0 hours 7 minutes 13 seconds 835 msec
