                         Program Version 6.0.0  -   RELEASE  -
|  1> ! B3LYP 6-31G* SP
|  2>
|  3> * xyz 0 1
|  4> C -2.9482 -1.1423 -1.7642
|  5> C -2.0085 -1.5406 -0.8904
|  6> C -0.9859 -2.5532 -1.3367
|  7> C -1.9527 -0.9609 0.5190
|  8> C -3.2808 -1.2195 1.3034
|  9> C -3.9971 0.0674 1.7410
| 10> C -3.0158 1.0139 2.3907
| 11> C -3.3277 1.6789 3.7025
| 12> C -1.8353 1.2318 1.7880
| 13> C -1.5268 0.5407 0.4783
| 14> C -0.0580 0.6881 0.0891
| 15> C 0.9752 0.3192 0.9840
| 16> O 0.6699 -0.1572 2.2596
| 17> C 2.3164 0.4240 0.5936
| 18> C 2.6544 0.8887 -0.6827
| 19> C 4.0970 0.9579 -1.1080
| 20> C 4.5365 -0.3691 -1.7352
| 21> C 5.9973 -0.3156 -2.1722
| 22> C 1.6366 1.2249 -1.5828
| 23> C 0.2900 1.1265 -1.2090
| 24> O -0.7016 1.4574 -2.1333
| 25> H -3.6983 -0.4092 -1.4850
| 26> H -2.9787 -1.5477 -2.7712
| 27> H -0.4292 -2.1607 -2.2141
| 28> H -1.4934 -3.4994 -1.6201
| 29> H -0.2510 -2.7761 -0.5356
| 30> H -1.1683 -1.5100 1.0832
| 31> H -3.0481 -1.8067 2.2200
| 32> H -3.9907 -1.8409 0.7149
| 33> H -4.4402 0.5622 0.8499
| 34> H -4.8263 -0.1896 2.4344
| 35> H -4.3390 1.3997 4.0648
| 36> H -2.5818 1.3710 4.4655
| 37> H -3.2913 2.7821 3.5814
| 38> H -1.1122 1.9094 2.2357
| 39> H -2.1654 1.0615 -0.2668
| 40> H 1.3933 -0.4292 2.9148
| 41> H 3.0981 0.1349 1.2856
| 42> H 4.7380 1.1878 -0.2283
| 43> H 4.2339 1.7833 -1.8411
| 44> H 3.9035 -0.5923 -2.6219
| 45> H 4.4113 -1.1919 -0.9976
| 46> H 6.6544 -0.1187 -1.2984
| 47> H 6.1444 0.4835 -2.9298
| 48> H 6.2866 -1.2888 -2.6218
| 49> H 1.8902 1.5577 -2.5820
| 50> H -0.4748 1.7673 -3.0710
| 51> *
| 52>
| 53>                          ****END OF INPUT****

CARTESIAN COORDINATES (ANGSTROEM)
---------------------------------
  C     -2.948200   -1.142300   -1.764200
  C     -2.008500   -1.540600   -0.890400
  C     -0.985900   -2.553200   -1.336700
  C     -1.952700   -0.960900    0.519000
  C     -3.280800   -1.219500    1.303400
  C     -3.997100    0.067400    1.741000
  C     -3.015800    1.013900    2.390700
  C     -3.327700    1.678900    3.702500
  C     -1.835300    1.231800    1.788000
  C     -1.526800    0.540700    0.478300
  C     -0.058000    0.688100    0.089100
  C      0.975200    0.319200    0.984000
  O      0.669900   -0.157200    2.259600
  C      2.316400    0.424000    0.593600
  C      2.654400    0.888700   -0.682700
  C      4.097000    0.957900   -1.108000
  C      4.536500   -0.369100   -1.735200
  C      5.997300   -0.315600   -2.172200
  C      1.636600    1.224900   -1.582800
  C      0.290000    1.126500   -1.209000
  O     -0.701600    1.457400   -2.133300
  H     -3.698300   -0.409200   -1.485000
  H     -2.978700   -1.547700   -2.771200
  H     -0.429200   -2.160700   -2.214100
  H     -1.493400   -3.499400   -1.620100
  H     -0.251000   -2.776100   -0.535600
  H     -1.168300   -1.510000    1.083200
  H     -3.048100   -1.806700    2.220000
  H     -3.990700   -1.840900    0.714900
  H     -4.440200    0.562200    0.849900
  H     -4.826300   -0.189600    2.434400
  H     -4.339000    1.399700    4.064800
  H     -2.581800    1.371000    4.465500
  H     -3.291300    2.782100    3.581400
  H     -1.112200    1.909400    2.235700
  H     -2.165400    1.061500   -0.266800
  H      1.393300   -0.429200    2.914800
  H      3.098100    0.134900    1.285600
  H      4.738000    1.187800   -0.228300
  H      4.233900    1.783300   -1.841100
  H      3.903500   -0.592300   -2.621900
  H      4.411300   -1.191900   -0.997600
  H      6.654400   -0.118700   -1.298400
  H      6.144400    0.483500   -2.929800
  H      6.286600   -1.288800   -2.621800
  H      1.890200    1.557700   -2.582000
  H     -0.474800    1.767300   -3.071000

 Total Charge           Charge          ....    0
 Multiplicity           Mult            ....    1
 Number of Electrons    NEL             ....  156
 Basis Dimension        Dim             ....  346

ORBITAL ENERGIES
----------------

  NO   OCC          E(Eh)            E(eV)
   0   2.0000     -19.161136      -521.4010
   1   2.0000     -19.156799      -521.2830
   2   2.0000     -10.240588      -278.6606
   3   2.0000     -10.239194      -278.6226
   4   2.0000     -10.182774      -277.0874
   5   2.0000     -10.176589      -276.9191
   6   2.0000     -10.176056      -276.9046
   7   2.0000     -10.174659      -276.8665
   8   2.0000     -10.170091      -276.7422
   9   2.0000     -10.166557      -276.6461
  10   2.0000     -10.165865      -276.6272
  11   2.0000     -10.164467      -276.5892
  12   2.0000     -10.163968      -276.5756
  13   2.0000     -10.163263      -276.5564
  14   2.0000     -10.161029      -276.4957
  15   2.0000     -10.158229      -276.4195
  16   2.0000     -10.156970      -276.3852
  17   2.0000     -10.156334      -276.3679
  18   2.0000     -10.154345      -276.3138
  19   2.0000     -10.141142      -275.9545
  20   2.0000     -10.137352      -275.8514
  21   2.0000      -1.026224       -27.9250
  22   2.0000      -1.021604       -27.7993
  23   2.0000      -0.843251       -22.9460
  24   2.0000      -0.823333       -22.4040
  25   2.0000      -0.788866       -21.4661
  26   2.0000      -0.778019       -21.1710
  27   2.0000      -0.751845       -20.4588
  28   2.0000      -0.723700       -19.6929
  29   2.0000      -0.722324       -19.6554
  30   2.0000      -0.708952       -19.2916
  31   2.0000      -0.664820       -18.0907
  32   2.0000      -0.661213       -17.9925
  33   2.0000      -0.652771       -17.7628
  34   2.0000      -0.622388       -16.9360
  35   2.0000      -0.602754       -16.4018
  36   2.0000      -0.582530       -15.8515
  37   2.0000      -0.573774       -15.6132
  38   2.0000      -0.562721       -15.3124
  39   2.0000      -0.538152       -14.6439
  40   2.0000      -0.502198       -13.6655
  41   2.0000      -0.500422       -13.6172
  42   2.0000      -0.479596       -13.0505
  43   2.0000      -0.475650       -12.9431
  44   2.0000      -0.459457       -12.5025
  45   2.0000      -0.452313       -12.3081
  46   2.0000      -0.444159       -12.0862
  47   2.0000      -0.434509       -11.8236
  48   2.0000      -0.422653       -11.5010
  49   2.0000      -0.416726       -11.3397
  50   2.0000      -0.407724       -11.0947
  51   2.0000      -0.406981       -11.0745
  52   2.0000      -0.400378       -10.8948
  53   2.0000      -0.393836       -10.7168
  54   2.0000      -0.389232       -10.5915
  55   2.0000      -0.382536       -10.4093
  56   2.0000      -0.381833       -10.3902
  57   2.0000      -0.373002       -10.1499
  58   2.0000      -0.367602       -10.0029
  59   2.0000      -0.366381        -9.9697
  60   2.0000      -0.361203        -9.8288
  61   2.0000      -0.357457        -9.7269
  62   2.0000      -0.349517        -9.5109
  63   2.0000      -0.343084        -9.3358
  64   2.0000      -0.339500        -9.2383
  65   2.0000      -0.336409        -9.1541
  66   2.0000      -0.334862        -9.1121
  67   2.0000      -0.330025        -8.9804
  68   2.0000      -0.323034        -8.7902
  69   2.0000      -0.313538        -8.5318
  70   2.0000      -0.303448        -8.2572
  71   2.0000      -0.288403        -7.8478
  72   2.0000      -0.287181        -7.8146
  73   2.0000      -0.277904        -7.5621
  74   2.0000      -0.216638        -5.8950
  75   2.0000      -0.208501        -5.6736
  76   2.0000      -0.205519        -5.5925
  77   2.0000      -0.198795        -5.4095
  78   0.0000       0.014707         0.4002
  79   0.0000       0.025030         0.6811
  80   0.0000       0.028559         0.7771
  81   0.0000       0.042597         1.1591
  82   0.0000       0.054438         1.4813

MULLIKEN ATOMIC CHARGES
-----------------------
   0 C :   -0.375717
   1 C :    0.206809
   2 C :   -0.512797
   3 C :   -0.141771
   4 C :   -0.266952
   5 C :   -0.327061
   6 C :    0.136647
   7 C :   -0.508153
   8 C :   -0.123997
   9 C :   -0.183192
  10 C :    0.048799
  11 C :    0.341713
  12 O :   -0.675398
  13 C :   -0.264240
  14 C :    0.186515
  15 C :   -0.342253
  16 C :   -0.233697
  17 C :   -0.431080
  18 C :   -0.263630
  19 C :    0.334188
  20 O :   -0.671598
  21 H :    0.124328
  22 H :    0.118159
  23 H :    0.158865
  24 H :    0.151867
  25 H :    0.144274
  26 H :    0.136588
  27 H :    0.128073
  28 H :    0.134182
  29 H :    0.141618
  30 H :    0.123963
  31 H :    0.136278
  32 H :    0.155192
  33 H :    0.153331
  34 H :    0.111000
  35 H :    0.166275
  36 H :    0.414337
  37 H :    0.100319
  38 H :    0.134207
  39 H :    0.134754
  40 H :    0.134815
  41 H :    0.134402
  42 H :    0.137872
  43 H :    0.137966
  44 H :    0.139805
  45 H :    0.100552
  46 H :    0.413843
Sum of atomic charges:   -0.0000000

LOEWDIN ATOMIC CHARGES
----------------------
   0 C :   -0.294168
   1 C :   -0.014279
   2 C :   -0.357484
   3 C :   -0.108387
   4 C :   -0.217589
   5 C :   -0.226741
   6 C :   -0.051086
   7 C :   -0.355449
   8 C :   -0.144848
   9 C :   -0.102054
  10 C :   -0.064385
  11 C :    0.090047
  12 O :   -0.342646
  13 C :   -0.201370
  14 C :   -0.004712
  15 C :   -0.219185
  16 C :   -0.224909
  17 C :   -0.359076
  18 C :   -0.201007
  19 C :    0.091558
  20 O :   -0.344197
  21 H :    0.121342
  22 H :    0.120330
  23 H :    0.135216
  24 H :    0.132052
  25 H :    0.124125
  26 H :    0.126660
  27 H :    0.117138
  28 H :    0.121143
  29 H :    0.122990
  30 H :    0.118806
  31 H :    0.121257
  32 H :    0.132620
  33 H :    0.131949
  34 H :    0.123878
  35 H :    0.145074
  36 H :    0.334324
  37 H :    0.121685
  38 H :    0.121987
  39 H :    0.122301
  40 H :    0.119445
  41 H :    0.119249
  42 H :    0.119787
  43 H :    0.119860
  44 H :    0.122726
  45 H :    0.121652
  46 H :    0.334370

  Mayer bond orders larger than 0.100000
B(  0-C ,  1-C ) :   1.9297 B(  0-C , 21-H ) :   0.9292 B(  0-C , 22-H ) :   0.9386
B(  1-C ,  2-C ) :   0.9968 B(  1-C ,  3-C ) :   0.9937 B(  2-C , 23-H ) :   0.9427
B(  2-C , 24-H ) :   0.9422 B(  2-C , 25-H ) :   0.9466 B(  3-C ,  4-C ) :   0.9663
B(  3-C ,  9-C ) :   0.9687 B(  3-C , 26-H ) :   0.9196 B(  4-C ,  5-C ) :   0.9994
B(  4-C , 27-H ) :   0.9450 B(  4-C , 28-H ) :   0.9337 B(  5-C ,  6-C ) :   1.0130
B(  5-C , 29-H ) :   0.9252 B(  5-C , 30-H ) :   0.9352 B(  6-C ,  7-C ) :   0.9947
B(  6-C ,  8-C ) :   1.8859 B(  7-C , 31-H ) :   0.9491 B(  7-C , 32-H ) :   0.9443
B(  7-C , 33-H ) :   0.9457 B(  8-C ,  9-C ) :   0.9801 B(  8-C , 34-H ) :   0.9279
B(  9-C , 10-C ) :   0.9592 B(  9-C , 35-H ) :   0.9001 B( 10-C , 11-C ) :   1.3761
B( 10-C , 19-C ) :   1.3773 B( 11-C , 12-O ) :   0.8743 B( 11-C , 13-C ) :   1.3543
B( 12-O , 36-H ) :   0.7668 B( 13-C , 14-C ) :   1.4215 B( 13-C , 37-H ) :   0.9192
B( 14-C , 15-C ) :   0.9744 B( 14-C , 18-C ) :   1.4262 B( 15-C , 16-C ) :   0.9982
B( 15-C , 38-H ) :   0.9341 B( 15-C , 39-H ) :   0.9340 B( 16-C , 17-C ) :   1.0093
B( 16-C , 40-H ) :   0.9421 B( 16-C , 41-H ) :   0.9422 B( 17-C , 42-H ) :   0.9523
B( 17-C , 43-H ) :   0.9523 B( 17-C , 44-H ) :   0.9524 B( 18-C , 19-C ) :   1.3431
B( 18-C , 45-H ) :   0.9197 B( 19-C , 20-O ) :   0.8940 B( 20-O , 46-H ) :   0.7673

FINAL SINGLE POINT ENERGY      -889.466250010017

DIPOLE MOMENT
-------------

Method             : SCF
Type of density    : Electron Density
Multiplicity       :   1
Irrep              :   0
Energy             :  -889.4662500100171201 Eh
Relativity type    :
Basis              : AO
                                X                 Y                 Z
Electronic contribution:     -3.641170009       6.704905214       2.186995312
Nuclear contribution   :      4.635702867      -6.729265175      -2.357682940
                        -----------------------------------------
Total Dipole Moment    :      0.994532858      -0.024359961      -0.170687628
                        -----------------------------------------
Magnitude (a.u.)       :      1.009367762
Magnitude (Debye)      :      2.565608959

Rotational constants in cm-1:             0.017862             0.005843             0.005198
Rotational constants in MHz :           535.478572           175.172785           155.823792

                             ****ORCA TERMINATED NORMALLY****
TOTAL RUN TIME: 0 days 0 hours 5 minutes 16 seconds 268 msec
