                         Program Version 6.0.0  -   RELEASE  -
|  1> ! B3LYP 6-31G* SP
|  2>
|  3> * xyz 0 1
|  4> O 2.7489 1.6629 0.6501
|  5> C 2.4392 0.5307 0.1886
|  6> N 3.4718 -0.3943 -0.2020
|  7> C 4.8725 -0.0710 -0.2205
|  8> C 5.8100 -1.0550 0.1314
|  9> C 7.1791 -0.7727 0.0977
| 10> C 7.6239 0.4895 -0.3035
| 11> C 6.7006 1.4680 -0.6803
| 12> C 5.3303 1.1900 -0.6467
| 13> N 1.0474 0.1760 0.0741
| 14> C 0.6244 -1.2269 0.1761
| 15> C -0.7603 -1.3358 0.8282
| 16> C -1.8082 -0.4132 0.1692
| 17> C -2.1612 -0.9182 -1.2595
| 18> C -3.3465 -0.1536 -1.8678
| 19> C -4.4874 -0.0149 -0.8944
| 20> C -5.7734 0.3011 -1.3592
| 21> C -6.8311 0.4477 -0.4567
| 22> C -6.6100 0.2878 0.9139
| 23> C -5.3292 -0.0124 1.3861
| 24> C -4.2645 -0.1535 0.4895
| 25> O -2.9882 -0.4551 0.9792
| 26> C -1.2671 1.0381 0.1767
| 27> C 0.1102 1.1599 -0.4841
| 28> H 3.2088 -1.3765 -0.4380
| 29> H 5.4772 -2.0376 0.4415
| 30> H 7.8952 -1.5336 0.3801
| 31> H 8.6840 0.7061 -0.3320
| 32> H 7.0471 2.4397 -1.0081
| 33> H 4.6353 1.9493 -0.9792
| 34> H 0.6157 -1.6881 -0.8342
| 35> H 1.3350 -1.7993 0.8110
| 36> H -1.1022 -2.3932 0.7908
| 37> H -0.6629 -1.0634 1.9030
| 38> H -1.2944 -0.8448 -1.9475
| 39> H -2.4408 -1.9937 -1.2028
| 40> H -3.0203 0.8566 -2.1933
| 41> H -3.6917 -0.6990 -2.7731
| 42> H -5.9563 0.4301 -2.4188
| 43> H -7.8226 0.6854 -0.8199
| 44> H -7.4307 0.3998 1.6106
| 45> H -5.1620 -0.1309 2.4491
| 46> H -1.9779 1.7316 -0.3187
| 47> H -1.1761 1.3805 1.2315
| 48> H 0.0275 1.0104 -1.5810
| 49> H 0.4807 2.1954 -0.3216
| 50> *
| 51>
| 52>                          ****END OF INPUT****

CARTESIAN COORDINATES (ANGSTROEM)
---------------------------------
  O      2.748900    1.662900    0.650100
  C      2.439200    0.530700    0.188600
  N      3.471800   -0.394300   -0.202000
  C      4.872500   -0.071000   -0.220500
  C      5.810000   -1.055000    0.131400
  C      7.179100   -0.772700    0.097700
  C      7.623900    0.489500   -0.303500
  C      6.700600    1.468000   -0.680300
  C      5.330300    1.190000   -0.646700
  N      1.047400    0.176000    0.074100
  C      0.624400   -1.226900    0.176100
  C     -0.760300   -1.335800    0.828200
  C     -1.808200   -0.413200    0.169200
  C     -2.161200   -0.918200   -1.259500
  C     -3.346500   -0.153600   -1.867800
  C     -4.487400   -0.014900   -0.894400
  C     -5.773400    0.301100   -1.359200
  C     -6.831100    0.447700   -0.456700
  C     -6.610000    0.287800    0.913900
  C     -5.329200   -0.012400    1.386100
  C     -4.264500   -0.153500    0.489500
  O     -2.988200   -0.455100    0.979200
  C     -1.267100    1.038100    0.176700
  C      0.110200    1.159900   -0.484100
  H      3.208800   -1.376500   -0.438000
  H      5.477200   -2.037600    0.441500
  H      7.895200   -1.533600    0.380100
  H      8.684000    0.706100   -0.332000
  H      7.047100    2.439700   -1.008100
  H      4.635300    1.949300   -0.979200
  H      0.615700   -1.688100   -0.834200
  H      1.335000   -1.799300    0.811000
  H     -1.102200   -2.393200    0.790800
  H     -0.662900   -1.063400    1.903000
  H     -1.294400   -0.844800   -1.947500
  H     -2.440800   -1.993700   -1.202800
  H     -3.020300    0.856600   -2.193300
  H     -3.691700   -0.699000   -2.773100
  H     -5.956300    0.430100   -2.418800
  H     -7.822600    0.685400   -0.819900
  H     -7.430700    0.399800    1.610600
  H     -5.162000   -0.130900    2.449100
  H     -1.977900    1.731600   -0.318700
  H     -1.176100    1.380500    1.231500
  H      0.027500    1.010400   -1.581000
  H      0.480700    2.195400   -0.321600

 Total Charge           Charge          ....    0
 Multiplicity           Mult            ....    1
 Number of Electrons    NEL             ....  172
 Basis Dimension        Dim             ....  380

ORBITAL ENERGIES
----------------

  NO   OCC          E(Eh)            E(eV)
   0   2.0000     -19.159476      -521.3559
   1   2.0000     -19.098876      -519.7068
   2   2.0000     -14.366007      -390.9189
   3   2.0000     -14.347221      -390.4077
   4   2.0000     -10.313083      -280.6333
   5   2.0000     -10.251013      -278.9443
   6   2.0000     -10.238739      -278.6103
   7   2.0000     -10.228909      -278.3428
   8   2.0000     -10.226045      -278.2648
   9   2.0000     -10.217003      -278.0188
  10   2.0000     -10.189363      -277.2667
  11   2.0000     -10.187891      -277.2266
  12   2.0000     -10.187351      -277.2119
  13   2.0000     -10.183289      -277.1014
  14   2.0000     -10.181352      -277.0487
  15   2.0000     -10.180893      -277.0362
  16   2.0000     -10.179179      -276.9895
  17   2.0000     -10.177428      -276.9419
  18   2.0000     -10.177394      -276.9410
  19   2.0000     -10.176098      -276.9057
  20   2.0000     -10.175035      -276.8768
  21   2.0000     -10.174078      -276.8507
  22   2.0000     -10.173482      -276.8345
  23   2.0000     -10.171273      -276.7744
  24   2.0000      -1.045809       -28.4579
  25   2.0000      -1.014497       -27.6059
  26   2.0000      -0.921663       -25.0797
  27   2.0000      -0.910832       -24.7850
  28   2.0000      -0.846497       -23.0343
  29   2.0000      -0.834319       -22.7030
  30   2.0000      -0.815205       -22.1829
  31   2.0000      -0.778214       -21.1763
  32   2.0000      -0.767107       -20.8740
  33   2.0000      -0.738437       -20.0939
  34   2.0000      -0.735042       -20.0015
  35   2.0000      -0.731028       -19.8923
  36   2.0000      -0.716891       -19.5076
  37   2.0000      -0.658322       -17.9139
  38   2.0000      -0.642955       -17.4957
  39   2.0000      -0.635930       -17.3045
  40   2.0000      -0.612193       -16.6586
  41   2.0000      -0.603760       -16.4291
  42   2.0000      -0.598735       -16.2924
  43   2.0000      -0.585796       -15.9403
  44   2.0000      -0.559941       -15.2368
  45   2.0000      -0.540762       -14.7149
  46   2.0000      -0.528634       -14.3849
  47   2.0000      -0.519642       -14.1402
  48   2.0000      -0.509198       -13.8560
  49   2.0000      -0.489882       -13.3304
  50   2.0000      -0.478352       -13.0166
  51   2.0000      -0.475270       -12.9328
  52   2.0000      -0.462387       -12.5822
  53   2.0000      -0.454646       -12.3715
  54   2.0000      -0.451158       -12.2766
  55   2.0000      -0.441486       -12.0134
  56   2.0000      -0.435917       -11.8619
  57   2.0000      -0.432318       -11.7640
  58   2.0000      -0.430347       -11.7103
  59   2.0000      -0.424717       -11.5571
  60   2.0000      -0.415955       -11.3187
  61   2.0000      -0.407934       -11.1004
  62   2.0000      -0.402123       -10.9423
  63   2.0000      -0.397043       -10.8041
  64   2.0000      -0.394414       -10.7326
  65   2.0000      -0.385648       -10.4940
  66   2.0000      -0.381729       -10.3874
  67   2.0000      -0.371728       -10.1152
  68   2.0000      -0.369885       -10.0651
  69   2.0000      -0.356477        -9.7002
  70   2.0000      -0.355221        -9.6661
  71   2.0000      -0.352756        -9.5990
  72   2.0000      -0.348571        -9.4851
  73   2.0000      -0.345714        -9.4073
  74   2.0000      -0.341415        -9.2904
  75   2.0000      -0.331724        -9.0267
  76   2.0000      -0.327169        -8.9027
  77   2.0000      -0.299332        -8.1452
  78   2.0000      -0.293472        -7.9858
  79   2.0000      -0.283247        -7.7075
  80   2.0000      -0.253327        -6.8934
  81   2.0000      -0.239925        -6.5287
  82   2.0000      -0.237281        -6.4567
  83   2.0000      -0.223954        -6.0941
  84   2.0000      -0.214029        -5.8240
  85   2.0000      -0.211014        -5.7420
  86   0.0000      -0.003938        -0.1072
  87   0.0000       0.001726         0.0470
  88   0.0000       0.006417         0.1746
  89   0.0000       0.017950         0.4884
  90   0.0000       0.042149         1.1469

MULLIKEN ATOMIC CHARGES
-----------------------
   0 O :   -0.483582
   1 C :    0.668223
   2 N :   -0.715199
   3 C :    0.332110
   4 C :   -0.180090
   5 C :   -0.130780
   6 C :   -0.125661
   7 C :   -0.139302
   8 C :   -0.126814
   9 N :   -0.430038
  10 C :   -0.153282
  11 C :   -0.288267
  12 C :    0.338797
  13 C :   -0.306397
  14 C :   -0.348507
  15 C :    0.103810
  16 C :   -0.181575
  17 C :   -0.134835
  18 C :   -0.124050
  19 C :   -0.187243
  20 C :    0.320896
  21 O :   -0.555353
  22 C :   -0.294066
  23 C :   -0.136557
  24 H :    0.328080
  25 H :    0.118509
  26 H :    0.127574
  27 H :    0.123940
  28 H :    0.131285
  29 H :    0.150179
  30 H :    0.130374
  31 H :    0.152840
  32 H :    0.142727
  33 H :    0.158490
  34 H :    0.139527
  35 H :    0.144938
  36 H :    0.152637
  37 H :    0.148865
  38 H :    0.121834
  39 H :    0.120908
  40 H :    0.127971
  41 H :    0.133967
  42 H :    0.144959
  43 H :    0.161055
  44 H :    0.130556
  45 H :    0.186548
Sum of atomic charges:    0.0000000

LOEWDIN ATOMIC CHARGES
----------------------
   0 O :   -0.300231
   1 C :    0.166486
   2 N :   -0.226777
   3 C :    0.036325
   4 C :   -0.150351
   5 C :   -0.128264
   6 C :   -0.138716
   7 C :   -0.125995
   8 C :   -0.123166
   9 N :   -0.138733
  10 C :   -0.156919
  11 C :   -0.224972
  12 C :    0.074755
  13 C :   -0.235377
  14 C :   -0.224432
  15 C :   -0.058726
  16 C :   -0.128029
  17 C :   -0.147790
  18 C :   -0.126784
  19 C :   -0.151147
  20 C :    0.081156
  21 O :   -0.173981
  22 C :   -0.236789
  23 C :   -0.146520
  24 H :    0.253308
  25 H :    0.127481
  26 H :    0.131711
  27 H :    0.129657
  28 H :    0.133384
  29 H :    0.145921
  30 H :    0.104091
  31 H :    0.130510
  32 H :    0.129503
  33 H :    0.135548
  34 H :    0.124488
  35 H :    0.126775
  36 H :    0.127846
  37 H :    0.132439
  38 H :    0.129417
  39 H :    0.128365
  40 H :    0.132438
  41 H :    0.138632
  42 H :    0.129902
  43 H :    0.136626
  44 H :    0.105904
  45 H :    0.151031

  Mayer bond orders larger than 0.100000
B(  0-O ,  1-C ) :   1.8006 B(  1-C ,  2-N ) :   1.0147 B(  1-C ,  9-N ) :   1.0359
B(  2-N ,  3-C ) :   0.8607 B(  2-N , 24-H ) :   0.8202 B(  3-C ,  4-C ) :   1.4117
B(  3-C ,  8-C ) :   1.4260 B(  4-C ,  5-C ) :   1.4477 B(  4-C , 25-H ) :   0.9258
B(  5-C ,  6-C ) :   1.4567 B(  5-C , 26-H ) :   0.9295 B(  6-C ,  7-C ) :   1.4429
B(  6-C , 27-H ) :   0.9309 B(  7-C ,  8-C ) :   1.4451 B(  7-C , 28-H ) :   0.9297
B(  8-C , 29-H ) :   0.9125 B(  9-N , 10-C ) :   0.9538 B(  9-N , 23-C ) :   0.9460
B( 10-C , 11-C ) :   0.9822 B( 10-C , 30-H ) :   0.9150 B( 10-C , 31-H ) :   0.9302
B( 11-C , 12-C ) :   0.9979 B( 11-C , 32-H ) :   0.9264 B( 11-C , 33-H ) :   0.9252
B( 12-C , 13-C ) :   0.9721 B( 12-C , 21-O ) :   0.8355 B( 12-C , 22-C ) :   0.9827
B( 13-C , 14-C ) :   0.9979 B( 13-C , 34-H ) :   0.9235 B( 13-C , 35-H ) :   0.9312
B( 14-C , 15-C ) :   0.9800 B( 14-C , 36-H ) :   0.9218 B( 14-C , 37-H ) :   0.9332
B( 15-C , 16-C ) :   1.4181 B( 15-C , 20-C ) :   1.3720 B( 16-C , 17-C ) :   1.4439
B( 16-C , 38-H ) :   0.9279 B( 17-C , 18-C ) :   1.4411 B( 17-C , 39-H ) :   0.9309
B( 18-C , 19-C ) :   1.4532 B( 18-C , 40-H ) :   0.9308 B( 19-C , 20-C ) :   1.3935
B( 19-C , 41-H ) :   0.9192 B( 20-C , 21-O ) :   0.9048 B( 22-C , 23-C ) :   0.9834
B( 22-C , 42-H ) :   0.9239 B( 22-C , 43-H ) :   0.9255 B( 23-C , 44-H ) :   0.9226
B( 23-C , 45-H ) :   0.9170

FINAL SINGLE POINT ENERGY     -1034.679611249806

DIPOLE MOMENT
-------------

Method             : SCF
Type of density    : Electron Density
Multiplicity       :   1
Irrep              :   0
Energy             : -1034.6796112498061575 Eh
Relativity type    :
Basis              : AO
                                X                 Y                 Z
Electronic contribution:      4.064861842       2.032196890       4.350159147
Nuclear contribution   :     -4.328589295      -3.182616325      -5.343998494
                        -----------------------------------------
Total Dipole Moment    :     -0.263727453      -1.150419435      -0.993839347
                        -----------------------------------------
Magnitude (a.u.)       :      1.542962635
Magnitude (Debye)      :      3.921899340

Rotational constants in cm-1:             0.035669             0.002541             0.002519
Rotational constants in MHz :          1069.335446            76.192124            75.505776

                             ****ORCA TERMINATED NORMALLY****
TOTAL RUN TIME: 0 days 0 hours 5 minutes 34 seconds 442 msec
