                         Program Version 6.0.0  -   RELEASE  -
|  1> ! B3LYP 6-31G* SP
|  2>
|  3> * xyz 0 1
|  4> C 5.5685 1.2709 -0.6585
|  5> C 5.1648 0.2005 0.3469
|  6> N 3.9664 -0.4912 -0.1100
|  7> N 3.9721 -1.5590 -0.8884
|  8> N 2.7215 -1.8942 -1.1602
|  9> C 1.9648 -0.9789 -0.5210
| 10> C 0.4918 -0.9314 -0.5326
| 11> S -0.4045 0.2496 0.2657
| 12> C -1.8891 -0.3780 -0.2148
| 13> C -3.2073 0.2069 0.1046
| 14> C -4.1135 0.5239 -0.9330
| 15> Cl -3.7059 0.2857 -2.6304
| 16> C -5.3601 1.0818 -0.6289
| 17> C -5.7193 1.3258 0.6962
| 18> C -4.8365 1.0108 1.7286
| 19> C -3.5851 0.4520 1.4452
| 20> Cl -2.5542 0.0125 2.8042
| 21> N -1.7272 -1.4722 -0.9904
| 22> C -0.4170 -1.7911 -1.1694
| 23> O -0.0645 -2.8985 -1.9389
| 24> N 2.7325 -0.0873 0.1365
| 25> H 5.7810 0.8070 -1.6451
| 26> H 4.7515 2.0147 -0.7727
| 27> H 6.4818 1.7924 -0.3026
| 28> H 5.9952 -0.5286 0.4668
| 29> H 4.9704 0.6727 1.3341
| 30> H -6.0520 1.3332 -1.4229
| 31> H -6.6856 1.7572 0.9238
| 32> H -5.1310 1.1933 2.7544
| 33> H 0.8909 -3.1806 -2.1002
| 34> *
| 35>
| 36>                          ****END OF INPUT****

CARTESIAN COORDINATES (ANGSTROEM)
---------------------------------
  C      5.568500    1.270900   -0.658500
  C      5.164800    0.200500    0.346900
  N      3.966400   -0.491200   -0.110000
  N      3.972100   -1.559000   -0.888400
  N      2.721500   -1.894200   -1.160200
  C      1.964800   -0.978900   -0.521000
  C      0.491800   -0.931400   -0.532600
  S     -0.404500    0.249600    0.265700
  C     -1.889100   -0.378000   -0.214800
  C     -3.207300    0.206900    0.104600
  C     -4.113500    0.523900   -0.933000
  Cl    -3.705900    0.285700   -2.630400
  C     -5.360100    1.081800   -0.628900
  C     -5.719300    1.325800    0.696200
  C     -4.836500    1.010800    1.728600
  C     -3.585100    0.452000    1.445200
  Cl    -2.554200    0.012500    2.804200
  N     -1.727200   -1.472200   -0.990400
  C     -0.417000   -1.791100   -1.169400
  O     -0.064500   -2.898500   -1.938900
  N      2.732500   -0.087300    0.136500
  H      5.781000    0.807000   -1.645100
  H      4.751500    2.014700   -0.772700
  H      6.481800    1.792400   -0.302600
  H      5.995200   -0.528600    0.466800
  H      4.970400    0.672700    1.334100
  H     -6.052000    1.333200   -1.422900
  H     -6.685600    1.757200    0.923800
  H     -5.131000    1.193300    2.754400
  H      0.890900   -3.180600   -2.100200

 Total Charge           Charge          ....    0
 Multiplicity           Mult            ....    1
 Number of Electrons    NEL             ....  174
 Basis Dimension        Dim             ....  324

ORBITAL ENERGIES
----------------

  NO   OCC          E(Eh)            E(eV)
   0   2.0000    -101.539133     -2763.0203
   1   2.0000    -101.530037     -2762.7728
   2   2.0000     -88.901332     -2419.1282
   3   2.0000     -19.164320      -521.4876
   4   2.0000     -14.467141      -393.6709
   5   2.0000     -14.406430      -392.0189
   6   2.0000     -14.375378      -391.1739
   7   2.0000     -14.371206      -391.0604
   8   2.0000     -14.332486      -390.0068
   9   2.0000     -10.284439      -279.8538
  10   2.0000     -10.267217      -279.3852
  11   2.0000     -10.265086      -279.3272
  12   2.0000     -10.264036      -279.2986
  13   2.0000     -10.257920      -279.1322
  14   2.0000     -10.256355      -279.0896
  15   2.0000     -10.234855      -278.5046
  16   2.0000     -10.221598      -278.1438
  17   2.0000     -10.210265      -277.8354
  18   2.0000     -10.208764      -277.7946
  19   2.0000     -10.207770      -277.7675
  20   2.0000     -10.199120      -277.5322
  21   2.0000      -9.470649      -257.7095
  22   2.0000      -9.461430      -257.4586
  23   2.0000      -7.977902      -217.0897
  24   2.0000      -7.233901      -196.8445
  25   2.0000      -7.224835      -196.5978
  26   2.0000      -7.224212      -196.5808
  27   2.0000      -7.223783      -196.5691
  28   2.0000      -7.215051      -196.3315
  29   2.0000      -7.214387      -196.3135
  30   2.0000      -5.940875      -161.6594
  31   2.0000      -5.936800      -161.5485
  32   2.0000      -5.935046      -161.5008
  33   2.0000      -1.154762       -31.4227
  34   2.0000      -1.034687       -28.1553
  35   2.0000      -0.961564       -26.1655
  36   2.0000      -0.957993       -26.0683
  37   2.0000      -0.909988       -24.7620
  38   2.0000      -0.903067       -24.5737
  39   2.0000      -0.874892       -23.8070
  40   2.0000      -0.828905       -22.5557
  41   2.0000      -0.817431       -22.2434
  42   2.0000      -0.797443       -21.6995
  43   2.0000      -0.787547       -21.4302
  44   2.0000      -0.739627       -20.1263
  45   2.0000      -0.731243       -19.8981
  46   2.0000      -0.693239       -18.8640
  47   2.0000      -0.671982       -18.2856
  48   2.0000      -0.636012       -17.3068
  49   2.0000      -0.619411       -16.8550
  50   2.0000      -0.614651       -16.7255
  51   2.0000      -0.597334       -16.2543
  52   2.0000      -0.570427       -15.5221
  53   2.0000      -0.553912       -15.0727
  54   2.0000      -0.520631       -14.1671
  55   2.0000      -0.516091       -14.0435
  56   2.0000      -0.506017       -13.7694
  57   2.0000      -0.495533       -13.4842
  58   2.0000      -0.477466       -12.9925
  59   2.0000      -0.473830       -12.8936
  60   2.0000      -0.462755       -12.5922
  61   2.0000      -0.444475       -12.0948
  62   2.0000      -0.441701       -12.0193
  63   2.0000      -0.433820       -11.8049
  64   2.0000      -0.420744       -11.4490
  65   2.0000      -0.410640       -11.1741
  66   2.0000      -0.406734       -11.0678
  67   2.0000      -0.400475       -10.8975
  68   2.0000      -0.390156       -10.6167
  69   2.0000      -0.383983       -10.4487
  70   2.0000      -0.382655       -10.4126
  71   2.0000      -0.376323       -10.2403
  72   2.0000      -0.363840        -9.9006
  73   2.0000      -0.349025        -9.4974
  74   2.0000      -0.339335        -9.2338
  75   2.0000      -0.326713        -8.8903
  76   2.0000      -0.323913        -8.8141
  77   2.0000      -0.321908        -8.7596
  78   2.0000      -0.320163        -8.7121
  79   2.0000      -0.310059        -8.4371
  80   2.0000      -0.307564        -8.3692
  81   2.0000      -0.299192        -8.1414
  82   2.0000      -0.272545        -7.4163
  83   2.0000      -0.268217        -7.2986
  84   2.0000      -0.261932        -7.1275
  85   2.0000      -0.251328        -6.8390
  86   2.0000      -0.213957        -5.8221
  87   0.0000      -0.059561        -1.6207
  88   0.0000      -0.028923        -0.7870
  89   0.0000      -0.027901        -0.7592
  90   0.0000      -0.015360        -0.4180
  91   0.0000       0.002655         0.0722

MULLIKEN ATOMIC CHARGES
-----------------------
   0 C :   -0.446409
   1 C :   -0.146945
   2 N :   -0.031173
   3 N :   -0.052908
   4 N :   -0.364567
   5 C :    0.432189
   6 C :   -0.239865
   7 S :    0.314723
   8 C :   -0.060935
   9 C :    0.125381
  10 C :   -0.079281
  11 Cl:    0.035460
  12 C :   -0.143457
  13 C :   -0.095740
  14 C :   -0.142354
  15 C :   -0.099607
  16 Cl:    0.021840
  17 N :   -0.362739
  18 C :    0.490167
  19 O :   -0.654692
  20 N :   -0.315844
  21 H :    0.174836
  22 H :    0.175605
  23 H :    0.160383
  24 H :    0.191055
  25 H :    0.191414
  26 H :    0.162263
  27 H :    0.152205
  28 H :    0.160479
  29 H :    0.448517
Sum of atomic charges:    0.0000000

LOEWDIN ATOMIC CHARGES
----------------------
   0 C :   -0.362162
   1 C :   -0.152839
   2 N :    0.101519
   3 N :   -0.070806
   4 N :   -0.141517
   5 C :   -0.001439
   6 C :   -0.263281
   7 S :    0.438144
   8 C :   -0.126337
   9 C :   -0.041966
  10 C :   -0.059394
  11 Cl:    0.066000
  12 C :   -0.129803
  13 C :   -0.111507
  14 C :   -0.132083
  15 C :   -0.072543
  16 Cl:    0.059129
  17 N :   -0.140283
  18 C :    0.100649
  19 O :   -0.335078
  20 N :   -0.136395
  21 H :    0.139387
  22 H :    0.139661
  23 H :    0.136670
  24 H :    0.151507
  25 H :    0.151932
  26 H :    0.149757
  27 H :    0.144944
  28 H :    0.148766
  29 H :    0.349367

  Mayer bond orders larger than 0.100000
B(  0-C ,  1-C ) :   1.0032 B(  0-C , 21-H ) :   0.9437 B(  0-C , 22-H ) :   0.9433
B(  0-C , 23-H ) :   0.9417 B(  1-C ,  2-N ) :   0.8957 B(  1-C , 24-H ) :   0.9261
B(  1-C , 25-H ) :   0.9256 B(  2-N ,  3-N ) :   1.2526 B(  2-N , 20-N ) :   1.2264
B(  3-N ,  4-N ) :   1.4202 B(  3-N , 20-N ) :   0.1296 B(  4-N ,  5-C ) :   1.2777
B(  5-C ,  6-C ) :   1.0513 B(  5-C , 20-N ) :   1.3688 B(  6-C ,  7-S ) :   1.0961
B(  6-C ,  8-C ) :   0.1242 B(  6-C , 18-C ) :   1.3787 B(  7-S ,  8-C ) :   1.1657
B(  8-C ,  9-C ) :   0.9841 B(  8-C , 17-N ) :   1.4464 B(  9-C , 10-C ) :   1.3673
B(  9-C , 15-C ) :   1.3594 B( 10-C , 11-Cl) :   1.0657 B( 10-C , 12-C ) :   1.4022
B( 12-C , 13-C ) :   1.4436 B( 12-C , 26-H ) :   0.9206 B( 13-C , 14-C ) :   1.4464
B( 13-C , 27-H ) :   0.9256 B( 14-C , 15-C ) :   1.4041 B( 14-C , 28-H ) :   0.9211
B( 15-C , 16-Cl) :   1.0526 B( 17-N , 18-C ) :   1.3266 B( 18-C , 19-O ) :   1.0162
B( 19-O , 29-H ) :   0.7149

FINAL SINGLE POINT ENERGY     -2129.508565240337

DIPOLE MOMENT
-------------

Method             : SCF
Type of density    : Electron Density
Multiplicity       :   1
Irrep              :   0
Energy             : -2129.5085652403367931 Eh
Relativity type    :
Basis              : AO
                                X                 Y                 Z
Electronic contribution:    -22.291813809      -4.773567057       0.821648662
Nuclear contribution   :     23.065194678       6.284174163       0.065279077
                        -----------------------------------------
Total Dipole Moment    :      0.773380869       1.510607106       0.886927739
                        -----------------------------------------
Magnitude (a.u.)       :      1.914860990
Magnitude (Debye)      :      4.867189835

Rotational constants in cm-1:             0.015581             0.004066             0.003627
Rotational constants in MHz :           467.111493           121.891571           108.721328

                             ****ORCA TERMINATED NORMALLY****
TOTAL RUN TIME: 0 days 0 hours 3 minutes 24 seconds 996 msec
