                         Program Version 6.0.0  -   RELEASE  -
|  1> ! B3LYP 6-31G* SP
|  2>
|  3> * xyz 0 1
|  4> C -0.5763 -1.9667 -1.4296
|  5> C 0.4096 -2.0573 -0.2851
|  6> C 0.9033 -0.8864 0.3378
|  7> N 0.4912 0.4157 -0.0933
|  8> C -0.4272 1.1983 0.7338
|  9> C -1.7891 0.5638 0.7238
| 10> C -2.1399 -0.3841 1.7187
| 11> C -3.3755 -1.0524 1.6676
| 12> C -4.2304 -0.7592 0.6092
| 13> C -5.4708 -1.2725 0.2937
| 14> C -5.8416 -0.6366 -0.8864
| 15> N -4.8790 0.2308 -1.2801
| 16> C -4.8949 1.0562 -2.4833
| 17> C -3.8982 0.1489 -0.3613
| 18> C -2.6802 0.8306 -0.3382
| 19> S 1.3053 1.1652 -1.4290
| 20> O 0.2873 1.7458 -2.3707
| 21> O 2.1181 0.1447 -2.1769
| 22> C 2.3745 2.4204 -0.8164
| 23> C 3.5242 2.0628 -0.1034
| 24> C 4.3707 3.0496 0.4101
| 25> C 4.0743 4.4117 0.2198
| 26> C 4.9665 5.4609 0.7607
| 27> O 6.0056 5.1473 1.4029
| 28> O 4.6668 6.8065 0.5652
| 29> C 2.9148 4.7638 -0.4930
| 30> C 2.0697 3.7745 -1.0047
| 31> N 1.7653 -0.9802 1.3837
| 32> C 2.1940 -2.1702 1.8686
| 33> C 1.7435 -3.3637 1.2992
| 34> C 2.1807 -4.5980 1.8046
| 35> C 1.7225 -5.7888 1.2407
| 36> C 0.8263 -5.7576 0.1725
| 37> C 0.3830 -4.5359 -0.3411
| 38> C 0.8362 -3.3170 0.2108
| 39> H -0.7940 -0.9253 -1.7346
| 40> H -1.5376 -2.4360 -1.1311
| 41> H -0.1671 -2.4885 -2.3200
| 42> H -0.4995 2.2404 0.3535
| 43> H -0.0337 1.2618 1.7716
| 44> H -1.4485 -0.6153 2.5194
| 45> H -3.6453 -1.7820 2.4198
| 46> H -6.0317 -2.0199 0.8389
| 47> H -6.7633 -0.8104 -1.4263
| 48> H -4.7743 2.1244 -2.2072
| 49> H -4.0640 0.7525 -3.1550
| 50> H -5.8569 0.9362 -3.0257
| 51> H -2.4188 1.5279 -1.1241
| 52> H 3.7641 1.0191 0.0581
| 53> H 5.2549 2.7460 0.9570
| 54> H 5.2714 7.5324 0.9306
| 55> H 2.6582 5.8034 -0.6536
| 56> H 1.1779 4.0679 -1.5427
| 57> H 2.8841 -2.1806 2.7033
| 58> H 2.8743 -4.6411 2.6362
| 59> H 2.0613 -6.7387 1.6340
| 60> H 0.4722 -6.6846 -0.2595
| 61> H -0.3140 -4.5604 -1.1673
| 62> *
| 63>
| 64>                          ****END OF INPUT****

CARTESIAN COORDINATES (ANGSTROEM)
---------------------------------
  C     -0.576300   -1.966700   -1.429600
  C      0.409600   -2.057300   -0.285100
  C      0.903300   -0.886400    0.337800
  N      0.491200    0.415700   -0.093300
  C     -0.427200    1.198300    0.733800
  C     -1.789100    0.563800    0.723800
  C     -2.139900   -0.384100    1.718700
  C     -3.375500   -1.052400    1.667600
  C     -4.230400   -0.759200    0.609200
  C     -5.470800   -1.272500    0.293700
  C     -5.841600   -0.636600   -0.886400
  N     -4.879000    0.230800   -1.280100
  C     -4.894900    1.056200   -2.483300
  C     -3.898200    0.148900   -0.361300
  C     -2.680200    0.830600   -0.338200
  S      1.305300    1.165200   -1.429000
  O      0.287300    1.745800   -2.370700
  O      2.118100    0.144700   -2.176900
  C      2.374500    2.420400   -0.816400
  C      3.524200    2.062800   -0.103400
  C      4.370700    3.049600    0.410100
  C      4.074300    4.411700    0.219800
  C      4.966500    5.460900    0.760700
  O      6.005600    5.147300    1.402900
  O      4.666800    6.806500    0.565200
  C      2.914800    4.763800   -0.493000
  C      2.069700    3.774500   -1.004700
  N      1.765300   -0.980200    1.383700
  C      2.194000   -2.170200    1.868600
  C      1.743500   -3.363700    1.299200
  C      2.180700   -4.598000    1.804600
  C      1.722500   -5.788800    1.240700
  C      0.826300   -5.757600    0.172500
  C      0.383000   -4.535900   -0.341100
  C      0.836200   -3.317000    0.210800
  H     -0.794000   -0.925300   -1.734600
  H     -1.537600   -2.436000   -1.131100
  H     -0.167100   -2.488500   -2.320000
  H     -0.499500    2.240400    0.353500
  H     -0.033700    1.261800    1.771600
  H     -1.448500   -0.615300    2.519400
  H     -3.645300   -1.782000    2.419800
  H     -6.031700   -2.019900    0.838900
  H     -6.763300   -0.810400   -1.426300
  H     -4.774300    2.124400   -2.207200
  H     -4.064000    0.752500   -3.155000
  H     -5.856900    0.936200   -3.025700
  H     -2.418800    1.527900   -1.124100
  H      3.764100    1.019100    0.058100
  H      5.254900    2.746000    0.957000
  H      5.271400    7.532400    0.930600
  H      2.658200    5.803400   -0.653600
  H      1.177900    4.067900   -1.542700
  H      2.884100   -2.180600    2.703300
  H      2.874300   -4.641100    2.636200
  H      2.061300   -6.738700    1.634000
  H      0.472200   -6.684600   -0.259500
  H     -0.314000   -4.560400   -1.167300

 Total Charge           Charge          ....    0
 Multiplicity           Mult            ....    1
 Number of Electrons    NEL             ....  254
 Basis Dimension        Dim             ....  540

ORBITAL ENERGIES
----------------

  NO   OCC          E(Eh)            E(eV)
   0   2.0000     -89.090872     -2424.2859
   1   2.0000     -19.191960      -522.2398
   2   2.0000     -19.133051      -520.6368
   3   2.0000     -19.122308      -520.3445
   4   2.0000     -19.120063      -520.2834
   5   2.0000     -14.375383      -391.1741
   6   2.0000     -14.361028      -390.7834
   7   2.0000     -14.326661      -389.8483
   8   2.0000     -10.330430      -281.1053
   9   2.0000     -10.249994      -278.9165
  10   2.0000     -10.234575      -278.4969
  11   2.0000     -10.230014      -278.3728
  12   2.0000     -10.225502      -278.2501
  13   2.0000     -10.220984      -278.1271
  14   2.0000     -10.219007      -278.0733
  15   2.0000     -10.213250      -277.9167
  16   2.0000     -10.212302      -277.8909
  17   2.0000     -10.211102      -277.8582
  18   2.0000     -10.210458      -277.8407
  19   2.0000     -10.203121      -277.6410
  20   2.0000     -10.202145      -277.6145
  21   2.0000     -10.199410      -277.5401
  22   2.0000     -10.195457      -277.4325
  23   2.0000     -10.194879      -277.4168
  24   2.0000     -10.192703      -277.3575
  25   2.0000     -10.192402      -277.3493
  26   2.0000     -10.191210      -277.3169
  27   2.0000     -10.190137      -277.2877
  28   2.0000     -10.178092      -276.9600
  29   2.0000     -10.172463      -276.8068
  30   2.0000     -10.168404      -276.6963
  31   2.0000     -10.167709      -276.6774
  32   2.0000     -10.165314      -276.6123
  33   2.0000     -10.158868      -276.4369
  34   2.0000     -10.152971      -276.2764
  35   2.0000      -8.126621      -221.1366
  36   2.0000      -6.091523      -165.7588
  37   2.0000      -6.089756      -165.7107
  38   2.0000      -6.089298      -165.6982
  39   2.0000      -1.078104       -29.3367
  40   2.0000      -1.076412       -29.2907
  41   2.0000      -0.998856       -27.1802
  42   2.0000      -0.990282       -26.9469
  43   2.0000      -0.958259       -26.0755
  44   2.0000      -0.954352       -25.9692
  45   2.0000      -0.906789       -24.6750
  46   2.0000      -0.883336       -24.0368
  47   2.0000      -0.858708       -23.3666
  48   2.0000      -0.840726       -22.8773
  49   2.0000      -0.802797       -21.8452
  50   2.0000      -0.801959       -21.8224
  51   2.0000      -0.794777       -21.6270
  52   2.0000      -0.770363       -20.9626
  53   2.0000      -0.769425       -20.9371
  54   2.0000      -0.744972       -20.2717
  55   2.0000      -0.740261       -20.1435
  56   2.0000      -0.733354       -19.9556
  57   2.0000      -0.705178       -19.1889
  58   2.0000      -0.692570       -18.8458
  59   2.0000      -0.684188       -18.6177
  60   2.0000      -0.668740       -18.1974
  61   2.0000      -0.647095       -17.6084
  62   2.0000      -0.637960       -17.3598
  63   2.0000      -0.631896       -17.1948
  64   2.0000      -0.615512       -16.7489
  65   2.0000      -0.605250       -16.4697
  66   2.0000      -0.589230       -16.0338
  67   2.0000      -0.587109       -15.9761
  68   2.0000      -0.577943       -15.7266
  69   2.0000      -0.560230       -15.2446
  70   2.0000      -0.553541       -15.0626
  71   2.0000      -0.535187       -14.5632
  72   2.0000      -0.526309       -14.3216
  73   2.0000      -0.516626       -14.0581
  74   2.0000      -0.505452       -13.7541
  75   2.0000      -0.495364       -13.4796
  76   2.0000      -0.483530       -13.1575
  77   2.0000      -0.481329       -13.0976
  78   2.0000      -0.476586       -12.9686
  79   2.0000      -0.472114       -12.8469
  80   2.0000      -0.468514       -12.7489
  81   2.0000      -0.465030       -12.6541
  82   2.0000      -0.455334       -12.3903
  83   2.0000      -0.452102       -12.3023
  84   2.0000      -0.446535       -12.1508
  85   2.0000      -0.442481       -12.0405
  86   2.0000      -0.441326       -12.0091
  87   2.0000      -0.438821       -11.9409
  88   2.0000      -0.437139       -11.8952
  89   2.0000      -0.430591       -11.7170
  90   2.0000      -0.424412       -11.5488
  91   2.0000      -0.420364       -11.4387
  92   2.0000      -0.417633       -11.3644
  93   2.0000      -0.414310       -11.2740
  94   2.0000      -0.409764       -11.1502
  95   2.0000      -0.396478       -10.7887
  96   2.0000      -0.396168       -10.7803
  97   2.0000      -0.393214       -10.6999
  98   2.0000      -0.388058       -10.5596
  99   2.0000      -0.385559       -10.4916
 100   2.0000      -0.385223       -10.4825
 101   2.0000      -0.379760       -10.3338
 102   2.0000      -0.376145       -10.2354
 103   2.0000      -0.371291       -10.1033
 104   2.0000      -0.362354        -9.8602
 105   2.0000      -0.359682        -9.7874
 106   2.0000      -0.349245        -9.5034
 107   2.0000      -0.346608        -9.4317
 108   2.0000      -0.344589        -9.3767
 109   2.0000      -0.334667        -9.1068
 110   2.0000      -0.322229        -8.7683
 111   2.0000      -0.316308        -8.6072
 112   2.0000      -0.314469        -8.5571
 113   2.0000      -0.301325        -8.1995
 114   2.0000      -0.294759        -8.0208
 115   2.0000      -0.282699        -7.6926
 116   2.0000      -0.276006        -7.5105
 117   2.0000      -0.272632        -7.4187
 118   2.0000      -0.271289        -7.3821
 119   2.0000      -0.269130        -7.3234
 120   2.0000      -0.267171        -7.2701
 121   2.0000      -0.260774        -7.0960
 122   2.0000      -0.248991        -6.7754
 123   2.0000      -0.243575        -6.6280
 124   2.0000      -0.219970        -5.9857
 125   2.0000      -0.213552        -5.8111
 126   2.0000      -0.188630        -5.1329
 127   0.0000      -0.076832        -2.0907
 128   0.0000      -0.054844        -1.4924
 129   0.0000      -0.027253        -0.7416
 130   0.0000      -0.023455        -0.6383
 131   0.0000      -0.008226        -0.2238

MULLIKEN ATOMIC CHARGES
-----------------------
   0 C :   -0.544322
   1 C :    0.137964
   2 C :    0.311662
   3 N :   -0.606268
   4 C :   -0.242482
   5 C :    0.144831
   6 C :   -0.194549
   7 C :   -0.203369
   8 C :    0.147638
   9 C :   -0.242932
  10 C :   -0.000079
  11 N :   -0.417360
  12 C :   -0.328105
  13 C :    0.283436
  14 C :   -0.237407
  15 S :    1.222536
  16 O :   -0.562430
  17 O :   -0.547956
  18 C :   -0.124655
  19 C :   -0.135152
  20 C :   -0.142314
  21 C :    0.082603
  22 C :    0.527081
  23 O :   -0.446076
  24 O :   -0.624181
  25 C :   -0.146615
  26 C :   -0.152502
  27 N :   -0.402830
  28 C :   -0.060212
  29 C :    0.140014
  30 C :   -0.204418
  31 C :   -0.125913
  32 C :   -0.121372
  33 C :   -0.193271
  34 C :    0.116334
  35 H :    0.199546
  36 H :    0.163768
  37 H :    0.163881
  38 H :    0.165002
  39 H :    0.168612
  40 H :    0.122968
  41 H :    0.122390
  42 H :    0.122357
  43 H :    0.140441
  44 H :    0.174095
  45 H :    0.183416
  46 H :    0.170986
  47 H :    0.145301
  48 H :    0.189729
  49 H :    0.179352
  50 H :    0.432801
  51 H :    0.169742
  52 H :    0.180495
  53 H :    0.148366
  54 H :    0.136478
  55 H :    0.134121
  56 H :    0.136150
  57 H :    0.142670
Sum of atomic charges:    0.0000000

LOEWDIN ATOMIC CHARGES
----------------------
   0 C :   -0.361008
   1 C :    0.012556
   2 C :    0.027148
   3 N :   -0.278489
   4 C :   -0.145966
   5 C :   -0.045821
   6 C :   -0.150191
   7 C :   -0.131880
   8 C :   -0.041130
   9 C :   -0.198150
  10 C :   -0.101656
  11 N :    0.012072
  12 C :   -0.262721
  13 C :    0.000778
  14 C :   -0.150488
  15 S :    1.262678
  16 O :   -0.584329
  17 O :   -0.570724
  18 C :   -0.174586
  19 C :   -0.095317
  20 C :   -0.085775
  21 C :   -0.040939
  22 C :    0.179789
  23 O :   -0.262409
  24 O :   -0.335416
  25 C :   -0.101150
  26 C :   -0.109925
  27 N :   -0.139145
  28 C :   -0.066444
  29 C :   -0.027213
  30 C :   -0.113880
  31 C :   -0.126062
  32 C :   -0.118951
  33 C :   -0.117841
  34 C :   -0.005780
  35 H :    0.152411
  36 H :    0.138780
  37 H :    0.139214
  38 H :    0.139363
  39 H :    0.132101
  40 H :    0.129329
  41 H :    0.130975
  42 H :    0.132385
  43 H :    0.131740
  44 H :    0.136422
  45 H :    0.140135
  46 H :    0.141518
  47 H :    0.139325
  48 H :    0.162483
  49 H :    0.159941
  50 H :    0.348852
  51 H :    0.153208
  52 H :    0.158037
  53 H :    0.134894
  54 H :    0.135826
  55 H :    0.134534
  56 H :    0.135840
  57 H :    0.141048

  Mayer bond orders larger than 0.100000
B(  0-C ,  1-C ) :   1.0110 B(  0-C , 35-H ) :   0.9162 B(  0-C , 36-H ) :   0.9232
B(  0-C , 37-H ) :   0.9243 B(  1-C ,  2-C ) :   1.4345 B(  1-C , 28-C ) :   0.1007
B(  1-C , 34-C ) :   1.2623 B(  2-C ,  3-N ) :   0.8928 B(  2-C , 27-N ) :   1.2766
B(  3-N ,  4-C ) :   0.9125 B(  3-N , 15-S ) :   0.8164 B(  4-C ,  5-C ) :   0.9605
B(  4-C , 38-H ) :   0.9211 B(  4-C , 39-H ) :   0.9207 B(  5-C ,  6-C ) :   1.3653
B(  5-C , 14-C ) :   1.4450 B(  6-C ,  7-C ) :   1.4587 B(  6-C , 40-H ) :   0.9245
B(  7-C ,  8-C ) :   1.3388 B(  7-C , 14-C ) :   0.1003 B(  7-C , 41-H ) :   0.9267
B(  8-C ,  9-C ) :   1.3016 B(  8-C , 13-C ) :   1.3145 B(  9-C , 10-C ) :   1.5471
B(  9-C , 42-H ) :   0.9319 B( 10-C , 11-N ) :   1.1492 B( 10-C , 43-H ) :   0.9292
B( 11-N , 12-C ) :   0.9508 B( 11-N , 13-C ) :   1.0571 B( 12-C , 44-H ) :   0.9329
B( 12-C , 45-H ) :   0.9299 B( 12-C , 46-H ) :   0.9447 B( 13-C , 14-C ) :   1.3328
B( 14-C , 47-H ) :   0.9065 B( 15-S , 16-O ) :   1.6039 B( 15-S , 17-O ) :   1.6439
B( 15-S , 18-C ) :   0.8104 B( 18-C , 19-C ) :   1.3803 B( 18-C , 26-C ) :   1.4002
B( 19-C , 20-C ) :   1.4312 B( 19-C , 48-H ) :   0.9050 B( 20-C , 21-C ) :   1.3952
B( 20-C , 49-H ) :   0.9102 B( 21-C , 22-C ) :   1.0091 B( 21-C , 25-C ) :   1.3883
B( 22-C , 23-O ) :   1.8619 B( 22-C , 24-O ) :   1.0235 B( 24-O , 50-H ) :   0.7426
B( 25-C , 26-C ) :   1.4095 B( 25-C , 51-H ) :   0.9156 B( 26-C , 52-H ) :   0.9101
B( 27-N , 28-C ) :   1.4928 B( 28-C , 29-C ) :   1.2423 B( 28-C , 53-H ) :   0.9270
B( 29-C , 30-C ) :   1.2832 B( 29-C , 34-C ) :   1.2909 B( 30-C , 31-C ) :   1.5130
B( 30-C , 33-C ) :   0.1062 B( 30-C , 54-H ) :   0.9237 B( 31-C , 32-C ) :   1.3526
B( 31-C , 55-H ) :   0.9296 B( 32-C , 33-C ) :   1.5078 B( 32-C , 56-H ) :   0.9294
B( 33-C , 34-C ) :   1.2963 B( 33-C , 57-H ) :   0.9151

FINAL SINGLE POINT ENERGY     -1905.001847709617

DIPOLE MOMENT
-------------

Method             : SCF
Type of density    : Electron Density
Multiplicity       :   1
Irrep              :   0
Energy             : -1905.0018477096168681 Eh
Relativity type    :
Basis              : AO
                                X                 Y                 Z
Electronic contribution:     18.908265716      11.656026682       2.168888480
Nuclear contribution   :    -20.152856337     -11.685205656      -1.695039428
                        -----------------------------------------
Total Dipole Moment    :     -1.244590621      -0.029178974       0.473849053
                        -----------------------------------------
Magnitude (a.u.)       :      1.332062368
Magnitude (Debye)      :      3.385833462

Rotational constants in cm-1:             0.004609             0.002394             0.001781
Rotational constants in MHz :           138.187997            71.761954            53.387684

                             ****ORCA TERMINATED NORMALLY****
TOTAL RUN TIME: 0 days 0 hours 11 minutes 57 seconds 686 msec
