                         Program Version 6.0.0  -   RELEASE  -
|  1> ! B3LYP 6-31G* SP
|  2>
|  3> * xyz 0 1
|  4> O 1.0293 0.0531 0.6951
|  5> C 1.0999 -0.2176 -0.5357
|  6> N 2.3468 -0.0720 -1.2319
|  7> C 3.6275 -0.0172 -0.5813
|  8> C 4.6734 0.7086 -1.1671
|  9> C 5.9274 0.7495 -0.5551
| 10> C 6.1304 0.0482 0.6343
| 11> N 5.1160 -0.6727 1.1808
| 12> C 3.8844 -0.7250 0.6063
| 13> N -0.0851 -0.6250 -1.2554
| 14> C 0.0285 -1.8453 -2.0614
| 15> C -0.2036 -3.0897 -1.1719
| 16> C -1.0214 -2.8331 0.0906
| 17> C -1.1671 -3.8832 1.0103
| 18> C -1.7925 -3.6688 2.2387
| 19> C -2.2597 -2.3987 2.5731
| 20> C -2.1324 -1.3411 1.6702
| 21> C -1.5476 -1.5499 0.4041
| 22> C -1.4254 -0.4728 -0.6625
| 23> C -1.8245 0.9627 -0.2944
| 24> C -3.1576 1.2085 0.0916
| 25> C -3.6007 2.5010 0.3813
| 26> C -2.7303 3.5937 0.2623
| 27> C -3.2204 4.9948 0.5262
| 28> F -2.1817 5.8011 0.9584
| 29> F -3.7447 5.5213 -0.6395
| 30> F -4.2020 4.9935 1.5022
| 31> C -1.4336 3.3744 -0.2249
| 32> C -0.9905 2.0805 -0.5152
| 33> H 2.3089 0.0894 -2.2636
| 34> H 4.5129 1.2493 -2.0914
| 35> H 6.7345 1.3175 -0.9993
| 36> H 7.0974 0.0697 1.1188
| 37> H 3.1196 -1.3376 1.0636
| 38> H -0.7292 -1.8252 -2.8757
| 39> H 1.0194 -1.9135 -2.5596
| 40> H -0.6972 -3.8828 -1.7738
| 41> H 0.7908 -3.4779 -0.8602
| 42> H -0.7723 -4.8660 0.7832
| 43> H -1.8923 -4.4839 2.9438
| 44> H -2.7174 -2.2308 3.5395
| 45> H -2.4757 -0.3692 1.9866
| 46> H -2.1739 -0.7484 -1.4411
| 47> H -3.8639 0.3903 0.1654
| 48> H -4.6297 2.6466 0.6855
| 49> H -0.7663 4.2087 -0.4031
| 50> H -0.0085 1.9854 -0.9478
| 51> *
| 52>
| 53>                          ****END OF INPUT****

CARTESIAN COORDINATES (ANGSTROEM)
---------------------------------
  O      1.029300    0.053100    0.695100
  C      1.099900   -0.217600   -0.535700
  N      2.346800   -0.072000   -1.231900
  C      3.627500   -0.017200   -0.581300
  C      4.673400    0.708600   -1.167100
  C      5.927400    0.749500   -0.555100
  C      6.130400    0.048200    0.634300
  N      5.116000   -0.672700    1.180800
  C      3.884400   -0.725000    0.606300
  N     -0.085100   -0.625000   -1.255400
  C      0.028500   -1.845300   -2.061400
  C     -0.203600   -3.089700   -1.171900
  C     -1.021400   -2.833100    0.090600
  C     -1.167100   -3.883200    1.010300
  C     -1.792500   -3.668800    2.238700
  C     -2.259700   -2.398700    2.573100
  C     -2.132400   -1.341100    1.670200
  C     -1.547600   -1.549900    0.404100
  C     -1.425400   -0.472800   -0.662500
  C     -1.824500    0.962700   -0.294400
  C     -3.157600    1.208500    0.091600
  C     -3.600700    2.501000    0.381300
  C     -2.730300    3.593700    0.262300
  C     -3.220400    4.994800    0.526200
  F     -2.181700    5.801100    0.958400
  F     -3.744700    5.521300   -0.639500
  F     -4.202000    4.993500    1.502200
  C     -1.433600    3.374400   -0.224900
  C     -0.990500    2.080500   -0.515200
  H      2.308900    0.089400   -2.263600
  H      4.512900    1.249300   -2.091400
  H      6.734500    1.317500   -0.999300
  H      7.097400    0.069700    1.118800
  H      3.119600   -1.337600    1.063600
  H     -0.729200   -1.825200   -2.875700
  H      1.019400   -1.913500   -2.559600
  H     -0.697200   -3.882800   -1.773800
  H      0.790800   -3.477900   -0.860200
  H     -0.772300   -4.866000    0.783200
  H     -1.892300   -4.483900    2.943800
  H     -2.717400   -2.230800    3.539500
  H     -2.475700   -0.369200    1.986600
  H     -2.173900   -0.748400   -1.441100
  H     -3.863900    0.390300    0.165400
  H     -4.629700    2.646600    0.685500
  H     -0.766300    4.208700   -0.403100
  H     -0.008500    1.985400   -0.947800

 Total Charge           Charge          ....    0
 Multiplicity           Mult            ....    1
 Number of Electrons    NEL             ....  206
 Basis Dimension        Dim             ....  442

ORBITAL ENERGIES
----------------

  NO   OCC          E(Eh)            E(eV)
   0   2.0000     -24.713010      -672.4752
   1   2.0000     -24.712537      -672.4623
   2   2.0000     -24.709626      -672.3831
   3   2.0000     -19.113919      -520.1162
   4   2.0000     -14.381078      -391.3290
   5   2.0000     -14.363834      -390.8598
   6   2.0000     -14.323001      -389.7487
   7   2.0000     -10.427825      -283.7555
   8   2.0000     -10.326245      -280.9914
   9   2.0000     -10.243505      -278.7399
  10   2.0000     -10.242173      -278.7037
  11   2.0000     -10.233016      -278.4545
  12   2.0000     -10.215153      -277.9685
  13   2.0000     -10.212237      -277.8891
  14   2.0000     -10.210574      -277.8438
  15   2.0000     -10.206046      -277.7206
  16   2.0000     -10.202263      -277.6177
  17   2.0000     -10.197349      -277.4840
  18   2.0000     -10.195642      -277.4375
  19   2.0000     -10.195003      -277.4201
  20   2.0000     -10.194113      -277.3959
  21   2.0000     -10.193625      -277.3826
  22   2.0000     -10.193262      -277.3727
  23   2.0000     -10.192856      -277.3617
  24   2.0000     -10.191952      -277.3371
  25   2.0000     -10.178750      -276.9779
  26   2.0000     -10.176803      -276.9249
  27   2.0000     -10.176444      -276.9151
  28   2.0000     -10.175244      -276.8825
  29   2.0000      -1.272804       -34.6348
  30   2.0000      -1.198241       -32.6058
  31   2.0000      -1.197297       -32.5801
  32   2.0000      -1.030782       -28.0490
  33   2.0000      -0.941010       -25.6062
  34   2.0000      -0.936293       -25.4778
  35   2.0000      -0.909433       -24.7469
  36   2.0000      -0.867297       -23.6003
  37   2.0000      -0.848113       -23.0783
  38   2.0000      -0.802751       -21.8440
  39   2.0000      -0.792625       -21.5684
  40   2.0000      -0.776054       -21.1175
  41   2.0000      -0.759500       -20.6670
  42   2.0000      -0.754797       -20.5391
  43   2.0000      -0.750030       -20.4094
  44   2.0000      -0.729318       -19.8458
  45   2.0000      -0.700121       -19.0513
  46   2.0000      -0.674194       -18.3457
  47   2.0000      -0.643233       -17.5033
  48   2.0000      -0.638295       -17.3689
  49   2.0000      -0.631376       -17.1806
  50   2.0000      -0.617477       -16.8024
  51   2.0000      -0.612175       -16.6581
  52   2.0000      -0.590643       -16.0722
  53   2.0000      -0.584276       -15.8989
  54   2.0000      -0.565204       -15.3800
  55   2.0000      -0.563818       -15.3423
  56   2.0000      -0.559796       -15.2328
  57   2.0000      -0.555602       -15.1187
  58   2.0000      -0.536737       -14.6054
  59   2.0000      -0.521138       -14.1809
  60   2.0000      -0.508870       -13.8471
  61   2.0000      -0.498983       -13.5780
  62   2.0000      -0.486057       -13.2263
  63   2.0000      -0.476539       -12.9673
  64   2.0000      -0.472768       -12.8647
  65   2.0000      -0.467923       -12.7328
  66   2.0000      -0.458861       -12.4862
  67   2.0000      -0.454841       -12.3769
  68   2.0000      -0.446166       -12.1408
  69   2.0000      -0.441542       -12.0150
  70   2.0000      -0.440807       -11.9950
  71   2.0000      -0.437616       -11.9081
  72   2.0000      -0.435495       -11.8504
  73   2.0000      -0.432805       -11.7772
  74   2.0000      -0.424098       -11.5403
  75   2.0000      -0.417432       -11.3589
  76   2.0000      -0.414073       -11.2675
  77   2.0000      -0.405930       -11.0459
  78   2.0000      -0.403678       -10.9846
  79   2.0000      -0.402814       -10.9611
  80   2.0000      -0.399209       -10.8630
  81   2.0000      -0.392590       -10.6829
  82   2.0000      -0.391632       -10.6568
  83   2.0000      -0.384927       -10.4744
  84   2.0000      -0.381540       -10.3822
  85   2.0000      -0.380874       -10.3641
  86   2.0000      -0.375072       -10.2062
  87   2.0000      -0.363533        -9.8922
  88   2.0000      -0.356470        -9.7001
  89   2.0000      -0.351472        -9.5640
  90   2.0000      -0.344137        -9.3644
  91   2.0000      -0.340271        -9.2592
  92   2.0000      -0.327726        -8.9179
  93   2.0000      -0.311303        -8.4710
  94   2.0000      -0.278827        -7.5873
  95   2.0000      -0.269217        -7.3258
  96   2.0000      -0.257569        -7.0088
  97   2.0000      -0.254876        -6.9355
  98   2.0000      -0.243179        -6.6172
  99   2.0000      -0.240498        -6.5443
 100   2.0000      -0.236831        -6.4445
 101   2.0000      -0.231055        -6.2873
 102   2.0000      -0.223765        -6.0890
 103   0.0000      -0.025754        -0.7008
 104   0.0000      -0.022874        -0.6224
 105   0.0000      -0.015828        -0.4307
 106   0.0000      -0.009676        -0.2633
 107   0.0000      -0.000603        -0.0164

MULLIKEN ATOMIC CHARGES
-----------------------
   0 O :   -0.463903
   1 C :    0.662027
   2 N :   -0.717732
   3 C :    0.329392
   4 C :   -0.154777
   5 C :   -0.137479
   6 C :    0.014222
   7 N :   -0.373123
   8 C :    0.006989
   9 N :   -0.436544
  10 C :   -0.162049
  11 C :   -0.353730
  12 C :    0.114782
  13 C :   -0.175465
  14 C :   -0.121163
  15 C :   -0.129413
  16 C :   -0.179729
  17 C :    0.133284
  18 C :   -0.127059
  19 C :    0.153406
  20 C :   -0.185985
  21 C :   -0.162321
  22 C :   -0.011158
  23 C :    0.892708
  24 F :   -0.305599
  25 F :   -0.298737
  26 F :   -0.306645
  27 C :   -0.167046
  28 C :   -0.145548
  29 H :    0.331529
  30 H :    0.133278
  31 H :    0.134386
  32 H :    0.146720
  33 H :    0.171996
  34 H :    0.148990
  35 H :    0.151140
  36 H :    0.152714
  37 H :    0.161725
  38 H :    0.121143
  39 H :    0.125565
  40 H :    0.127774
  41 H :    0.144673
  42 H :    0.170861
  43 H :    0.143910
  44 H :    0.150809
  45 H :    0.151001
  46 H :    0.140179
Sum of atomic charges:   -0.0000000

LOEWDIN ATOMIC CHARGES
----------------------
   0 O :   -0.283309
   1 C :    0.156945
   2 N :   -0.221817
   3 C :    0.025418
   4 C :   -0.131772
   5 C :   -0.140591
   6 C :   -0.082201
   7 N :   -0.127238
   8 C :   -0.069904
   9 N :   -0.122858
  10 C :   -0.155916
  11 C :   -0.240086
  12 C :   -0.023639
  13 C :   -0.131192
  14 C :   -0.129223
  15 C :   -0.129871
  16 C :   -0.129707
  17 C :   -0.020186
  18 C :   -0.036633
  19 C :    0.003890
  20 C :   -0.133044
  21 C :   -0.115922
  22 C :   -0.072217
  23 C :    0.309498
  24 F :   -0.113811
  25 F :   -0.115967
  26 F :   -0.114561
  27 C :   -0.112008
  28 C :   -0.115816
  29 H :    0.257706
  30 H :    0.133604
  31 H :    0.136350
  32 H :    0.133911
  33 H :    0.147893
  34 H :    0.120763
  35 H :    0.128111
  36 H :    0.134081
  37 H :    0.136501
  38 H :    0.129201
  39 H :    0.130583
  40 H :    0.131521
  41 H :    0.140837
  42 H :    0.147501
  43 H :    0.137983
  44 H :    0.142950
  45 H :    0.143173
  46 H :    0.141067

  Mayer bond orders larger than 0.100000
B(  0-O ,  1-C ) :   1.8150 B(  1-C ,  2-N ) :   0.9975 B(  1-C ,  9-N ) :   1.0146
B(  2-N ,  3-C ) :   0.8707 B(  2-N , 29-H ) :   0.8228 B(  3-C ,  4-C ) :   1.4090
B(  3-C ,  8-C ) :   1.3608 B(  4-C ,  5-C ) :   1.4537 B(  4-C , 30-H ) :   0.9243
B(  5-C ,  6-C ) :   1.4244 B(  5-C , 31-H ) :   0.9238 B(  6-C ,  7-N ) :   1.4201
B(  6-C , 32-H ) :   0.9316 B(  7-N ,  8-C ) :   1.4343 B(  8-C , 33-H ) :   0.9155
B(  9-N , 10-C ) :   0.9681 B(  9-N , 18-C ) :   0.9285 B( 10-C , 11-C ) :   0.9634
B( 10-C , 34-H ) :   0.9336 B( 10-C , 35-H ) :   0.9344 B( 11-C , 12-C ) :   0.9857
B( 11-C , 36-H ) :   0.9282 B( 11-C , 37-H ) :   0.9304 B( 12-C , 13-C ) :   1.4168
B( 12-C , 17-C ) :   1.4206 B( 13-C , 14-C ) :   1.4436 B( 13-C , 38-H ) :   0.9276
B( 14-C , 15-C ) :   1.4507 B( 14-C , 39-H ) :   0.9298 B( 15-C , 16-C ) :   1.4355
B( 15-C , 40-H ) :   0.9295 B( 16-C , 17-C ) :   1.4290 B( 16-C , 41-H ) :   0.9095
B( 17-C , 18-C ) :   0.9147 B( 18-C , 19-C ) :   0.9819 B( 18-C , 42-H ) :   0.9071
B( 19-C , 20-C ) :   1.3924 B( 19-C , 28-C ) :   1.4331 B( 20-C , 21-C ) :   1.4283
B( 20-C , 43-H ) :   0.9220 B( 21-C , 22-C ) :   1.4122 B( 21-C , 44-H ) :   0.9202
B( 22-C , 23-C ) :   0.9792 B( 22-C , 27-C ) :   1.4134 B( 23-C , 24-F ) :   0.9486
B( 23-C , 25-F ) :   0.9845 B( 23-C , 26-F ) :   0.9469 B( 27-C , 28-C ) :   1.4224
B( 27-C , 45-H ) :   0.9202 B( 28-C , 46-H ) :   0.9128

FINAL SINGLE POINT ENERGY     -1387.381006613491

DIPOLE MOMENT
-------------

Method             : SCF
Type of density    : Electron Density
Multiplicity       :   1
Irrep              :   0
Energy             : -1387.3810066134910812 Eh
Relativity type    :
Basis              : AO
                                X                 Y                 Z
Electronic contribution:    -17.592576155      35.487564942       5.243099307
Nuclear contribution   :     17.746238916     -36.612953614      -7.367217681
                        -----------------------------------------
Total Dipole Moment    :      0.153662761      -1.125388672      -2.124118374
                        -----------------------------------------
Magnitude (a.u.)       :      2.408732192
Magnitude (Debye)      :      6.122510669

Rotational constants in cm-1:             0.006381             0.003327             0.002479
Rotational constants in MHz :           191.290141            99.753952            74.325941

                             ****ORCA TERMINATED NORMALLY****
TOTAL RUN TIME: 0 days 0 hours 4 minutes 52 seconds 624 msec
