                         Program Version 6.0.0  -   RELEASE  -
|  1> ! B3LYP 6-31G* SP
|  2>
|  3> * xyz 0 1
|  4> C -5.2644 1.4886 1.2042
|  5> C -3.8350 1.9700 0.9234
|  6> C -3.8827 3.2554 0.0775
|  7> C -2.8854 0.8912 0.2917
|  8> C -3.4299 0.1997 -0.9864
|  9> C -4.2519 -1.0697 -0.7261
| 10> C -3.5173 -2.0790 0.1634
| 11> C -2.3719 -2.7837 -0.5811
| 12> C -3.0794 -1.4285 1.4897
| 13> C -2.2852 -0.1073 1.3418
| 14> N -0.8686 -0.3836 1.0537
| 15> C 0.1536 0.6165 1.2058
| 16> O -0.1157 1.6995 1.7948
| 17> C 1.5250 0.3883 0.6915
| 18> C 1.7656 -0.5309 -0.3445
| 19> C 3.0613 -0.7324 -0.8283
| 20> C 4.1450 -0.0164 -0.2910
| 21> C 5.5221 -0.2314 -0.8046
| 22> C 6.6167 -0.2771 0.0798
| 23> C 7.9120 -0.4801 -0.4060
| 24> C 8.1300 -0.6383 -1.7764
| 25> C 7.0528 -0.5944 -2.6641
| 26> C 5.7552 -0.3926 -2.1839
| 27> C 3.9023 0.9103 0.7374
| 28> C 2.6065 1.1135 1.2197
| 29> H -5.2641 0.5661 1.8127
| 30> H -5.8121 2.2626 1.7834
| 31> H -5.8209 1.3208 0.2590
| 32> H -3.4014 2.2770 1.9008
| 33> H -2.8592 3.6578 -0.0787
| 34> H -4.3523 3.0731 -0.9110
| 35> H -4.4728 4.0363 0.6036
| 36> H -2.0204 1.4856 -0.0762
| 37> H -2.5712 -0.0652 -1.6402
| 38> H -4.0480 0.9048 -1.5787
| 39> H -5.2198 -0.8129 -0.2531
| 40> H -4.5006 -1.5435 -1.7009
| 41> H -4.2491 -2.8764 0.4242
| 42> H -1.6390 -2.0631 -0.9941
| 43> H -2.7829 -3.3747 -1.4270
| 44> H -1.8449 -3.4849 0.1002
| 45> H -3.9883 -1.2337 2.0949
| 46> H -2.4878 -2.1570 2.0868
| 47> H -2.3137 0.3672 2.3473
| 48> H -0.5581 -1.3672 0.8973
| 49> H 0.9537 -1.0836 -0.7987
| 50> H 3.2167 -1.4589 -1.6159
| 51> H 6.4691 -0.1738 1.1475
| 52> H 8.7473 -0.5180 0.2814
| 53> H 9.1335 -0.7950 -2.1503
| 54> H 7.2234 -0.7133 -3.7264
| 55> H 4.9374 -0.3449 -2.8919
| 56> H 4.7129 1.4923 1.1578
| 57> H 2.4518 1.8348 2.0127
| 58> *
| 59>
| 60>                          ****END OF INPUT****

CARTESIAN COORDINATES (ANGSTROEM)
---------------------------------
  C     -5.264400    1.488600    1.204200
  C     -3.835000    1.970000    0.923400
  C     -3.882700    3.255400    0.077500
  C     -2.885400    0.891200    0.291700
  C     -3.429900    0.199700   -0.986400
  C     -4.251900   -1.069700   -0.726100
  C     -3.517300   -2.079000    0.163400
  C     -2.371900   -2.783700   -0.581100
  C     -3.079400   -1.428500    1.489700
  C     -2.285200   -0.107300    1.341800
  N     -0.868600   -0.383600    1.053700
  C      0.153600    0.616500    1.205800
  O     -0.115700    1.699500    1.794800
  C      1.525000    0.388300    0.691500
  C      1.765600   -0.530900   -0.344500
  C      3.061300   -0.732400   -0.828300
  C      4.145000   -0.016400   -0.291000
  C      5.522100   -0.231400   -0.804600
  C      6.616700   -0.277100    0.079800
  C      7.912000   -0.480100   -0.406000
  C      8.130000   -0.638300   -1.776400
  C      7.052800   -0.594400   -2.664100
  C      5.755200   -0.392600   -2.183900
  C      3.902300    0.910300    0.737400
  C      2.606500    1.113500    1.219700
  H     -5.264100    0.566100    1.812700
  H     -5.812100    2.262600    1.783400
  H     -5.820900    1.320800    0.259000
  H     -3.401400    2.277000    1.900800
  H     -2.859200    3.657800   -0.078700
  H     -4.352300    3.073100   -0.911000
  H     -4.472800    4.036300    0.603600
  H     -2.020400    1.485600   -0.076200
  H     -2.571200   -0.065200   -1.640200
  H     -4.048000    0.904800   -1.578700
  H     -5.219800   -0.812900   -0.253100
  H     -4.500600   -1.543500   -1.700900
  H     -4.249100   -2.876400    0.424200
  H     -1.639000   -2.063100   -0.994100
  H     -2.782900   -3.374700   -1.427000
  H     -1.844900   -3.484900    0.100200
  H     -3.988300   -1.233700    2.094900
  H     -2.487800   -2.157000    2.086800
  H     -2.313700    0.367200    2.347300
  H     -0.558100   -1.367200    0.897300
  H      0.953700   -1.083600   -0.798700
  H      3.216700   -1.458900   -1.615900
  H      6.469100   -0.173800    1.147500
  H      8.747300   -0.518000    0.281400
  H      9.133500   -0.795000   -2.150300
  H      7.223400   -0.713300   -3.726400
  H      4.937400   -0.344900   -2.891900
  H      4.712900    1.492300    1.157800
  H      2.451800    1.834800    2.012700

 Total Charge           Charge          ....    0
 Multiplicity           Mult            ....    1
 Number of Electrons    NEL             ....  182
 Basis Dimension        Dim             ....  408

ORBITAL ENERGIES
----------------

  NO   OCC          E(Eh)            E(eV)
   0   2.0000     -19.100347      -519.7469
   1   2.0000     -14.343001      -390.2929
   2   2.0000     -10.279687      -279.7245
   3   2.0000     -10.212048      -277.8840
   4   2.0000     -10.199639      -277.5463
   5   2.0000     -10.195931      -277.4454
   6   2.0000     -10.195640      -277.4375
   7   2.0000     -10.192172      -277.3431
   8   2.0000     -10.187565      -277.2177
   9   2.0000     -10.186839      -277.1980
  10   2.0000     -10.185513      -277.1619
  11   2.0000     -10.184842      -277.1436
  12   2.0000     -10.184679      -277.1392
  13   2.0000     -10.184195      -277.1260
  14   2.0000     -10.184057      -277.1223
  15   2.0000     -10.183047      -277.0948
  16   2.0000     -10.180487      -277.0251
  17   2.0000     -10.178207      -276.9631
  18   2.0000     -10.171665      -276.7851
  19   2.0000     -10.171660      -276.7849
  20   2.0000     -10.170540      -276.7545
  21   2.0000     -10.167400      -276.6690
  22   2.0000     -10.166759      -276.6516
  23   2.0000     -10.159535      -276.4550
  24   2.0000     -10.156419      -276.3702
  25   2.0000      -1.000301       -27.2196
  26   2.0000      -0.894569       -24.3425
  27   2.0000      -0.867368       -23.6023
  28   2.0000      -0.845221       -22.9996
  29   2.0000      -0.820558       -22.3285
  30   2.0000      -0.786308       -21.3965
  31   2.0000      -0.780934       -21.2503
  32   2.0000      -0.750492       -20.4219
  33   2.0000      -0.742271       -20.1982
  34   2.0000      -0.735284       -20.0081
  35   2.0000      -0.731898       -19.9160
  36   2.0000      -0.718366       -19.5477
  37   2.0000      -0.676608       -18.4114
  38   2.0000      -0.664281       -18.0760
  39   2.0000      -0.642462       -17.4823
  40   2.0000      -0.619488       -16.8571
  41   2.0000      -0.608976       -16.5711
  42   2.0000      -0.604272       -16.4431
  43   2.0000      -0.592052       -16.1106
  44   2.0000      -0.582059       -15.8386
  45   2.0000      -0.556183       -15.1345
  46   2.0000      -0.551044       -14.9947
  47   2.0000      -0.532255       -14.4834
  48   2.0000      -0.514537       -14.0013
  49   2.0000      -0.503247       -13.6941
  50   2.0000      -0.480093       -13.0640
  51   2.0000      -0.476038       -12.9537
  52   2.0000      -0.463795       -12.6205
  53   2.0000      -0.459646       -12.5076
  54   2.0000      -0.455199       -12.3866
  55   2.0000      -0.443771       -12.0756
  56   2.0000      -0.439316       -11.9544
  57   2.0000      -0.435762       -11.8577
  58   2.0000      -0.431716       -11.7476
  59   2.0000      -0.425797       -11.5865
  60   2.0000      -0.423525       -11.5247
  61   2.0000      -0.417896       -11.3715
  62   2.0000      -0.411737       -11.2039
  63   2.0000      -0.402580       -10.9548
  64   2.0000      -0.399929       -10.8826
  65   2.0000      -0.392644       -10.6844
  66   2.0000      -0.386758       -10.5242
  67   2.0000      -0.378252       -10.2928
  68   2.0000      -0.374960       -10.2032
  69   2.0000      -0.371851       -10.1186
  70   2.0000      -0.369870       -10.0647
  71   2.0000      -0.363784        -9.8991
  72   2.0000      -0.361237        -9.8298
  73   2.0000      -0.353794        -9.6272
  74   2.0000      -0.346937        -9.4406
  75   2.0000      -0.343491        -9.3469
  76   2.0000      -0.342000        -9.3063
  77   2.0000      -0.338367        -9.2074
  78   2.0000      -0.336274        -9.1505
  79   2.0000      -0.324209        -8.8222
  80   2.0000      -0.314941        -8.5700
  81   2.0000      -0.311090        -8.4652
  82   2.0000      -0.295253        -8.0342
  83   2.0000      -0.288121        -7.8402
  84   2.0000      -0.284720        -7.7476
  85   2.0000      -0.271068        -7.3761
  86   2.0000      -0.254289        -6.9195
  87   2.0000      -0.250177        -6.8077
  88   2.0000      -0.240078        -6.5329
  89   2.0000      -0.231182        -6.2908
  90   2.0000      -0.224976        -6.1219
  91   0.0000      -0.045227        -1.2307
  92   0.0000      -0.006908        -0.1880
  93   0.0000      -0.002115        -0.0576
  94   0.0000       0.006529         0.1777
  95   0.0000       0.060262         1.6398

MULLIKEN ATOMIC CHARGES
-----------------------
   0 C :   -0.445268
   1 C :   -0.075640
   2 C :   -0.447283
   3 C :   -0.076806
   4 C :   -0.284770
   5 C :   -0.259577
   6 C :   -0.055391
   7 C :   -0.466365
   8 C :   -0.315676
   9 C :    0.079850
  10 N :   -0.648217
  11 C :    0.497519
  12 O :   -0.490422
  13 C :    0.084018
  14 C :   -0.185120
  15 C :   -0.173997
  16 C :    0.090168
  17 C :    0.076759
  18 C :   -0.166804
  19 C :   -0.130984
  20 C :   -0.121626
  21 C :   -0.131111
  22 C :   -0.166505
  23 C :   -0.173926
  24 C :   -0.156675
  25 H :    0.137765
  26 H :    0.136121
  27 H :    0.139217
  28 H :    0.136150
  29 H :    0.150445
  30 H :    0.133295
  31 H :    0.135994
  32 H :    0.142622
  33 H :    0.130450
  34 H :    0.134213
  35 H :    0.132980
  36 H :    0.121691
  37 H :    0.117608
  38 H :    0.148280
  39 H :    0.143613
  40 H :    0.132190
  41 H :    0.145864
  42 H :    0.128776
  43 H :    0.149305
  44 H :    0.321756
  45 H :    0.135192
  46 H :    0.134720
  47 H :    0.133676
  48 H :    0.130805
  49 H :    0.128869
  50 H :    0.130438
  51 H :    0.132816
  52 H :    0.138925
  53 H :    0.160071
Sum of atomic charges:    0.0000000

LOEWDIN ATOMIC CHARGES
----------------------
   0 C :   -0.358637
   1 C :   -0.122173
   2 C :   -0.354694
   3 C :   -0.120076
   4 C :   -0.230014
   5 C :   -0.229631
   6 C :   -0.125642
   7 C :   -0.365097
   8 C :   -0.228923
   9 C :   -0.048852
  10 N :   -0.245924
  11 C :    0.137416
  12 O :   -0.294117
  13 C :   -0.053419
  14 C :   -0.123581
  15 C :   -0.129904
  16 C :   -0.001636
  17 C :   -0.014979
  18 C :   -0.126764
  19 C :   -0.126743
  20 C :   -0.128868
  21 C :   -0.126987
  22 C :   -0.127102
  23 C :   -0.127294
  24 C :   -0.093404
  25 H :    0.116744
  26 H :    0.121062
  27 H :    0.119062
  28 H :    0.123303
  29 H :    0.126071
  30 H :    0.115561
  31 H :    0.121250
  32 H :    0.132401
  33 H :    0.117373
  34 H :    0.121593
  35 H :    0.119400
  36 H :    0.115852
  37 H :    0.116394
  38 H :    0.118331
  39 H :    0.124932
  40 H :    0.117361
  41 H :    0.126519
  42 H :    0.118126
  43 H :    0.128880
  44 H :    0.246367
  45 H :    0.132626
  46 H :    0.135172
  47 H :    0.134340
  48 H :    0.132599
  49 H :    0.131821
  50 H :    0.132427
  51 H :    0.133901
  52 H :    0.137323
  53 H :    0.150255

  Mayer bond orders larger than 0.100000
B(  0-C ,  1-C ) :   1.0089 B(  0-C , 25-H ) :   0.9405 B(  0-C , 26-H ) :   0.9471
B(  0-C , 27-H ) :   0.9419 B(  1-C ,  2-C ) :   1.0051 B(  1-C ,  3-C ) :   0.9831
B(  1-C , 28-H ) :   0.9247 B(  2-C , 29-H ) :   0.9463 B(  2-C , 30-H ) :   0.9439
B(  2-C , 31-H ) :   0.9488 B(  3-C ,  4-C ) :   0.9841 B(  3-C ,  9-C ) :   0.9553
B(  3-C , 32-H ) :   0.9198 B(  4-C ,  5-C ) :   1.0087 B(  4-C , 33-H ) :   0.9364
B(  4-C , 34-H ) :   0.9318 B(  5-C ,  6-C ) :   1.0028 B(  5-C , 35-H ) :   0.9314
B(  5-C , 36-H ) :   0.9381 B(  6-C ,  7-C ) :   1.0080 B(  6-C ,  8-C ) :   0.9994
B(  6-C , 37-H ) :   0.9325 B(  7-C , 38-H ) :   0.9335 B(  7-C , 39-H ) :   0.9476
B(  7-C , 40-H ) :   0.9469 B(  8-C ,  9-C ) :   0.9843 B(  8-C , 41-H ) :   0.9298
B(  8-C , 42-H ) :   0.9308 B(  9-C , 10-N ) :   0.8933 B(  9-C , 43-H ) :   0.9172
B( 10-N , 11-C ) :   1.0534 B( 10-N , 44-H ) :   0.8149 B( 11-C , 12-O ) :   1.7797
B( 11-C , 13-C ) :   0.9892 B( 13-C , 14-C ) :   1.3900 B( 13-C , 24-C ) :   1.3990
B( 14-C , 15-C ) :   1.4232 B( 14-C , 45-H ) :   0.9161 B( 15-C , 16-C ) :   1.4087
B( 15-C , 46-H ) :   0.9209 B( 16-C , 17-C ) :   1.0081 B( 16-C , 23-C ) :   1.3940
B( 17-C , 18-C ) :   1.4081 B( 17-C , 22-C ) :   1.4085 B( 18-C , 19-C ) :   1.4398
B( 18-C , 47-H ) :   0.9217 B( 19-C , 20-C ) :   1.4506 B( 19-C , 48-H ) :   0.9294
B( 20-C , 21-C ) :   1.4508 B( 20-C , 49-H ) :   0.9301 B( 21-C , 22-C ) :   1.4398
B( 21-C , 50-H ) :   0.9295 B( 22-C , 51-H ) :   0.9217 B( 23-C , 24-C ) :   1.4207
B( 23-C , 52-H ) :   0.9215 B( 24-C , 53-H ) :   0.9134

FINAL SINGLE POINT ENERGY     -1023.225996166525

DIPOLE MOMENT
-------------

Method             : SCF
Type of density    : Electron Density
Multiplicity       :   1
Irrep              :   0
Energy             : -1023.2259961665254195 Eh
Relativity type    :
Basis              : AO
                                X                 Y                 Z
Electronic contribution:     41.083587923       0.752117390       1.642437381
Nuclear contribution   :    -40.774132715      -1.907184554      -2.183454160
                        -----------------------------------------
Total Dipole Moment    :      0.309455207      -1.155067164      -0.541016778
                        -----------------------------------------
Magnitude (a.u.)       :      1.312494508
Magnitude (Debye)      :      3.336095916

Rotational constants in cm-1:             0.017628             0.002593             0.002450
Rotational constants in MHz :           528.459179            77.725661            73.456613

                             ****ORCA TERMINATED NORMALLY****
TOTAL RUN TIME: 0 days 0 hours 6 minutes 39 seconds 98 msec
