                         Program Version 6.0.0  -   RELEASE  -
|  1> ! B3LYP 6-31G* SP
|  2>
|  3> * xyz 0 1
|  4> C -0.0744 -0.5423 -2.3605
|  5> C -0.3500 -0.9548 -0.9044
|  6> C -1.6744 -1.6738 -0.7165
|  7> C -1.7326 -2.7761 0.1559
|  8> C -2.9427 -3.4326 0.3939
|  9> C -4.1113 -2.9953 -0.2307
| 10> C -4.0731 -1.8983 -1.0936
| 11> Cl -5.5438 -1.3468 -1.8754
| 12> C -2.8643 -1.2362 -1.3326
| 13> N -0.2167 0.1770 0.0499
| 14> C 0.6280 0.0263 1.2236
| 15> O 0.3721 0.6716 2.2756
| 16> C 1.7770 -0.9027 1.2525
| 17> C 1.7728 -1.9416 2.1972
| 18> C 2.8115 -2.8739 2.2291
| 19> C 3.8669 -2.7762 1.3222
| 20> C 3.8959 -1.7351 0.3918
| 21> C 2.8615 -0.7868 0.3509
| 22> N 2.9495 0.2979 -0.5809
| 23> C -1.0293 1.4085 -0.1263
| 24> C -2.0868 1.5937 0.9488
| 25> N -2.5309 0.5124 1.7725
| 26> O -2.6612 2.7104 1.0568
| 27> C -0.1221 2.6215 -0.2866
| 28> C 0.3353 3.3620 0.8227
| 29> C 1.2162 4.4330 0.6469
| 30> C 1.6560 4.7768 -0.6323
| 31> C 1.2125 4.0530 -1.7395
| 32> C 0.3308 2.9819 -1.5698
| 33> H -0.8140 0.1777 -2.7581
| 34> H 0.9340 -0.0853 -2.4388
| 35> H -0.0953 -1.4425 -3.0123
| 36> H 0.4406 -1.7072 -0.7063
| 37> H -0.8413 -3.1223 0.6642
| 38> H -2.9748 -4.2782 1.0685
| 39> H -5.0454 -3.5091 -0.0418
| 40> H -2.8678 -0.3845 -1.9977
| 41> H 0.9540 -2.0399 2.8992
| 42> H 2.7967 -3.6745 2.9565
| 43> H 4.6704 -3.5010 1.3472
| 44> H 4.7303 -1.6624 -0.2951
| 45> H 3.7283 0.3401 -1.2754
| 46> H 2.2816 1.0977 -0.5609
| 47> H -1.6234 1.3312 -1.0563
| 48> H -3.3005 0.6665 2.4610
| 49> H -2.1105 -0.4382 1.7149
| 50> H 0.0062 3.1241 1.8248
| 51> H 1.5591 4.9963 1.5047
| 52> H 2.3395 5.6051 -0.7657
| 53> H 1.5546 4.3196 -2.7311
| 54> H 0.0052 2.4334 -2.4429
| 55> *
| 56>
| 57>                          ****END OF INPUT****

CARTESIAN COORDINATES (ANGSTROEM)
---------------------------------
  C     -0.074400   -0.542300   -2.360500
  C     -0.350000   -0.954800   -0.904400
  C     -1.674400   -1.673800   -0.716500
  C     -1.732600   -2.776100    0.155900
  C     -2.942700   -3.432600    0.393900
  C     -4.111300   -2.995300   -0.230700
  C     -4.073100   -1.898300   -1.093600
  Cl    -5.543800   -1.346800   -1.875400
  C     -2.864300   -1.236200   -1.332600
  N     -0.216700    0.177000    0.049900
  C      0.628000    0.026300    1.223600
  O      0.372100    0.671600    2.275600
  C      1.777000   -0.902700    1.252500
  C      1.772800   -1.941600    2.197200
  C      2.811500   -2.873900    2.229100
  C      3.866900   -2.776200    1.322200
  C      3.895900   -1.735100    0.391800
  C      2.861500   -0.786800    0.350900
  N      2.949500    0.297900   -0.580900
  C     -1.029300    1.408500   -0.126300
  C     -2.086800    1.593700    0.948800
  N     -2.530900    0.512400    1.772500
  O     -2.661200    2.710400    1.056800
  C     -0.122100    2.621500   -0.286600
  C      0.335300    3.362000    0.822700
  C      1.216200    4.433000    0.646900
  C      1.656000    4.776800   -0.632300
  C      1.212500    4.053000   -1.739500
  C      0.330800    2.981900   -1.569800
  H     -0.814000    0.177700   -2.758100
  H      0.934000   -0.085300   -2.438800
  H     -0.095300   -1.442500   -3.012300
  H      0.440600   -1.707200   -0.706300
  H     -0.841300   -3.122300    0.664200
  H     -2.974800   -4.278200    1.068500
  H     -5.045400   -3.509100   -0.041800
  H     -2.867800   -0.384500   -1.997700
  H      0.954000   -2.039900    2.899200
  H      2.796700   -3.674500    2.956500
  H      4.670400   -3.501000    1.347200
  H      4.730300   -1.662400   -0.295100
  H      3.728300    0.340100   -1.275400
  H      2.281600    1.097700   -0.560900
  H     -1.623400    1.331200   -1.056300
  H     -3.300500    0.666500    2.461000
  H     -2.110500   -0.438200    1.714900
  H      0.006200    3.124100    1.824800
  H      1.559100    4.996300    1.504700
  H      2.339500    5.605100   -0.765700
  H      1.554600    4.319600   -2.731100
  H      0.005200    2.433400   -2.442900

 Total Charge           Charge          ....    0
 Multiplicity           Mult            ....    1
 Number of Electrons    NEL             ....  214
 Basis Dimension        Dim             ....  454

ORBITAL ENERGIES
----------------

  NO   OCC          E(Eh)            E(eV)
   0   2.0000    -101.532257     -2762.8332
   1   2.0000     -19.118274      -520.2347
   2   2.0000     -19.093651      -519.5647
   3   2.0000     -14.364691      -390.8831
   4   2.0000     -14.342462      -390.2782
   5   2.0000     -14.334489      -390.0613
   6   2.0000     -10.293379      -280.0971
   7   2.0000     -10.280105      -279.7359
   8   2.0000     -10.254693      -279.0444
   9   2.0000     -10.241654      -278.6896
  10   2.0000     -10.241091      -278.6742
  11   2.0000     -10.239620      -278.6342
  12   2.0000     -10.211256      -277.8624
  13   2.0000     -10.204817      -277.6872
  14   2.0000     -10.203543      -277.6525
  15   2.0000     -10.203026      -277.6384
  16   2.0000     -10.199249      -277.5357
  17   2.0000     -10.195967      -277.4464
  18   2.0000     -10.194766      -277.4137
  19   2.0000     -10.191660      -277.3292
  20   2.0000     -10.189315      -277.2654
  21   2.0000     -10.185492      -277.1613
  22   2.0000     -10.184296      -277.1288
  23   2.0000     -10.183937      -277.1190
  24   2.0000     -10.180901      -277.0364
  25   2.0000     -10.178713      -276.9769
  26   2.0000     -10.177649      -276.9479
  27   2.0000     -10.176180      -276.9079
  28   2.0000     -10.174505      -276.8624
  29   2.0000      -9.464139      -257.5323
  30   2.0000      -7.227183      -196.6616
  31   2.0000      -7.217728      -196.4044
  32   2.0000      -7.217431      -196.3963
  33   2.0000      -1.019495       -27.7419
  34   2.0000      -0.994207       -27.0537
  35   2.0000      -0.930620       -25.3235
  36   2.0000      -0.904539       -24.6138
  37   2.0000      -0.894115       -24.3301
  38   2.0000      -0.857337       -23.3293
  39   2.0000      -0.851021       -23.1575
  40   2.0000      -0.842305       -22.9203
  41   2.0000      -0.838166       -22.8077
  42   2.0000      -0.794982       -21.6326
  43   2.0000      -0.772673       -21.0255
  44   2.0000      -0.755760       -20.5653
  45   2.0000      -0.745184       -20.2775
  46   2.0000      -0.739443       -20.1213
  47   2.0000      -0.734655       -19.9910
  48   2.0000      -0.731650       -19.9092
  49   2.0000      -0.702426       -19.1140
  50   2.0000      -0.653672       -17.7873
  51   2.0000      -0.634181       -17.2569
  52   2.0000      -0.614112       -16.7108
  53   2.0000      -0.608858       -16.5679
  54   2.0000      -0.604652       -16.4534
  55   2.0000      -0.596339       -16.2272
  56   2.0000      -0.591461       -16.0945
  57   2.0000      -0.574884       -15.6434
  58   2.0000      -0.548483       -14.9250
  59   2.0000      -0.532403       -14.4874
  60   2.0000      -0.526154       -14.3174
  61   2.0000      -0.515905       -14.0385
  62   2.0000      -0.511315       -13.9136
  63   2.0000      -0.502021       -13.6607
  64   2.0000      -0.497637       -13.5414
  65   2.0000      -0.485890       -13.2217
  66   2.0000      -0.478021       -13.0076
  67   2.0000      -0.468712       -12.7543
  68   2.0000      -0.461034       -12.5454
  69   2.0000      -0.454742       -12.3742
  70   2.0000      -0.452205       -12.3051
  71   2.0000      -0.446896       -12.1607
  72   2.0000      -0.440820       -11.9953
  73   2.0000      -0.436724       -11.8839
  74   2.0000      -0.432507       -11.7691
  75   2.0000      -0.422862       -11.5067
  76   2.0000      -0.420051       -11.4302
  77   2.0000      -0.417476       -11.3601
  78   2.0000      -0.409141       -11.1333
  79   2.0000      -0.405758       -11.0412
  80   2.0000      -0.396122       -10.7790
  81   2.0000      -0.394400       -10.7322
  82   2.0000      -0.390340       -10.6217
  83   2.0000      -0.382547       -10.4096
  84   2.0000      -0.378813       -10.3080
  85   2.0000      -0.371546       -10.1103
  86   2.0000      -0.362899        -9.8750
  87   2.0000      -0.359404        -9.7799
  88   2.0000      -0.356763        -9.7080
  89   2.0000      -0.354658        -9.6507
  90   2.0000      -0.349030        -9.4976
  91   2.0000      -0.346365        -9.4251
  92   2.0000      -0.341052        -9.2805
  93   2.0000      -0.335613        -9.1325
  94   2.0000      -0.332001        -9.0342
  95   2.0000      -0.315671        -8.5899
  96   2.0000      -0.307319        -8.3626
  97   2.0000      -0.274272        -7.4633
  98   2.0000      -0.266563        -7.2535
  99   2.0000      -0.258747        -7.0409
 100   2.0000      -0.250619        -6.8197
 101   2.0000      -0.249097        -6.7783
 102   2.0000      -0.242576        -6.6008
 103   2.0000      -0.240249        -6.5375
 104   2.0000      -0.231729        -6.3057
 105   2.0000      -0.220979        -6.0132
 106   2.0000      -0.203994        -5.5510
 107   0.0000      -0.033778        -0.9192
 108   0.0000      -0.023087        -0.6282
 109   0.0000      -0.022054        -0.6001
 110   0.0000      -0.002208        -0.0601
 111   0.0000       0.002742         0.0746

MULLIKEN ATOMIC CHARGES
-----------------------
   0 C :   -0.459473
   1 C :   -0.084787
   2 C :    0.181469
   3 C :   -0.207680
   4 C :   -0.115447
   5 C :   -0.132109
   6 C :   -0.063048
   7 Cl:   -0.009465
   8 C :   -0.175074
   9 N :   -0.435603
  10 C :    0.418482
  11 O :   -0.454029
  12 C :    0.032072
  13 C :   -0.160496
  14 C :   -0.143195
  15 C :   -0.119307
  16 C :   -0.192343
  17 C :    0.342183
  18 N :   -0.847346
  19 C :   -0.147716
  20 C :    0.587228
  21 N :   -0.762139
  22 O :   -0.487484
  23 C :    0.168621
  24 C :   -0.140217
  25 C :   -0.137262
  26 C :   -0.123237
  27 C :   -0.132308
  28 C :   -0.199226
  29 H :    0.144194
  30 H :    0.164217
  31 H :    0.155440
  32 H :    0.176307
  33 H :    0.144755
  34 H :    0.144040
  35 H :    0.154156
  36 H :    0.151181
  37 H :    0.143304
  38 H :    0.125279
  39 H :    0.132090
  40 H :    0.122675
  41 H :    0.331171
  42 H :    0.359809
  43 H :    0.183203
  44 H :    0.344325
  45 H :    0.338496
  46 H :    0.174073
  47 H :    0.134923
  48 H :    0.127178
  49 H :    0.126140
  50 H :    0.121977
Sum of atomic charges:   -0.0000000

LOEWDIN ATOMIC CHARGES
----------------------
   0 C :   -0.365433
   1 C :   -0.056587
   2 C :   -0.021301
   3 C :   -0.143705
   4 C :   -0.120754
   5 C :   -0.132909
   6 C :   -0.080643
   7 Cl:    0.042122
   8 C :   -0.136622
   9 N :   -0.104471
  10 C :    0.139489
  11 O :   -0.258633
  12 C :   -0.082281
  13 C :   -0.104482
  14 C :   -0.161905
  15 C :   -0.112590
  16 C :   -0.165128
  17 C :    0.053491
  18 N :   -0.418662
  19 C :   -0.061982
  20 C :    0.142707
  21 N :   -0.390233
  22 O :   -0.295556
  23 C :   -0.016079
  24 C :   -0.106807
  25 C :   -0.127853
  26 C :   -0.128951
  27 C :   -0.138436
  28 C :   -0.143809
  29 H :    0.118296
  30 H :    0.134671
  31 H :    0.133861
  32 H :    0.149565
  33 H :    0.137939
  34 H :    0.139662
  35 H :    0.145598
  36 H :    0.141951
  37 H :    0.140239
  38 H :    0.131236
  39 H :    0.134167
  40 H :    0.130186
  41 H :    0.251543
  42 H :    0.260739
  43 H :    0.157746
  44 H :    0.261980
  45 H :    0.250348
  46 H :    0.154054
  47 H :    0.134946
  48 H :    0.130850
  49 H :    0.130341
  50 H :    0.128082

  Mayer bond orders larger than 0.100000
B(  0-C ,  1-C ) :   0.9951 B(  0-C , 29-H ) :   0.9317 B(  0-C , 30-H ) :   0.9284
B(  0-C , 31-H ) :   0.9413 B(  1-C ,  2-C ) :   0.9452 B(  1-C ,  9-N ) :   0.9441
B(  1-C , 32-H ) :   0.9080 B(  2-C ,  3-C ) :   1.4141 B(  2-C ,  8-C ) :   1.4137
B(  3-C ,  4-C ) :   1.4321 B(  3-C , 33-H ) :   0.9165 B(  4-C ,  5-C ) :   1.4505
B(  4-C , 34-H ) :   0.9268 B(  5-C ,  6-C ) :   1.4188 B(  5-C , 35-H ) :   0.9232
B(  6-C ,  7-Cl) :   1.0193 B(  6-C ,  8-C ) :   1.4060 B(  8-C , 36-H ) :   0.9127
B(  9-N , 10-C ) :   1.0270 B(  9-N , 19-C ) :   0.8811 B( 10-C , 11-O ) :   1.8008
B( 10-C , 12-C ) :   0.9388 B( 12-C , 13-C ) :   1.4084 B( 12-C , 17-C ) :   1.3457
B( 13-C , 14-C ) :   1.4388 B( 13-C , 37-H ) :   0.9217 B( 14-C , 15-C ) :   1.4293
B( 14-C , 38-H ) :   0.9300 B( 15-C , 16-C ) :   1.4703 B( 15-C , 39-H ) :   0.9292
B( 16-C , 17-C ) :   1.3618 B( 16-C , 40-H ) :   0.9236 B( 17-C , 18-N ) :   0.9892
B( 18-N , 41-H ) :   0.8421 B( 18-N , 42-H ) :   0.7971 B( 19-C , 20-C ) :   0.9126
B( 19-C , 23-C ) :   0.9508 B( 19-C , 43-H ) :   0.9009 B( 20-C , 21-N ) :   1.0933
B( 20-C , 22-O ) :   1.8285 B( 21-N , 44-H ) :   0.8281 B( 21-N , 45-H ) :   0.8053
B( 23-C , 24-C ) :   1.4340 B( 23-C , 28-C ) :   1.4096 B( 24-C , 25-C ) :   1.4328
B( 24-C , 46-H ) :   0.9051 B( 25-C , 26-C ) :   1.4462 B( 25-C , 47-H ) :   0.9293
B( 26-C , 27-C ) :   1.4580 B( 26-C , 48-H ) :   0.9305 B( 27-C , 28-C ) :   1.4363
B( 27-C , 49-H ) :   0.9301 B( 28-C , 50-H ) :   0.9201

FINAL SINGLE POINT ENERGY     -1663.764723878925

DIPOLE MOMENT
-------------

Method             : SCF
Type of density    : Electron Density
Multiplicity       :   1
Irrep              :   0
Energy             : -1663.7647238789252242 Eh
Relativity type    :
Basis              : AO
                                X                 Y                 Z
Electronic contribution:    -21.856180072      -1.843918550       0.437262410
Nuclear contribution   :     23.222952391       0.067324857      -1.405813039
                        -----------------------------------------
Total Dipole Moment    :      1.366772319      -1.776593693      -0.968550628
                        -----------------------------------------
Magnitude (a.u.)       :      2.441811221
Magnitude (Debye)      :      6.206590879

Rotational constants in cm-1:             0.006416             0.004424             0.003200
Rotational constants in MHz :           192.334031           132.626954            95.946348

                             ****ORCA TERMINATED NORMALLY****
TOTAL RUN TIME: 0 days 0 hours 6 minutes 5 seconds 192 msec
