                         Program Version 6.0.0  -   RELEASE  -
|  1> ! B3LYP 6-31G* SP
|  2>
|  3> * xyz 0 1
|  4> C -6.6391 3.2406 -1.7873
|  5> C -6.4954 1.9345 -0.9865
|  6> N -7.8016 1.5107 -0.4752
|  7> C -5.4792 2.0913 0.1752
|  8> O -4.2531 2.5638 -0.3302
|  9> C -5.2041 0.7509 0.8862
| 10> C -6.3567 0.3091 1.7589
| 11> C -6.9240 -0.9102 1.7246
| 12> C -6.5124 -2.0196 0.7906
| 13> C -7.0141 -1.7586 -0.6084
| 14> C -6.3257 -2.0316 -1.7316
| 15> C -4.9193 -2.5642 -1.7546
| 16> C -4.8685 -3.9967 -1.2816
| 17> C -3.7835 -4.5568 -0.7193
| 18> C -2.5174 -3.8089 -0.3905
| 19> C -2.6428 -3.1531 0.9619
| 20> C -2.2633 -1.8941 1.2487
| 21> C -1.7367 -0.9104 0.2395
| 22> C -1.0486 0.2478 0.9142
| 23> C 0.1554 0.1722 1.5160
| 24> C 0.9942 -1.0819 1.6172
| 25> C 1.4573 -1.6050 0.2770
| 26> C 2.3220 -0.9752 -0.5440
| 27> C 2.9763 0.3491 -0.2531
| 28> C 4.2667 0.1559 0.5511
| 29> C 4.8049 1.4699 1.1403
| 30> C 5.0967 2.5711 0.1034
| 31> C 6.2482 2.2424 -0.8645
| 32> C 7.6380 2.2568 -0.1874
| 33> C 8.2426 0.8406 -0.0243
| 34> O 8.4802 0.2355 -1.2738
| 35> C 9.5209 0.8346 0.8648
| 36> C 10.6893 1.6395 0.2745
| 37> N 9.9672 -0.5340 1.1395
| 38> H -7.4282 3.1305 -2.5600
| 39> H -5.6888 3.4853 -2.3052
| 40> H -6.9167 4.0796 -1.1167
| 41> H -6.1175 1.1538 -1.6829
| 42> H -8.4340 1.3063 -1.2850
| 43> H -8.2275 2.2935 0.0695
| 44> H -5.8812 2.8143 0.9276
| 45> H -4.2648 3.5560 -0.2557
| 46> H -4.9365 -0.0077 0.1263
| 47> H -4.3195 0.8711 1.5489
| 48> H -6.7174 1.0140 2.5025
| 49> H -7.7280 -1.1217 2.4251
| 50> H -6.9821 -2.9632 1.1401
| 51> H -5.4161 -2.1634 0.8481
| 52> H -8.0271 -1.3872 -0.7184
| 53> H -6.7991 -1.8173 -2.6858
| 54> H -4.2874 -1.9047 -1.1352
| 55> H -4.5298 -2.5227 -2.7946
| 56> H -5.7241 -4.6367 -1.4917
| 57> H -3.8289 -5.6102 -0.4564
| 58> H -2.2704 -3.1012 -1.2063
| 59> H -1.6836 -4.5396 -0.3319
| 60> H -2.9913 -3.7714 1.7813
| 61> H -2.3727 -1.5653 2.2795
| 62> H -1.0368 -1.3919 -0.4736
| 63> H -2.5875 -0.5216 -0.3573
| 64> H -1.5543 1.2092 0.9030
| 65> H 0.5412 1.0748 1.9790
| 66> H 0.4108 -1.8708 2.1326
| 67> H 1.8764 -0.8861 2.2635
| 68> H 1.0677 -2.5670 -0.0438
| 69> H 2.5653 -1.4548 -1.4901
| 70> H 3.2309 0.8168 -1.2293
| 71> H 2.2809 1.0379 0.2667
| 72> H 5.0343 -0.3274 -0.0855
| 73> H 4.0771 -0.5379 1.3980
| 74> H 4.0585 1.8652 1.8601
| 75> H 5.7224 1.2544 1.7249
| 76> H 5.3386 3.5116 0.6443
| 77> H 4.1784 2.7916 -0.4812
| 78> H 6.0543 1.2824 -1.3872
| 79> H 6.2470 3.0254 -1.6561
| 80> H 7.5817 2.7461 0.8077
| 81> H 8.3189 2.8776 -0.8078
| 82> H 7.4841 0.2229 0.5038
| 83> H 9.0190 0.8657 -1.8207
| 84> H 9.2589 1.3049 1.8370
| 85> H 10.4118 2.7053 0.1428
| 86> H 11.0098 1.2210 -0.7042
| 87> H 11.5547 1.6082 0.9687
| 88> H 9.2042 -1.0472 1.6440
| 89> H 10.1503 -1.0246 0.2369
| 90> *
| 91>
| 92>                          ****END OF INPUT****

CARTESIAN COORDINATES (ANGSTROEM)
---------------------------------
  C     -6.639100    3.240600   -1.787300
  C     -6.495400    1.934500   -0.986500
  N     -7.801600    1.510700   -0.475200
  C     -5.479200    2.091300    0.175200
  O     -4.253100    2.563800   -0.330200
  C     -5.204100    0.750900    0.886200
  C     -6.356700    0.309100    1.758900
  C     -6.924000   -0.910200    1.724600
  C     -6.512400   -2.019600    0.790600
  C     -7.014100   -1.758600   -0.608400
  C     -6.325700   -2.031600   -1.731600
  C     -4.919300   -2.564200   -1.754600
  C     -4.868500   -3.996700   -1.281600
  C     -3.783500   -4.556800   -0.719300
  C     -2.517400   -3.808900   -0.390500
  C     -2.642800   -3.153100    0.961900
  C     -2.263300   -1.894100    1.248700
  C     -1.736700   -0.910400    0.239500
  C     -1.048600    0.247800    0.914200
  C      0.155400    0.172200    1.516000
  C      0.994200   -1.081900    1.617200
  C      1.457300   -1.605000    0.277000
  C      2.322000   -0.975200   -0.544000
  C      2.976300    0.349100   -0.253100
  C      4.266700    0.155900    0.551100
  C      4.804900    1.469900    1.140300
  C      5.096700    2.571100    0.103400
  C      6.248200    2.242400   -0.864500
  C      7.638000    2.256800   -0.187400
  C      8.242600    0.840600   -0.024300
  O      8.480200    0.235500   -1.273800
  C      9.520900    0.834600    0.864800
  C     10.689300    1.639500    0.274500
  N      9.967200   -0.534000    1.139500
  H     -7.428200    3.130500   -2.560000
  H     -5.688800    3.485300   -2.305200
  H     -6.916700    4.079600   -1.116700
  H     -6.117500    1.153800   -1.682900
  H     -8.434000    1.306300   -1.285000
  H     -8.227500    2.293500    0.069500
  H     -5.881200    2.814300    0.927600
  H     -4.264800    3.556000   -0.255700
  H     -4.936500   -0.007700    0.126300
  H     -4.319500    0.871100    1.548900
  H     -6.717400    1.014000    2.502500
  H     -7.728000   -1.121700    2.425100
  H     -6.982100   -2.963200    1.140100
  H     -5.416100   -2.163400    0.848100
  H     -8.027100   -1.387200   -0.718400
  H     -6.799100   -1.817300   -2.685800
  H     -4.287400   -1.904700   -1.135200
  H     -4.529800   -2.522700   -2.794600
  H     -5.724100   -4.636700   -1.491700
  H     -3.828900   -5.610200   -0.456400
  H     -2.270400   -3.101200   -1.206300
  H     -1.683600   -4.539600   -0.331900
  H     -2.991300   -3.771400    1.781300
  H     -2.372700   -1.565300    2.279500
  H     -1.036800   -1.391900   -0.473600
  H     -2.587500   -0.521600   -0.357300
  H     -1.554300    1.209200    0.903000
  H      0.541200    1.074800    1.979000
  H      0.410800   -1.870800    2.132600
  H      1.876400   -0.886100    2.263500
  H      1.067700   -2.567000   -0.043800
  H      2.565300   -1.454800   -1.490100
  H      3.230900    0.816800   -1.229300
  H      2.280900    1.037900    0.266700
  H      5.034300   -0.327400   -0.085500
  H      4.077100   -0.537900    1.398000
  H      4.058500    1.865200    1.860100
  H      5.722400    1.254400    1.724900
  H      5.338600    3.511600    0.644300
  H      4.178400    2.791600   -0.481200
  H      6.054300    1.282400   -1.387200
  H      6.247000    3.025400   -1.656100
  H      7.581700    2.746100    0.807700
  H      8.318900    2.877600   -0.807800
  H      7.484100    0.222900    0.503800
  H      9.019000    0.865700   -1.820700
  H      9.258900    1.304900    1.837000
  H     10.411800    2.705300    0.142800
  H     11.009800    1.221000   -0.704200
  H     11.554700    1.608200    0.968700
  H      9.204200   -1.047200    1.644000
  H     10.150300   -1.024600    0.236900

 Total Charge           Charge          ....    0
 Multiplicity           Mult            ....    1
 Number of Electrons    NEL             ....  262
 Basis Dimension        Dim             ....  580

ORBITAL ENERGIES
----------------

  NO   OCC          E(Eh)            E(eV)
   0   2.0000     -19.139690      -520.8174
   1   2.0000     -19.136356      -520.7267
   2   2.0000     -14.299185      -389.1006
   3   2.0000     -14.293766      -388.9531
   4   2.0000     -10.223779      -278.2032
   5   2.0000     -10.219534      -278.0877
   6   2.0000     -10.198338      -277.5109
   7   2.0000     -10.196524      -277.4615
   8   2.0000     -10.173394      -276.8321
   9   2.0000     -10.172286      -276.8020
  10   2.0000     -10.171359      -276.7768
  11   2.0000     -10.169261      -276.7197
  12   2.0000     -10.167970      -276.6845
  13   2.0000     -10.167795      -276.6798
  14   2.0000     -10.167720      -276.6777
  15   2.0000     -10.167521      -276.6723
  16   2.0000     -10.167192      -276.6634
  17   2.0000     -10.167136      -276.6618
  18   2.0000     -10.166488      -276.6442
  19   2.0000     -10.166476      -276.6439
  20   2.0000     -10.165014      -276.6041
  21   2.0000     -10.164476      -276.5894
  22   2.0000     -10.164399      -276.5874
  23   2.0000     -10.164336      -276.5856
  24   2.0000     -10.164040      -276.5776
  25   2.0000     -10.163154      -276.5535
  26   2.0000     -10.163015      -276.5497
  27   2.0000     -10.162673      -276.5404
  28   2.0000     -10.161180      -276.4998
  29   2.0000     -10.161017      -276.4953
  30   2.0000     -10.160137      -276.4714
  31   2.0000     -10.157149      -276.3901
  32   2.0000     -10.156660      -276.3768
  33   2.0000     -10.150752      -276.2160
  34   2.0000      -1.017382       -27.6844
  35   2.0000      -1.015397       -27.6304
  36   2.0000      -0.872095       -23.7309
  37   2.0000      -0.864540       -23.5253
  38   2.0000      -0.813880       -22.1468
  39   2.0000      -0.808364       -21.9967
  40   2.0000      -0.800036       -21.7701
  41   2.0000      -0.791291       -21.5321
  42   2.0000      -0.780667       -21.2430
  43   2.0000      -0.769315       -20.9341
  44   2.0000      -0.756101       -20.5746
  45   2.0000      -0.743636       -20.2354
  46   2.0000      -0.732139       -19.9225
  47   2.0000      -0.723882       -19.6978
  48   2.0000      -0.715039       -19.4572
  49   2.0000      -0.705917       -19.2090
  50   2.0000      -0.692781       -18.8515
  51   2.0000      -0.680195       -18.5090
  52   2.0000      -0.666106       -18.1257
  53   2.0000      -0.653563       -17.7844
  54   2.0000      -0.637961       -17.3598
  55   2.0000      -0.628564       -17.1041
  56   2.0000      -0.618375       -16.8268
  57   2.0000      -0.609976       -16.5983
  58   2.0000      -0.589344       -16.0369
  59   2.0000      -0.568865       -15.4796
  60   2.0000      -0.563672       -15.3383
  61   2.0000      -0.543820       -14.7981
  62   2.0000      -0.538203       -14.6452
  63   2.0000      -0.533474       -14.5166
  64   2.0000      -0.528041       -14.3687
  65   2.0000      -0.516486       -14.0543
  66   2.0000      -0.507508       -13.8100
  67   2.0000      -0.500038       -13.6067
  68   2.0000      -0.493312       -13.4237
  69   2.0000      -0.486735       -13.2447
  70   2.0000      -0.481789       -13.1101
  71   2.0000      -0.476430       -12.9643
  72   2.0000      -0.475746       -12.9457
  73   2.0000      -0.466628       -12.6976
  74   2.0000      -0.463753       -12.6194
  75   2.0000      -0.459579       -12.5058
  76   2.0000      -0.455483       -12.3943
  77   2.0000      -0.450926       -12.2703
  78   2.0000      -0.448891       -12.2149
  79   2.0000      -0.441346       -12.0096
  80   2.0000      -0.434509       -11.8236
  81   2.0000      -0.433613       -11.7992
  82   2.0000      -0.427006       -11.6194
  83   2.0000      -0.423354       -11.5200
  84   2.0000      -0.419429       -11.4132
  85   2.0000      -0.414867       -11.2891
  86   2.0000      -0.406288       -11.0557
  87   2.0000      -0.404351       -11.0030
  88   2.0000      -0.399691       -10.8761
  89   2.0000      -0.395986       -10.7753
  90   2.0000      -0.390941       -10.6380
  91   2.0000      -0.388047       -10.5593
  92   2.0000      -0.383235       -10.4284
  93   2.0000      -0.381155       -10.3718
  94   2.0000      -0.378607       -10.3024
  95   2.0000      -0.376216       -10.2374
  96   2.0000      -0.373393       -10.1605
  97   2.0000      -0.370002       -10.0683
  98   2.0000      -0.365020        -9.9327
  99   2.0000      -0.363125        -9.8811
 100   2.0000      -0.362031        -9.8514
 101   2.0000      -0.359282        -9.7766
 102   2.0000      -0.354867        -9.6564
 103   2.0000      -0.352500        -9.5920
 104   2.0000      -0.349265        -9.5040
 105   2.0000      -0.348684        -9.4882
 106   2.0000      -0.344226        -9.3669
 107   2.0000      -0.337293        -9.1782
 108   2.0000      -0.335399        -9.1267
 109   2.0000      -0.333597        -9.0776
 110   2.0000      -0.330838        -9.0026
 111   2.0000      -0.325324        -8.8525
 112   2.0000      -0.322632        -8.7793
 113   2.0000      -0.316706        -8.6180
 114   2.0000      -0.315444        -8.5837
 115   2.0000      -0.311511        -8.4767
 116   2.0000      -0.309850        -8.4315
 117   2.0000      -0.308870        -8.4048
 118   2.0000      -0.305407        -8.3105
 119   2.0000      -0.301767        -8.2115
 120   2.0000      -0.298025        -8.1097
 121   2.0000      -0.271411        -7.3855
 122   2.0000      -0.262109        -7.1324
 123   2.0000      -0.242330        -6.5941
 124   2.0000      -0.237561        -6.4644
 125   2.0000      -0.232217        -6.3189
 126   2.0000      -0.221764        -6.0345
 127   2.0000      -0.218505        -5.9458
 128   2.0000      -0.215502        -5.8641
 129   2.0000      -0.213926        -5.8212
 130   2.0000      -0.195546        -5.3211
 131   0.0000       0.017610         0.4792
 132   0.0000       0.021763         0.5922
 133   0.0000       0.034541         0.9399
 134   0.0000       0.037441         1.0188
 135   0.0000       0.039877         1.0851

MULLIKEN ATOMIC CHARGES
-----------------------
   0 C :   -0.460573
   1 C :    0.038962
   2 N :   -0.689635
   3 C :    0.142727
   4 O :   -0.631863
   5 C :   -0.311240
   6 C :   -0.051379
   7 C :   -0.115893
   8 C :   -0.367941
   9 C :   -0.044221
  10 C :   -0.146549
  11 C :   -0.355369
  12 C :   -0.069702
  13 C :   -0.126757
  14 C :   -0.349032
  15 C :   -0.087149
  16 C :   -0.105829
  17 C :   -0.356833
  18 C :   -0.128886
  19 C :   -0.094023
  20 C :   -0.345504
  21 C :   -0.104441
  22 C :   -0.103161
  23 C :   -0.303566
  24 C :   -0.253086
  25 C :   -0.255395
  26 C :   -0.260011
  27 C :   -0.259770
  28 C :   -0.287999
  29 C :    0.138525
  30 O :   -0.631547
  31 C :    0.029942
  32 C :   -0.457966
  33 N :   -0.706113
  34 H :    0.133381
  35 H :    0.143117
  36 H :    0.119174
  37 H :    0.138227
  38 H :    0.288919
  39 H :    0.280310
  40 H :    0.090691
  41 H :    0.396863
  42 H :    0.156254
  43 H :    0.146063
  44 H :    0.102984
  45 H :    0.109191
  46 H :    0.141259
  47 H :    0.168895
  48 H :    0.123774
  49 H :    0.111003
  50 H :    0.169101
  51 H :    0.143902
  52 H :    0.123265
  53 H :    0.119048
  54 H :    0.153177
  55 H :    0.143835
  56 H :    0.122856
  57 H :    0.129122
  58 H :    0.162305
  59 H :    0.163363
  60 H :    0.138199
  61 H :    0.117695
  62 H :    0.154119
  63 H :    0.143321
  64 H :    0.122737
  65 H :    0.119744
  66 H :    0.134705
  67 H :    0.145666
  68 H :    0.140172
  69 H :    0.134414
  70 H :    0.124442
  71 H :    0.122657
  72 H :    0.122497
  73 H :    0.132785
  74 H :    0.153466
  75 H :    0.121348
  76 H :    0.133455
  77 H :    0.119682
  78 H :    0.124832
  79 H :    0.393110
  80 H :    0.118703
  81 H :    0.141245
  82 H :    0.124729
  83 H :    0.164740
  84 H :    0.285991
  85 H :    0.296746
Sum of atomic charges:   -0.0000000

LOEWDIN ATOMIC CHARGES
----------------------
   0 C :   -0.378587
   1 C :   -0.092494
   2 N :   -0.448000
   3 C :   -0.013834
   4 O :   -0.394977
   5 C :   -0.229206
   6 C :   -0.128183
   7 C :   -0.145366
   8 C :   -0.241139
   9 C :   -0.119180
  10 C :   -0.166615
  11 C :   -0.239929
  12 C :   -0.135016
  13 C :   -0.148986
  14 C :   -0.235821
  15 C :   -0.141731
  16 C :   -0.148083
  17 C :   -0.243091
  18 C :   -0.140460
  19 C :   -0.145629
  20 C :   -0.241292
  21 C :   -0.145556
  22 C :   -0.139826
  23 C :   -0.235205
  24 C :   -0.227612
  25 C :   -0.232273
  26 C :   -0.230238
  27 C :   -0.234979
  28 C :   -0.246797
  29 C :   -0.033457
  30 O :   -0.392743
  31 C :   -0.095280
  32 C :   -0.364628
  33 N :   -0.466571
  34 H :    0.119820
  35 H :    0.123060
  36 H :    0.110704
  37 H :    0.125183
  38 H :    0.220572
  39 H :    0.215599
  40 H :    0.093140
  41 H :    0.316073
  42 H :    0.134028
  43 H :    0.131492
  44 H :    0.117805
  45 H :    0.118630
  46 H :    0.132300
  47 H :    0.141195
  48 H :    0.129990
  49 H :    0.119138
  50 H :    0.137855
  51 H :    0.131611
  52 H :    0.128300
  53 H :    0.123369
  54 H :    0.132713
  55 H :    0.131539
  56 H :    0.128238
  57 H :    0.130242
  58 H :    0.139722
  59 H :    0.136303
  60 H :    0.131320
  61 H :    0.122293
  62 H :    0.137512
  63 H :    0.129700
  64 H :    0.124290
  65 H :    0.124400
  66 H :    0.123217
  67 H :    0.128769
  68 H :    0.119178
  69 H :    0.119302
  70 H :    0.115558
  71 H :    0.112429
  72 H :    0.113642
  73 H :    0.117430
  74 H :    0.126272
  75 H :    0.116055
  76 H :    0.121516
  77 H :    0.113645
  78 H :    0.114010
  79 H :    0.310601
  80 H :    0.115392
  81 H :    0.121873
  82 H :    0.114112
  83 H :    0.137594
  84 H :    0.219450
  85 H :    0.224602

  Mayer bond orders larger than 0.100000
B(  0-C ,  1-C ) :   0.9838 B(  0-C , 34-H ) :   0.9503 B(  0-C , 35-H ) :   0.9360
B(  0-C , 36-H ) :   0.9487 B(  1-C ,  2-N ) :   0.9944 B(  1-C ,  3-C ) :   0.9608
B(  1-C , 37-H ) :   0.9182 B(  2-N , 38-H ) :   0.8599 B(  2-N , 39-H ) :   0.8604
B(  3-C ,  4-O ) :   0.9263 B(  3-C ,  5-C ) :   0.9819 B(  3-C , 40-H ) :   0.9290
B(  4-O , 41-H ) :   0.7892 B(  5-C ,  6-C ) :   1.0075 B(  5-C , 42-H ) :   0.9162
B(  5-C , 43-H ) :   0.9205 B(  6-C ,  7-C ) :   1.9575 B(  6-C , 44-H ) :   0.9281
B(  7-C ,  8-C ) :   0.9959 B(  7-C , 45-H ) :   0.9334 B(  8-C ,  9-C ) :   1.0095
B(  8-C , 46-H ) :   0.9268 B(  8-C , 47-H ) :   0.9084 B(  9-C , 10-C ) :   1.9334
B(  9-C , 48-H ) :   0.9254 B( 10-C , 11-C ) :   1.0009 B( 10-C , 49-H ) :   0.9326
B( 11-C , 12-C ) :   1.0040 B( 11-C , 50-H ) :   0.9077 B( 11-C , 51-H ) :   0.9285
B( 12-C , 13-C ) :   1.9447 B( 12-C , 52-H ) :   0.9297 B( 13-C , 14-C ) :   0.9944
B( 13-C , 53-H ) :   0.9309 B( 14-C , 15-C ) :   1.0033 B( 14-C , 54-H ) :   0.9236
B( 14-C , 55-H ) :   0.9253 B( 15-C , 16-C ) :   1.9145 B( 15-C , 56-H ) :   0.9274
B( 16-C , 17-C ) :   1.0027 B( 16-C , 57-H ) :   0.9274 B( 17-C , 18-C ) :   1.0056
B( 17-C , 58-H ) :   0.9087 B( 17-C , 59-H ) :   0.9130 B( 18-C , 19-C ) :   1.9537
B( 18-C , 60-H ) :   0.9254 B( 19-C , 20-C ) :   1.0028 B( 19-C , 61-H ) :   0.9293
B( 20-C , 21-C ) :   1.0032 B( 20-C , 62-H ) :   0.9211 B( 20-C , 63-H ) :   0.9270
B( 21-C , 22-C ) :   1.9512 B( 21-C , 64-H ) :   0.9283 B( 22-C , 23-C ) :   1.0132
B( 22-C , 65-H ) :   0.9313 B( 23-C , 24-C ) :   0.9892 B( 23-C , 66-H ) :   0.9343
B( 23-C , 67-H ) :   0.9226 B( 24-C , 25-C ) :   1.0026 B( 24-C , 68-H ) :   0.9327
B( 24-C , 69-H ) :   0.9376 B( 25-C , 26-C ) :   1.0120 B( 25-C , 70-H ) :   0.9400
B( 25-C , 71-H ) :   0.9343 B( 26-C , 27-C ) :   1.0121 B( 26-C , 72-H ) :   0.9395
B( 26-C , 73-H ) :   0.9344 B( 27-C , 28-C ) :   0.9751 B( 27-C , 74-H ) :   0.9275
B( 27-C , 75-H ) :   0.9463 B( 28-C , 29-C ) :   0.9827 B( 28-C , 76-H ) :   0.9304
B( 28-C , 77-H ) :   0.9367 B( 29-C , 30-O ) :   0.9379 B( 29-C , 31-C ) :   0.9376
B( 29-C , 78-H ) :   0.9207 B( 30-O , 79-H ) :   0.7786 B( 31-C , 32-C ) :   1.0028
B( 31-C , 33-N ) :   1.0175 B( 31-C , 80-H ) :   0.9254 B( 32-C , 81-H ) :   0.9430
B( 32-C , 82-H ) :   0.9438 B( 32-C , 83-H ) :   0.9446 B( 33-N , 84-H ) :   0.8646
B( 33-N , 85-H ) :   0.8493

FINAL SINGLE POINT ENERGY     -1433.275390028286

DIPOLE MOMENT
-------------

Method             : SCF
Type of density    : Electron Density
Multiplicity       :   1
Irrep              :   0
Energy             : -1433.2753900282864379 Eh
Relativity type    :
Basis              : AO
                                X                 Y                 Z
Electronic contribution:    -19.152079701     -10.619227800       0.834201671
Nuclear contribution   :     18.478387019      11.936238806      -1.181004652
                        -----------------------------------------
Total Dipole Moment    :     -0.673692682       1.317011005      -0.346802981
                        -----------------------------------------
Magnitude (a.u.)       :      1.519424933
Magnitude (Debye)      :      3.862071255

Rotational constants in cm-1:             0.007098             0.000980             0.000911
Rotational constants in MHz :           212.804127            29.387055            27.307590

                             ****ORCA TERMINATED NORMALLY****
TOTAL RUN TIME: 0 days 0 hours 10 minutes 44 seconds 332 msec
