                         Program Version 6.0.0  -   RELEASE  -
|  1> ! B3LYP 6-31G* SP
|  2>
|  3> * xyz 0 1
|  4> O 4.3873 -4.5151 2.9518
|  5> C 4.6013 -3.4333 2.3389
|  6> O 5.8280 -2.7920 2.4962
|  7> C 3.5594 -2.8455 1.4685
|  8> C 2.3292 -3.5015 1.2769
|  9> C 1.3444 -2.9371 0.4607
| 10> C 1.5730 -1.7086 -0.1719
| 11> S 0.3277 -0.9597 -1.1655
| 12> O -0.8976 -1.8295 -1.2219
| 13> O 0.8676 -0.7930 -2.5589
| 14> N -0.1001 0.5914 -0.5000
| 15> C -0.2834 0.7398 0.9465
| 16> C -1.4418 -0.0987 1.4137
| 17> C -1.2278 -1.2344 2.2083
| 18> C -2.3048 -2.0357 2.5923
| 19> C -3.6041 -1.7101 2.1931
| 20> F -4.6322 -2.5123 2.5726
| 21> C -3.8407 -0.5646 1.4096
| 22> C -5.2461 -0.2307 0.9714
| 23> F -5.3073 1.0021 0.3432
| 24> F -5.6933 -1.1981 0.0910
| 25> F -6.0850 -0.1992 2.0714
| 26> C -2.7472 0.2311 1.0159
| 27> C -0.0065 1.7590 -1.3260
| 28> N 0.9420 2.6955 -1.0529
| 29> C 1.0838 3.8208 -1.8017
| 30> C 0.2468 4.0472 -2.9049
| 31> C 0.3619 5.3150 -3.7105
| 32> F -0.4257 6.2930 -3.1329
| 33> F -0.0586 5.1067 -5.0120
| 34> F 1.6732 5.7535 -3.7459
| 35> C -0.7655 3.1142 -3.1768
| 36> C -0.8944 1.9630 -2.3953
| 37> Cl -2.2048 0.8399 -2.7333
| 38> C 2.7953 -1.0526 0.0125
| 39> C 3.7828 -1.6166 0.8251
| 40> H 6.5473 -3.1835 3.0928
| 41> H 2.1256 -4.4488 1.7600
| 42> H 0.4017 -3.4546 0.3352
| 43> H -0.4932 1.8020 1.2050
| 44> H 0.6559 0.4602 1.4709
| 45> H -0.2283 -1.5050 2.5241
| 46> H -2.1305 -2.9156 3.1992
| 47> H -2.8991 1.1031 0.3924
| 48> H 1.8492 4.5376 -1.5335
| 49> H -1.4615 3.2834 -3.9891
| 50> H 2.9794 -0.0977 -0.4651
| 51> H 4.7170 -1.0849 0.9555
| 52> *
| 53>
| 54>                          ****END OF INPUT****

CARTESIAN COORDINATES (ANGSTROEM)
---------------------------------
  O      4.387300   -4.515100    2.951800
  C      4.601300   -3.433300    2.338900
  O      5.828000   -2.792000    2.496200
  C      3.559400   -2.845500    1.468500
  C      2.329200   -3.501500    1.276900
  C      1.344400   -2.937100    0.460700
  C      1.573000   -1.708600   -0.171900
  S      0.327700   -0.959700   -1.165500
  O     -0.897600   -1.829500   -1.221900
  O      0.867600   -0.793000   -2.558900
  N     -0.100100    0.591400   -0.500000
  C     -0.283400    0.739800    0.946500
  C     -1.441800   -0.098700    1.413700
  C     -1.227800   -1.234400    2.208300
  C     -2.304800   -2.035700    2.592300
  C     -3.604100   -1.710100    2.193100
  F     -4.632200   -2.512300    2.572600
  C     -3.840700   -0.564600    1.409600
  C     -5.246100   -0.230700    0.971400
  F     -5.307300    1.002100    0.343200
  F     -5.693300   -1.198100    0.091000
  F     -6.085000   -0.199200    2.071400
  C     -2.747200    0.231100    1.015900
  C     -0.006500    1.759000   -1.326000
  N      0.942000    2.695500   -1.052900
  C      1.083800    3.820800   -1.801700
  C      0.246800    4.047200   -2.904900
  C      0.361900    5.315000   -3.710500
  F     -0.425700    6.293000   -3.132900
  F     -0.058600    5.106700   -5.012000
  F      1.673200    5.753500   -3.745900
  C     -0.765500    3.114200   -3.176800
  C     -0.894400    1.963000   -2.395300
  Cl    -2.204800    0.839900   -2.733300
  C      2.795300   -1.052600    0.012500
  C      3.782800   -1.616600    0.825100
  H      6.547300   -3.183500    3.092800
  H      2.125600   -4.448800    1.760000
  H      0.401700   -3.454600    0.335200
  H     -0.493200    1.802000    1.205000
  H      0.655900    0.460200    1.470900
  H     -0.228300   -1.505000    2.524100
  H     -2.130500   -2.915600    3.199200
  H     -2.899100    1.103100    0.392400
  H      1.849200    4.537600   -1.533500
  H     -1.461500    3.283400   -3.989100
  H      2.979400   -0.097700   -0.465100
  H      4.717000   -1.084900    0.955500

 Total Charge           Charge          ....    0
 Multiplicity           Mult            ....    1
 Number of Electrons    NEL             ....  280
 Basis Dimension        Dim             ....  536

ORBITAL ENERGIES
----------------

  NO   OCC          E(Eh)            E(eV)
   0   2.0000    -101.543624     -2763.1425
   1   2.0000     -89.111839     -2424.8564
   2   2.0000     -24.737472      -673.1408
   3   2.0000     -24.736130      -673.1043
   4   2.0000     -24.733450      -673.0314
   5   2.0000     -24.721998      -672.7198
   6   2.0000     -24.714289      -672.5100
   7   2.0000     -24.714203      -672.5076
   8   2.0000     -24.713019      -672.4754
   9   2.0000     -19.205722      -522.6143
  10   2.0000     -19.148255      -521.0505
  11   2.0000     -19.138355      -520.7811
  12   2.0000     -19.134516      -520.6767
  13   2.0000     -14.393063      -391.6552
  14   2.0000     -14.369346      -391.0098
  15   2.0000     -10.455195      -284.5003
  16   2.0000     -10.437343      -284.0146
  17   2.0000     -10.345858      -281.5251
  18   2.0000     -10.302209      -280.3374
  19   2.0000     -10.292920      -280.0846
  20   2.0000     -10.281247      -279.7670
  21   2.0000     -10.260260      -279.1959
  22   2.0000     -10.256229      -279.0862
  23   2.0000     -10.253457      -279.0108
  24   2.0000     -10.244886      -278.7775
  25   2.0000     -10.243723      -278.7459
  26   2.0000     -10.241820      -278.6941
  27   2.0000     -10.234228      -278.4875
  28   2.0000     -10.232518      -278.4410
  29   2.0000     -10.230114      -278.3756
  30   2.0000     -10.229727      -278.3650
  31   2.0000     -10.224746      -278.2295
  32   2.0000     -10.214598      -277.9533
  33   2.0000     -10.213697      -277.9288
  34   2.0000     -10.212252      -277.8895
  35   2.0000     -10.208026      -277.7745
  36   2.0000      -9.474628      -257.8177
  37   2.0000      -8.147641      -221.7086
  38   2.0000      -7.238128      -196.9595
  39   2.0000      -7.228206      -196.6895
  40   2.0000      -7.227565      -196.6720
  41   2.0000      -6.113068      -166.3450
  42   2.0000      -6.110401      -166.2725
  43   2.0000      -6.110108      -166.2645
  44   2.0000      -1.297011       -35.2935
  45   2.0000      -1.277862       -34.7724
  46   2.0000      -1.226411       -33.3723
  47   2.0000      -1.222169       -33.2569
  48   2.0000      -1.220800       -33.2197
  49   2.0000      -1.204003       -32.7626
  50   2.0000      -1.199892       -32.6507
  51   2.0000      -1.095934       -29.8219
  52   2.0000      -1.090194       -29.6657
  53   2.0000      -1.004638       -27.3376
  54   2.0000      -0.993724       -27.0406
  55   2.0000      -0.973072       -26.4786
  56   2.0000      -0.940555       -25.5938
  57   2.0000      -0.903668       -24.5901
  58   2.0000      -0.889228       -24.1971
  59   2.0000      -0.882712       -24.0198
  60   2.0000      -0.841801       -22.9066
  61   2.0000      -0.819926       -22.3113
  62   2.0000      -0.804193       -21.8832
  63   2.0000      -0.789635       -21.4871
  64   2.0000      -0.787308       -21.4237
  65   2.0000      -0.775652       -21.1066
  66   2.0000      -0.735658       -20.0183
  67   2.0000      -0.725164       -19.7327
  68   2.0000      -0.704470       -19.1696
  69   2.0000      -0.698760       -19.0142
  70   2.0000      -0.673050       -18.3146
  71   2.0000      -0.659537       -17.9469
  72   2.0000      -0.649831       -17.6828
  73   2.0000      -0.640159       -17.4196
  74   2.0000      -0.634860       -17.2754
  75   2.0000      -0.621290       -16.9061
  76   2.0000      -0.607985       -16.5441
  77   2.0000      -0.588489       -16.0136
  78   2.0000      -0.587692       -15.9919
  79   2.0000      -0.576909       -15.6985
  80   2.0000      -0.574607       -15.6358
  81   2.0000      -0.569434       -15.4951
  82   2.0000      -0.567234       -15.4352
  83   2.0000      -0.565646       -15.3920
  84   2.0000      -0.553227       -15.0541
  85   2.0000      -0.538873       -14.6635
  86   2.0000      -0.530514       -14.4360
  87   2.0000      -0.529420       -14.4063
  88   2.0000      -0.512408       -13.9433
  89   2.0000      -0.504850       -13.7377
  90   2.0000      -0.488901       -13.3037
  91   2.0000      -0.483839       -13.1659
  92   2.0000      -0.480198       -13.0668
  93   2.0000      -0.475020       -12.9259
  94   2.0000      -0.471767       -12.8374
  95   2.0000      -0.471019       -12.8171
  96   2.0000      -0.465693       -12.6722
  97   2.0000      -0.463894       -12.6232
  98   2.0000      -0.462525       -12.5859
  99   2.0000      -0.461402       -12.5554
 100   2.0000      -0.460153       -12.5214
 101   2.0000      -0.452816       -12.3217
 102   2.0000      -0.448190       -12.1959
 103   2.0000      -0.444945       -12.1076
 104   2.0000      -0.444167       -12.0864
 105   2.0000      -0.440909       -11.9977
 106   2.0000      -0.437672       -11.9097
 107   2.0000      -0.433695       -11.8014
 108   2.0000      -0.430628       -11.7180
 109   2.0000      -0.428002       -11.6465
 110   2.0000      -0.425471       -11.5777
 111   2.0000      -0.420204       -11.4343
 112   2.0000      -0.414809       -11.2875
 113   2.0000      -0.414105       -11.2684
 114   2.0000      -0.410552       -11.1717
 115   2.0000      -0.402246       -10.9457
 116   2.0000      -0.398504       -10.8438
 117   2.0000      -0.396263       -10.7829
 118   2.0000      -0.395445       -10.7606
 119   2.0000      -0.393802       -10.7159
 120   2.0000      -0.384532       -10.4637
 121   2.0000      -0.380061       -10.3420
 122   2.0000      -0.372846       -10.1457
 123   2.0000      -0.365266        -9.9394
 124   2.0000      -0.357390        -9.7251
 125   2.0000      -0.338880        -9.2214
 126   2.0000      -0.336345        -9.1524
 127   2.0000      -0.331225        -9.0131
 128   2.0000      -0.321622        -8.7518
 129   2.0000      -0.315877        -8.5954
 130   2.0000      -0.305225        -8.3056
 131   2.0000      -0.296280        -8.0622
 132   2.0000      -0.293000        -7.9729
 133   2.0000      -0.290336        -7.9004
 134   2.0000      -0.287256        -7.8166
 135   2.0000      -0.284485        -7.7412
 136   2.0000      -0.277334        -7.5466
 137   2.0000      -0.276935        -7.5358
 138   2.0000      -0.265338        -7.2202
 139   2.0000      -0.253398        -6.8953
 140   0.0000      -0.098622        -2.6837
 141   0.0000      -0.070804        -1.9267
 142   0.0000      -0.055508        -1.5105
 143   0.0000      -0.045630        -1.2417
 144   0.0000      -0.034163        -0.9296

MULLIKEN ATOMIC CHARGES
-----------------------
   0 O :   -0.440716
   1 C :    0.530865
   2 O :   -0.622946
   3 C :    0.083859
   4 C :   -0.142355
   5 C :   -0.147762
   6 C :   -0.135857
   7 S :    1.235985
   8 O :   -0.532270
   9 O :   -0.535328
  10 N :   -0.608558
  11 C :   -0.252765
  12 C :    0.159516
  13 C :   -0.153526
  14 C :   -0.203560
  15 C :    0.393384
  16 F :   -0.299220
  17 C :   -0.115172
  18 C :    0.920561
  19 F :   -0.305532
  20 F :   -0.293360
  21 F :   -0.300012
  22 C :   -0.163830
  23 C :    0.404477
  24 N :   -0.390761
  25 C :   -0.007629
  26 C :   -0.024557
  27 C :    0.904380
  28 F :   -0.291217
  29 F :   -0.298894
  30 F :   -0.300211
  31 C :   -0.130960
  32 C :   -0.085921
  33 Cl:    0.062438
  34 C :   -0.146528
  35 C :   -0.147255
  36 H :    0.437082
  37 H :    0.185523
  38 H :    0.200090
  39 H :    0.193248
  40 H :    0.164455
  41 H :    0.144212
  42 H :    0.155256
  43 H :    0.162017
  44 H :    0.180986
  45 H :    0.192915
  46 H :    0.187283
  47 H :    0.178169
Sum of atomic charges:   -0.0000000

LOEWDIN ATOMIC CHARGES
----------------------
   0 O :   -0.256891
   1 C :    0.180698
   2 O :   -0.333553
   3 C :   -0.035824
   4 C :   -0.087418
   5 C :   -0.100394
   6 C :   -0.177209
   7 S :    1.267294
   8 O :   -0.558414
   9 O :   -0.563744
  10 N :   -0.282051
  11 C :   -0.145645
  12 C :   -0.041209
  13 C :   -0.113843
  14 C :   -0.149556
  15 C :    0.140300
  16 F :   -0.091678
  17 C :   -0.089464
  18 C :    0.315591
  19 F :   -0.111410
  20 F :   -0.108085
  21 F :   -0.111784
  22 C :   -0.090382
  23 C :    0.056477
  24 N :   -0.125421
  25 C :   -0.051448
  26 C :   -0.075241
  27 C :    0.312072
  28 F :   -0.108729
  29 F :   -0.107506
  30 F :   -0.107608
  31 C :   -0.086838
  32 C :   -0.086678
  33 Cl:    0.088452
  34 C :   -0.103017
  35 C :   -0.097839
  36 H :    0.351837
  37 H :    0.162754
  38 H :    0.167798
  39 H :    0.155776
  40 H :    0.129535
  41 H :    0.138567
  42 H :    0.149362
  43 H :    0.149509
  44 H :    0.151030
  45 H :    0.165120
  46 H :    0.159469
  47 H :    0.157239

  Mayer bond orders larger than 0.100000
B(  0-O ,  1-C ) :   1.8641 B(  1-C ,  2-O ) :   1.0278 B(  1-C ,  3-C ) :   1.0060
B(  2-O , 36-H ) :   0.7400 B(  3-C ,  4-C ) :   1.4017 B(  3-C , 35-C ) :   1.3843
B(  4-C ,  5-C ) :   1.4108 B(  4-C , 37-H ) :   0.9084 B(  5-C ,  6-C ) :   1.3905
B(  5-C , 38-H ) :   0.9037 B(  6-C ,  7-S ) :   0.8102 B(  6-C , 34-C ) :   1.3801
B(  7-S ,  8-O ) :   1.6377 B(  7-S ,  9-O ) :   1.6532 B(  7-S , 10-N ) :   0.7643
B( 10-N , 11-C ) :   0.9129 B( 10-N , 23-C ) :   0.9438 B( 11-C , 12-C ) :   0.9516
B( 11-C , 39-H ) :   0.9176 B( 11-C , 40-H ) :   0.9220 B( 12-C , 13-C ) :   1.4385
B( 12-C , 22-C ) :   1.3973 B( 13-C , 14-C ) :   1.4135 B( 13-C , 41-H ) :   0.9163
B( 14-C , 15-C ) :   1.3958 B( 14-C , 42-H ) :   0.9172 B( 15-C , 16-F ) :   0.9561
B( 15-C , 17-C ) :   1.3190 B( 17-C , 18-C ) :   0.9638 B( 17-C , 22-C ) :   1.4179
B( 18-C , 19-F ) :   0.9450 B( 18-C , 20-F ) :   0.9837 B( 18-C , 21-F ) :   0.9645
B( 22-C , 43-H ) :   0.9092 B( 23-C , 24-N ) :   1.3844 B( 23-C , 32-C ) :   1.3389
B( 24-N , 25-C ) :   1.4083 B( 25-C , 26-C ) :   1.3646 B( 25-C , 44-H ) :   0.9182
B( 26-C , 27-C ) :   0.9726 B( 26-C , 31-C ) :   1.4079 B( 27-C , 28-F ) :   0.9900
B( 27-C , 29-F ) :   0.9535 B( 27-C , 30-F ) :   0.9511 B( 31-C , 32-C ) :   1.3897
B( 31-C , 45-H ) :   0.9070 B( 32-C , 33-Cl) :   1.0842 B( 34-C , 35-C ) :   1.4245
B( 34-C , 46-H ) :   0.9091 B( 35-C , 47-H ) :   0.9134

FINAL SINGLE POINT ENERGY     -2773.935599798748

DIPOLE MOMENT
-------------

Method             : SCF
Type of density    : Electron Density
Multiplicity       :   1
Irrep              :   0
Energy             : -2773.9355997987477167 Eh
Relativity type    :
Basis              : AO
                                X                 Y                 Z
Electronic contribution:    -32.957735679      21.329579487     -18.159062308
Nuclear contribution   :     35.182705278     -20.385822086      19.708820367
                        -----------------------------------------
Total Dipole Moment    :      2.224969599       0.943757401       1.549758059
                        -----------------------------------------
Magnitude (a.u.)       :      2.871048204
Magnitude (Debye)      :      7.297624583

Rotational constants in cm-1:             0.003010             0.002363             0.001462
Rotational constants in MHz :            90.225177            70.852168            43.821467

                             ****ORCA TERMINATED NORMALLY****
TOTAL RUN TIME: 0 days 0 hours 6 minutes 47 seconds 568 msec
