                         Program Version 6.0.0  -   RELEASE  -
|  1> ! B3LYP 6-31G* SP
|  2>
|  3> * xyz 0 1
|  4> C -0.1813 0.1739 -1.7985
|  5> C -1.3389 0.2061 -0.8227
|  6> C -1.2678 -0.5141 0.3824
|  7> N -0.1355 -1.3318 0.7041
|  8> C 0.7599 -0.9242 1.7883
|  9> C 1.5121 0.3162 1.3929
| 10> C 1.0358 1.5826 1.7626
| 11> C 1.7011 2.7361 1.3400
| 12> C 2.8397 2.6462 0.5303
| 13> O 3.4709 3.8383 0.1377
| 14> C 4.6182 3.9229 -0.7048
| 15> F 5.6871 3.2614 -0.1263
| 16> F 4.9554 5.2529 -0.8704
| 17> F 4.3395 3.3739 -1.9444
| 18> C 3.3076 1.3744 0.1451
| 19> C 2.6467 0.2202 0.5746
| 20> S -0.0591 -2.9509 0.0781
| 21> O -0.4837 -3.9198 1.1469
| 22> O -0.9956 -3.0921 -1.0909
| 23> C 1.5797 -3.3212 -0.4518
| 24> C 2.4932 -3.9007 0.4379
| 25> C 3.7975 -4.1842 0.0244
| 26> C 4.2075 -3.8943 -1.2893
| 27> C 5.5837 -4.2037 -1.7359
| 28> O 6.4036 -4.7473 -0.9470
| 29> O 5.9863 -3.8994 -3.0342
| 30> C 3.2869 -3.3101 -2.1766
| 31> C 1.9827 -3.0274 -1.7603
| 32> N -2.2481 -0.3811 1.3037
| 33> C -3.3592 0.3738 1.1215
| 34> C -4.2580 0.5310 2.3245
| 35> C -3.5086 0.7262 3.6434
| 36> C -4.2192 1.8972 3.0013
| 37> C -3.5803 1.0039 -0.1412
| 38> C -4.8000 1.6613 -0.5140
| 39> C -6.0901 1.5535 0.2616
| 40> C -4.8538 2.3898 -1.7130
| 41> C -3.7760 2.4150 -2.5837
| 42> C -2.6274 1.6931 -2.2953
| 43> C -2.5078 0.9673 -1.0906
| 44> H 0.6797 -0.4153 -1.4307
| 45> H 0.1912 1.2062 -1.9707
| 46> H -0.5114 -0.2739 -2.7602
| 47> H 0.1688 -0.7451 2.7133
| 48> H 1.4812 -1.7338 2.0275
| 49> H 0.1464 1.6773 2.3730
| 50> H 1.3271 3.7067 1.6392
| 51> H 4.1802 1.2624 -0.4834
| 52> H 3.0127 -0.7491 0.2597
| 53> H 2.1980 -4.1314 1.4537
| 54> H 4.4828 -4.6317 0.7327
| 55> H 6.9252 -4.1107 -3.3504
| 56> H 3.5704 -3.0754 -3.1945
| 57> H 1.2884 -2.5819 -2.4612
| 58> H -5.1606 -0.1031 2.4452
| 59> H -4.0305 0.3362 4.5423
| 60> H -2.4024 0.8236 3.6023
| 61> H -5.1639 2.1843 3.5096
| 62> H -3.5375 2.6451 2.5409
| 63> H -6.2820 0.4995 0.5490
| 64> H -6.9641 1.8635 -0.3529
| 65> H -6.0700 2.2213 1.1434
| 66> H -5.7532 2.9238 -1.9965
| 67> H -3.8448 2.9720 -3.5096
| 68> H -1.8363 1.7147 -3.0324
| 69> *
| 70>
| 71>                          ****END OF INPUT****

CARTESIAN COORDINATES (ANGSTROEM)
---------------------------------
  C     -0.181300    0.173900   -1.798500
  C     -1.338900    0.206100   -0.822700
  C     -1.267800   -0.514100    0.382400
  N     -0.135500   -1.331800    0.704100
  C      0.759900   -0.924200    1.788300
  C      1.512100    0.316200    1.392900
  C      1.035800    1.582600    1.762600
  C      1.701100    2.736100    1.340000
  C      2.839700    2.646200    0.530300
  O      3.470900    3.838300    0.137700
  C      4.618200    3.922900   -0.704800
  F      5.687100    3.261400   -0.126300
  F      4.955400    5.252900   -0.870400
  F      4.339500    3.373900   -1.944400
  C      3.307600    1.374400    0.145100
  C      2.646700    0.220200    0.574600
  S     -0.059100   -2.950900    0.078100
  O     -0.483700   -3.919800    1.146900
  O     -0.995600   -3.092100   -1.090900
  C      1.579700   -3.321200   -0.451800
  C      2.493200   -3.900700    0.437900
  C      3.797500   -4.184200    0.024400
  C      4.207500   -3.894300   -1.289300
  C      5.583700   -4.203700   -1.735900
  O      6.403600   -4.747300   -0.947000
  O      5.986300   -3.899400   -3.034200
  C      3.286900   -3.310100   -2.176600
  C      1.982700   -3.027400   -1.760300
  N     -2.248100   -0.381100    1.303700
  C     -3.359200    0.373800    1.121500
  C     -4.258000    0.531000    2.324500
  C     -3.508600    0.726200    3.643400
  C     -4.219200    1.897200    3.001300
  C     -3.580300    1.003900   -0.141200
  C     -4.800000    1.661300   -0.514000
  C     -6.090100    1.553500    0.261600
  C     -4.853800    2.389800   -1.713000
  C     -3.776000    2.415000   -2.583700
  C     -2.627400    1.693100   -2.295300
  C     -2.507800    0.967300   -1.090600
  H      0.679700   -0.415300   -1.430700
  H      0.191200    1.206200   -1.970700
  H     -0.511400   -0.273900   -2.760200
  H      0.168800   -0.745100    2.713300
  H      1.481200   -1.733800    2.027500
  H      0.146400    1.677300    2.373000
  H      1.327100    3.706700    1.639200
  H      4.180200    1.262400   -0.483400
  H      3.012700   -0.749100    0.259700
  H      2.198000   -4.131400    1.453700
  H      4.482800   -4.631700    0.732700
  H      6.925200   -4.110700   -3.350400
  H      3.570400   -3.075400   -3.194500
  H      1.288400   -2.581900   -2.461200
  H     -5.160600   -0.103100    2.445200
  H     -4.030500    0.336200    4.542300
  H     -2.402400    0.823600    3.602300
  H     -5.163900    2.184300    3.509600
  H     -3.537500    2.645100    2.540900
  H     -6.282000    0.499500    0.549000
  H     -6.964100    1.863500   -0.352900
  H     -6.070000    2.221300    1.143400
  H     -5.753200    2.923800   -1.996500
  H     -3.844800    2.972000   -3.509600
  H     -1.836300    1.714700   -3.032400

 Total Charge           Charge          ....    0
 Multiplicity           Mult            ....    1
 Number of Electrons    NEL             ....  296
 Basis Dimension        Dim             ....  614

ORBITAL ENERGIES
----------------

  NO   OCC          E(Eh)            E(eV)
   0   2.0000     -89.095451     -2424.4105
   1   2.0000     -24.744782      -673.3398
   2   2.0000     -24.743007      -673.2914
   3   2.0000     -24.742773      -673.2851
   4   2.0000     -19.217016      -522.9216
   5   2.0000     -19.200730      -522.4784
   6   2.0000     -19.142930      -520.9056
   7   2.0000     -19.123856      -520.3866
   8   2.0000     -19.119018      -520.2549
   9   2.0000     -14.367427      -390.9576
  10   2.0000     -14.322076      -389.7235
  11   2.0000     -10.507980      -285.9367
  12   2.0000     -10.340397      -281.3765
  13   2.0000     -10.273577      -279.5582
  14   2.0000     -10.251256      -278.9509
  15   2.0000     -10.248060      -278.8639
  16   2.0000     -10.238350      -278.5997
  17   2.0000     -10.233288      -278.4619
  18   2.0000     -10.230485      -278.3857
  19   2.0000     -10.226288      -278.2714
  20   2.0000     -10.225729      -278.2562
  21   2.0000     -10.223379      -278.1923
  22   2.0000     -10.223304      -278.1902
  23   2.0000     -10.202907      -277.6352
  24   2.0000     -10.201868      -277.6069
  25   2.0000     -10.201692      -277.6021
  26   2.0000     -10.201504      -277.5970
  27   2.0000     -10.201265      -277.5905
  28   2.0000     -10.200650      -277.5738
  29   2.0000     -10.200473      -277.5690
  30   2.0000     -10.200317      -277.5647
  31   2.0000     -10.199473      -277.5418
  32   2.0000     -10.192777      -277.3596
  33   2.0000     -10.187392      -277.2130
  34   2.0000     -10.185258      -277.1550
  35   2.0000     -10.184793      -277.1423
  36   2.0000     -10.184435      -277.1326
  37   2.0000     -10.178485      -276.9707
  38   2.0000     -10.178161      -276.9618
  39   2.0000     -10.178040      -276.9585
  40   2.0000      -8.131317      -221.2644
  41   2.0000      -6.096249      -165.8874
  42   2.0000      -6.094446      -165.8383
  43   2.0000      -6.093917      -165.8239
  44   2.0000      -1.307671       -35.5835
  45   2.0000      -1.228627       -33.4327
  46   2.0000      -1.227940       -33.4139
  47   2.0000      -1.086778       -29.5727
  48   2.0000      -1.085349       -29.5338
  49   2.0000      -1.079863       -29.3846
  50   2.0000      -0.999743       -27.2044
  51   2.0000      -0.959329       -26.1047
  52   2.0000      -0.957878       -26.0652
  53   2.0000      -0.912793       -24.8384
  54   2.0000      -0.896193       -24.3866
  55   2.0000      -0.869089       -23.6491
  56   2.0000      -0.859071       -23.3765
  57   2.0000      -0.849630       -23.1196
  58   2.0000      -0.812093       -22.0982
  59   2.0000      -0.803748       -21.8711
  60   2.0000      -0.788404       -21.4536
  61   2.0000      -0.782651       -21.2970
  62   2.0000      -0.769784       -20.9469
  63   2.0000      -0.763799       -20.7840
  64   2.0000      -0.754180       -20.5223
  65   2.0000      -0.730121       -19.8676
  66   2.0000      -0.713981       -19.4284
  67   2.0000      -0.696645       -18.9567
  68   2.0000      -0.687228       -18.7004
  69   2.0000      -0.679755       -18.4971
  70   2.0000      -0.655435       -17.8353
  71   2.0000      -0.642890       -17.4939
  72   2.0000      -0.638029       -17.3617
  73   2.0000      -0.634979       -17.2787
  74   2.0000      -0.627203       -17.0670
  75   2.0000      -0.617052       -16.7908
  76   2.0000      -0.604526       -16.4500
  77   2.0000      -0.599998       -16.3268
  78   2.0000      -0.596014       -16.2184
  79   2.0000      -0.586575       -15.9615
  80   2.0000      -0.581772       -15.8308
  81   2.0000      -0.577789       -15.7224
  82   2.0000      -0.560321       -15.2471
  83   2.0000      -0.555202       -15.1078
  84   2.0000      -0.541316       -14.7300
  85   2.0000      -0.524083       -14.2610
  86   2.0000      -0.517881       -14.0923
  87   2.0000      -0.505959       -13.7679
  88   2.0000      -0.498396       -13.5620
  89   2.0000      -0.495482       -13.4827
  90   2.0000      -0.492068       -13.3899
  91   2.0000      -0.481307       -13.0970
  92   2.0000      -0.479237       -13.0407
  93   2.0000      -0.476241       -12.9592
  94   2.0000      -0.473615       -12.8877
  95   2.0000      -0.472284       -12.8515
  96   2.0000      -0.466333       -12.6896
  97   2.0000      -0.464748       -12.6464
  98   2.0000      -0.463906       -12.6235
  99   2.0000      -0.455088       -12.3836
 100   2.0000      -0.453417       -12.3381
 101   2.0000      -0.449228       -12.2241
 102   2.0000      -0.447199       -12.1689
 103   2.0000      -0.443794       -12.0763
 104   2.0000      -0.442021       -12.0280
 105   2.0000      -0.439892       -11.9701
 106   2.0000      -0.433464       -11.7952
 107   2.0000      -0.430682       -11.7194
 108   2.0000      -0.425728       -11.5847
 109   2.0000      -0.420352       -11.4384
 110   2.0000      -0.419971       -11.4280
 111   2.0000      -0.417924       -11.3723
 112   2.0000      -0.417083       -11.3494
 113   2.0000      -0.413484       -11.2515
 114   2.0000      -0.410097       -11.1593
 115   2.0000      -0.405145       -11.0246
 116   2.0000      -0.398386       -10.8406
 117   2.0000      -0.390836       -10.6352
 118   2.0000      -0.389419       -10.5966
 119   2.0000      -0.385483       -10.4895
 120   2.0000      -0.382539       -10.4094
 121   2.0000      -0.379657       -10.3310
 122   2.0000      -0.377588       -10.2747
 123   2.0000      -0.373492       -10.1632
 124   2.0000      -0.372388       -10.1332
 125   2.0000      -0.364181        -9.9099
 126   2.0000      -0.353712        -9.6250
 127   2.0000      -0.351984        -9.5780
 128   2.0000      -0.350034        -9.5249
 129   2.0000      -0.347022        -9.4429
 130   2.0000      -0.336351        -9.1526
 131   2.0000      -0.325734        -8.8637
 132   2.0000      -0.321842        -8.7578
 133   2.0000      -0.308149        -8.3852
 134   2.0000      -0.296785        -8.0759
 135   2.0000      -0.293564        -7.9883
 136   2.0000      -0.288753        -7.8574
 137   2.0000      -0.283248        -7.7076
 138   2.0000      -0.279381        -7.6024
 139   2.0000      -0.278997        -7.5919
 140   2.0000      -0.271709        -7.3936
 141   2.0000      -0.270092        -7.3496
 142   2.0000      -0.266376        -7.2485
 143   2.0000      -0.262976        -7.1559
 144   2.0000      -0.252333        -6.8663
 145   2.0000      -0.244449        -6.6518
 146   2.0000      -0.237108        -6.4520
 147   2.0000      -0.209703        -5.7063
 148   0.0000      -0.089160        -2.4262
 149   0.0000      -0.055097        -1.4993
 150   0.0000      -0.038991        -1.0610
 151   0.0000      -0.029092        -0.7916
 152   0.0000      -0.017979        -0.4892

MULLIKEN ATOMIC CHARGES
-----------------------
   0 C :   -0.539462
   1 C :    0.128190
   2 C :    0.319690
   3 N :   -0.613368
   4 C :   -0.246403
   5 C :    0.168567
   6 C :   -0.166037
   7 C :   -0.172284
   8 C :    0.352249
   9 O :   -0.544988
  10 C :    1.086572
  11 F :   -0.290865
  12 F :   -0.278638
  13 F :   -0.292597
  14 C :   -0.190626
  15 C :   -0.175173
  16 S :    1.204145
  17 O :   -0.527851
  18 O :   -0.550358
  19 C :   -0.137989
  20 C :   -0.151055
  21 C :   -0.140447
  22 C :    0.082774
  23 C :    0.529548
  24 O :   -0.441507
  25 O :   -0.623378
  26 C :   -0.150756
  27 C :   -0.140934
  28 N :   -0.405930
  29 C :    0.142575
  30 C :   -0.151016
  31 C :   -0.297902
  32 C :   -0.303585
  33 C :    0.065786
  34 C :    0.099591
  35 C :   -0.525088
  36 C :   -0.177554
  37 C :   -0.111897
  38 C :   -0.202200
  39 C :    0.117083
  40 H :    0.161063
  41 H :    0.159719
  42 H :    0.167909
  43 H :    0.185222
  44 H :    0.164434
  45 H :    0.149125
  46 H :    0.150338
  47 H :    0.152914
  48 H :    0.141833
  49 H :    0.189661
  50 H :    0.183891
  51 H :    0.435867
  52 H :    0.175783
  53 H :    0.188334
  54 H :    0.165570
  55 H :    0.146250
  56 H :    0.155005
  57 H :    0.145824
  58 H :    0.153415
  59 H :    0.161872
  60 H :    0.151071
  61 H :    0.174608
  62 H :    0.128051
  63 H :    0.131714
  64 H :    0.133645
Sum of atomic charges:    0.0000000

LOEWDIN ATOMIC CHARGES
----------------------
   0 C :   -0.359779
   1 C :   -0.002559
   2 C :    0.028002
   3 N :   -0.279985
   4 C :   -0.145587
   5 C :   -0.036866
   6 C :   -0.119849
   7 C :   -0.140090
   8 C :    0.086799
   9 O :   -0.159796
  10 C :    0.360192
  11 F :   -0.104617
  12 F :   -0.087319
  13 F :   -0.106187
  14 C :   -0.158995
  15 C :   -0.121709
  16 S :    1.259583
  17 O :   -0.568463
  18 O :   -0.573678
  19 C :   -0.176362
  20 C :   -0.109018
  21 C :   -0.086738
  22 C :   -0.038401
  23 C :    0.180113
  24 O :   -0.257889
  25 O :   -0.334161
  26 C :   -0.099965
  27 C :   -0.102808
  28 N :   -0.120370
  29 C :    0.041905
  30 C :   -0.141222
  31 C :   -0.239799
  32 C :   -0.253400
  33 C :   -0.026114
  34 C :    0.001858
  35 C :   -0.352405
  36 C :   -0.134434
  37 C :   -0.119261
  38 C :   -0.131626
  39 C :   -0.002597
  40 H :    0.134264
  41 H :    0.135339
  42 H :    0.139427
  43 H :    0.140901
  44 H :    0.139177
  45 H :    0.141000
  46 H :    0.146004
  47 H :    0.142105
  48 H :    0.138436
  49 H :    0.161183
  50 H :    0.161967
  51 H :    0.350976
  52 H :    0.156124
  53 H :    0.161140
  54 H :    0.142932
  55 H :    0.132136
  56 H :    0.134089
  57 H :    0.129651
  58 H :    0.134309
  59 H :    0.137141
  60 H :    0.128453
  61 H :    0.143486
  62 H :    0.132270
  63 H :    0.133853
  64 H :    0.137234

  Mayer bond orders larger than 0.100000
B(  0-C ,  1-C ) :   1.0058 B(  0-C , 40-H ) :   0.9219 B(  0-C , 41-H ) :   0.9263
B(  0-C , 42-H ) :   0.9231 B(  1-C ,  2-C ) :   1.4349 B(  1-C , 39-C ) :   1.2626
B(  2-C ,  3-N ) :   0.8702 B(  2-C , 28-N ) :   1.2882 B(  3-N ,  4-C ) :   0.9205
B(  3-N , 16-S ) :   0.8113 B(  4-C ,  5-C ) :   0.9454 B(  4-C , 43-H ) :   0.9157
B(  4-C , 44-H ) :   0.9215 B(  5-C ,  6-C ) :   1.4399 B(  5-C , 15-C ) :   1.4197
B(  6-C ,  7-C ) :   1.4298 B(  6-C , 45-H ) :   0.9175 B(  7-C ,  8-C ) :   1.4225
B(  7-C , 46-H ) :   0.9179 B(  8-C ,  9-O ) :   0.8245 B(  8-C , 14-C ) :   1.3873
B(  9-O , 10-C ) :   0.9907 B( 10-C , 11-F ) :   0.9678 B( 10-C , 12-F ) :   1.0084
B( 10-C , 13-F ) :   0.9679 B( 14-C , 15-C ) :   1.4379 B( 14-C , 47-H ) :   0.9095
B( 15-C , 48-H ) :   0.9182 B( 16-S , 17-O ) :   1.6704 B( 16-S , 18-O ) :   1.6134
B( 16-S , 19-C ) :   0.8074 B( 19-C , 20-C ) :   1.3788 B( 19-C , 27-C ) :   1.3955
B( 20-C , 21-C ) :   1.4163 B( 20-C , 49-H ) :   0.9072 B( 21-C , 22-C ) :   1.4029
B( 21-C , 50-H ) :   0.9087 B( 22-C , 23-C ) :   1.0068 B( 22-C , 26-C ) :   1.3821
B( 23-C , 24-O ) :   1.8644 B( 23-C , 25-O ) :   1.0265 B( 25-O , 51-H ) :   0.7407
B( 26-C , 27-C ) :   1.4158 B( 26-C , 52-H ) :   0.9142 B( 27-C , 53-H ) :   0.9065
B( 28-N , 29-C ) :   1.4528 B( 29-C , 30-C ) :   1.0122 B( 29-C , 33-C ) :   1.2184
B( 30-C , 31-C ) :   0.9485 B( 30-C , 32-C ) :   0.9338 B( 30-C , 54-H ) :   0.9170
B( 31-C , 32-C ) :   0.9611 B( 31-C , 55-H ) :   0.9443 B( 31-C , 56-H ) :   0.9370
B( 32-C , 57-H ) :   0.9409 B( 32-C , 58-H ) :   0.9430 B( 33-C , 34-C ) :   1.2696
B( 33-C , 39-C ) :   1.2596 B( 34-C , 35-C ) :   0.9970 B( 34-C , 36-C ) :   1.4971
B( 34-C , 38-C ) :   0.1013 B( 35-C , 59-H ) :   0.9345 B( 35-C , 60-H ) :   0.9419
B( 35-C , 61-H ) :   0.9202 B( 36-C , 37-C ) :   1.3521 B( 36-C , 62-H ) :   0.9238
B( 37-C , 38-C ) :   1.5090 B( 37-C , 63-H ) :   0.9282 B( 38-C , 39-C ) :   1.2918
B( 38-C , 64-H ) :   0.9164

FINAL SINGLE POINT ENERGY     -2302.201313283468

DIPOLE MOMENT
-------------

Method             : SCF
Type of density    : Electron Density
Multiplicity       :   1
Irrep              :   0
Energy             : -2302.2013132834681528 Eh
Relativity type    :
Basis              : AO
                                X                 Y                 Z
Electronic contribution:     49.059072999       7.103573417     -11.200664037
Nuclear contribution   :    -48.658446638      -5.482113328      10.446265178
                        -----------------------------------------
Total Dipole Moment    :      0.400626361       1.621460089      -0.754398859
                        -----------------------------------------
Magnitude (a.u.)       :      1.832689810
Magnitude (Debye)      :      4.658327293

Rotational constants in cm-1:             0.003125             0.001955             0.001441
Rotational constants in MHz :            93.674841            58.604742            43.198300

                             ****ORCA TERMINATED NORMALLY****
TOTAL RUN TIME: 0 days 0 hours 9 minutes 19 seconds 887 msec
