                         Program Version 6.0.0  -   RELEASE  -
|  1> ! B3LYP 6-31G* SP
|  2>
|  3> * xyz 0 1
|  4> C -4.4814 -2.5732 0.3373
|  5> C -3.2264 -2.2930 -0.4964
|  6> N -2.5513 -1.0976 0.0171
|  7> C -1.8540 -0.1780 -0.8393
|  8> O -1.8776 -0.3410 -2.0899
|  9> N -1.0817 0.9019 -0.2801
| 10> C -1.4953 1.5211 0.9837
| 11> C -1.2880 3.0288 0.9188
| 12> C 0.1086 3.3689 0.4816
| 13> C 0.6688 4.5985 0.8649
| 14> C 1.9326 4.9737 0.4052
| 15> C 2.6394 4.1361 -0.4575
| 16> C 2.0863 2.9189 -0.8601
| 17> C 0.8222 2.5163 -0.3905
| 18> C 0.2499 1.1834 -0.8488
| 19> C 1.1873 0.0372 -0.5165
| 20> C 1.5203 -0.9058 -1.5022
| 21> C 2.3377 -1.9963 -1.1934
| 22> C 2.8180 -2.1798 0.1140
| 23> C 3.7370 -3.3313 0.4354
| 24> F 3.6028 -3.7091 1.7603
| 25> F 3.4434 -4.4268 -0.3581
| 26> F 5.0449 -2.9469 0.2069
| 27> C 2.5011 -1.2260 1.0958
| 28> C 1.6823 -0.1366 0.7876
| 29> C -2.2602 -3.4884 -0.4798
| 30> F -2.8868 -4.6142 -0.9844
| 31> F -1.8336 -3.7486 0.8112
| 32> F -1.1564 -3.2100 -1.2663
| 33> H -4.2146 -2.7791 1.3960
| 34> H -5.1560 -1.6912 0.3068
| 35> H -5.0324 -3.4459 -0.0729
| 36> H -3.5579 -2.1206 -1.5443
| 37> H -2.3954 -1.0323 1.0484
| 38> H -2.5735 1.3331 1.1801
| 39> H -0.9082 1.0896 1.8221
| 40> H -1.4974 3.4610 1.9218
| 41> H -2.0054 3.4685 0.1926
| 42> H 0.1226 5.2709 1.5150
| 43> H 2.3593 5.9209 0.7091
| 44> H 3.6151 4.4328 -0.8199
| 45> H 2.6452 2.2849 -1.5375
| 46> H 0.1438 1.2709 -1.9533
| 47> H 1.1453 -0.7997 -2.5125
| 48> H 2.5916 -2.6987 -1.9774
| 49> H 2.8851 -1.3237 2.1035
| 50> H 1.4427 0.5763 1.5657
| 51> *
| 52>
| 53>                          ****END OF INPUT****

CARTESIAN COORDINATES (ANGSTROEM)
---------------------------------
  C     -4.481400   -2.573200    0.337300
  C     -3.226400   -2.293000   -0.496400
  N     -2.551300   -1.097600    0.017100
  C     -1.854000   -0.178000   -0.839300
  O     -1.877600   -0.341000   -2.089900
  N     -1.081700    0.901900   -0.280100
  C     -1.495300    1.521100    0.983700
  C     -1.288000    3.028800    0.918800
  C      0.108600    3.368900    0.481600
  C      0.668800    4.598500    0.864900
  C      1.932600    4.973700    0.405200
  C      2.639400    4.136100   -0.457500
  C      2.086300    2.918900   -0.860100
  C      0.822200    2.516300   -0.390500
  C      0.249900    1.183400   -0.848800
  C      1.187300    0.037200   -0.516500
  C      1.520300   -0.905800   -1.502200
  C      2.337700   -1.996300   -1.193400
  C      2.818000   -2.179800    0.114000
  C      3.737000   -3.331300    0.435400
  F      3.602800   -3.709100    1.760300
  F      3.443400   -4.426800   -0.358100
  F      5.044900   -2.946900    0.206900
  C      2.501100   -1.226000    1.095800
  C      1.682300   -0.136600    0.787600
  C     -2.260200   -3.488400   -0.479800
  F     -2.886800   -4.614200   -0.984400
  F     -1.833600   -3.748600    0.811200
  F     -1.156400   -3.210000   -1.266300
  H     -4.214600   -2.779100    1.396000
  H     -5.156000   -1.691200    0.306800
  H     -5.032400   -3.445900   -0.072900
  H     -3.557900   -2.120600   -1.544300
  H     -2.395400   -1.032300    1.048400
  H     -2.573500    1.333100    1.180100
  H     -0.908200    1.089600    1.822100
  H     -1.497400    3.461000    1.921800
  H     -2.005400    3.468500    0.192600
  H      0.122600    5.270900    1.515000
  H      2.359300    5.920900    0.709100
  H      3.615100    4.432800   -0.819900
  H      2.645200    2.284900   -1.537500
  H      0.143800    1.270900   -1.953300
  H      1.145300   -0.799700   -2.512500
  H      2.591600   -2.698700   -1.977400
  H      2.885100   -1.323700    2.103500
  H      1.442700    0.576300    1.565700

 Total Charge           Charge          ....    0
 Multiplicity           Mult            ....    1
 Number of Electrons    NEL             ....  214
 Basis Dimension        Dim             ....  442

ORBITAL ENERGIES
----------------

  NO   OCC          E(Eh)            E(eV)
   0   2.0000     -24.719804      -672.6601
   1   2.0000     -24.718392      -672.6216
   2   2.0000     -24.712283      -672.4554
   3   2.0000     -24.711365      -672.4304
   4   2.0000     -24.709829      -672.3886
   5   2.0000     -24.708324      -672.3477
   6   2.0000     -19.106545      -519.9155
   7   2.0000     -14.366743      -390.9390
   8   2.0000     -14.353991      -390.5920
   9   2.0000     -10.427506      -283.7469
  10   2.0000     -10.426909      -283.7306
  11   2.0000     -10.319479      -280.8073
  12   2.0000     -10.250114      -278.9198
  13   2.0000     -10.235541      -278.5232
  14   2.0000     -10.229898      -278.3697
  15   2.0000     -10.206090      -277.7218
  16   2.0000     -10.200072      -277.5581
  17   2.0000     -10.199754      -277.5494
  18   2.0000     -10.196713      -277.4667
  19   2.0000     -10.196569      -277.4627
  20   2.0000     -10.195423      -277.4316
  21   2.0000     -10.194420      -277.4043
  22   2.0000     -10.193858      -277.3890
  23   2.0000     -10.191741      -277.3314
  24   2.0000     -10.188392      -277.2402
  25   2.0000     -10.187118      -277.2056
  26   2.0000     -10.185580      -277.1637
  27   2.0000     -10.184765      -277.1415
  28   2.0000     -10.184337      -277.1299
  29   2.0000      -1.276102       -34.7245
  30   2.0000      -1.271779       -34.6069
  31   2.0000      -1.204629       -32.7796
  32   2.0000      -1.197566       -32.5874
  33   2.0000      -1.197320       -32.5807
  34   2.0000      -1.196091       -32.5473
  35   2.0000      -1.021817       -27.8050
  36   2.0000      -0.933234       -25.3946
  37   2.0000      -0.917828       -24.9754
  38   2.0000      -0.865346       -23.5473
  39   2.0000      -0.857144       -23.3241
  40   2.0000      -0.805417       -21.9165
  41   2.0000      -0.791218       -21.5301
  42   2.0000      -0.776051       -21.1174
  43   2.0000      -0.758674       -20.6446
  44   2.0000      -0.752848       -20.4860
  45   2.0000      -0.735630       -20.0175
  46   2.0000      -0.699600       -19.0371
  47   2.0000      -0.696953       -18.9651
  48   2.0000      -0.666171       -18.1274
  49   2.0000      -0.646881       -17.6025
  50   2.0000      -0.630454       -17.1555
  51   2.0000      -0.619858       -16.8672
  52   2.0000      -0.612419       -16.6648
  53   2.0000      -0.595248       -16.1975
  54   2.0000      -0.592573       -16.1247
  55   2.0000      -0.570370       -15.5206
  56   2.0000      -0.565337       -15.3836
  57   2.0000      -0.562724       -15.3125
  58   2.0000      -0.559551       -15.2262
  59   2.0000      -0.555902       -15.1269
  60   2.0000      -0.553448       -15.0601
  61   2.0000      -0.547395       -14.8954
  62   2.0000      -0.528004       -14.3677
  63   2.0000      -0.507636       -13.8135
  64   2.0000      -0.493605       -13.4317
  65   2.0000      -0.485590       -13.2136
  66   2.0000      -0.477068       -12.9817
  67   2.0000      -0.468460       -12.7474
  68   2.0000      -0.461571       -12.5600
  69   2.0000      -0.454569       -12.3694
  70   2.0000      -0.447145       -12.1674
  71   2.0000      -0.444469       -12.0946
  72   2.0000      -0.443627       -12.0717
  73   2.0000      -0.440401       -11.9839
  74   2.0000      -0.437724       -11.9111
  75   2.0000      -0.437564       -11.9067
  76   2.0000      -0.429332       -11.6827
  77   2.0000      -0.426745       -11.6123
  78   2.0000      -0.419182       -11.4065
  79   2.0000      -0.414571       -11.2810
  80   2.0000      -0.413593       -11.2544
  81   2.0000      -0.412627       -11.2282
  82   2.0000      -0.410728       -11.1765
  83   2.0000      -0.408577       -11.1179
  84   2.0000      -0.401936       -10.9372
  85   2.0000      -0.400660       -10.9025
  86   2.0000      -0.396177       -10.7805
  87   2.0000      -0.394344       -10.7306
  88   2.0000      -0.390520       -10.6266
  89   2.0000      -0.390443       -10.6245
  90   2.0000      -0.383384       -10.4324
  91   2.0000      -0.375496       -10.2178
  92   2.0000      -0.374435       -10.1889
  93   2.0000      -0.365571        -9.9477
  94   2.0000      -0.358000        -9.7417
  95   2.0000      -0.354777        -9.6540
  96   2.0000      -0.353903        -9.6302
  97   2.0000      -0.346306        -9.4235
  98   2.0000      -0.335406        -9.1269
  99   2.0000      -0.332762        -9.0549
 100   2.0000      -0.267555        -7.2805
 101   2.0000      -0.264144        -7.1877
 102   2.0000      -0.256600        -6.9824
 103   2.0000      -0.252208        -6.8629
 104   2.0000      -0.245322        -6.6756
 105   2.0000      -0.239965        -6.5298
 106   2.0000      -0.227289        -6.1849
 107   0.0000      -0.025068        -0.6821
 108   0.0000      -0.013588        -0.3697
 109   0.0000      -0.010153        -0.2763
 110   0.0000       0.001432         0.0390
 111   0.0000       0.021559         0.5866

MULLIKEN ATOMIC CHARGES
-----------------------
   0 C :   -0.469850
   1 C :   -0.066838
   2 N :   -0.623624
   3 C :    0.694935
   4 O :   -0.496405
   5 N :   -0.451401
   6 C :   -0.157045
   7 C :   -0.332454
   8 C :    0.102541
   9 C :   -0.185481
  10 C :   -0.121590
  11 C :   -0.130465
  12 C :   -0.169253
  13 C :    0.092022
  14 C :   -0.111697
  15 C :    0.177534
  16 C :   -0.180329
  17 C :   -0.156456
  18 C :   -0.014975
  19 C :    0.893671
  20 F :   -0.307061
  21 F :   -0.305061
  22 F :   -0.298193
  23 C :   -0.161375
  24 C :   -0.179300
  25 C :    0.941656
  26 F :   -0.305066
  27 F :   -0.309519
  28 F :   -0.293073
  29 H :    0.153571
  30 H :    0.166724
  31 H :    0.170999
  32 H :    0.203285
  33 H :    0.330546
  34 H :    0.152935
  35 H :    0.134028
  36 H :    0.143816
  37 H :    0.168247
  38 H :    0.123756
  39 H :    0.128420
  40 H :    0.131731
  41 H :    0.135757
  42 H :    0.184250
  43 H :    0.156831
  44 H :    0.153254
  45 H :    0.148307
  46 H :    0.137688
Sum of atomic charges:   -0.0000000

LOEWDIN ATOMIC CHARGES
----------------------
   0 C :   -0.361526
   1 C :   -0.093481
   2 N :   -0.246362
   3 C :    0.167596
   4 O :   -0.310251
   5 N :   -0.123664
   6 C :   -0.156669
   7 C :   -0.225214
   8 C :   -0.029523
   9 C :   -0.132026
  10 C :   -0.128022
  11 C :   -0.129308
  12 C :   -0.122293
  13 C :   -0.022750
  14 C :   -0.037052
  15 C :   -0.011980
  16 C :   -0.125791
  17 C :   -0.108201
  18 C :   -0.071326
  19 C :    0.309498
  20 F :   -0.115095
  21 F :   -0.113433
  22 F :   -0.115477
  23 C :   -0.114179
  24 C :   -0.127950
  25 C :    0.301622
  26 F :   -0.115726
  27 F :   -0.120670
  28 F :   -0.106632
  29 H :    0.128457
  30 H :    0.138256
  31 H :    0.140183
  32 H :    0.165548
  33 H :    0.252662
  34 H :    0.130833
  35 H :    0.107070
  36 H :    0.130532
  37 H :    0.140230
  38 H :    0.130248
  39 H :    0.131891
  40 H :    0.133575
  41 H :    0.136475
  42 H :    0.152849
  43 H :    0.145561
  44 H :    0.144251
  45 H :    0.141576
  46 H :    0.135690

  Mayer bond orders larger than 0.100000
B(  0-C ,  1-C ) :   0.9886 B(  0-C , 29-H ) :   0.9418 B(  0-C , 30-H ) :   0.9420
B(  0-C , 31-H ) :   0.9383 B(  1-C ,  2-N ) :   0.9375 B(  1-C , 25-C ) :   0.9321
B(  1-C , 32-H ) :   0.8972 B(  2-N ,  3-C ) :   1.0296 B(  2-N , 33-H ) :   0.8150
B(  3-C ,  4-O ) :   1.7890 B(  3-C ,  5-N ) :   1.0292 B(  5-N ,  6-C ) :   0.9480
B(  5-N , 14-C ) :   0.9287 B(  6-C ,  7-C ) :   0.9913 B(  6-C , 34-H ) :   0.9292
B(  6-C , 35-H ) :   0.9157 B(  7-C ,  8-C ) :   0.9935 B(  7-C , 36-H ) :   0.9285
B(  7-C , 37-H ) :   0.9181 B(  8-C ,  9-C ) :   1.4046 B(  8-C , 13-C ) :   1.4428
B(  9-C , 10-C ) :   1.4518 B(  9-C , 38-H ) :   0.9256 B( 10-C , 11-C ) :   1.4371
B( 10-C , 39-H ) :   0.9295 B( 11-C , 12-C ) :   1.4497 B( 11-C , 40-H ) :   0.9295
B( 12-C , 13-C ) :   1.3958 B( 12-C , 41-H ) :   0.9209 B( 13-C , 14-C ) :   0.9593
B( 14-C , 15-C ) :   0.9400 B( 14-C , 42-H ) :   0.8981 B( 15-C , 16-C ) :   1.4235
B( 15-C , 24-C ) :   1.4081 B( 16-C , 17-C ) :   1.4122 B( 16-C , 43-H ) :   0.9179
B( 17-C , 18-C ) :   1.4169 B( 17-C , 44-H ) :   0.9198 B( 18-C , 19-C ) :   0.9804
B( 18-C , 23-C ) :   1.4030 B( 19-C , 20-F ) :   0.9466 B( 19-C , 21-F ) :   0.9492
B( 19-C , 22-F ) :   0.9849 B( 23-C , 24-C ) :   1.4367 B( 23-C , 45-H ) :   0.9209
B( 24-C , 46-H ) :   0.9173 B( 25-C , 26-F ) :   0.9571 B( 25-C , 27-F ) :   0.9564
B( 25-C , 28-F ) :   0.9840

FINAL SINGLE POINT ENERGY     -1555.945363371615

DIPOLE MOMENT
-------------

Method             : SCF
Type of density    : Electron Density
Multiplicity       :   1
Irrep              :   0
Energy             : -1555.9453633716154854 Eh
Relativity type    :
Basis              : AO
                                X                 Y                 Z
Electronic contribution:     18.441369903     -40.217325026      -3.020242635
Nuclear contribution   :    -19.452714402      41.715687039       4.159567118
                        -----------------------------------------
Total Dipole Moment    :     -1.011344499       1.498362013       1.139324482
                        -----------------------------------------
Magnitude (a.u.)       :      2.136812274
Magnitude (Debye)      :      5.431345164

Rotational constants in cm-1:             0.005609             0.004447             0.002768
Rotational constants in MHz :           168.141497           133.320540            82.994519

                             ****ORCA TERMINATED NORMALLY****
TOTAL RUN TIME: 0 days 0 hours 6 minutes 2 seconds 329 msec
