                         Program Version 6.0.0  -   RELEASE  -
|  1> ! B3LYP 6-31G* SP
|  2>
|  3> * xyz 0 1
|  4> F 6.7603 2.7272 -0.4952
|  5> C 5.8228 1.7115 -0.5704
|  6> F 4.5845 2.2661 -0.3005
|  7> F 5.8261 1.2066 -1.8566
|  8> C 6.1398 0.5986 0.4118
|  9> C 7.4526 0.4710 0.9093
| 10> C 7.7759 -0.5315 1.8256
| 11> C 6.8012 -1.4305 2.2530
| 12> C 5.5024 -1.3421 1.7530
| 13> C 5.1614 -0.3492 0.8199
| 14> C 3.7804 -0.3355 0.2958
| 15> C 3.5255 -0.6715 -1.0594
| 16> C 2.2113 -0.6682 -1.5625
| 17> C 1.1856 -0.3348 -0.6824
| 18> N -0.1288 -0.2669 -0.9255
| 19> C -0.6628 0.0932 0.2723
| 20> C -2.1014 0.2966 0.5277
| 21> C -3.0407 0.1881 -0.4187
| 22> C -4.4981 0.4156 -0.0976
| 23> C -5.0438 -0.7115 0.8173
| 24> C -6.5699 -0.9114 0.7066
| 25> C -7.2868 0.3761 0.2899
| 26> C -6.8051 0.8737 -1.0869
| 27> C -5.3324 0.5243 -1.3871
| 28> N 0.2659 0.2506 1.2534
| 29> C 1.4205 -0.0248 0.6221
| 30> C 2.7060 -0.0172 1.1565
| 31> H 8.2346 1.1502 0.5948
| 32> H 8.7864 -0.6104 2.2056
| 33> H 7.0549 -2.2047 2.9654
| 34> H 4.7618 -2.0615 2.0817
| 35> H 4.3416 -0.9439 -1.7163
| 36> H 2.0061 -0.9207 -2.5949
| 37> H -0.6093 -0.4570 -1.8324
| 38> H -2.3981 0.5513 1.5384
| 39> H -2.7651 -0.0437 -1.4386
| 40> H -4.5840 1.3884 0.4385
| 41> H -4.5524 -1.6801 0.5727
| 42> H -4.7847 -0.4694 1.8717
| 43> H -6.9703 -1.2602 1.6828
| 44> H -6.7869 -1.7016 -0.0457
| 45> H -7.0965 1.1591 1.0566
| 46> H -8.3834 0.1984 0.2572
| 47> H -7.4443 0.4318 -1.8821
| 48> H -6.9394 1.9765 -1.1315
| 49> H -4.9041 1.3051 -2.0543
| 50> H -5.2905 -0.4453 -1.9329
| 51> H 2.8715 0.2336 2.1969
| 52> *
| 53>
| 54>                          ****END OF INPUT****

CARTESIAN COORDINATES (ANGSTROEM)
---------------------------------
  F      6.760300    2.727200   -0.495200
  C      5.822800    1.711500   -0.570400
  F      4.584500    2.266100   -0.300500
  F      5.826100    1.206600   -1.856600
  C      6.139800    0.598600    0.411800
  C      7.452600    0.471000    0.909300
  C      7.775900   -0.531500    1.825600
  C      6.801200   -1.430500    2.253000
  C      5.502400   -1.342100    1.753000
  C      5.161400   -0.349200    0.819900
  C      3.780400   -0.335500    0.295800
  C      3.525500   -0.671500   -1.059400
  C      2.211300   -0.668200   -1.562500
  C      1.185600   -0.334800   -0.682400
  N     -0.128800   -0.266900   -0.925500
  C     -0.662800    0.093200    0.272300
  C     -2.101400    0.296600    0.527700
  C     -3.040700    0.188100   -0.418700
  C     -4.498100    0.415600   -0.097600
  C     -5.043800   -0.711500    0.817300
  C     -6.569900   -0.911400    0.706600
  C     -7.286800    0.376100    0.289900
  C     -6.805100    0.873700   -1.086900
  C     -5.332400    0.524300   -1.387100
  N      0.265900    0.250600    1.253400
  C      1.420500   -0.024800    0.622100
  C      2.706000   -0.017200    1.156500
  H      8.234600    1.150200    0.594800
  H      8.786400   -0.610400    2.205600
  H      7.054900   -2.204700    2.965400
  H      4.761800   -2.061500    2.081700
  H      4.341600   -0.943900   -1.716300
  H      2.006100   -0.920700   -2.594900
  H     -0.609300   -0.457000   -1.832400
  H     -2.398100    0.551300    1.538400
  H     -2.765100   -0.043700   -1.438600
  H     -4.584000    1.388400    0.438500
  H     -4.552400   -1.680100    0.572700
  H     -4.784700   -0.469400    1.871700
  H     -6.970300   -1.260200    1.682800
  H     -6.786900   -1.701600   -0.045700
  H     -7.096500    1.159100    1.056600
  H     -8.383400    0.198400    0.257200
  H     -7.444300    0.431800   -1.882100
  H     -6.939400    1.976500   -1.131500
  H     -4.904100    1.305100   -2.054300
  H     -5.290500   -0.445300   -1.932900
  H      2.871500    0.233600    2.196900

 Total Charge           Charge          ....    0
 Multiplicity           Mult            ....    1
 Number of Electrons    NEL             ....  194
 Basis Dimension        Dim             ....  420

ORBITAL ENERGIES
----------------

  NO   OCC          E(Eh)            E(eV)
   0   2.0000     -24.709810      -672.3881
   1   2.0000     -24.707082      -672.3139
   2   2.0000     -24.703335      -672.2119
   3   2.0000     -14.386184      -391.4680
   4   2.0000     -14.303018      -389.2049
   5   2.0000     -10.424294      -283.6594
   6   2.0000     -10.248184      -278.8673
   7   2.0000     -10.205453      -277.7045
   8   2.0000     -10.204924      -277.6901
   9   2.0000     -10.201345      -277.5927
  10   2.0000     -10.192335      -277.3475
  11   2.0000     -10.189295      -277.2648
  12   2.0000     -10.188633      -277.2468
  13   2.0000     -10.187942      -277.2280
  14   2.0000     -10.186821      -277.1975
  15   2.0000     -10.186031      -277.1760
  16   2.0000     -10.185670      -277.1662
  17   2.0000     -10.185405      -277.1590
  18   2.0000     -10.183121      -277.0968
  19   2.0000     -10.179506      -276.9984
  20   2.0000     -10.178222      -276.9635
  21   2.0000     -10.176817      -276.9253
  22   2.0000     -10.175692      -276.8947
  23   2.0000     -10.174582      -276.8644
  24   2.0000     -10.174051      -276.8500
  25   2.0000     -10.173610      -276.8380
  26   2.0000     -10.170826      -276.7623
  27   2.0000      -1.268568       -34.5195
  28   2.0000      -1.194508       -32.5042
  29   2.0000      -1.190896       -32.4059
  30   2.0000      -1.027297       -27.9542
  31   2.0000      -0.881124       -23.9766
  32   2.0000      -0.866251       -23.5719
  33   2.0000      -0.840474       -22.8705
  34   2.0000      -0.833184       -22.6721
  35   2.0000      -0.795006       -21.6332
  36   2.0000      -0.774533       -21.0761
  37   2.0000      -0.766154       -20.8481
  38   2.0000      -0.739870       -20.1329
  39   2.0000      -0.735302       -20.0086
  40   2.0000      -0.723943       -19.6995
  41   2.0000      -0.706656       -19.2291
  42   2.0000      -0.682010       -18.5584
  43   2.0000      -0.641622       -17.4594
  44   2.0000      -0.633384       -17.2353
  45   2.0000      -0.615927       -16.7602
  46   2.0000      -0.610233       -16.6053
  47   2.0000      -0.609856       -16.5950
  48   2.0000      -0.596140       -16.2218
  49   2.0000      -0.583446       -15.8764
  50   2.0000      -0.561464       -15.2782
  51   2.0000      -0.559400       -15.2220
  52   2.0000      -0.554462       -15.0877
  53   2.0000      -0.542155       -14.7528
  54   2.0000      -0.538347       -14.6492
  55   2.0000      -0.521199       -14.1825
  56   2.0000      -0.500478       -13.6187
  57   2.0000      -0.484448       -13.1825
  58   2.0000      -0.480091       -13.0639
  59   2.0000      -0.474003       -12.8983
  60   2.0000      -0.459294       -12.4980
  61   2.0000      -0.456839       -12.4312
  62   2.0000      -0.449900       -12.2424
  63   2.0000      -0.446499       -12.1499
  64   2.0000      -0.440151       -11.9771
  65   2.0000      -0.436182       -11.8691
  66   2.0000      -0.433961       -11.8087
  67   2.0000      -0.432782       -11.7766
  68   2.0000      -0.427837       -11.6420
  69   2.0000      -0.415556       -11.3078
  70   2.0000      -0.411689       -11.2026
  71   2.0000      -0.405157       -11.0249
  72   2.0000      -0.400375       -10.8948
  73   2.0000      -0.395848       -10.7716
  74   2.0000      -0.392891       -10.6911
  75   2.0000      -0.386148       -10.5076
  76   2.0000      -0.377134       -10.2623
  77   2.0000      -0.374579       -10.1928
  78   2.0000      -0.368371       -10.0239
  79   2.0000      -0.366598        -9.9756
  80   2.0000      -0.356769        -9.7082
  81   2.0000      -0.354373        -9.6430
  82   2.0000      -0.352806        -9.6003
  83   2.0000      -0.350226        -9.5301
  84   2.0000      -0.348465        -9.4822
  85   2.0000      -0.337018        -9.1707
  86   2.0000      -0.330796        -9.0014
  87   2.0000      -0.307922        -8.3790
  88   2.0000      -0.302231        -8.2241
  89   2.0000      -0.301061        -8.1923
  90   2.0000      -0.296184        -8.0596
  91   2.0000      -0.271178        -7.3791
  92   2.0000      -0.265759        -7.2317
  93   2.0000      -0.256470        -6.9789
  94   2.0000      -0.250425        -6.8144
  95   2.0000      -0.214956        -5.8492
  96   2.0000      -0.201616        -5.4862
  97   0.0000      -0.037532        -1.0213
  98   0.0000      -0.019134        -0.5207
  99   0.0000      -0.006329        -0.1722
 100   0.0000       0.020677         0.5627
 101   0.0000       0.041190         1.1208

MULLIKEN ATOMIC CHARGES
-----------------------
   0 F :   -0.307693
   1 C :    0.916307
   2 F :   -0.301002
   3 F :   -0.301359
   4 C :   -0.049200
   5 C :   -0.178636
   6 C :   -0.119350
   7 C :   -0.121229
   8 C :   -0.154263
   9 C :    0.026651
  10 C :    0.024371
  11 C :   -0.170475
  12 C :   -0.195644
  13 C :    0.336348
  14 N :   -0.684678
  15 C :    0.418348
  16 C :   -0.133991
  17 C :   -0.119309
  18 C :   -0.107879
  19 C :   -0.256440
  20 C :   -0.260998
  21 C :   -0.254798
  22 C :   -0.259040
  23 C :   -0.278534
  24 N :   -0.471095
  25 C :    0.220289
  26 C :   -0.215813
  27 H :    0.149605
  28 H :    0.134083
  29 H :    0.134573
  30 H :    0.143606
  31 H :    0.133183
  32 H :    0.120214
  33 H :    0.342084
  34 H :    0.149532
  35 H :    0.102643
  36 H :    0.140288
  37 H :    0.134295
  38 H :    0.135042
  39 H :    0.133134
  40 H :    0.128242
  41 H :    0.128946
  42 H :    0.130925
  43 H :    0.129487
  44 H :    0.131532
  45 H :    0.132278
  46 H :    0.126619
  47 H :    0.138802
Sum of atomic charges:   -0.0000000

LOEWDIN ATOMIC CHARGES
----------------------
   0 F :   -0.113791
   1 C :    0.312332
   2 F :   -0.106695
   3 F :   -0.113867
   4 C :   -0.070885
   5 C :   -0.114694
   6 C :   -0.132088
   7 C :   -0.116262
   8 C :   -0.122485
   9 C :    0.006765
  10 C :   -0.032721
  11 C :   -0.134529
  12 C :   -0.155380
  13 C :   -0.006440
  14 N :   -0.111273
  15 C :    0.054469
  16 C :   -0.139273
  17 C :   -0.120916
  18 C :   -0.125036
  19 C :   -0.222543
  20 C :   -0.232903
  21 C :   -0.232138
  22 C :   -0.233128
  23 C :   -0.227762
  24 N :   -0.170524
  25 C :   -0.022665
  26 C :   -0.124271
  27 H :    0.141824
  28 H :    0.134790
  29 H :    0.134533
  30 H :    0.140464
  31 H :    0.135120
  32 H :    0.128704
  33 H :    0.271578
  34 H :    0.149191
  35 H :    0.116406
  36 H :    0.127166
  37 H :    0.121891
  38 H :    0.120556
  39 H :    0.122093
  40 H :    0.114639
  41 H :    0.114565
  42 H :    0.121071
  43 H :    0.118359
  44 H :    0.118756
  45 H :    0.120365
  46 H :    0.114036
  47 H :    0.142595

  Mayer bond orders larger than 0.100000
B(  0-F ,  1-C ) :   0.9410 B(  1-C ,  2-F ) :   0.9433 B(  1-C ,  3-F ) :   0.9567
B(  1-C ,  4-C ) :   0.9733 B(  4-C ,  5-C ) :   1.3902 B(  4-C ,  9-C ) :   1.4014
B(  5-C ,  6-C ) :   1.4365 B(  5-C , 27-H ) :   0.9200 B(  6-C ,  7-C ) :   1.4502
B(  6-C , 28-H ) :   0.9300 B(  7-C ,  8-C ) :   1.4274 B(  7-C , 29-H ) :   0.9285
B(  8-C ,  9-C ) :   1.4235 B(  8-C , 30-H ) :   0.9226 B(  9-C , 10-C ) :   0.9751
B( 10-C , 11-C ) :   1.3526 B( 10-C , 26-C ) :   1.4375 B( 11-C , 12-C ) :   1.4558
B( 11-C , 31-H ) :   0.9224 B( 12-C , 13-C ) :   1.3557 B( 12-C , 26-C ) :   0.1010
B( 12-C , 32-H ) :   0.9232 B( 13-C , 14-N ) :   0.9762 B( 13-C , 25-C ) :   1.3176
B( 14-N , 15-C ) :   1.0736 B( 14-N , 33-H ) :   0.8232 B( 15-C , 16-C ) :   1.1187
B( 15-C , 24-N ) :   1.4918 B( 16-C , 17-C ) :   1.7849 B( 16-C , 34-H ) :   0.9196
B( 17-C , 18-C ) :   0.9928 B( 17-C , 35-H ) :   0.9276 B( 18-C , 19-C ) :   0.9825
B( 18-C , 23-C ) :   0.9983 B( 18-C , 36-H ) :   0.9257 B( 19-C , 20-C ) :   0.9931
B( 19-C , 37-H ) :   0.9423 B( 19-C , 38-H ) :   0.9415 B( 20-C , 21-C ) :   1.0159
B( 20-C , 39-H ) :   0.9438 B( 20-C , 40-H ) :   0.9448 B( 21-C , 22-C ) :   1.0041
B( 21-C , 41-H ) :   0.9439 B( 21-C , 42-H ) :   0.9444 B( 22-C , 23-C ) :   0.9976
B( 22-C , 43-H ) :   0.9471 B( 22-C , 44-H ) :   0.9477 B( 23-C , 45-H ) :   0.9429
B( 23-C , 46-H ) :   0.9411 B( 24-N , 25-C ) :   1.2395 B( 25-C , 26-C ) :   1.3214
B( 26-C , 47-H ) :   0.9168

FINAL SINGLE POINT ENERGY     -1259.270453756214

DIPOLE MOMENT
-------------

Method             : SCF
Type of density    : Electron Density
Multiplicity       :   1
Irrep              :   0
Energy             : -1259.2704537562135556 Eh
Relativity type    :
Basis              : AO
                                X                 Y                 Z
Electronic contribution:     71.500760913      13.134832537      -4.539942798
Nuclear contribution   :    -72.497967405     -14.070293850       3.898299394
                        -----------------------------------------
Total Dipole Moment    :     -0.997206492      -0.935461313      -0.641643404
                        -----------------------------------------
Magnitude (a.u.)       :      1.510369132
Magnitude (Debye)      :      3.839053238

Rotational constants in cm-1:             0.019905             0.001887             0.001805
Rotational constants in MHz :           596.736156            56.564902            54.113492

                             ****ORCA TERMINATED NORMALLY****
TOTAL RUN TIME: 0 days 0 hours 5 minutes 41 seconds 470 msec
