                         Program Version 6.0.0  -   RELEASE  -
|  1> ! B3LYP 6-31G* SP
|  2>
|  3> * xyz 0 1
|  4> C 4.7584 -0.8630 -0.5050
|  5> C 3.3644 -1.4952 -0.5553
|  6> N 2.3524 -0.4714 -0.2761
|  7> C 1.6193 0.1959 -1.3184
|  8> O 1.9307 -0.0127 -2.5237
|  9> N 0.5285 1.0964 -1.0069
| 10> C 0.0161 1.9750 -2.0695
| 11> C -0.3841 3.3256 -1.4944
| 12> C -1.3624 3.1484 -0.3730
| 13> C -2.3120 4.1507 -0.1158
| 14> C -3.1802 4.0380 0.9713
| 15> C -3.0921 2.9378 1.8237
| 16> C -2.1400 1.9440 1.5879
| 17> C -1.2765 2.0252 0.4774
| 18> C -0.2204 0.9470 0.2638
| 19> C -0.8444 -0.4345 0.3330
| 20> C -0.4772 -1.3335 1.3456
| 21> C -1.0510 -2.6042 1.3976
| 22> C -1.9965 -2.9742 0.4325
| 23> C -2.6226 -4.3373 0.4681
| 24> F -3.5174 -4.4892 -0.5768
| 25> F -1.6391 -5.3034 0.3586
| 26> F -3.2974 -4.5077 1.6631
| 27> N -2.3464 -2.0867 -0.5386
| 28> C -1.8015 -0.8433 -0.6096
| 29> C 3.2320 -2.6546 0.4446
| 30> F 1.9674 -3.2067 0.3485
| 31> F 3.4298 -2.2087 1.7401
| 32> F 4.1633 -3.6375 0.1591
| 33> H 4.9624 -0.4422 0.5027
| 34> H 5.5362 -1.6177 -0.7478
| 35> H 4.8254 -0.0432 -1.2515
| 36> H 3.2112 -1.9172 -1.5731
| 37> H 2.2884 -0.1124 0.7011
| 38> H -0.8576 1.4968 -2.5614
| 39> H 0.7911 2.1559 -2.8460
| 40> H 0.5176 3.8477 -1.1075
| 41> H -0.8267 3.9433 -2.3064
| 42> H -2.3746 5.0241 -0.7532
| 43> H -3.9124 4.8122 1.1615
| 44> H -3.7559 2.8595 2.6750
| 45> H -2.0745 1.1094 2.2746
| 46> H 0.4923 1.0852 1.1038
| 47> H 0.2546 -1.0538 2.0929
| 48> H -0.7595 -3.2943 2.1798
| 49> H -2.1192 -0.1734 -1.3963
| 50> *
| 51>
| 52>                          ****END OF INPUT****

CARTESIAN COORDINATES (ANGSTROEM)
---------------------------------
  C      4.758400   -0.863000   -0.505000
  C      3.364400   -1.495200   -0.555300
  N      2.352400   -0.471400   -0.276100
  C      1.619300    0.195900   -1.318400
  O      1.930700   -0.012700   -2.523700
  N      0.528500    1.096400   -1.006900
  C      0.016100    1.975000   -2.069500
  C     -0.384100    3.325600   -1.494400
  C     -1.362400    3.148400   -0.373000
  C     -2.312000    4.150700   -0.115800
  C     -3.180200    4.038000    0.971300
  C     -3.092100    2.937800    1.823700
  C     -2.140000    1.944000    1.587900
  C     -1.276500    2.025200    0.477400
  C     -0.220400    0.947000    0.263800
  C     -0.844400   -0.434500    0.333000
  C     -0.477200   -1.333500    1.345600
  C     -1.051000   -2.604200    1.397600
  C     -1.996500   -2.974200    0.432500
  C     -2.622600   -4.337300    0.468100
  F     -3.517400   -4.489200   -0.576800
  F     -1.639100   -5.303400    0.358600
  F     -3.297400   -4.507700    1.663100
  N     -2.346400   -2.086700   -0.538600
  C     -1.801500   -0.843300   -0.609600
  C      3.232000   -2.654600    0.444600
  F      1.967400   -3.206700    0.348500
  F      3.429800   -2.208700    1.740100
  F      4.163300   -3.637500    0.159100
  H      4.962400   -0.442200    0.502700
  H      5.536200   -1.617700   -0.747800
  H      4.825400   -0.043200   -1.251500
  H      3.211200   -1.917200   -1.573100
  H      2.288400   -0.112400    0.701100
  H     -0.857600    1.496800   -2.561400
  H      0.791100    2.155900   -2.846000
  H      0.517600    3.847700   -1.107500
  H     -0.826700    3.943300   -2.306400
  H     -2.374600    5.024100   -0.753200
  H     -3.912400    4.812200    1.161500
  H     -3.755900    2.859500    2.675000
  H     -2.074500    1.109400    2.274600
  H      0.492300    1.085200    1.103800
  H      0.254600   -1.053800    2.092900
  H     -0.759500   -3.294300    2.179800
  H     -2.119200   -0.173400   -1.396300

 Total Charge           Charge          ....    0
 Multiplicity           Mult            ....    1
 Number of Electrons    NEL             ....  214
 Basis Dimension        Dim             ....  440

ORBITAL ENERGIES
----------------

  NO   OCC          E(Eh)            E(eV)
   0   2.0000     -24.732857      -673.0152
   1   2.0000     -24.727148      -672.8599
   2   2.0000     -24.722422      -672.7313
   3   2.0000     -24.715090      -672.5318
   4   2.0000     -24.714034      -672.5031
   5   2.0000     -24.706754      -672.3049
   6   2.0000     -19.109959      -520.0084
   7   2.0000     -14.369425      -391.0119
   8   2.0000     -14.366303      -390.9270
   9   2.0000     -14.342564      -390.2810
  10   2.0000     -10.438789      -284.0539
  11   2.0000     -10.430034      -283.8157
  12   2.0000     -10.323953      -280.9290
  13   2.0000     -10.253976      -279.0249
  14   2.0000     -10.252800      -278.9929
  15   2.0000     -10.243594      -278.7424
  16   2.0000     -10.232672      -278.4452
  17   2.0000     -10.223069      -278.1839
  18   2.0000     -10.215539      -277.9789
  19   2.0000     -10.214764      -277.9579
  20   2.0000     -10.209740      -277.8211
  21   2.0000     -10.209049      -277.8023
  22   2.0000     -10.202187      -277.6156
  23   2.0000     -10.195287      -277.4279
  24   2.0000     -10.195245      -277.4267
  25   2.0000     -10.191267      -277.3185
  26   2.0000     -10.190882      -277.3080
  27   2.0000     -10.190501      -277.2976
  28   2.0000     -10.187804      -277.2242
  29   2.0000      -1.287580       -35.0368
  30   2.0000      -1.272912       -34.6377
  31   2.0000      -1.215884       -33.0859
  32   2.0000      -1.209375       -32.9088
  33   2.0000      -1.200685       -32.6723
  34   2.0000      -1.194188       -32.4955
  35   2.0000      -1.025208       -27.8973
  36   2.0000      -0.947854       -25.7924
  37   2.0000      -0.934685       -25.4341
  38   2.0000      -0.920599       -25.0508
  39   2.0000      -0.863944       -23.5091
  40   2.0000      -0.828058       -22.5326
  41   2.0000      -0.801580       -21.8121
  42   2.0000      -0.796650       -21.6779
  43   2.0000      -0.781710       -21.2714
  44   2.0000      -0.771275       -20.9875
  45   2.0000      -0.740580       -20.1522
  46   2.0000      -0.710104       -19.3229
  47   2.0000      -0.703495       -19.1431
  48   2.0000      -0.677789       -18.4436
  49   2.0000      -0.657175       -17.8826
  50   2.0000      -0.646255       -17.5855
  51   2.0000      -0.632234       -17.2040
  52   2.0000      -0.626913       -17.0592
  53   2.0000      -0.606072       -16.4921
  54   2.0000      -0.598092       -16.2749
  55   2.0000      -0.579822       -15.7778
  56   2.0000      -0.574907       -15.6440
  57   2.0000      -0.568513       -15.4700
  58   2.0000      -0.565944       -15.4001
  59   2.0000      -0.565439       -15.3864
  60   2.0000      -0.561612       -15.2823
  61   2.0000      -0.549039       -14.9401
  62   2.0000      -0.527336       -14.3495
  63   2.0000      -0.518179       -14.1004
  64   2.0000      -0.513692       -13.9783
  65   2.0000      -0.486689       -13.2435
  66   2.0000      -0.482864       -13.1394
  67   2.0000      -0.477903       -13.0044
  68   2.0000      -0.469676       -12.7805
  69   2.0000      -0.464105       -12.6289
  70   2.0000      -0.459302       -12.4983
  71   2.0000      -0.455741       -12.4013
  72   2.0000      -0.452760       -12.3202
  73   2.0000      -0.445633       -12.1263
  74   2.0000      -0.442302       -12.0356
  75   2.0000      -0.441576       -12.0159
  76   2.0000      -0.438425       -11.9301
  77   2.0000      -0.431041       -11.7292
  78   2.0000      -0.425932       -11.5902
  79   2.0000      -0.423968       -11.5368
  80   2.0000      -0.420800       -11.4506
  81   2.0000      -0.418779       -11.3956
  82   2.0000      -0.413683       -11.2569
  83   2.0000      -0.410111       -11.1597
  84   2.0000      -0.407598       -11.0913
  85   2.0000      -0.405398       -11.0314
  86   2.0000      -0.402840       -10.9618
  87   2.0000      -0.399185       -10.8624
  88   2.0000      -0.393885       -10.7182
  89   2.0000      -0.391730       -10.6595
  90   2.0000      -0.389045       -10.5864
  91   2.0000      -0.387175       -10.5356
  92   2.0000      -0.380441       -10.3523
  93   2.0000      -0.371049       -10.0968
  94   2.0000      -0.366611        -9.9760
  95   2.0000      -0.363040        -9.8788
  96   2.0000      -0.356145        -9.6912
  97   2.0000      -0.344642        -9.3782
  98   2.0000      -0.335075        -9.1178
  99   2.0000      -0.294805        -8.0220
 100   2.0000      -0.280699        -7.6382
 101   2.0000      -0.264755        -7.2044
 102   2.0000      -0.260242        -7.0815
 103   2.0000      -0.256417        -6.9775
 104   2.0000      -0.251850        -6.8532
 105   2.0000      -0.248518        -6.7625
 106   2.0000      -0.236014        -6.4223
 107   0.0000      -0.043096        -1.1727
 108   0.0000      -0.035062        -0.9541
 109   0.0000      -0.019021        -0.5176
 110   0.0000      -0.007955        -0.2165
 111   0.0000       0.026776         0.7286

MULLIKEN ATOMIC CHARGES
-----------------------
   0 C :   -0.454848
   1 C :   -0.061441
   2 N :   -0.634826
   3 C :    0.704235
   4 O :   -0.500241
   5 N :   -0.466348
   6 C :   -0.130369
   7 C :   -0.347164
   8 C :    0.109080
   9 C :   -0.184271
  10 C :   -0.120431
  11 C :   -0.128438
  12 C :   -0.174119
  13 C :    0.089308
  14 C :   -0.125939
  15 C :    0.176070
  16 C :   -0.149113
  17 C :   -0.144768
  18 C :    0.108743
  19 C :    0.922424
  20 F :   -0.296222
  21 F :   -0.299927
  22 F :   -0.302633
  23 N :   -0.393134
  24 C :   -0.012251
  25 C :    0.927881
  26 F :   -0.297294
  27 F :   -0.311602
  28 F :   -0.300942
  29 H :    0.147723
  30 H :    0.161197
  31 H :    0.179210
  32 H :    0.209251
  33 H :    0.323860
  34 H :    0.150155
  35 H :    0.183209
  36 H :    0.161256
  37 H :    0.150756
  38 H :    0.128942
  39 H :    0.132276
  40 H :    0.134403
  41 H :    0.132231
  42 H :    0.147055
  43 H :    0.136917
  44 H :    0.157387
  45 H :    0.162753
Sum of atomic charges:    0.0000000

LOEWDIN ATOMIC CHARGES
----------------------
   0 C :   -0.363187
   1 C :   -0.091033
   2 N :   -0.249656
   3 C :    0.169456
   4 O :   -0.316457
   5 N :   -0.122727
   6 C :   -0.141682
   7 C :   -0.228493
   8 C :   -0.023813
   9 C :   -0.130271
  10 C :   -0.123640
  11 C :   -0.128957
  12 C :   -0.125211
  13 C :   -0.029985
  14 C :   -0.043307
  15 C :   -0.024410
  16 C :   -0.111782
  17 C :   -0.116222
  18 C :   -0.023889
  19 C :    0.308428
  20 F :   -0.101158
  21 F :   -0.111016
  22 F :   -0.113211
  23 N :   -0.111068
  24 C :   -0.054355
  25 C :    0.301740
  26 F :   -0.108620
  27 F :   -0.122364
  28 F :   -0.110476
  29 H :    0.126496
  30 H :    0.134498
  31 H :    0.144928
  32 H :    0.169046
  33 H :    0.246133
  34 H :    0.117669
  35 H :    0.149540
  36 H :    0.136637
  37 H :    0.134407
  38 H :    0.132731
  39 H :    0.133691
  40 H :    0.134909
  41 H :    0.134839
  42 H :    0.127712
  43 H :    0.134812
  44 H :    0.147076
  45 H :    0.142244

  Mayer bond orders larger than 0.100000
B(  0-C ,  1-C ) :   0.9868 B(  0-C , 29-H ) :   0.9446 B(  0-C , 30-H ) :   0.9371
B(  0-C , 31-H ) :   0.9384 B(  1-C ,  2-N ) :   0.9185 B(  1-C , 25-C ) :   0.9424
B(  1-C , 32-H ) :   0.8949 B(  2-N ,  3-C ) :   1.0274 B(  2-N , 33-H ) :   0.8105
B(  3-C ,  4-O ) :   1.7774 B(  3-C ,  5-N ) :   1.0379 B(  5-N ,  6-C ) :   0.9302
B(  5-N , 14-C ) :   0.9231 B(  6-C ,  7-C ) :   0.9841 B(  6-C , 34-H ) :   0.9242
B(  6-C , 35-H ) :   0.9197 B(  7-C ,  8-C ) :   0.9867 B(  7-C , 36-H ) :   0.9193
B(  7-C , 37-H ) :   0.9290 B(  8-C ,  9-C ) :   1.4084 B(  8-C , 13-C ) :   1.4430
B(  9-C , 10-C ) :   1.4496 B(  9-C , 38-H ) :   0.9245 B( 10-C , 11-C ) :   1.4386
B( 10-C , 39-H ) :   0.9288 B( 11-C , 12-C ) :   1.4515 B( 11-C , 40-H ) :   0.9290
B( 12-C , 13-C ) :   1.3940 B( 12-C , 41-H ) :   0.9195 B( 13-C , 14-C ) :   0.9668
B( 14-C , 15-C ) :   0.9312 B( 14-C , 42-H ) :   0.9079 B( 15-C , 16-C ) :   1.4100
B( 15-C , 24-C ) :   1.3626 B( 16-C , 17-C ) :   1.4269 B( 16-C , 43-H ) :   0.9226
B( 17-C , 18-C ) :   1.3893 B( 17-C , 44-H ) :   0.9158 B( 18-C , 19-C ) :   0.9595
B( 18-C , 23-N ) :   1.3792 B( 19-C , 20-F ) :   0.9646 B( 19-C , 21-F ) :   0.9730
B( 19-C , 22-F ) :   0.9697 B( 23-N , 24-C ) :   1.4292 B( 24-C , 45-H ) :   0.9196
B( 25-C , 26-F ) :   0.9726 B( 25-C , 27-F ) :   0.9462 B( 25-C , 28-F ) :   0.9615

FINAL SINGLE POINT ENERGY     -1571.972746216653

DIPOLE MOMENT
-------------

Method             : SCF
Type of density    : Electron Density
Multiplicity       :   1
Irrep              :   0
Energy             : -1571.9727462166529222 Eh
Relativity type    :
Basis              : AO
                                X                 Y                 Z
Electronic contribution:     -5.472832605     -45.044411400       7.235079979
Nuclear contribution   :      6.112894066      47.221858854      -6.016876728
                        -----------------------------------------
Total Dipole Moment    :      0.640061460       2.177447454       1.218203251
                        -----------------------------------------
Magnitude (a.u.)       :      2.575844570
Magnitude (Debye)      :      6.547276577

Rotational constants in cm-1:             0.005565             0.004410             0.002852
Rotational constants in MHz :           166.832952           132.206930            85.496101

                             ****ORCA TERMINATED NORMALLY****
TOTAL RUN TIME: 0 days 0 hours 7 minutes 40 seconds 690 msec
