                         Program Version 6.0.0  -   RELEASE  -
|  1> ! B3LYP 6-31G* SP
|  2>
|  3> * xyz 0 1
|  4> C -4.0014 -3.0743 1.1831
|  5> C -3.8624 -1.6319 0.8121
|  6> O -4.5775 -0.6677 1.3625
|  7> C -4.2200 0.4613 0.7950
|  8> C -3.2598 0.2541 -0.1454
|  9> C -3.0044 -1.1064 -0.1569
| 10> C -2.0085 -1.8527 -1.0003
| 11> C -0.6059 -1.5620 -0.5546
| 12> O 0.1988 -1.0296 -1.3658
| 13> N -0.1860 -1.8986 0.7784
| 14> C 1.1550 -1.7331 1.2549
| 15> N 2.1813 -1.2921 0.4981
| 16> C 3.3542 -1.2515 1.1900
| 17> C 4.6171 -0.8025 0.5463
| 18> C 5.8689 -1.0178 1.1545
| 19> C 7.0425 -0.6048 0.5218
| 20> C 6.9881 0.0255 -0.7222
| 21> F 8.1388 0.4202 -1.3245
| 22> C 5.7577 0.2551 -1.3477
| 23> O 5.7585 0.8994 -2.5972
| 24> C 4.5959 1.2538 -3.3450
| 25> F 3.8823 0.1172 -3.6863
| 26> F 3.7968 2.1108 -2.6088
| 27> F 4.9887 1.8959 -4.5028
| 28> C 4.5735 -0.1630 -0.7090
| 29> C 3.2483 -1.6653 2.5203
| 30> S 1.6470 -2.0932 2.8145
| 31> C -2.7627 1.3235 -0.8798
| 32> O -1.8931 1.1311 -1.7743
| 33> N -3.2516 2.5847 -0.6175
| 34> C -2.7777 3.7368 -1.4032
| 35> C -4.2483 2.7626 0.3265
| 36> O -4.7391 3.9127 0.5104
| 37> N -4.7183 1.6971 1.0634
| 38> C -5.7895 1.8619 2.0527
| 39> H -3.0179 -3.4856 1.4934
| 40> H -4.7183 -3.1837 2.0247
| 41> H -4.3821 -3.6473 0.3112
| 42> H -2.1429 -1.5614 -2.0643
| 43> H -2.1859 -2.9468 -0.9330
| 44> H -0.8895 -2.2960 1.4401
| 45> H 5.9534 -1.5187 2.1079
| 46> H 7.9996 -0.7802 0.9965
| 47> H 3.6170 0.0091 -1.1807
| 48> H 4.0389 -1.7006 3.2551
| 49> H -1.7452 3.5762 -1.7810
| 50> H -2.7433 4.6569 -0.7792
| 51> H -3.4601 3.9049 -2.2648
| 52> H -6.7756 1.7968 1.5474
| 53> H -5.7050 2.8423 2.5681
| 54> H -5.7305 1.0766 2.8373
| 55> *
| 56>
| 57>                          ****END OF INPUT****

CARTESIAN COORDINATES (ANGSTROEM)
---------------------------------
  C     -4.001400   -3.074300    1.183100
  C     -3.862400   -1.631900    0.812100
  O     -4.577500   -0.667700    1.362500
  C     -4.220000    0.461300    0.795000
  C     -3.259800    0.254100   -0.145400
  C     -3.004400   -1.106400   -0.156900
  C     -2.008500   -1.852700   -1.000300
  C     -0.605900   -1.562000   -0.554600
  O      0.198800   -1.029600   -1.365800
  N     -0.186000   -1.898600    0.778400
  C      1.155000   -1.733100    1.254900
  N      2.181300   -1.292100    0.498100
  C      3.354200   -1.251500    1.190000
  C      4.617100   -0.802500    0.546300
  C      5.868900   -1.017800    1.154500
  C      7.042500   -0.604800    0.521800
  C      6.988100    0.025500   -0.722200
  F      8.138800    0.420200   -1.324500
  C      5.757700    0.255100   -1.347700
  O      5.758500    0.899400   -2.597200
  C      4.595900    1.253800   -3.345000
  F      3.882300    0.117200   -3.686300
  F      3.796800    2.110800   -2.608800
  F      4.988700    1.895900   -4.502800
  C      4.573500   -0.163000   -0.709000
  C      3.248300   -1.665300    2.520300
  S      1.647000   -2.093200    2.814500
  C     -2.762700    1.323500   -0.879800
  O     -1.893100    1.131100   -1.774300
  N     -3.251600    2.584700   -0.617500
  C     -2.777700    3.736800   -1.403200
  C     -4.248300    2.762600    0.326500
  O     -4.739100    3.912700    0.510400
  N     -4.718300    1.697100    1.063400
  C     -5.789500    1.861900    2.052700
  H     -3.017900   -3.485600    1.493400
  H     -4.718300   -3.183700    2.024700
  H     -4.382100   -3.647300    0.311200
  H     -2.142900   -1.561400   -2.064300
  H     -2.185900   -2.946800   -0.933000
  H     -0.889500   -2.296000    1.440100
  H      5.953400   -1.518700    2.107900
  H      7.999600   -0.780200    0.996500
  H      3.617000    0.009100   -1.180700
  H      4.038900   -1.700600    3.255100
  H     -1.745200    3.576200   -1.781000
  H     -2.743300    4.656900   -0.779200
  H     -3.460100    3.904900   -2.264800
  H     -6.775600    1.796800    1.547400
  H     -5.705000    2.842300    2.568100
  H     -5.730500    1.076600    2.837300

 Total Charge           Charge          ....    0
 Multiplicity           Mult            ....    1
 Number of Electrons    NEL             ....  262
 Basis Dimension        Dim             ....  526

ORBITAL ENERGIES
----------------

  NO   OCC          E(Eh)            E(eV)
   0   2.0000     -88.907873     -2419.3062
   1   2.0000     -24.728167      -672.8876
   2   2.0000     -24.723843      -672.7700
   3   2.0000     -24.722302      -672.7280
   4   2.0000     -24.698138      -672.0705
   5   2.0000     -19.256708      -524.0017
   6   2.0000     -19.202961      -522.5391
   7   2.0000     -19.114868      -520.1420
   8   2.0000     -19.110861      -520.0330
   9   2.0000     -19.102397      -519.8026
  10   2.0000     -14.415662      -392.2701
  11   2.0000     -14.394348      -391.6901
  12   2.0000     -14.392958      -391.6523
  13   2.0000     -14.323823      -389.7710
  14   2.0000     -10.490840      -285.4703
  15   2.0000     -10.331770      -281.1418
  16   2.0000     -10.302426      -280.3433
  17   2.0000     -10.297934      -280.2210
  18   2.0000     -10.290149      -280.0092
  19   2.0000     -10.285743      -279.8893
  20   2.0000     -10.273815      -279.5647
  21   2.0000     -10.264988      -279.3245
  22   2.0000     -10.258089      -279.1368
  23   2.0000     -10.242847      -278.7220
  24   2.0000     -10.226042      -278.2647
  25   2.0000     -10.217089      -278.0211
  26   2.0000     -10.215651      -277.9820
  27   2.0000     -10.208802      -277.7956
  28   2.0000     -10.208118      -277.7770
  29   2.0000     -10.206080      -277.7216
  30   2.0000     -10.203538      -277.6524
  31   2.0000     -10.195092      -277.4226
  32   2.0000     -10.192975      -277.3650
  33   2.0000     -10.190374      -277.2942
  34   2.0000     -10.189938      -277.2823
  35   2.0000      -7.985650      -217.3006
  36   2.0000      -5.948729      -161.8731
  37   2.0000      -5.944656      -161.7623
  38   2.0000      -5.942441      -161.7020
  39   2.0000      -1.289000       -35.0755
  40   2.0000      -1.210777       -32.9469
  41   2.0000      -1.210310       -32.9342
  42   2.0000      -1.208284       -32.8791
  43   2.0000      -1.186377       -32.2830
  44   2.0000      -1.071793       -29.1650
  45   2.0000      -1.068094       -29.0643
  46   2.0000      -1.016460       -27.6593
  47   2.0000      -1.013644       -27.5826
  48   2.0000      -0.978081       -26.6149
  49   2.0000      -0.973440       -26.4887
  50   2.0000      -0.935873       -25.4664
  51   2.0000      -0.914196       -24.8765
  52   2.0000      -0.863629       -23.5005
  53   2.0000      -0.857095       -23.3228
  54   2.0000      -0.814419       -22.1615
  55   2.0000      -0.812864       -22.1192
  56   2.0000      -0.782717       -21.2988
  57   2.0000      -0.770358       -20.9625
  58   2.0000      -0.761344       -20.7172
  59   2.0000      -0.745960       -20.2986
  60   2.0000      -0.728305       -19.8182
  61   2.0000      -0.722324       -19.6554
  62   2.0000      -0.712115       -19.3776
  63   2.0000      -0.693802       -18.8793
  64   2.0000      -0.664400       -18.0793
  65   2.0000      -0.639349       -17.3976
  66   2.0000      -0.633027       -17.2255
  67   2.0000      -0.630404       -17.1542
  68   2.0000      -0.614700       -16.7268
  69   2.0000      -0.611344       -16.6355
  70   2.0000      -0.603065       -16.4102
  71   2.0000      -0.583530       -15.8787
  72   2.0000      -0.580437       -15.7945
  73   2.0000      -0.579057       -15.7569
  74   2.0000      -0.571331       -15.5467
  75   2.0000      -0.543143       -14.7797
  76   2.0000      -0.537891       -14.6368
  77   2.0000      -0.533826       -14.5262
  78   2.0000      -0.532558       -14.4916
  79   2.0000      -0.519843       -14.1456
  80   2.0000      -0.510109       -13.8808
  81   2.0000      -0.490963       -13.3598
  82   2.0000      -0.489867       -13.3300
  83   2.0000      -0.484638       -13.1877
  84   2.0000      -0.475869       -12.9491
  85   2.0000      -0.469087       -12.7645
  86   2.0000      -0.462345       -12.5810
  87   2.0000      -0.461971       -12.5709
  88   2.0000      -0.455770       -12.4021
  89   2.0000      -0.451590       -12.2884
  90   2.0000      -0.451361       -12.2822
  91   2.0000      -0.448012       -12.1910
  92   2.0000      -0.447125       -12.1669
  93   2.0000      -0.441279       -12.0078
  94   2.0000      -0.439556       -11.9609
  95   2.0000      -0.435440       -11.8489
  96   2.0000      -0.434464       -11.8224
  97   2.0000      -0.431207       -11.7337
  98   2.0000      -0.427880       -11.6432
  99   2.0000      -0.425868       -11.5885
 100   2.0000      -0.422149       -11.4873
 101   2.0000      -0.421369       -11.4660
 102   2.0000      -0.410678       -11.1751
 103   2.0000      -0.408926       -11.1275
 104   2.0000      -0.400859       -10.9079
 105   2.0000      -0.399356       -10.8670
 106   2.0000      -0.397653       -10.8207
 107   2.0000      -0.395898       -10.7729
 108   2.0000      -0.389474       -10.5981
 109   2.0000      -0.387477       -10.5438
 110   2.0000      -0.384029       -10.4500
 111   2.0000      -0.380220       -10.3463
 112   2.0000      -0.377220       -10.2647
 113   2.0000      -0.371473       -10.1083
 114   2.0000      -0.364278        -9.9125
 115   2.0000      -0.355324        -9.6689
 116   2.0000      -0.348951        -9.4954
 117   2.0000      -0.345108        -9.3909
 118   2.0000      -0.328404        -8.9363
 119   2.0000      -0.302185        -8.2229
 120   2.0000      -0.290964        -7.9175
 121   2.0000      -0.290380        -7.9016
 122   2.0000      -0.276320        -7.5190
 123   2.0000      -0.275660        -7.5011
 124   2.0000      -0.262016        -7.1298
 125   2.0000      -0.249849        -6.7987
 126   2.0000      -0.242948        -6.6109
 127   2.0000      -0.241063        -6.5597
 128   2.0000      -0.228900        -6.2287
 129   2.0000      -0.211109        -5.7446
 130   2.0000      -0.207996        -5.6599
 131   0.0000      -0.036085        -0.9819
 132   0.0000      -0.020458        -0.5567
 133   0.0000      -0.018993        -0.5168
 134   0.0000      -0.008136        -0.2214
 135   0.0000      -0.003019        -0.0822

MULLIKEN ATOMIC CHARGES
-----------------------
   0 C :   -0.531441
   1 C :    0.238190
   2 O :   -0.406649
   3 C :    0.483521
   4 C :    0.036086
   5 C :    0.004841
   6 C :   -0.416703
   7 C :    0.580982
   8 O :   -0.404374
   9 N :   -0.668758
  10 C :    0.258885
  11 N :   -0.374553
  12 C :    0.224455
  13 C :    0.113002
  14 C :   -0.168290
  15 C :   -0.215669
  16 C :    0.374709
  17 F :   -0.307915
  18 C :    0.287980
  19 O :   -0.543801
  20 C :    1.091753
  21 F :   -0.285359
  22 F :   -0.288466
  23 F :   -0.279941
  24 C :   -0.242852
  25 C :   -0.398506
  26 S :    0.239799
  27 C :    0.501096
  28 O :   -0.480739
  29 N :   -0.482735
  30 C :   -0.315428
  31 C :    0.676467
  32 O :   -0.504784
  33 N :   -0.505479
  34 C :   -0.329593
  35 H :    0.158480
  36 H :    0.174367
  37 H :    0.185173
  38 H :    0.218218
  39 H :    0.153208
  40 H :    0.340046
  41 H :    0.130177
  42 H :    0.152066
  43 H :    0.207899
  44 H :    0.180479
  45 H :    0.205090
  46 H :    0.189735
  47 H :    0.176085
  48 H :    0.183563
  49 H :    0.208681
  50 H :    0.177003
Sum of atomic charges:    0.0000000

LOEWDIN ATOMIC CHARGES
----------------------
   0 C :   -0.360114
   1 C :    0.001445
   2 O :   -0.004440
   3 C :    0.091806
   4 C :   -0.108443
   5 C :   -0.048871
   6 C :   -0.234430
   7 C :    0.155540
   8 O :   -0.219779
   9 N :   -0.212638
  10 C :   -0.079987
  11 N :   -0.151162
  12 C :   -0.000473
  13 C :   -0.018151
  14 C :   -0.127098
  15 C :   -0.150700
  16 C :    0.105591
  17 F :   -0.096906
  18 C :    0.062746
  19 O :   -0.157175
  20 C :    0.362502
  21 F :   -0.100266
  22 F :   -0.102147
  23 F :   -0.087618
  24 C :   -0.136044
  25 C :   -0.349916
  26 S :    0.381854
  27 C :    0.108477
  28 O :   -0.282888
  29 N :   -0.029497
  30 C :   -0.259516
  31 C :    0.144119
  32 O :   -0.313736
  33 N :   -0.026278
  34 C :   -0.260792
  35 H :    0.133457
  36 H :    0.147590
  37 H :    0.148621
  38 H :    0.176456
  39 H :    0.139232
  40 H :    0.259900
  41 H :    0.133993
  42 H :    0.148569
  43 H :    0.168314
  44 H :    0.159425
  45 H :    0.157912
  46 H :    0.149571
  47 H :    0.139542
  48 H :    0.140639
  49 H :    0.160104
  50 H :    0.141662

  Mayer bond orders larger than 0.100000
B(  0-C ,  1-C ) :   1.0251 B(  0-C , 35-H ) :   0.9318 B(  0-C , 36-H ) :   0.9362
B(  0-C , 37-H ) :   0.9293 B(  1-C ,  2-O ) :   0.9880 B(  1-C ,  5-C ) :   1.5385
B(  2-O ,  3-C ) :   1.0651 B(  3-C ,  4-C ) :   1.3758 B(  3-C , 33-N ) :   0.9785
B(  4-C ,  5-C ) :   1.2939 B(  4-C , 27-C ) :   1.0759 B(  5-C ,  6-C ) :   1.0017
B(  6-C ,  7-C ) :   0.9569 B(  6-C , 38-H ) :   0.8995 B(  6-C , 39-H ) :   0.9123
B(  7-C ,  8-O ) :   1.9076 B(  7-C ,  9-N ) :   0.9615 B(  9-N , 10-C ) :   0.9568
B(  9-N , 40-H ) :   0.8129 B( 10-C , 11-N ) :   1.5126 B( 10-C , 25-C ) :   0.1078
B( 10-C , 26-S ) :   1.1370 B( 11-N , 12-C ) :   1.2625 B( 12-C , 13-C ) :   1.0539
B( 12-C , 25-C ) :   1.5157 B( 13-C , 14-C ) :   1.4015 B( 13-C , 24-C ) :   1.3899
B( 14-C , 15-C ) :   1.4256 B( 14-C , 41-H ) :   0.9200 B( 15-C , 16-C ) :   1.3910
B( 15-C , 42-H ) :   0.9183 B( 16-C , 17-F ) :   0.9450 B( 16-C , 18-C ) :   1.3216
B( 18-C , 19-O ) :   0.8298 B( 18-C , 24-C ) :   1.3543 B( 19-O , 20-C ) :   0.9783
B( 20-C , 21-F ) :   0.9744 B( 20-C , 22-F ) :   0.9720 B( 20-C , 23-F ) :   1.0062
B( 24-C , 43-H ) :   0.8796 B( 25-C , 26-S ) :   1.1104 B( 25-C , 44-H ) :   0.9017
B( 27-C , 28-O ) :   1.7976 B( 27-C , 29-N ) :   0.9563 B( 29-N , 30-C ) :   0.9168
B( 29-N , 31-C ) :   1.0500 B( 30-C , 45-H ) :   0.9201 B( 30-C , 46-H ) :   0.9289
B( 30-C , 47-H ) :   0.9409 B( 31-C , 32-O ) :   1.7936 B( 31-C , 33-N ) :   1.0374
B( 33-N , 34-C ) :   0.9283 B( 34-C , 48-H ) :   0.9355 B( 34-C , 49-H ) :   0.9243
B( 34-C , 50-H ) :   0.9324

FINAL SINGLE POINT ENERGY     -2201.506314252955

DIPOLE MOMENT
-------------

Method             : SCF
Type of density    : Electron Density
Multiplicity       :   1
Irrep              :   0
Energy             : -2201.5063142529547804 Eh
Relativity type    :
Basis              : AO
                                X                 Y                 Z
Electronic contribution:     46.270295145       6.255826084     -20.499249069
Nuclear contribution   :    -48.544211695      -8.129650769      23.261991016
                        -----------------------------------------
Total Dipole Moment    :     -2.273916551      -1.873824685       2.762741947
                        -----------------------------------------
Magnitude (a.u.)       :      4.039140812
Magnitude (Debye)      :     10.266680037

Rotational constants in cm-1:             0.005480             0.001699             0.001448
Rotational constants in MHz :           164.300875            50.948941            43.421642

                             ****ORCA TERMINATED NORMALLY****
TOTAL RUN TIME: 0 days 0 hours 8 minutes 56 seconds 123 msec
