                         Program Version 6.0.0  -   RELEASE  -
|  1> ! B3LYP 6-31G* SP
|  2>
|  3> * xyz 0 1
|  4> C 1.0081 2.9727 -3.0043
|  5> C -0.3343 2.4055 -2.5023
|  6> C -1.2341 3.4438 -1.8607
|  7> C -0.7386 4.3944 -0.9440
|  8> C -1.5986 5.3228 -0.3529
|  9> C -2.9785 5.2924 -0.6425
| 10> F -3.8026 6.2104 -0.0817
| 11> C -3.4949 4.3308 -1.5242
| 12> C -2.6252 3.4066 -2.1208
| 13> N -0.1682 1.2426 -1.6000
| 14> C 0.6389 1.3451 -0.3621
| 15> C 1.5852 0.1714 -0.2202
| 16> C 2.2771 -0.3255 -1.3429
| 17> C 3.1421 -1.4142 -1.2117
| 18> C 3.3549 -1.9993 0.0498
| 19> C 2.7016 -1.4956 1.1915
| 20> C 2.9723 -2.0869 2.5248
| 21> N 2.3843 -1.6965 3.6834
| 22> N 2.9422 -2.4496 4.6240
| 23> N 3.8277 -3.2584 4.0595
| 24> N 3.8776 -3.0635 2.7469
| 25> C 1.8182 -0.4046 1.0491
| 26> C -0.9549 0.0457 -1.8377
| 27> O -1.2729 -0.2953 -3.0166
| 28> C -1.3628 -0.8189 -0.7195
| 29> C -2.2609 -0.3379 0.2511
| 30> N -2.6147 -1.1192 1.3081
| 31> C -2.0892 -2.3635 1.4780
| 32> C -2.4720 -3.1330 2.5882
| 33> C -1.8946 -4.3966 2.7843
| 34> C -0.9358 -4.8866 1.8846
| 35> C -0.5778 -4.1373 0.7520
| 36> C -1.1478 -2.8731 0.5438
| 37> C -0.8269 -2.1059 -0.5846
| 38> H 1.5594 2.1822 -3.5522
| 39> H 1.6569 3.3556 -2.1971
| 40> H 0.8191 3.8111 -3.7096
| 41> H -0.8373 2.0721 -3.4337
| 42> H 0.3211 4.4346 -0.6934
| 43> H -1.1918 6.0748 0.3228
| 44> H -4.5483 4.3043 -1.7563
| 45> H -3.0305 2.6722 -2.8033
| 46> H -0.0477 1.4026 0.5139
| 47> H 1.2387 2.2748 -0.3409
| 48> H 2.1290 0.1055 -2.3176
| 49> H 3.6571 -1.8023 -2.0854
| 50> H 4.0427 -2.8362 0.1308
| 51> H 4.3991 -3.9701 4.5847
| 52> H 1.3137 -0.0009 1.9224
| 53> H -2.7035 0.6500 0.1521
| 54> H -3.2341 -2.7685 3.2743
| 55> H -2.1957 -4.9926 3.6426
| 56> H -0.5068 -5.8688 2.0351
| 57> H 0.1246 -4.5486 0.0341
| 58> H -0.1107 -2.4743 -1.3137
| 59> *
| 60>
| 61>                          ****END OF INPUT****

CARTESIAN COORDINATES (ANGSTROEM)
---------------------------------
  C      1.008100    2.972700   -3.004300
  C     -0.334300    2.405500   -2.502300
  C     -1.234100    3.443800   -1.860700
  C     -0.738600    4.394400   -0.944000
  C     -1.598600    5.322800   -0.352900
  C     -2.978500    5.292400   -0.642500
  F     -3.802600    6.210400   -0.081700
  C     -3.494900    4.330800   -1.524200
  C     -2.625200    3.406600   -2.120800
  N     -0.168200    1.242600   -1.600000
  C      0.638900    1.345100   -0.362100
  C      1.585200    0.171400   -0.220200
  C      2.277100   -0.325500   -1.342900
  C      3.142100   -1.414200   -1.211700
  C      3.354900   -1.999300    0.049800
  C      2.701600   -1.495600    1.191500
  C      2.972300   -2.086900    2.524800
  N      2.384300   -1.696500    3.683400
  N      2.942200   -2.449600    4.624000
  N      3.827700   -3.258400    4.059500
  N      3.877600   -3.063500    2.746900
  C      1.818200   -0.404600    1.049100
  C     -0.954900    0.045700   -1.837700
  O     -1.272900   -0.295300   -3.016600
  C     -1.362800   -0.818900   -0.719500
  C     -2.260900   -0.337900    0.251100
  N     -2.614700   -1.119200    1.308100
  C     -2.089200   -2.363500    1.478000
  C     -2.472000   -3.133000    2.588200
  C     -1.894600   -4.396600    2.784300
  C     -0.935800   -4.886600    1.884600
  C     -0.577800   -4.137300    0.752000
  C     -1.147800   -2.873100    0.543800
  C     -0.826900   -2.105900   -0.584600
  H      1.559400    2.182200   -3.552200
  H      1.656900    3.355600   -2.197100
  H      0.819100    3.811100   -3.709600
  H     -0.837300    2.072100   -3.433700
  H      0.321100    4.434600   -0.693400
  H     -1.191800    6.074800    0.322800
  H     -4.548300    4.304300   -1.756300
  H     -3.030500    2.672200   -2.803300
  H     -0.047700    1.402600    0.513900
  H      1.238700    2.274800   -0.340900
  H      2.129000    0.105500   -2.317600
  H      3.657100   -1.802300   -2.085400
  H      4.042700   -2.836200    0.130800
  H      4.399100   -3.970100    4.584700
  H      1.313700   -0.000900    1.922400
  H     -2.703500    0.650000    0.152100
  H     -3.234100   -2.768500    3.274300
  H     -2.195700   -4.992600    3.642600
  H     -0.506800   -5.868800    2.035100
  H      0.124600   -4.548600    0.034100
  H     -0.110700   -2.474300   -1.313700

 Total Charge           Charge          ....    0
 Multiplicity           Mult            ....    1
 Number of Electrons    NEL             ....  236
 Basis Dimension        Dim             ....  518

ORBITAL ENERGIES
----------------

  NO   OCC          E(Eh)            E(eV)
   0   2.0000     -24.698672      -672.0850
   1   2.0000     -19.115960      -520.1717
   2   2.0000     -14.467365      -393.6770
   3   2.0000     -14.408248      -392.0684
   4   2.0000     -14.378955      -391.2713
   5   2.0000     -14.368342      -390.9825
   6   2.0000     -14.357067      -390.6756
   7   2.0000     -14.322426      -389.7330
   8   2.0000     -10.290322      -280.0139
   9   2.0000     -10.272028      -279.5161
  10   2.0000     -10.255480      -279.0658
  11   2.0000     -10.230269      -278.3798
  12   2.0000     -10.228376      -278.3283
  13   2.0000     -10.223274      -278.1894
  14   2.0000     -10.217001      -278.0187
  15   2.0000     -10.211374      -277.8656
  16   2.0000     -10.203512      -277.6517
  17   2.0000     -10.202615      -277.6273
  18   2.0000     -10.200831      -277.5787
  19   2.0000     -10.196606      -277.4638
  20   2.0000     -10.196208      -277.4529
  21   2.0000     -10.194626      -277.4099
  22   2.0000     -10.194603      -277.4093
  23   2.0000     -10.194179      -277.3977
  24   2.0000     -10.193908      -277.3903
  25   2.0000     -10.193220      -277.3716
  26   2.0000     -10.192898      -277.3629
  27   2.0000     -10.192721      -277.3580
  28   2.0000     -10.190536      -277.2986
  29   2.0000     -10.190374      -277.2942
  30   2.0000     -10.189773      -277.2778
  31   2.0000     -10.189345      -277.2662
  32   2.0000     -10.184003      -277.1208
  33   2.0000     -10.182554      -277.0814
  34   2.0000      -1.211927       -32.9782
  35   2.0000      -1.146839       -31.2071
  36   2.0000      -1.010351       -27.4930
  37   2.0000      -0.945233       -25.7211
  38   2.0000      -0.931275       -25.3413
  39   2.0000      -0.923668       -25.1343
  40   2.0000      -0.894430       -24.3387
  41   2.0000      -0.860454       -23.4141
  42   2.0000      -0.852861       -23.2075
  43   2.0000      -0.843799       -22.9609
  44   2.0000      -0.811409       -22.0796
  45   2.0000      -0.790704       -21.5162
  46   2.0000      -0.766820       -20.8662
  47   2.0000      -0.759856       -20.6767
  48   2.0000      -0.756153       -20.5760
  49   2.0000      -0.754571       -20.5329
  50   2.0000      -0.736444       -20.0397
  51   2.0000      -0.724530       -19.7155
  52   2.0000      -0.695598       -18.9282
  53   2.0000      -0.685656       -18.6577
  54   2.0000      -0.661544       -18.0015
  55   2.0000      -0.660738       -17.9796
  56   2.0000      -0.642514       -17.4837
  57   2.0000      -0.629138       -17.1197
  58   2.0000      -0.620746       -16.8914
  59   2.0000      -0.608868       -16.5681
  60   2.0000      -0.601454       -16.3664
  61   2.0000      -0.592312       -16.1176
  62   2.0000      -0.587492       -15.9865
  63   2.0000      -0.566872       -15.4254
  64   2.0000      -0.551199       -14.9989
  65   2.0000      -0.538366       -14.6497
  66   2.0000      -0.527164       -14.3449
  67   2.0000      -0.521767       -14.1980
  68   2.0000      -0.516101       -14.0438
  69   2.0000      -0.504385       -13.7250
  70   2.0000      -0.499477       -13.5914
  71   2.0000      -0.492645       -13.4055
  72   2.0000      -0.486129       -13.2283
  73   2.0000      -0.476843       -12.9756
  74   2.0000      -0.471584       -12.8325
  75   2.0000      -0.467447       -12.7199
  76   2.0000      -0.456439       -12.4203
  77   2.0000      -0.453798       -12.3485
  78   2.0000      -0.451849       -12.2954
  79   2.0000      -0.446024       -12.1369
  80   2.0000      -0.440267       -11.9803
  81   2.0000      -0.431280       -11.7357
  82   2.0000      -0.429507       -11.6875
  83   2.0000      -0.424432       -11.5494
  84   2.0000      -0.421967       -11.4823
  85   2.0000      -0.412464       -11.2237
  86   2.0000      -0.411072       -11.1858
  87   2.0000      -0.407583       -11.0909
  88   2.0000      -0.405234       -11.0270
  89   2.0000      -0.401115       -10.9149
  90   2.0000      -0.398277       -10.8377
  91   2.0000      -0.392180       -10.6718
  92   2.0000      -0.383535       -10.4365
  93   2.0000      -0.375202       -10.2098
  94   2.0000      -0.365141        -9.9360
  95   2.0000      -0.361050        -9.8247
  96   2.0000      -0.359102        -9.7717
  97   2.0000      -0.357161        -9.7189
  98   2.0000      -0.354667        -9.6510
  99   2.0000      -0.352754        -9.5989
 100   2.0000      -0.347996        -9.4695
 101   2.0000      -0.344863        -9.3842
 102   2.0000      -0.335770        -9.1368
 103   2.0000      -0.332406        -9.0452
 104   2.0000      -0.328378        -8.9356
 105   2.0000      -0.312317        -8.4986
 106   2.0000      -0.304834        -8.2950
 107   2.0000      -0.301593        -8.2068
 108   2.0000      -0.295082        -8.0296
 109   2.0000      -0.263854        -7.1798
 110   2.0000      -0.260081        -7.0772
 111   2.0000      -0.253922        -6.9096
 112   2.0000      -0.250359        -6.8126
 113   2.0000      -0.246945        -6.7197
 114   2.0000      -0.243710        -6.6317
 115   2.0000      -0.235443        -6.4067
 116   2.0000      -0.225744        -6.1428
 117   2.0000      -0.219060        -5.9609
 118   0.0000      -0.058652        -1.5960
 119   0.0000      -0.042085        -1.1452
 120   0.0000      -0.032689        -0.8895
 121   0.0000      -0.024827        -0.6756
 122   0.0000      -0.013328        -0.3627

MULLIKEN ATOMIC CHARGES
-----------------------
   0 C :   -0.459857
   1 C :   -0.070703
   2 C :    0.164910
   3 C :   -0.163909
   4 C :   -0.210065
   5 C :    0.406242
   6 F :   -0.316378
   7 C :   -0.203468
   8 C :   -0.180216
   9 N :   -0.415119
  10 C :   -0.222034
  11 C :    0.122281
  12 C :   -0.155076
  13 C :   -0.135055
  14 C :   -0.180885
  15 C :    0.140126
  16 C :    0.345794
  17 N :   -0.307449
  18 N :   -0.047951
  19 N :   -0.192797
  20 N :   -0.295579
  21 C :   -0.227311
  22 C :    0.428756
  23 O :   -0.468707
  24 C :    0.057876
  25 C :   -0.023929
  26 N :   -0.431286
  27 C :    0.213619
  28 C :   -0.138437
  29 C :   -0.130187
  30 C :   -0.131018
  31 C :   -0.198979
  32 C :    0.162750
  33 C :   -0.161647
  34 H :    0.160893
  35 H :    0.141878
  36 H :    0.158676
  37 H :    0.180319
  38 H :    0.131614
  39 H :    0.146048
  40 H :    0.150074
  41 H :    0.153708
  42 H :    0.167692
  43 H :    0.171208
  44 H :    0.147823
  45 H :    0.137555
  46 H :    0.153909
  47 H :    0.388267
  48 H :    0.163384
  49 H :    0.162009
  50 H :    0.146983
  51 H :    0.135911
  52 H :    0.131678
  53 H :    0.136786
  54 H :    0.159273
Sum of atomic charges:    0.0000000

LOEWDIN ATOMIC CHARGES
----------------------
   0 C :   -0.359943
   1 C :   -0.054335
   2 C :   -0.033704
   3 C :   -0.128376
   4 C :   -0.156392
   5 C :    0.118066
   6 F :   -0.103197
   7 C :   -0.156520
   8 C :   -0.124819
   9 N :   -0.106547
  10 C :   -0.148479
  11 C :   -0.028900
  12 C :   -0.126365
  13 C :   -0.127851
  14 C :   -0.116773
  15 C :   -0.028216
  16 C :    0.002226
  17 N :   -0.117445
  18 N :   -0.070095
  19 N :   -0.020797
  20 N :   -0.139705
  21 C :   -0.113279
  22 C :    0.149022
  23 O :   -0.274347
  24 C :   -0.064301
  25 C :   -0.064523
  26 N :   -0.127766
  27 C :    0.019983
  28 C :   -0.113321
  29 C :   -0.119613
  30 C :   -0.128199
  31 C :   -0.116903
  32 C :   -0.027755
  33 C :   -0.064520
  34 H :    0.131774
  35 H :    0.119326
  36 H :    0.135569
  37 H :    0.150955
  38 H :    0.131846
  39 H :    0.143212
  40 H :    0.145833
  41 H :    0.142711
  42 H :    0.132252
  43 H :    0.141599
  44 H :    0.140237
  45 H :    0.135791
  46 H :    0.144351
  47 H :    0.290577
  48 H :    0.148657
  49 H :    0.140885
  50 H :    0.145427
  51 H :    0.135458
  52 H :    0.133494
  53 H :    0.135221
  54 H :    0.148513

  Mayer bond orders larger than 0.100000
B(  0-C ,  1-C ) :   0.9973 B(  0-C , 34-H ) :   0.9395 B(  0-C , 35-H ) :   0.9362
B(  0-C , 36-H ) :   0.9429 B(  1-C ,  2-C ) :   0.9526 B(  1-C ,  9-N ) :   0.9291
B(  1-C , 37-H ) :   0.9065 B(  2-C ,  3-C ) :   1.4125 B(  2-C ,  8-C ) :   1.4259
B(  3-C ,  4-C ) :   1.4276 B(  3-C , 38-H ) :   0.9211 B(  4-C ,  5-C ) :   1.3842
B(  4-C , 39-H ) :   0.9211 B(  5-C ,  6-F ) :   0.9175 B(  5-C ,  7-C ) :   1.3927
B(  7-C ,  8-C ) :   1.4162 B(  7-C , 40-H ) :   0.9204 B(  8-C , 41-H ) :   0.9201
B(  9-N , 10-C ) :   0.9234 B(  9-N , 22-C ) :   1.0559 B( 10-C , 11-C ) :   0.9630
B( 10-C , 42-H ) :   0.9158 B( 10-C , 43-H ) :   0.9130 B( 11-C , 12-C ) :   1.4210
B( 11-C , 21-C ) :   1.3961 B( 12-C , 13-C ) :   1.4338 B( 12-C , 44-H ) :   0.9140
B( 13-C , 14-C ) :   1.4211 B( 13-C , 45-H ) :   0.9290 B( 14-C , 15-C ) :   1.4059
B( 14-C , 46-H ) :   0.9159 B( 15-C , 16-C ) :   1.0430 B( 15-C , 21-C ) :   1.3864
B( 16-C , 17-N ) :   1.2804 B( 16-C , 20-N ) :   1.4088 B( 17-N , 18-N ) :   1.4611
B( 18-N , 19-N ) :   1.2374 B( 18-N , 20-N ) :   0.1367 B( 19-N , 20-N ) :   1.2215
B( 19-N , 47-H ) :   0.7950 B( 21-C , 48-H ) :   0.9079 B( 22-C , 23-O ) :   1.8137
B( 22-C , 24-C ) :   0.9306 B( 24-C , 25-C ) :   1.2773 B( 24-C , 33-C ) :   1.4660
B( 25-C , 26-N ) :   1.5033 B( 25-C , 49-H ) :   0.9238 B( 26-N , 27-C ) :   1.2477
B( 27-C , 28-C ) :   1.3087 B( 27-C , 32-C ) :   1.2449 B( 28-C , 29-C ) :   1.5118
B( 28-C , 31-C ) :   0.1082 B( 28-C , 50-H ) :   0.9175 B( 29-C , 30-C ) :   1.3474
B( 29-C , 51-H ) :   0.9295 B( 30-C , 31-C ) :   1.5093 B( 30-C , 52-H ) :   0.9306
B( 31-C , 32-C ) :   1.2843 B( 31-C , 53-H ) :   0.9237 B( 32-C , 33-C ) :   1.2809
B( 33-C , 54-H ) :   0.9134

FINAL SINGLE POINT ENERGY     -1506.021811275019

DIPOLE MOMENT
-------------

Method             : SCF
Type of density    : Electron Density
Multiplicity       :   1
Irrep              :   0
Energy             : -1506.0218112750192176 Eh
Relativity type    :
Basis              : AO
                                X                 Y                 Z
Electronic contribution:     -6.160944321       0.254508192      11.418045930
Nuclear contribution   :      8.011563146      -1.021045958     -11.189100231
                        -----------------------------------------
Total Dipole Moment    :      1.850618825      -0.766537766       0.228945699
                        -----------------------------------------
Magnitude (a.u.)       :      2.016131522
Magnitude (Debye)      :      5.124599070

Rotational constants in cm-1:             0.006334             0.002437             0.002218
Rotational constants in MHz :           189.876620            73.056453            66.489991

                             ****ORCA TERMINATED NORMALLY****
TOTAL RUN TIME: 0 days 0 hours 5 minutes 55 seconds 577 msec
