                         Program Version 6.0.0  -   RELEASE  -
|  1> ! B3LYP 6-31G* SP
|  2>
|  3> * xyz 0 1
|  4> C -1.2329 1.8058 -2.1059
|  5> C -1.8066 0.6538 -1.3060
|  6> C -1.0075 -0.0304 -0.3699
|  7> N 0.3707 0.3042 -0.1818
|  8> C 1.3837 -0.2154 -1.1022
|  9> C 2.0626 -1.4214 -0.5111
| 10> C 1.3641 -2.6303 -0.3724
| 11> C 1.9816 -3.7376 0.2160
| 12> C 3.3071 -3.6633 0.6569
| 13> O 3.8809 -4.8080 1.2323
| 14> C 5.2210 -4.8952 1.7242
| 15> F 5.4350 -6.1652 2.2198
| 16> F 5.4135 -3.9780 2.7451
| 17> F 6.1230 -4.6577 0.6993
| 18> C 4.0119 -2.4502 0.5130
| 19> C 3.3881 -1.3382 -0.0582
| 20> S 0.8349 1.1994 1.2301
| 21> O -0.3643 1.4137 2.1110
| 22> O 1.8588 0.4302 2.0162
| 23> C 1.4844 2.7590 0.7379
| 24> C 2.8421 2.8902 0.4339
| 25> C 3.3553 4.1195 0.0086
| 26> C 2.5143 5.2396 -0.1122
| 27> C 3.0506 6.5446 -0.5612
| 28> O 4.2654 6.6606 -0.8808
| 29> O 2.2170 7.6574 -0.6375
| 30> C 1.1512 5.0989 0.1925
| 31> C 0.6403 3.8643 0.6025
| 32> N -1.5368 -1.0286 0.3771
| 33> C -2.8220 -1.4553 0.2652
| 34> C -3.2821 -2.5817 1.1815
| 35> C -2.1195 -3.5018 1.5851
| 36> C -3.9633 -2.0064 2.4264
| 37> C -3.6827 -0.8020 -0.6546
| 38> C -5.0428 -1.1593 -0.7945
| 39> C -5.8605 -0.5069 -1.7156
| 40> C -5.3494 0.5153 -2.5070
| 41> C -4.0148 0.8998 -2.3807
| 42> C -3.1609 0.2572 -1.4552
| 43> H -0.1865 2.0439 -1.8337
| 44> H -1.2538 1.5615 -3.1884
| 45> H -1.8285 2.7245 -1.9198
| 46> H 2.1212 0.5837 -1.3317
| 47> H 0.9155 -0.4978 -2.0713
| 48> H 0.3414 -2.7156 -0.7150
| 49> H 1.4243 -4.6599 0.3304
| 50> H 5.0366 -2.3541 0.8416
| 51> H 3.9422 -0.4092 -0.1419
| 52> H 3.5029 2.0372 0.5113
| 53> H 4.4088 4.1911 -0.2285
| 54> H 2.5724 8.5573 -0.9385
| 55> H 0.4754 5.9384 0.1061
| 56> H -0.4145 3.7693 0.8039
| 57> H -4.0021 -3.2356 0.6484
| 58> H -1.6238 -3.9102 0.6768
| 59> H -2.5004 -4.3566 2.1833
| 60> H -1.3648 -2.9520 2.1911
| 61> H -3.2584 -1.3569 2.9937
| 62> H -4.8516 -1.4005 2.1375
| 63> H -4.3101 -2.8313 3.0876
| 64> H -5.4987 -1.9337 -0.1973
| 65> H -6.8998 -0.7941 -1.8128
| 66> H -5.9942 1.0177 -3.2181
| 67> H -3.6650 1.7024 -3.0151
| 68> *
| 69>
| 70>                          ****END OF INPUT****

CARTESIAN COORDINATES (ANGSTROEM)
---------------------------------
  C     -1.232900    1.805800   -2.105900
  C     -1.806600    0.653800   -1.306000
  C     -1.007500   -0.030400   -0.369900
  N      0.370700    0.304200   -0.181800
  C      1.383700   -0.215400   -1.102200
  C      2.062600   -1.421400   -0.511100
  C      1.364100   -2.630300   -0.372400
  C      1.981600   -3.737600    0.216000
  C      3.307100   -3.663300    0.656900
  O      3.880900   -4.808000    1.232300
  C      5.221000   -4.895200    1.724200
  F      5.435000   -6.165200    2.219800
  F      5.413500   -3.978000    2.745100
  F      6.123000   -4.657700    0.699300
  C      4.011900   -2.450200    0.513000
  C      3.388100   -1.338200   -0.058200
  S      0.834900    1.199400    1.230100
  O     -0.364300    1.413700    2.111000
  O      1.858800    0.430200    2.016200
  C      1.484400    2.759000    0.737900
  C      2.842100    2.890200    0.433900
  C      3.355300    4.119500    0.008600
  C      2.514300    5.239600   -0.112200
  C      3.050600    6.544600   -0.561200
  O      4.265400    6.660600   -0.880800
  O      2.217000    7.657400   -0.637500
  C      1.151200    5.098900    0.192500
  C      0.640300    3.864300    0.602500
  N     -1.536800   -1.028600    0.377100
  C     -2.822000   -1.455300    0.265200
  C     -3.282100   -2.581700    1.181500
  C     -2.119500   -3.501800    1.585100
  C     -3.963300   -2.006400    2.426400
  C     -3.682700   -0.802000   -0.654600
  C     -5.042800   -1.159300   -0.794500
  C     -5.860500   -0.506900   -1.715600
  C     -5.349400    0.515300   -2.507000
  C     -4.014800    0.899800   -2.380700
  C     -3.160900    0.257200   -1.455200
  H     -0.186500    2.043900   -1.833700
  H     -1.253800    1.561500   -3.188400
  H     -1.828500    2.724500   -1.919800
  H      2.121200    0.583700   -1.331700
  H      0.915500   -0.497800   -2.071300
  H      0.341400   -2.715600   -0.715000
  H      1.424300   -4.659900    0.330400
  H      5.036600   -2.354100    0.841600
  H      3.942200   -0.409200   -0.141900
  H      3.502900    2.037200    0.511300
  H      4.408800    4.191100   -0.228500
  H      2.572400    8.557300   -0.938500
  H      0.475400    5.938400    0.106100
  H     -0.414500    3.769300    0.803900
  H     -4.002100   -3.235600    0.648400
  H     -1.623800   -3.910200    0.676800
  H     -2.500400   -4.356600    2.183300
  H     -1.364800   -2.952000    2.191100
  H     -3.258400   -1.356900    2.993700
  H     -4.851600   -1.400500    2.137500
  H     -4.310100   -2.831300    3.087600
  H     -5.498700   -1.933700   -0.197300
  H     -6.899800   -0.794100   -1.812800
  H     -5.994200    1.017700   -3.218100
  H     -3.665000    1.702400   -3.015100

 Total Charge           Charge          ....    0
 Multiplicity           Mult            ....    1
 Number of Electrons    NEL             ....  290
 Basis Dimension        Dim             ....  600

ORBITAL ENERGIES
----------------

  NO   OCC          E(Eh)            E(eV)
   0   2.0000     -89.095848     -2424.4213
   1   2.0000     -24.734047      -673.0476
   2   2.0000     -24.730680      -672.9560
   3   2.0000     -24.729063      -672.9120
   4   2.0000     -19.202552      -522.5280
   5   2.0000     -19.199467      -522.4441
   6   2.0000     -19.141156      -520.8573
   7   2.0000     -19.122855      -520.3593
   8   2.0000     -19.120817      -520.3039
   9   2.0000     -14.367963      -390.9721
  10   2.0000     -14.323308      -389.7570
  11   2.0000     -10.495193      -285.5887
  12   2.0000     -10.338898      -281.3357
  13   2.0000     -10.257288      -279.1150
  14   2.0000     -10.256571      -279.0955
  15   2.0000     -10.244458      -278.7659
  16   2.0000     -10.236896      -278.5601
  17   2.0000     -10.235343      -278.5178
  18   2.0000     -10.229417      -278.3566
  19   2.0000     -10.224067      -278.2110
  20   2.0000     -10.222147      -278.1588
  21   2.0000     -10.221087      -278.1299
  22   2.0000     -10.220446      -278.1125
  23   2.0000     -10.208108      -277.7767
  24   2.0000     -10.207368      -277.7566
  25   2.0000     -10.202184      -277.6155
  26   2.0000     -10.197601      -277.4908
  27   2.0000     -10.196880      -277.4712
  28   2.0000     -10.196648      -277.4649
  29   2.0000     -10.195011      -277.4204
  30   2.0000     -10.191173      -277.3159
  31   2.0000     -10.188545      -277.2444
  32   2.0000     -10.186708      -277.1944
  33   2.0000     -10.185933      -277.1733
  34   2.0000     -10.184872      -277.1445
  35   2.0000     -10.183823      -277.1159
  36   2.0000     -10.183614      -277.1102
  37   2.0000     -10.168053      -276.6868
  38   2.0000     -10.159337      -276.4496
  39   2.0000      -8.131334      -221.2648
  40   2.0000      -6.096400      -165.8915
  41   2.0000      -6.094350      -165.8357
  42   2.0000      -6.094036      -165.8271
  43   2.0000      -1.294837       -35.2343
  44   2.0000      -1.216629       -33.1062
  45   2.0000      -1.214891       -33.0589
  46   2.0000      -1.083897       -29.4943
  47   2.0000      -1.080552       -29.4033
  48   2.0000      -1.071477       -29.1564
  49   2.0000      -0.997998       -27.1569
  50   2.0000      -0.961437       -26.1620
  51   2.0000      -0.957905       -26.0659
  52   2.0000      -0.914241       -24.8778
  53   2.0000      -0.894373       -24.3371
  54   2.0000      -0.863889       -23.5076
  55   2.0000      -0.852792       -23.2056
  56   2.0000      -0.817993       -22.2587
  57   2.0000      -0.809760       -22.0347
  58   2.0000      -0.790221       -21.5030
  59   2.0000      -0.780409       -21.2360
  60   2.0000      -0.776197       -21.1214
  61   2.0000      -0.763853       -20.7855
  62   2.0000      -0.747020       -20.3274
  63   2.0000      -0.743590       -20.2341
  64   2.0000      -0.724332       -19.7101
  65   2.0000      -0.712612       -19.3912
  66   2.0000      -0.691362       -18.8129
  67   2.0000      -0.673940       -18.3389
  68   2.0000      -0.670523       -18.2458
  69   2.0000      -0.654548       -17.8111
  70   2.0000      -0.645521       -17.5655
  71   2.0000      -0.642217       -17.4756
  72   2.0000      -0.624161       -16.9843
  73   2.0000      -0.620223       -16.8771
  74   2.0000      -0.611457       -16.6386
  75   2.0000      -0.605461       -16.4754
  76   2.0000      -0.594804       -16.1854
  77   2.0000      -0.586753       -15.9664
  78   2.0000      -0.583077       -15.8663
  79   2.0000      -0.566135       -15.4053
  80   2.0000      -0.562615       -15.3095
  81   2.0000      -0.553898       -15.0723
  82   2.0000      -0.544480       -14.8161
  83   2.0000      -0.531942       -14.4749
  84   2.0000      -0.515271       -14.0212
  85   2.0000      -0.499509       -13.5923
  86   2.0000      -0.494410       -13.4536
  87   2.0000      -0.488920       -13.3042
  88   2.0000      -0.484008       -13.1705
  89   2.0000      -0.477131       -12.9834
  90   2.0000      -0.476486       -12.9658
  91   2.0000      -0.469971       -12.7886
  92   2.0000      -0.464068       -12.6279
  93   2.0000      -0.461122       -12.5478
  94   2.0000      -0.459943       -12.5157
  95   2.0000      -0.454268       -12.3613
  96   2.0000      -0.452823       -12.3219
  97   2.0000      -0.450621       -12.2620
  98   2.0000      -0.446969       -12.1626
  99   2.0000      -0.446779       -12.1575
 100   2.0000      -0.445147       -12.1131
 101   2.0000      -0.439933       -11.9712
 102   2.0000      -0.437537       -11.9060
 103   2.0000      -0.435937       -11.8624
 104   2.0000      -0.427059       -11.6209
 105   2.0000      -0.424519       -11.5517
 106   2.0000      -0.421994       -11.4830
 107   2.0000      -0.420246       -11.4355
 108   2.0000      -0.416252       -11.3268
 109   2.0000      -0.409137       -11.1332
 110   2.0000      -0.407957       -11.1011
 111   2.0000      -0.407282       -11.0827
 112   2.0000      -0.403997       -10.9933
 113   2.0000      -0.397143       -10.8068
 114   2.0000      -0.395844       -10.7715
 115   2.0000      -0.389864       -10.6087
 116   2.0000      -0.388608       -10.5746
 117   2.0000      -0.382931       -10.4201
 118   2.0000      -0.378794       -10.3075
 119   2.0000      -0.374329       -10.1860
 120   2.0000      -0.371651       -10.1131
 121   2.0000      -0.369290       -10.0489
 122   2.0000      -0.366166        -9.9639
 123   2.0000      -0.361936        -9.8488
 124   2.0000      -0.350293        -9.5319
 125   2.0000      -0.340836        -9.2746
 126   2.0000      -0.338522        -9.2116
 127   2.0000      -0.334646        -9.1062
 128   2.0000      -0.330288        -8.9876
 129   2.0000      -0.325100        -8.8464
 130   2.0000      -0.323533        -8.8038
 131   2.0000      -0.318807        -8.6752
 132   2.0000      -0.306351        -8.3362
 133   2.0000      -0.292989        -7.9726
 134   2.0000      -0.288573        -7.8525
 135   2.0000      -0.284465        -7.7407
 136   2.0000      -0.281356        -7.6561
 137   2.0000      -0.277908        -7.5623
 138   2.0000      -0.271358        -7.3840
 139   2.0000      -0.265016        -7.2115
 140   2.0000      -0.254090        -6.9141
 141   2.0000      -0.248142        -6.7523
 142   2.0000      -0.242279        -6.5928
 143   2.0000      -0.227924        -6.2021
 144   2.0000      -0.218857        -5.9554
 145   0.0000      -0.086255        -2.3471
 146   0.0000      -0.060629        -1.6498
 147   0.0000      -0.035518        -0.9665
 148   0.0000      -0.030315        -0.8249
 149   0.0000      -0.003191        -0.0868

MULLIKEN ATOMIC CHARGES
-----------------------
   0 C :   -0.544709
   1 C :    0.104572
   2 C :    0.302099
   3 N :   -0.600446
   4 C :   -0.274746
   5 C :    0.190191
   6 C :   -0.140959
   7 C :   -0.175363
   8 C :    0.354075
   9 O :   -0.547522
  10 C :    1.086357
  11 F :   -0.279290
  12 F :   -0.290333
  13 F :   -0.293983
  14 C :   -0.189315
  15 C :   -0.143898
  16 S :    1.201025
  17 O :   -0.538210
  18 O :   -0.525913
  19 C :   -0.121252
  20 C :   -0.156419
  21 C :   -0.140559
  22 C :    0.083430
  23 C :    0.528786
  24 O :   -0.443704
  25 O :   -0.623690
  26 C :   -0.147076
  27 C :   -0.146299
  28 N :   -0.406846
  29 C :    0.188624
  30 C :   -0.130383
  31 C :   -0.432358
  32 C :   -0.440857
  33 C :    0.107091
  34 C :   -0.207737
  35 C :   -0.124556
  36 C :   -0.118258
  37 C :   -0.203903
  38 C :    0.124391
  39 H :    0.168206
  40 H :    0.160572
  41 H :    0.163304
  42 H :    0.153120
  43 H :    0.175759
  44 H :    0.141585
  45 H :    0.144836
  46 H :    0.148231
  47 H :    0.125204
  48 H :    0.184475
  49 H :    0.180911
  50 H :    0.435147
  51 H :    0.173096
  52 H :    0.185090
  53 H :    0.129252
  54 H :    0.132349
  55 H :    0.129785
  56 H :    0.181128
  57 H :    0.174397
  58 H :    0.138295
  59 H :    0.142559
  60 H :    0.144620
  61 H :    0.135088
  62 H :    0.135523
  63 H :    0.135410
Sum of atomic charges:    0.0000000

LOEWDIN ATOMIC CHARGES
----------------------
   0 C :   -0.361817
   1 C :   -0.022684
   2 C :    0.027708
   3 N :   -0.280488
   4 C :   -0.147153
   5 C :   -0.037324
   6 C :   -0.108214
   7 C :   -0.139767
   8 C :    0.087732
   9 O :   -0.161948
  10 C :    0.362325
  11 F :   -0.087120
  12 F :   -0.105087
  13 F :   -0.108077
  14 C :   -0.158482
  15 C :   -0.111341
  16 S :    1.266117
  17 O :   -0.567246
  18 O :   -0.558559
  19 C :   -0.174622
  20 C :   -0.111617
  21 C :   -0.085921
  22 C :   -0.039376
  23 C :    0.180445
  24 O :   -0.260164
  25 O :   -0.334477
  26 C :   -0.099177
  27 C :   -0.103059
  28 N :   -0.117925
  29 C :    0.053531
  30 C :   -0.129937
  31 C :   -0.347123
  32 C :   -0.347387
  33 C :   -0.026096
  34 C :   -0.116099
  35 C :   -0.126938
  36 C :   -0.118466
  37 C :   -0.125819
  38 C :   -0.004892
  39 H :    0.137313
  40 H :    0.135626
  41 H :    0.137158
  42 H :    0.126108
  43 H :    0.144125
  44 H :    0.139794
  45 H :    0.143334
  46 H :    0.140512
  47 H :    0.128741
  48 H :    0.155925
  49 H :    0.160528
  50 H :    0.350541
  51 H :    0.154954
  52 H :    0.160015
  53 H :    0.121614
  54 H :    0.118548
  55 H :    0.118391
  56 H :    0.142216
  57 H :    0.139416
  58 H :    0.120019
  59 H :    0.123975
  60 H :    0.139910
  61 H :    0.135126
  62 H :    0.135368
  63 H :    0.137283

  Mayer bond orders larger than 0.100000
B(  0-C ,  1-C ) :   0.9970 B(  0-C , 39-H ) :   0.9308 B(  0-C , 40-H ) :   0.9283
B(  0-C , 41-H ) :   0.9289 B(  1-C ,  2-C ) :   1.4444 B(  1-C , 38-C ) :   1.2585
B(  2-C ,  3-N ) :   0.8854 B(  2-C , 28-N ) :   1.2836 B(  3-N ,  4-C ) :   0.9260
B(  3-N , 16-S ) :   0.8080 B(  4-C ,  5-C ) :   0.9454 B(  4-C , 42-H ) :   0.9252
B(  4-C , 43-H ) :   0.9221 B(  5-C ,  6-C ) :   1.4280 B(  5-C , 15-C ) :   1.4374
B(  6-C ,  7-C ) :   1.4431 B(  6-C , 44-H ) :   0.9127 B(  7-C ,  8-C ) :   1.4144
B(  7-C , 45-H ) :   0.9186 B(  8-C ,  9-O ) :   0.8208 B(  8-C , 14-C ) :   1.3960
B(  9-O , 10-C ) :   0.9910 B( 10-C , 11-F ) :   1.0080 B( 10-C , 12-F ) :   0.9685
B( 10-C , 13-F ) :   0.9650 B( 14-C , 15-C ) :   1.4367 B( 14-C , 46-H ) :   0.9093
B( 15-C , 47-H ) :   0.9194 B( 16-S , 17-O ) :   1.6346 B( 16-S , 18-O ) :   1.6582
B( 16-S , 19-C ) :   0.8085 B( 19-C , 20-C ) :   1.3807 B( 19-C , 27-C ) :   1.3961
B( 20-C , 21-C ) :   1.4186 B( 20-C , 48-H ) :   0.9058 B( 21-C , 22-C ) :   1.4048
B( 21-C , 49-H ) :   0.9094 B( 22-C , 23-C ) :   1.0065 B( 22-C , 26-C ) :   1.3833
B( 23-C , 24-O ) :   1.8635 B( 23-C , 25-O ) :   1.0256 B( 25-O , 50-H ) :   0.7411
B( 26-C , 27-C ) :   1.4168 B( 26-C , 51-H ) :   0.9149 B( 27-C , 52-H ) :   0.9090
B( 28-N , 29-C ) :   1.4369 B( 29-C , 30-C ) :   0.9838 B( 29-C , 33-C ) :   1.2230
B( 30-C , 31-C ) :   1.0036 B( 30-C , 32-C ) :   0.9953 B( 30-C , 53-H ) :   0.9216
B( 31-C , 54-H ) :   0.9492 B( 31-C , 55-H ) :   0.9436 B( 31-C , 56-H ) :   0.9368
B( 32-C , 57-H ) :   0.9406 B( 32-C , 58-H ) :   0.9447 B( 32-C , 59-H ) :   0.9448
B( 33-C , 34-C ) :   1.2935 B( 33-C , 38-C ) :   1.2826 B( 34-C , 35-C ) :   1.5076
B( 34-C , 37-C ) :   0.1052 B( 34-C , 60-H ) :   0.9145 B( 35-C , 36-C ) :   1.3595
B( 35-C , 61-H ) :   0.9289 B( 36-C , 37-C ) :   1.5077 B( 36-C , 62-H ) :   0.9290
B( 37-C , 38-C ) :   1.2897 B( 37-C , 63-H ) :   0.9170

FINAL SINGLE POINT ENERGY     -2264.164880842763

DIPOLE MOMENT
-------------

Method             : SCF
Type of density    : Electron Density
Multiplicity       :   1
Irrep              :   0
Energy             : -2264.1648808427630684 Eh
Relativity type    :
Basis              : AO
                                X                 Y                 Z
Electronic contribution:     51.319551978     -14.680066989      11.912838614
Nuclear contribution   :    -53.122066986      16.130329168     -14.323854020
                        -----------------------------------------
Total Dipole Moment    :     -1.802515008       1.450262179      -2.411015406
                        -----------------------------------------
Magnitude (a.u.)       :      3.341454179
Magnitude (Debye)      :      8.493301548

Rotational constants in cm-1:             0.002664             0.002084             0.001285
Rotational constants in MHz :            79.869117            62.486519            38.524118

                             ****ORCA TERMINATED NORMALLY****
TOTAL RUN TIME: 0 days 0 hours 13 minutes 57 seconds 334 msec
