                         Program Version 6.0.0  -   RELEASE  -
|  1> ! B3LYP 6-31G* SP
|  2>
|  3> * xyz 0 1
|  4> N -6.8388 0.8890 4.7303
|  5> C -5.8673 0.7019 4.1300
|  6> C -4.6582 0.4689 3.3829
|  7> C -3.7165 -0.4543 3.8515
|  8> C -2.5417 -0.6850 3.1306
|  9> C -2.2927 -0.0014 1.9343
| 10> O -1.0972 -0.2829 1.2525
| 11> C -0.7165 0.2379 -0.0253
| 12> C 0.7879 0.0775 -0.2341
| 13> N 1.0110 -0.3163 -1.6332
| 14> S 2.1402 0.7501 -2.4313
| 15> O 2.2800 0.3555 -3.8750
| 16> O 1.6368 2.1666 -2.3632
| 17> C 3.7177 0.6236 -1.6439
| 18> C 4.3106 1.7693 -1.0895
| 19> C 5.5513 1.6868 -0.4528
| 20> C 6.2122 0.4595 -0.3621
| 21> Cl 7.7695 0.3582 0.4388
| 22> C 5.6308 -0.6877 -0.9094
| 23> C 4.3875 -0.6147 -1.5495
| 24> Cl 3.7049 -2.0943 -2.2161
| 25> C -0.2950 -0.2979 -2.2992
| 26> C -1.3481 -0.5096 -1.2086
| 27> O -2.5676 0.0918 -1.5707
| 28> C -1.5496 -2.0234 -0.9329
| 29> O -2.6301 -2.2249 -0.0639
| 30> C -3.2407 0.9310 1.4682
| 31> C -4.4173 1.1626 2.1890
| 32> F -5.3190 2.0640 1.7224
| 33> H -3.8904 -0.9964 4.7735
| 34> H -1.8212 -1.4033 3.5009
| 35> H -0.9424 1.3262 -0.0863
| 36> H 1.3124 1.0186 0.0459
| 37> H 1.1822 -0.7311 0.4184
| 38> H 3.8150 2.7295 -1.1458
| 39> H 5.9974 2.5776 -0.0292
| 40> H 6.1455 -1.6376 -0.8365
| 41> H -0.3330 -1.0880 -3.0798
| 42> H -0.4831 0.6824 -2.7951
| 43> H -2.8810 -0.3497 -2.4035
| 44> H -1.7613 -2.5509 -1.8902
| 45> H -0.6241 -2.4625 -0.4958
| 46> H -2.6770 -3.2029 0.0975
| 47> H -3.0831 1.4865 0.5565
| 48> *
| 49>
| 50>                          ****END OF INPUT****

CARTESIAN COORDINATES (ANGSTROEM)
---------------------------------
  N     -6.838800    0.889000    4.730300
  C     -5.867300    0.701900    4.130000
  C     -4.658200    0.468900    3.382900
  C     -3.716500   -0.454300    3.851500
  C     -2.541700   -0.685000    3.130600
  C     -2.292700   -0.001400    1.934300
  O     -1.097200   -0.282900    1.252500
  C     -0.716500    0.237900   -0.025300
  C      0.787900    0.077500   -0.234100
  N      1.011000   -0.316300   -1.633200
  S      2.140200    0.750100   -2.431300
  O      2.280000    0.355500   -3.875000
  O      1.636800    2.166600   -2.363200
  C      3.717700    0.623600   -1.643900
  C      4.310600    1.769300   -1.089500
  C      5.551300    1.686800   -0.452800
  C      6.212200    0.459500   -0.362100
  Cl     7.769500    0.358200    0.438800
  C      5.630800   -0.687700   -0.909400
  C      4.387500   -0.614700   -1.549500
  Cl     3.704900   -2.094300   -2.216100
  C     -0.295000   -0.297900   -2.299200
  C     -1.348100   -0.509600   -1.208600
  O     -2.567600    0.091800   -1.570700
  C     -1.549600   -2.023400   -0.932900
  O     -2.630100   -2.224900   -0.063900
  C     -3.240700    0.931000    1.468200
  C     -4.417300    1.162600    2.189000
  F     -5.319000    2.064000    1.722400
  H     -3.890400   -0.996400    4.773500
  H     -1.821200   -1.403300    3.500900
  H     -0.942400    1.326200   -0.086300
  H      1.312400    1.018600    0.045900
  H      1.182200   -0.731100    0.418400
  H      3.815000    2.729500   -1.145800
  H      5.997400    2.577600   -0.029200
  H      6.145500   -1.637600   -0.836500
  H     -0.333000   -1.088000   -3.079800
  H     -0.483100    0.682400   -2.795100
  H     -2.881000   -0.349700   -2.403500
  H     -1.761300   -2.550900   -1.890200
  H     -0.624100   -2.462500   -0.495800
  H     -2.677000   -3.202900    0.097500
  H     -3.083100    1.486500    0.556500

 Total Charge           Charge          ....    0
 Multiplicity           Mult            ....    1
 Number of Electrons    NEL             ....  236
 Basis Dimension        Dim             ....  448

ORBITAL ENERGIES
----------------

  NO   OCC          E(Eh)            E(eV)
   0   2.0000    -101.561129     -2763.6188
   1   2.0000    -101.557097     -2763.5091
   2   2.0000     -89.107932     -2424.7501
   3   2.0000     -24.712914      -672.4726
   4   2.0000     -19.191149      -522.2177
   5   2.0000     -19.167480      -521.5736
   6   2.0000     -19.154080      -521.2090
   7   2.0000     -19.140960      -520.8520
   8   2.0000     -19.136028      -520.7178
   9   2.0000     -14.385239      -391.4422
  10   2.0000     -14.322888      -389.7456
  11   2.0000     -10.299352      -280.2596
  12   2.0000     -10.292252      -280.0664
  13   2.0000     -10.292052      -280.0610
  14   2.0000     -10.275524      -279.6112
  15   2.0000     -10.271078      -279.4902
  16   2.0000     -10.267924      -279.4044
  17   2.0000     -10.264463      -279.3102
  18   2.0000     -10.248730      -278.8821
  19   2.0000     -10.244818      -278.7757
  20   2.0000     -10.242610      -278.7156
  21   2.0000     -10.240819      -278.6668
  22   2.0000     -10.235560      -278.5237
  23   2.0000     -10.234962      -278.5075
  24   2.0000     -10.228183      -278.3230
  25   2.0000     -10.214910      -277.9618
  26   2.0000     -10.214833      -277.9597
  27   2.0000     -10.201225      -277.5894
  28   2.0000     -10.200099      -277.5588
  29   2.0000      -9.492853      -258.3137
  30   2.0000      -9.488648      -258.1992
  31   2.0000      -8.145432      -221.6485
  32   2.0000      -7.256075      -197.4478
  33   2.0000      -7.252163      -197.3414
  34   2.0000      -7.246444      -197.1858
  35   2.0000      -7.245954      -197.1724
  36   2.0000      -7.242149      -197.0689
  37   2.0000      -7.241520      -197.0518
  38   2.0000      -6.109977      -166.2609
  39   2.0000      -6.108547      -166.2220
  40   2.0000      -6.107956      -166.2059
  41   2.0000      -1.224472       -33.3196
  42   2.0000      -1.098633       -29.8953
  43   2.0000      -1.073240       -29.2044
  44   2.0000      -1.051328       -28.6081
  45   2.0000      -1.029548       -28.0154
  46   2.0000      -0.976006       -26.5585
  47   2.0000      -0.966340       -26.2955
  48   2.0000      -0.938328       -25.5332
  49   2.0000      -0.901825       -24.5399
  50   2.0000      -0.898449       -24.4480
  51   2.0000      -0.873530       -23.7699
  52   2.0000      -0.860425       -23.4133
  53   2.0000      -0.817245       -22.2384
  54   2.0000      -0.796673       -21.6786
  55   2.0000      -0.782055       -21.2808
  56   2.0000      -0.775502       -21.1025
  57   2.0000      -0.767395       -20.8819
  58   2.0000      -0.757411       -20.6102
  59   2.0000      -0.709133       -19.2965
  60   2.0000      -0.688404       -18.7324
  61   2.0000      -0.659971       -17.9587
  62   2.0000      -0.655485       -17.8366
  63   2.0000      -0.640535       -17.4298
  64   2.0000      -0.633995       -17.2519
  65   2.0000      -0.607453       -16.5296
  66   2.0000      -0.597796       -16.2669
  67   2.0000      -0.571576       -15.5534
  68   2.0000      -0.567712       -15.4482
  69   2.0000      -0.549942       -14.9647
  70   2.0000      -0.536913       -14.6101
  71   2.0000      -0.530165       -14.4265
  72   2.0000      -0.524391       -14.2694
  73   2.0000      -0.521330       -14.1861
  74   2.0000      -0.509519       -13.8647
  75   2.0000      -0.502819       -13.6824
  76   2.0000      -0.497243       -13.5307
  77   2.0000      -0.491598       -13.3771
  78   2.0000      -0.484339       -13.1795
  79   2.0000      -0.481169       -13.0933
  80   2.0000      -0.470044       -12.7906
  81   2.0000      -0.468789       -12.7564
  82   2.0000      -0.459556       -12.5051
  83   2.0000      -0.453991       -12.3537
  84   2.0000      -0.448318       -12.1994
  85   2.0000      -0.445464       -12.1217
  86   2.0000      -0.436701       -11.8832
  87   2.0000      -0.432166       -11.7598
  88   2.0000      -0.426474       -11.6049
  89   2.0000      -0.422945       -11.5089
  90   2.0000      -0.412977       -11.2377
  91   2.0000      -0.408868       -11.1259
  92   2.0000      -0.404566       -11.0088
  93   2.0000      -0.397586       -10.8189
  94   2.0000      -0.395091       -10.7510
  95   2.0000      -0.389355       -10.5949
  96   2.0000      -0.383145       -10.4259
  97   2.0000      -0.378092       -10.2884
  98   2.0000      -0.368420       -10.0252
  99   2.0000      -0.355351        -9.6696
 100   2.0000      -0.348228        -9.4758
 101   2.0000      -0.347350        -9.4519
 102   2.0000      -0.346092        -9.4176
 103   2.0000      -0.341462        -9.2917
 104   2.0000      -0.337171        -9.1749
 105   2.0000      -0.333357        -9.0711
 106   2.0000      -0.322607        -8.7786
 107   2.0000      -0.319436        -8.6923
 108   2.0000      -0.310523        -8.4498
 109   2.0000      -0.308046        -8.3824
 110   2.0000      -0.294745        -8.0204
 111   2.0000      -0.292403        -7.9567
 112   2.0000      -0.285613        -7.7719
 113   2.0000      -0.280073        -7.6212
 114   2.0000      -0.278333        -7.5738
 115   2.0000      -0.263655        -7.1744
 116   2.0000      -0.262072        -7.1313
 117   2.0000      -0.237665        -6.4672
 118   0.0000      -0.076870        -2.0917
 119   0.0000      -0.054251        -1.4763
 120   0.0000      -0.035670        -0.9706
 121   0.0000      -0.024043        -0.6542
 122   0.0000      -0.016500        -0.4490

MULLIKEN ATOMIC CHARGES
-----------------------
   0 N :   -0.308093
   1 C :    0.099540
   2 C :    0.020202
   3 C :   -0.125454
   4 C :   -0.188638
   5 C :    0.429213
   6 O :   -0.545031
   7 C :    0.115123
   8 C :   -0.188300
   9 N :   -0.522168
  10 S :    1.218691
  11 O :   -0.534736
  12 O :   -0.558980
  13 C :   -0.163271
  14 C :   -0.130151
  15 C :   -0.122177
  16 C :   -0.050725
  17 Cl:    0.026353
  18 C :   -0.123310
  19 C :   -0.072791
  20 Cl:    0.059151
  21 C :   -0.197522
  22 C :    0.287481
  23 O :   -0.633423
  24 C :   -0.028901
  25 O :   -0.610183
  26 C :   -0.269287
  27 C :    0.396691
  28 F :   -0.295908
  29 H :    0.164822
  30 H :    0.145394
  31 H :    0.172157
  32 H :    0.179923
  33 H :    0.178091
  34 H :    0.204875
  35 H :    0.176541
  36 H :    0.188743
  37 H :    0.171634
  38 H :    0.200984
  39 H :    0.405028
  40 H :    0.112697
  41 H :    0.135055
  42 H :    0.402073
  43 H :    0.178592
Sum of atomic charges:   -0.0000000

LOEWDIN ATOMIC CHARGES
----------------------
   0 N :   -0.098922
   1 C :   -0.007307
   2 C :   -0.098870
   3 C :   -0.089025
   4 C :   -0.152373
   5 C :    0.121609
   6 O :   -0.166659
   7 C :    0.004515
   8 C :   -0.171160
   9 N :   -0.305131
  10 S :    1.252808
  11 O :   -0.563554
  12 O :   -0.586868
  13 C :   -0.200723
  14 C :   -0.087170
  15 C :   -0.128748
  16 C :   -0.063566
  17 Cl:    0.070422
  18 C :   -0.132936
  19 C :   -0.056815
  20 Cl:    0.086873
  21 C :   -0.172947
  22 C :    0.033504
  23 O :   -0.362674
  24 C :   -0.114413
  25 O :   -0.394838
  26 C :   -0.182362
  27 C :    0.149231
  28 F :   -0.086838
  29 H :    0.152562
  30 H :    0.144962
  31 H :    0.137461
  32 H :    0.140599
  33 H :    0.136104
  34 H :    0.171942
  35 H :    0.157130
  36 H :    0.164326
  37 H :    0.135813
  38 H :    0.146337
  39 H :    0.323355
  40 H :    0.101426
  41 H :    0.113079
  42 H :    0.319761
  43 H :    0.160084

  Mayer bond orders larger than 0.100000
B(  0-N ,  1-C ) :   3.0223 B(  1-C ,  2-C ) :   0.9801 B(  2-C ,  3-C ) :   1.3832
B(  2-C , 27-C ) :   1.3188 B(  3-C ,  4-C ) :   1.4611 B(  3-C , 29-H ) :   0.9217
B(  4-C ,  5-C ) :   1.3870 B(  4-C , 30-H ) :   0.9188 B(  5-C ,  6-O ) :   0.8899
B(  5-C , 26-C ) :   1.3477 B(  6-O ,  7-C ) :   0.8820 B(  7-C ,  8-C ) :   0.9783
B(  7-C , 22-C ) :   0.9643 B(  7-C , 31-H ) :   0.9029 B(  8-C ,  9-N ) :   0.9301
B(  8-C , 32-H ) :   0.9083 B(  8-C , 33-H ) :   0.9207 B(  9-N , 10-S ) :   0.7938
B(  9-N , 21-C ) :   0.9191 B( 10-S , 11-O ) :   1.6563 B( 10-S , 12-O ) :   1.5892
B( 10-S , 13-C ) :   0.8115 B( 13-C , 14-C ) :   1.4010 B( 13-C , 19-C ) :   1.3425
B( 14-C , 15-C ) :   1.4397 B( 14-C , 34-H ) :   0.9005 B( 15-C , 16-C ) :   1.4025
B( 15-C , 35-H ) :   0.9187 B( 16-C , 17-Cl) :   1.0473 B( 16-C , 18-C ) :   1.4040
B( 18-C , 19-C ) :   1.4144 B( 18-C , 36-H ) :   0.9126 B( 19-C , 20-Cl) :   1.0836
B( 21-C , 22-C ) :   0.9371 B( 21-C , 37-H ) :   0.9216 B( 21-C , 38-H ) :   0.8950
B( 22-C , 23-O ) :   0.9310 B( 22-C , 24-C ) :   0.9552 B( 23-O , 39-H ) :   0.7772
B( 24-C , 25-O ) :   0.9724 B( 24-C , 40-H ) :   0.9163 B( 24-C , 41-H ) :   0.9150
B( 25-O , 42-H ) :   0.7855 B( 26-C , 27-C ) :   1.3828 B( 26-C , 43-H ) :   0.8928
B( 27-C , 28-F ) :   0.9625

FINAL SINGLE POINT ENERGY     -2597.900495419570

DIPOLE MOMENT
-------------

Method             : SCF
Type of density    : Electron Density
Multiplicity       :   1
Irrep              :   0
Energy             : -2597.9004954195697792 Eh
Relativity type    :
Basis              : AO
                                X                 Y                 Z
Electronic contribution:     19.024415621       3.166822320       0.828284118
Nuclear contribution   :    -16.436946612      -4.850228934      -0.979412979
                        -----------------------------------------
Total Dipole Moment    :      2.587469009      -1.683406614      -0.151128861
                        -----------------------------------------
Magnitude (a.u.)       :      3.090581439
Magnitude (Debye)      :      7.855633722

Rotational constants in cm-1:             0.008759             0.001847             0.001721
Rotational constants in MHz :           262.574140            55.375489            51.591261

                             ****ORCA TERMINATED NORMALLY****
TOTAL RUN TIME: 0 days 0 hours 7 minutes 53 seconds 435 msec
