                         Program Version 6.0.0  -   RELEASE  -
|  1> ! B3LYP 6-31G* SP
|  2>
|  3> * xyz 0 1
|  4> C -7.2483 1.9306 0.4711
|  5> N -6.2224 0.9626 0.0504
|  6> C -4.9085 1.3601 -0.0499
|  7> O -4.5675 2.5522 0.1828
|  8> C -3.9568 0.4147 -0.4087
|  9> C -2.5880 0.4695 -0.5989
| 10> C -1.6997 1.6827 -0.5349
| 11> C -0.2706 1.3127 -0.2695
| 12> O 0.5777 1.4201 -1.1965
| 13> N 0.1105 0.8157 1.0228
| 14> C 1.4442 0.4175 1.3638
| 15> N 2.4973 0.4923 0.5219
| 16> C 3.6468 0.0484 1.1021
| 17> C 4.9365 0.0698 0.3712
| 18> C 5.1517 1.0548 -0.6065
| 19> C 6.3525 1.1022 -1.3140
| 20> C 7.3557 0.1686 -1.0582
| 21> C 7.1714 -0.8252 -0.0806
| 22> C 8.2365 -1.8671 0.1703
| 23> F 9.4509 -1.4935 -0.3787
| 24> F 8.4160 -2.0444 1.5309
| 25> F 7.8430 -3.0664 -0.3931
| 26> C 5.9470 -0.8848 0.6160
| 27> F 5.7283 -1.9035 1.4881
| 28> C 3.5032 -0.3691 2.4287
| 29> S 1.8887 -0.1852 2.8653
| 30> C -2.2333 -0.8227 -0.9864
| 31> O -3.2985 -1.6018 -0.9976
| 32> C -4.3308 -0.8685 -0.6548
| 33> N -5.6217 -1.2819 -0.5509
| 34> C -5.9743 -2.6898 -0.7694
| 35> C -6.5695 -0.3600 -0.1668
| 36> O -7.7674 -0.7300 -0.0078
| 37> H -6.9936 2.9596 0.1372
| 38> H -8.2354 1.6912 0.0214
| 39> H -7.3373 1.9201 1.5774
| 40> H -2.0373 2.3557 0.2804
| 41> H -1.7795 2.2379 -1.4950
| 42> H -0.6272 0.7265 1.7574
| 43> H 4.3912 1.7958 -0.8194
| 44> H 6.5051 1.8651 -2.0669
| 45> H 8.2725 0.2232 -1.6311
| 46> H 4.2888 -0.7126 3.0871
| 47> H -1.2383 -1.1580 -1.2474
| 48> H -6.9398 -2.7689 -1.3133
| 49> H -6.0615 -3.2075 0.2088
| 50> H -5.2083 -3.2086 -1.3844
| 51> *
| 52>
| 53>                          ****END OF INPUT****

CARTESIAN COORDINATES (ANGSTROEM)
---------------------------------
  C     -7.248300    1.930600    0.471100
  N     -6.222400    0.962600    0.050400
  C     -4.908500    1.360100   -0.049900
  O     -4.567500    2.552200    0.182800
  C     -3.956800    0.414700   -0.408700
  C     -2.588000    0.469500   -0.598900
  C     -1.699700    1.682700   -0.534900
  C     -0.270600    1.312700   -0.269500
  O      0.577700    1.420100   -1.196500
  N      0.110500    0.815700    1.022800
  C      1.444200    0.417500    1.363800
  N      2.497300    0.492300    0.521900
  C      3.646800    0.048400    1.102100
  C      4.936500    0.069800    0.371200
  C      5.151700    1.054800   -0.606500
  C      6.352500    1.102200   -1.314000
  C      7.355700    0.168600   -1.058200
  C      7.171400   -0.825200   -0.080600
  C      8.236500   -1.867100    0.170300
  F      9.450900   -1.493500   -0.378700
  F      8.416000   -2.044400    1.530900
  F      7.843000   -3.066400   -0.393100
  C      5.947000   -0.884800    0.616000
  F      5.728300   -1.903500    1.488100
  C      3.503200   -0.369100    2.428700
  S      1.888700   -0.185200    2.865300
  C     -2.233300   -0.822700   -0.986400
  O     -3.298500   -1.601800   -0.997600
  C     -4.330800   -0.868500   -0.654800
  N     -5.621700   -1.281900   -0.550900
  C     -5.974300   -2.689800   -0.769400
  C     -6.569500   -0.360000   -0.166800
  O     -7.767400   -0.730000   -0.007800
  H     -6.993600    2.959600    0.137200
  H     -8.235400    1.691200    0.021400
  H     -7.337300    1.920100    1.577400
  H     -2.037300    2.355700    0.280400
  H     -1.779500    2.237900   -1.495000
  H     -0.627200    0.726500    1.757400
  H      4.391200    1.795800   -0.819400
  H      6.505100    1.865100   -2.066900
  H      8.272500    0.223200   -1.631100
  H      4.288800   -0.712600    3.087100
  H     -1.238300   -1.158000   -1.247400
  H     -6.939800   -2.768900   -1.313300
  H     -6.061500   -3.207500    0.208800
  H     -5.208300   -3.208600   -1.384400

 Total Charge           Charge          ....    0
 Multiplicity           Mult            ....    1
 Number of Electrons    NEL             ....  246
 Basis Dimension        Dim             ....  494

ORBITAL ENERGIES
----------------

  NO   OCC          E(Eh)            E(eV)
   0   2.0000     -88.910008     -2419.3643
   1   2.0000     -24.719059      -672.6398
   2   2.0000     -24.715252      -672.5362
   3   2.0000     -24.711747      -672.4408
   4   2.0000     -24.711444      -672.4326
   5   2.0000     -19.258513      -524.0508
   6   2.0000     -19.121172      -520.3136
   7   2.0000     -19.120273      -520.2891
   8   2.0000     -19.114210      -520.1241
   9   2.0000     -14.420998      -392.4153
  10   2.0000     -14.403852      -391.9487
  11   2.0000     -14.399931      -391.8420
  12   2.0000     -14.330258      -389.9461
  13   2.0000     -10.434277      -283.9311
  14   2.0000     -10.338534      -281.3258
  15   2.0000     -10.307525      -280.4820
  16   2.0000     -10.306286      -280.4483
  17   2.0000     -10.297215      -280.2015
  18   2.0000     -10.294144      -280.1179
  19   2.0000     -10.288194      -279.9560
  20   2.0000     -10.249679      -278.9080
  21   2.0000     -10.245302      -278.7888
  22   2.0000     -10.231800      -278.4214
  23   2.0000     -10.224352      -278.2188
  24   2.0000     -10.216895      -278.0159
  25   2.0000     -10.214510      -277.9509
  26   2.0000     -10.213884      -277.9339
  27   2.0000     -10.212417      -277.8940
  28   2.0000     -10.208790      -277.7953
  29   2.0000     -10.204941      -277.6906
  30   2.0000     -10.199129      -277.5324
  31   2.0000     -10.195690      -277.4388
  32   2.0000     -10.194340      -277.4021
  33   2.0000      -7.987960      -217.3634
  34   2.0000      -5.951015      -161.9353
  35   2.0000      -5.946892      -161.8232
  36   2.0000      -5.944770      -161.7654
  37   2.0000      -1.275845       -34.7175
  38   2.0000      -1.227633       -33.4056
  39   2.0000      -1.201758       -32.7015
  40   2.0000      -1.198121       -32.6025
  41   2.0000      -1.187487       -32.3132
  42   2.0000      -1.075554       -29.2673
  43   2.0000      -1.025964       -27.9179
  44   2.0000      -1.025056       -27.8932
  45   2.0000      -0.983353       -26.7584
  46   2.0000      -0.979119       -26.6432
  47   2.0000      -0.945819       -25.7370
  48   2.0000      -0.920743       -25.0547
  49   2.0000      -0.874821       -23.8051
  50   2.0000      -0.860501       -23.4154
  51   2.0000      -0.817855       -22.2550
  52   2.0000      -0.801766       -21.8172
  53   2.0000      -0.794709       -21.6251
  54   2.0000      -0.771601       -20.9963
  55   2.0000      -0.763153       -20.7664
  56   2.0000      -0.751189       -20.4409
  57   2.0000      -0.728339       -19.8191
  58   2.0000      -0.721831       -19.6420
  59   2.0000      -0.694278       -18.8923
  60   2.0000      -0.672809       -18.3081
  61   2.0000      -0.650428       -17.6990
  62   2.0000      -0.645649       -17.5690
  63   2.0000      -0.628167       -17.0933
  64   2.0000      -0.622578       -16.9412
  65   2.0000      -0.617199       -16.7948
  66   2.0000      -0.603708       -16.4277
  67   2.0000      -0.586544       -15.9607
  68   2.0000      -0.570877       -15.5343
  69   2.0000      -0.567103       -15.4317
  70   2.0000      -0.565265       -15.3816
  71   2.0000      -0.553127       -15.0514
  72   2.0000      -0.539664       -14.6850
  73   2.0000      -0.535053       -14.5595
  74   2.0000      -0.533025       -14.5043
  75   2.0000      -0.522358       -14.2141
  76   2.0000      -0.514347       -13.9961
  77   2.0000      -0.494032       -13.4433
  78   2.0000      -0.489144       -13.3103
  79   2.0000      -0.487912       -13.2768
  80   2.0000      -0.482659       -13.1338
  81   2.0000      -0.475111       -12.9284
  82   2.0000      -0.471641       -12.8340
  83   2.0000      -0.467527       -12.7221
  84   2.0000      -0.462612       -12.5883
  85   2.0000      -0.458056       -12.4643
  86   2.0000      -0.454523       -12.3682
  87   2.0000      -0.444856       -12.1051
  88   2.0000      -0.443003       -12.0547
  89   2.0000      -0.439439       -11.9577
  90   2.0000      -0.438015       -11.9190
  91   2.0000      -0.431546       -11.7430
  92   2.0000      -0.430413       -11.7121
  93   2.0000      -0.415595       -11.3089
  94   2.0000      -0.414086       -11.2679
  95   2.0000      -0.411486       -11.1971
  96   2.0000      -0.410086       -11.1590
  97   2.0000      -0.407559       -11.0902
  98   2.0000      -0.406940       -11.0734
  99   2.0000      -0.405500       -11.0342
 100   2.0000      -0.402524       -10.9532
 101   2.0000      -0.397389       -10.8135
 102   2.0000      -0.393390       -10.7047
 103   2.0000      -0.387514       -10.5448
 104   2.0000      -0.384553       -10.4642
 105   2.0000      -0.380165       -10.3448
 106   2.0000      -0.375755       -10.2248
 107   2.0000      -0.364222        -9.9110
 108   2.0000      -0.361791        -9.8448
 109   2.0000      -0.349437        -9.5087
 110   2.0000      -0.334949        -9.1144
 111   2.0000      -0.313159        -8.5215
 112   2.0000      -0.297574        -8.0974
 113   2.0000      -0.292472        -7.9586
 114   2.0000      -0.285402        -7.7662
 115   2.0000      -0.283068        -7.7027
 116   2.0000      -0.272142        -7.4054
 117   2.0000      -0.264416        -7.1951
 118   2.0000      -0.256510        -6.9800
 119   2.0000      -0.254960        -6.9378
 120   2.0000      -0.237847        -6.4722
 121   2.0000      -0.222333        -6.0500
 122   2.0000      -0.215995        -5.8775
 123   0.0000      -0.040729        -1.1083
 124   0.0000      -0.030978        -0.8430
 125   0.0000      -0.026260        -0.7146
 126   0.0000      -0.018672        -0.5081
 127   0.0000      -0.012633        -0.3438

MULLIKEN ATOMIC CHARGES
-----------------------
   0 C :   -0.316144
   1 N :   -0.483201
   2 C :    0.505963
   3 O :   -0.504110
   4 C :    0.016448
   5 C :    0.022691
   6 C :   -0.397066
   7 C :    0.540487
   8 O :   -0.428917
   9 N :   -0.656079
  10 C :    0.249388
  11 N :   -0.369680
  12 C :    0.212990
  13 C :    0.027418
  14 C :   -0.143594
  15 C :   -0.131571
  16 C :   -0.150802
  17 C :   -0.114345
  18 C :    0.917802
  19 F :   -0.305860
  20 F :   -0.302608
  21 F :   -0.296637
  22 C :    0.325041
  23 F :   -0.299980
  24 C :   -0.379598
  25 S :    0.251382
  26 C :   -0.010401
  27 O :   -0.381809
  28 C :    0.493117
  29 N :   -0.497744
  30 C :   -0.330609
  31 C :    0.677401
  32 O :   -0.501848
  33 H :    0.198241
  34 H :    0.195019
  35 H :    0.177578
  36 H :    0.189764
  37 H :    0.209552
  38 H :    0.346755
  39 H :    0.179099
  40 H :    0.144018
  41 H :    0.158730
  42 H :    0.194501
  43 H :    0.190566
  44 H :    0.206028
  45 H :    0.186903
  46 H :    0.185720
Sum of atomic charges:   -0.0000000

LOEWDIN ATOMIC CHARGES
----------------------
   0 C :   -0.260186
   1 N :   -0.028790
   2 C :    0.111034
   3 O :   -0.303609
   4 C :   -0.116952
   5 C :   -0.039922
   6 C :   -0.235445
   7 C :    0.147639
   8 O :   -0.244444
   9 N :   -0.209805
  10 C :   -0.084636
  11 N :   -0.152791
  12 C :   -0.005761
  13 C :   -0.041029
  14 C :   -0.089911
  15 C :   -0.132664
  16 C :   -0.109352
  17 C :   -0.097805
  18 C :    0.314097
  19 F :   -0.111287
  20 F :   -0.113100
  21 F :   -0.112097
  22 C :    0.135292
  23 F :   -0.090784
  24 C :   -0.337001
  25 S :    0.389154
  26 C :   -0.090304
  27 O :   -0.000465
  28 C :    0.096488
  29 N :   -0.023212
  30 C :   -0.260473
  31 C :    0.144168
  32 O :   -0.310777
  33 H :    0.154397
  34 H :    0.152482
  35 H :    0.140170
  36 H :    0.159939
  37 H :    0.170671
  38 H :    0.268174
  39 H :    0.158309
  40 H :    0.139966
  41 H :    0.147468
  42 H :    0.167310
  43 H :    0.158074
  44 H :    0.158108
  45 H :    0.143069
  46 H :    0.146592

  Mayer bond orders larger than 0.100000
B(  0-C ,  1-N ) :   0.9172 B(  0-C , 33-H ) :   0.9231 B(  0-C , 34-H ) :   0.9267
B(  0-C , 35-H ) :   0.9407 B(  1-N ,  2-C ) :   0.9704 B(  1-N , 31-C ) :   1.0429
B(  2-C ,  3-O ) :   1.7770 B(  2-C ,  4-C ) :   1.0828 B(  4-C ,  5-C ) :   1.3108
B(  4-C , 28-C ) :   1.3641 B(  5-C ,  6-C ) :   0.9911 B(  5-C , 26-C ) :   1.5746
B(  6-C ,  7-C ) :   0.9544 B(  6-C , 36-H ) :   0.8946 B(  6-C , 37-H ) :   0.9093
B(  7-C ,  8-O ) :   1.8870 B(  7-C ,  9-N ) :   0.9791 B(  9-N , 10-C ) :   0.9501
B(  9-N , 38-H ) :   0.8190 B( 10-C , 11-N ) :   1.5157 B( 10-C , 24-C ) :   0.1099
B( 10-C , 25-S ) :   1.1396 B( 11-N , 12-C ) :   1.2672 B( 12-C , 13-C ) :   1.0111
B( 12-C , 24-C ) :   1.5241 B( 13-C , 14-C ) :   1.4019 B( 13-C , 22-C ) :   1.3271
B( 14-C , 15-C ) :   1.4332 B( 14-C , 39-H ) :   0.9106 B( 15-C , 16-C ) :   1.4353
B( 15-C , 40-H ) :   0.9277 B( 16-C , 17-C ) :   1.4111 B( 16-C , 41-H ) :   0.9187
B( 17-C , 18-C ) :   0.9619 B( 17-C , 22-C ) :   1.3194 B( 18-C , 19-F ) :   0.9457
B( 18-C , 20-F ) :   0.9578 B( 18-C , 21-F ) :   0.9848 B( 22-C , 23-F ) :   0.9499
B( 24-C , 25-S ) :   1.1191 B( 24-C , 42-H ) :   0.8992 B( 26-C , 27-O ) :   0.9967
B( 26-C , 43-H ) :   0.9179 B( 27-O , 28-C ) :   1.0786 B( 28-C , 29-N ) :   0.9886
B( 29-N , 30-C ) :   0.9239 B( 29-N , 31-C ) :   1.0421 B( 30-C , 44-H ) :   0.9261
B( 30-C , 45-H ) :   0.9347 B( 30-C , 46-H ) :   0.9298 B( 31-C , 32-O ) :   1.7966

FINAL SINGLE POINT ENERGY     -2087.046294366186

DIPOLE MOMENT
-------------

Method             : SCF
Type of density    : Electron Density
Multiplicity       :   1
Irrep              :   0
Energy             : -2087.0462943661859754 Eh
Relativity type    :
Basis              : AO
                                X                 Y                 Z
Electronic contribution:     58.292839261     -14.819017051       7.284150801
Nuclear contribution   :    -59.527715276      14.439908299      -6.907908227
                        -----------------------------------------
Total Dipole Moment    :     -1.234876015      -0.379108751       0.376242574
                        -----------------------------------------
Magnitude (a.u.)       :      1.345436989
Magnitude (Debye)      :      3.419829048

Rotational constants in cm-1:             0.011799             0.001147             0.001128
Rotational constants in MHz :           353.722366            34.388975            33.816007

                             ****ORCA TERMINATED NORMALLY****
TOTAL RUN TIME: 0 days 0 hours 6 minutes 4 seconds 351 msec
