                         Program Version 6.0.0  -   RELEASE  -
|  1> ! B3LYP 6-31G* SP
|  2>
|  3> * xyz 0 1
|  4> C 5.2619 2.1851 -0.2104
|  5> C 5.8047 0.7560 -0.2113
|  6> C 4.6966 -0.2991 -0.3519
|  7> C 4.1213 -0.3625 -1.7756
|  8> C 3.0384 -1.4451 -1.9229
|  9> C 1.7812 -1.1153 -1.1353
| 10> C 0.9961 -0.0493 -1.5802
| 11> C -0.1865 0.3009 -0.9376
| 12> C -0.6267 -0.4018 0.2074
| 13> C 0.1627 -1.4958 0.6704
| 14> O -0.2244 -2.2109 1.8053
| 15> C 1.3530 -1.8614 -0.0117
| 16> C 2.1126 -3.0463 0.4364
| 17> O 3.2957 -2.9241 0.8517
| 18> O 1.5127 -4.3022 0.4114
| 19> C -1.8703 0.1634 0.9167
| 20> C -2.5558 -0.7357 1.9458
| 21> C -3.8968 -0.8381 2.0811
| 22> C -4.4604 -1.6740 3.2007
| 23> C -4.8468 -0.1573 1.1247
| 24> C -4.2081 1.0749 0.4856
| 25> C -2.8685 0.6729 -0.1604
| 26> C -2.2163 1.7890 -1.0426
| 27> C -3.0628 2.0437 -2.3060
| 28> C -2.0319 3.1293 -0.2979
| 29> O -0.9295 1.3535 -1.4917
| 30> H 4.4875 2.3056 0.5778
| 31> H 6.0916 2.8935 -0.0015
| 32> H 4.8271 2.4447 -1.1986
| 33> H 6.5517 0.6404 -1.0265
| 34> H 6.3318 0.5851 0.7527
| 35> H 3.8885 -0.0908 0.3825
| 36> H 5.1365 -1.2892 -0.1048
| 37> H 3.6997 0.6225 -2.0651
| 38> H 4.9443 -0.5948 -2.4864
| 39> H 2.7649 -1.5179 -2.9984
| 40> H 3.4630 -2.4351 -1.6598
| 41> H 1.2941 0.5105 -2.4589
| 42> H 0.3284 -2.9421 2.2344
| 43> H 2.0182 -5.1253 0.7171
| 44> H -1.5189 1.0302 1.5124
| 45> H -1.9662 -1.1147 2.7714
| 46> H -4.1482 -1.2514 4.1796
| 47> H -4.0868 -2.7168 3.1173
| 48> H -5.5700 -1.6983 3.1642
| 49> H -5.1436 -0.8815 0.3350
| 50> H -5.7665 0.1595 1.6624
| 51> H -4.0485 1.8503 1.2667
| 52> H -4.9138 1.4756 -0.2703
| 53> H -3.0804 -0.1902 -0.8354
| 54> H -3.2532 1.0910 -2.8477
| 55> H -2.5194 2.7230 -2.9983
| 56> H -4.0355 2.5214 -2.0629
| 57> H -1.5577 3.8729 -0.9743
| 58> H -3.0061 3.5488 0.0321
| 59> H -1.3648 3.0229 0.5815
| 60> *
| 61>
| 62>                          ****END OF INPUT****

CARTESIAN COORDINATES (ANGSTROEM)
---------------------------------
  C      5.261900    2.185100   -0.210400
  C      5.804700    0.756000   -0.211300
  C      4.696600   -0.299100   -0.351900
  C      4.121300   -0.362500   -1.775600
  C      3.038400   -1.445100   -1.922900
  C      1.781200   -1.115300   -1.135300
  C      0.996100   -0.049300   -1.580200
  C     -0.186500    0.300900   -0.937600
  C     -0.626700   -0.401800    0.207400
  C      0.162700   -1.495800    0.670400
  O     -0.224400   -2.210900    1.805300
  C      1.353000   -1.861400   -0.011700
  C      2.112600   -3.046300    0.436400
  O      3.295700   -2.924100    0.851700
  O      1.512700   -4.302200    0.411400
  C     -1.870300    0.163400    0.916700
  C     -2.555800   -0.735700    1.945800
  C     -3.896800   -0.838100    2.081100
  C     -4.460400   -1.674000    3.200700
  C     -4.846800   -0.157300    1.124700
  C     -4.208100    1.074900    0.485600
  C     -2.868500    0.672900   -0.160400
  C     -2.216300    1.789000   -1.042600
  C     -3.062800    2.043700   -2.306000
  C     -2.031900    3.129300   -0.297900
  O     -0.929500    1.353500   -1.491700
  H      4.487500    2.305600    0.577800
  H      6.091600    2.893500   -0.001500
  H      4.827100    2.444700   -1.198600
  H      6.551700    0.640400   -1.026500
  H      6.331800    0.585100    0.752700
  H      3.888500   -0.090800    0.382500
  H      5.136500   -1.289200   -0.104800
  H      3.699700    0.622500   -2.065100
  H      4.944300   -0.594800   -2.486400
  H      2.764900   -1.517900   -2.998400
  H      3.463000   -2.435100   -1.659800
  H      1.294100    0.510500   -2.458900
  H      0.328400   -2.942100    2.234400
  H      2.018200   -5.125300    0.717100
  H     -1.518900    1.030200    1.512400
  H     -1.966200   -1.114700    2.771400
  H     -4.148200   -1.251400    4.179600
  H     -4.086800   -2.716800    3.117300
  H     -5.570000   -1.698300    3.164200
  H     -5.143600   -0.881500    0.335000
  H     -5.766500    0.159500    1.662400
  H     -4.048500    1.850300    1.266700
  H     -4.913800    1.475600   -0.270300
  H     -3.080400   -0.190200   -0.835400
  H     -3.253200    1.091000   -2.847700
  H     -2.519400    2.723000   -2.998300
  H     -4.035500    2.521400   -2.062900
  H     -1.557700    3.872900   -0.974300
  H     -3.006100    3.548800    0.032100
  H     -1.364800    3.022900    0.581500

 Total Charge           Charge          ....    0
 Multiplicity           Mult            ....    1
 Number of Electrons    NEL             ....  194
 Basis Dimension        Dim             ....  424

ORBITAL ENERGIES
----------------

  NO   OCC          E(Eh)            E(eV)
   0   2.0000     -19.188942      -522.1576
   1   2.0000     -19.166295      -521.5414
   2   2.0000     -19.159529      -521.3573
   3   2.0000     -19.128128      -520.5028
   4   2.0000     -10.322179      -280.8808
   5   2.0000     -10.258353      -279.1440
   6   2.0000     -10.246159      -278.8121
   7   2.0000     -10.245102      -278.7834
   8   2.0000     -10.196249      -277.4540
   9   2.0000     -10.191157      -277.3155
  10   2.0000     -10.191066      -277.3130
  11   2.0000     -10.188269      -277.2369
  12   2.0000     -10.184479      -277.1338
  13   2.0000     -10.176187      -276.9081
  14   2.0000     -10.173900      -276.8459
  15   2.0000     -10.172581      -276.8100
  16   2.0000     -10.170913      -276.7646
  17   2.0000     -10.170740      -276.7599
  18   2.0000     -10.169954      -276.7385
  19   2.0000     -10.167583      -276.6740
  20   2.0000     -10.166207      -276.6365
  21   2.0000     -10.163996      -276.5764
  22   2.0000     -10.157025      -276.3867
  23   2.0000     -10.155723      -276.3513
  24   2.0000     -10.153648      -276.2948
  25   2.0000     -10.149945      -276.1940
  26   2.0000      -1.073396       -29.2086
  27   2.0000      -1.044043       -28.4098
  28   2.0000      -1.031634       -28.0722
  29   2.0000      -0.986380       -26.8408
  30   2.0000      -0.853074       -23.2133
  31   2.0000      -0.837841       -22.7988
  32   2.0000      -0.799271       -21.7493
  33   2.0000      -0.788074       -21.4446
  34   2.0000      -0.772900       -21.0317
  35   2.0000      -0.750771       -20.4295
  36   2.0000      -0.740038       -20.1375
  37   2.0000      -0.731692       -19.9103
  38   2.0000      -0.705977       -19.2106
  39   2.0000      -0.683548       -18.6003
  40   2.0000      -0.670545       -18.2464
  41   2.0000      -0.666020       -18.1233
  42   2.0000      -0.648354       -17.6426
  43   2.0000      -0.626301       -17.0425
  44   2.0000      -0.607687       -16.5360
  45   2.0000      -0.602552       -16.3963
  46   2.0000      -0.590605       -16.0712
  47   2.0000      -0.583410       -15.8754
  48   2.0000      -0.550848       -14.9893
  49   2.0000      -0.532648       -14.4941
  50   2.0000      -0.527744       -14.3607
  51   2.0000      -0.507075       -13.7982
  52   2.0000      -0.500843       -13.6286
  53   2.0000      -0.494747       -13.4628
  54   2.0000      -0.482117       -13.1191
  55   2.0000      -0.459140       -12.4938
  56   2.0000      -0.454654       -12.3718
  57   2.0000      -0.444120       -12.0851
  58   2.0000      -0.441807       -12.0222
  59   2.0000      -0.433767       -11.8034
  60   2.0000      -0.429688       -11.6924
  61   2.0000      -0.428731       -11.6664
  62   2.0000      -0.424954       -11.5636
  63   2.0000      -0.420124       -11.4321
  64   2.0000      -0.410464       -11.1693
  65   2.0000      -0.409641       -11.1469
  66   2.0000      -0.406192       -11.0531
  67   2.0000      -0.399731       -10.8772
  68   2.0000      -0.394231       -10.7276
  69   2.0000      -0.389795       -10.6069
  70   2.0000      -0.385014       -10.4768
  71   2.0000      -0.379341       -10.3224
  72   2.0000      -0.378245       -10.2926
  73   2.0000      -0.375326       -10.2131
  74   2.0000      -0.365918        -9.9571
  75   2.0000      -0.364070        -9.9068
  76   2.0000      -0.362245        -9.8572
  77   2.0000      -0.359352        -9.7785
  78   2.0000      -0.353254        -9.6125
  79   2.0000      -0.348817        -9.4918
  80   2.0000      -0.347149        -9.4464
  81   2.0000      -0.343163        -9.3380
  82   2.0000      -0.337268        -9.1775
  83   2.0000      -0.330058        -8.9813
  84   2.0000      -0.325440        -8.8557
  85   2.0000      -0.320028        -8.7084
  86   2.0000      -0.309255        -8.4153
  87   2.0000      -0.307807        -8.3759
  88   2.0000      -0.301581        -8.2064
  89   2.0000      -0.296561        -8.0698
  90   2.0000      -0.294879        -8.0241
  91   2.0000      -0.283492        -7.7142
  92   2.0000      -0.279624        -7.6089
  93   2.0000      -0.261174        -7.1069
  94   2.0000      -0.221757        -6.0343
  95   2.0000      -0.210134        -5.7180
  96   2.0000      -0.208961        -5.6861
  97   0.0000      -0.022232        -0.6050
  98   0.0000       0.004856         0.1321
  99   0.0000       0.022000         0.5986
 100   0.0000       0.027205         0.7403
 101   0.0000       0.051241         1.3943

MULLIKEN ATOMIC CHARGES
-----------------------
   0 C :   -0.432765
   1 C :   -0.243681
   2 C :   -0.232914
   3 C :   -0.255656
   4 C :   -0.343241
   5 C :    0.156315
   6 C :   -0.257869
   7 C :    0.342676
   8 C :    0.040521
   9 C :    0.281317
  10 O :   -0.675371
  11 C :    0.019209
  12 C :    0.414726
  13 O :   -0.431866
  14 O :   -0.604626
  15 C :   -0.192769
  16 C :   -0.135226
  17 C :    0.143433
  18 C :   -0.509591
  19 C :   -0.323116
  20 C :   -0.272503
  21 C :   -0.134021
  22 C :    0.347348
  23 C :   -0.459022
  24 C :   -0.463002
  25 O :   -0.548472
  26 H :    0.138366
  27 H :    0.133066
  28 H :    0.138449
  29 H :    0.119755
  30 H :    0.124649
  31 H :    0.136549
  32 H :    0.142540
  33 H :    0.134075
  34 H :    0.123575
  35 H :    0.139289
  36 H :    0.149098
  37 H :    0.133357
  38 H :    0.425760
  39 H :    0.422912
  40 H :    0.152203
  41 H :    0.131636
  42 H :    0.155122
  43 H :    0.161465
  44 H :    0.140659
  45 H :    0.143992
  46 H :    0.131725
  47 H :    0.137679
  48 H :    0.129425
  49 H :    0.131757
  50 H :    0.147064
  51 H :    0.152816
  52 H :    0.145367
  53 H :    0.151817
  54 H :    0.145364
  55 H :    0.150632
Sum of atomic charges:    0.0000000

LOEWDIN ATOMIC CHARGES
----------------------
   0 C :   -0.359724
   1 C :   -0.232381
   2 C :   -0.229807
   3 C :   -0.221805
   4 C :   -0.223438
   5 C :    0.018705
   6 C :   -0.173063
   7 C :    0.104599
   8 C :   -0.077854
   9 C :    0.106084
  10 O :   -0.338492
  11 C :   -0.107620
  12 C :    0.168341
  13 O :   -0.257924
  14 O :   -0.334563
  15 C :   -0.106394
  16 C :   -0.149945
  17 C :   -0.046907
  18 C :   -0.355786
  19 C :   -0.225464
  20 C :   -0.222849
  21 C :   -0.115095
  22 C :    0.078342
  23 C :   -0.353615
  24 C :   -0.361218
  25 O :   -0.165916
  26 H :    0.120066
  27 H :    0.119052
  28 H :    0.117878
  29 H :    0.111575
  30 H :    0.115200
  31 H :    0.122314
  32 H :    0.125338
  33 H :    0.115727
  34 H :    0.115085
  35 H :    0.126432
  36 H :    0.130119
  37 H :    0.140224
  38 H :    0.338928
  39 H :    0.340059
  40 H :    0.134646
  41 H :    0.134000
  42 H :    0.133728
  43 H :    0.136086
  44 H :    0.123306
  45 H :    0.126208
  46 H :    0.121828
  47 H :    0.121461
  48 H :    0.119170
  49 H :    0.124363
  50 H :    0.127057
  51 H :    0.131251
  52 H :    0.127253
  53 H :    0.131221
  54 H :    0.127746
  55 H :    0.126468

  Mayer bond orders larger than 0.100000
B(  0-C ,  1-C ) :   1.0183 B(  0-C , 26-H ) :   0.9517 B(  0-C , 27-H ) :   0.9536
B(  0-C , 28-H ) :   0.9501 B(  1-C ,  2-C ) :   1.0022 B(  1-C , 29-H ) :   0.9418
B(  1-C , 30-H ) :   0.9463 B(  2-C ,  3-C ) :   1.0147 B(  2-C , 31-H ) :   0.9329
B(  2-C , 32-H ) :   0.9358 B(  3-C ,  4-C ) :   0.9908 B(  3-C , 33-H ) :   0.9318
B(  3-C , 34-H ) :   0.9365 B(  4-C ,  5-C ) :   0.9920 B(  4-C , 35-H ) :   0.9296
B(  4-C , 36-H ) :   0.9202 B(  5-C ,  6-C ) :   1.4110 B(  5-C , 11-C ) :   1.3990
B(  6-C ,  7-C ) :   1.3734 B(  6-C , 37-H ) :   0.9110 B(  7-C ,  8-C ) :   1.3288
B(  7-C , 25-O ) :   0.9262 B(  8-C ,  9-C ) :   1.3470 B(  8-C , 15-C ) :   0.9499
B(  9-C , 10-O ) :   0.9281 B(  9-C , 11-C ) :   1.2745 B( 10-O , 38-H ) :   0.7422
B( 11-C , 12-C ) :   0.9127 B( 12-C , 13-O ) :   1.8587 B( 12-C , 14-O ) :   1.0262
B( 14-O , 39-H ) :   0.7467 B( 15-C , 16-C ) :   0.9976 B( 15-C , 21-C ) :   0.9702
B( 15-C , 40-H ) :   0.8987 B( 16-C , 17-C ) :   1.8911 B( 16-C , 41-H ) :   0.9135
B( 17-C , 18-C ) :   0.9842 B( 17-C , 19-C ) :   1.0079 B( 18-C , 42-H ) :   0.9424
B( 18-C , 43-H ) :   0.9446 B( 18-C , 44-H ) :   0.9497 B( 19-C , 20-C ) :   1.0008
B( 19-C , 45-H ) :   0.9261 B( 19-C , 46-H ) :   0.9319 B( 20-C , 21-C ) :   0.9847
B( 20-C , 47-H ) :   0.9323 B( 20-C , 48-H ) :   0.9307 B( 21-C , 22-C ) :   0.9650
B( 21-C , 49-H ) :   0.9159 B( 22-C , 23-C ) :   0.9948 B( 22-C , 24-C ) :   0.9909
B( 22-C , 25-O ) :   0.8245 B( 23-C , 50-H ) :   0.9436 B( 23-C , 51-H ) :   0.9403
B( 23-C , 52-H ) :   0.9356 B( 24-C , 53-H ) :   0.9410 B( 24-C , 54-H ) :   0.9356
B( 24-C , 55-H ) :   0.9382

FINAL SINGLE POINT ENERGY     -1156.538581640940

DIPOLE MOMENT
-------------

Method             : SCF
Type of density    : Electron Density
Multiplicity       :   1
Irrep              :   0
Energy             : -1156.5385816409395829 Eh
Relativity type    :
Basis              : AO
                                X                 Y                 Z
Electronic contribution:      0.481209655     -19.814513146       1.922174508
Nuclear contribution   :     -1.367162969      19.463490703      -1.737265883
                        -----------------------------------------
Total Dipole Moment    :     -0.885953314      -0.351022443       0.184908626
                        -----------------------------------------
Magnitude (a.u.)       :      0.970732317
Magnitude (Debye)      :      2.467405461

Rotational constants in cm-1:             0.009760             0.004184             0.003325
Rotational constants in MHz :           292.585315           125.447041            99.679330

                             ****ORCA TERMINATED NORMALLY****
TOTAL RUN TIME: 0 days 0 hours 7 minutes 6 seconds 279 msec
