                         Program Version 6.0.0  -   RELEASE  -
|  1> ! B3LYP 6-31G* SP
|  2>
|  3> * xyz 0 1
|  4> C -1.4752 -2.8896 -1.4505
|  5> C -1.3281 -1.5527 -0.7029
|  6> C -0.3252 -1.5899 0.4404
|  7> C 0.7929 -2.4514 0.4430
|  8> C 1.7209 -2.4084 1.4889
|  9> C 1.5441 -1.5173 2.5472
| 10> F 2.4496 -1.4723 3.5559
| 11> C 0.4400 -0.6613 2.5598
| 12> C -0.4862 -0.6955 1.5137
| 13> N -1.0360 -0.4525 -1.6491
| 14> C -2.0969 0.5094 -1.9835
| 15> C -2.4049 1.3917 -0.8038
| 16> C -1.5516 2.4561 -0.4825
| 17> C -1.7986 3.2405 0.6453
| 18> C -2.9004 2.9719 1.4601
| 19> C -3.7734 1.9156 1.1499
| 20> C -4.9389 1.6327 2.0158
| 21> O -5.7334 0.6955 1.7314
| 22> O -5.1700 2.4010 3.1540
| 23> C -3.5185 1.1296 0.0112
| 24> C 0.1421 -0.4887 -2.4810
| 25> O 0.0159 -0.5820 -3.7334
| 26> C 1.4934 -0.4219 -1.8955
| 27> C 2.5251 -1.2470 -2.4001
| 28> C 3.7972 -1.2373 -1.8038
| 29> C 4.0168 -0.3801 -0.7282
| 30> C 3.0416 0.4512 -0.2633
| 31> C 1.7637 0.4532 -0.8217
| 32> C 3.5494 1.2311 0.8939
| 33> C 4.9987 0.7062 1.0433
| 34> O 5.1767 -0.2540 0.0028
| 35> H -2.3533 -2.8416 -2.1294
| 36> H -0.5795 -3.1128 -2.0666
| 37> H -1.6414 -3.7175 -0.7252
| 38> H -2.3247 -1.3815 -0.2391
| 39> H 0.9747 -3.1380 -0.3710
| 40> H 2.5852 -3.0573 1.4711
| 41> H 0.3022 0.0344 3.3783
| 42> H -1.3307 -0.0177 1.5403
| 43> H -1.7897 1.1552 -2.8355
| 44> H -3.0036 -0.0406 -2.3164
| 45> H -0.6938 2.6771 -1.1050
| 46> H -1.1334 4.0584 0.8898
| 47> H -3.0694 3.5931 2.3300
| 48> H -5.9714 2.2195 3.7462
| 49> H -4.1746 0.3055 -0.2370
| 50> H 2.3330 -1.9168 -3.2279
| 51> H 4.5826 -1.8867 -2.1632
| 52> H 0.9994 1.1037 -0.4188
| 53> H 3.5367 2.3166 0.6674
| 54> H 2.9490 1.0146 1.8022
| 55> H 5.1371 0.2174 2.0299
| 56> H 5.7348 1.5312 0.9228
| 57> *
| 58>
| 59>                          ****END OF INPUT****

CARTESIAN COORDINATES (ANGSTROEM)
---------------------------------
  C     -1.475200   -2.889600   -1.450500
  C     -1.328100   -1.552700   -0.702900
  C     -0.325200   -1.589900    0.440400
  C      0.792900   -2.451400    0.443000
  C      1.720900   -2.408400    1.488900
  C      1.544100   -1.517300    2.547200
  F      2.449600   -1.472300    3.555900
  C      0.440000   -0.661300    2.559800
  C     -0.486200   -0.695500    1.513700
  N     -1.036000   -0.452500   -1.649100
  C     -2.096900    0.509400   -1.983500
  C     -2.404900    1.391700   -0.803800
  C     -1.551600    2.456100   -0.482500
  C     -1.798600    3.240500    0.645300
  C     -2.900400    2.971900    1.460100
  C     -3.773400    1.915600    1.149900
  C     -4.938900    1.632700    2.015800
  O     -5.733400    0.695500    1.731400
  O     -5.170000    2.401000    3.154000
  C     -3.518500    1.129600    0.011200
  C      0.142100   -0.488700   -2.481000
  O      0.015900   -0.582000   -3.733400
  C      1.493400   -0.421900   -1.895500
  C      2.525100   -1.247000   -2.400100
  C      3.797200   -1.237300   -1.803800
  C      4.016800   -0.380100   -0.728200
  C      3.041600    0.451200   -0.263300
  C      1.763700    0.453200   -0.821700
  C      3.549400    1.231100    0.893900
  C      4.998700    0.706200    1.043300
  O      5.176700   -0.254000    0.002800
  H     -2.353300   -2.841600   -2.129400
  H     -0.579500   -3.112800   -2.066600
  H     -1.641400   -3.717500   -0.725200
  H     -2.324700   -1.381500   -0.239100
  H      0.974700   -3.138000   -0.371000
  H      2.585200   -3.057300    1.471100
  H      0.302200    0.034400    3.378300
  H     -1.330700   -0.017700    1.540300
  H     -1.789700    1.155200   -2.835500
  H     -3.003600   -0.040600   -2.316400
  H     -0.693800    2.677100   -1.105000
  H     -1.133400    4.058400    0.889800
  H     -3.069400    3.593100    2.330000
  H     -5.971400    2.219500    3.746200
  H     -4.174600    0.305500   -0.237000
  H      2.333000   -1.916800   -3.227900
  H      4.582600   -1.886700   -2.163200
  H      0.999400    1.103700   -0.418800
  H      3.536700    2.316600    0.667400
  H      2.949000    1.014600    1.802200
  H      5.137100    0.217400    2.029900
  H      5.734800    1.531200    0.922800

 Total Charge           Charge          ....    0
 Multiplicity           Mult            ....    1
 Number of Electrons    NEL             ....  220
 Basis Dimension        Dim             ....  478

ORBITAL ENERGIES
----------------

  NO   OCC          E(Eh)            E(eV)
   0   2.0000     -24.700208      -672.1268
   1   2.0000     -19.188212      -522.1378
   2   2.0000     -19.171080      -521.6716
   3   2.0000     -19.128889      -520.5235
   4   2.0000     -19.114363      -520.1283
   5   2.0000     -14.336220      -390.1084
   6   2.0000     -10.326589      -281.0008
   7   2.0000     -10.284004      -279.8420
   8   2.0000     -10.267465      -279.3919
   9   2.0000     -10.240856      -278.6679
  10   2.0000     -10.240481      -278.6576
  11   2.0000     -10.229221      -278.3512
  12   2.0000     -10.221594      -278.1437
  13   2.0000     -10.217216      -278.0246
  14   2.0000     -10.205341      -277.7015
  15   2.0000     -10.203478      -277.6508
  16   2.0000     -10.202990      -277.6375
  17   2.0000     -10.202925      -277.6357
  18   2.0000     -10.200759      -277.5768
  19   2.0000     -10.192520      -277.3526
  20   2.0000     -10.192167      -277.3430
  21   2.0000     -10.191399      -277.3221
  22   2.0000     -10.190667      -277.3022
  23   2.0000     -10.190100      -277.2867
  24   2.0000     -10.189601      -277.2731
  25   2.0000     -10.189315      -277.2653
  26   2.0000     -10.188403      -277.2406
  27   2.0000     -10.187842      -277.2253
  28   2.0000     -10.186416      -277.1865
  29   2.0000     -10.183817      -277.1157
  30   2.0000     -10.174182      -276.8536
  31   2.0000      -1.213120       -33.0107
  32   2.0000      -1.073102       -29.2006
  33   2.0000      -1.069636       -29.1063
  34   2.0000      -1.009843       -27.4792
  35   2.0000      -0.986856       -26.8537
  36   2.0000      -0.917798       -24.9745
  37   2.0000      -0.872409       -23.7394
  38   2.0000      -0.858426       -23.3590
  39   2.0000      -0.855294       -23.2737
  40   2.0000      -0.795122       -21.6364
  41   2.0000      -0.793026       -21.5793
  42   2.0000      -0.773934       -21.0598
  43   2.0000      -0.768290       -20.9062
  44   2.0000      -0.757766       -20.6198
  45   2.0000      -0.752292       -20.4709
  46   2.0000      -0.730009       -19.8646
  47   2.0000      -0.720815       -19.6144
  48   2.0000      -0.687959       -18.7203
  49   2.0000      -0.668241       -18.1838
  50   2.0000      -0.649864       -17.6837
  51   2.0000      -0.639229       -17.3943
  52   2.0000      -0.616816       -16.7844
  53   2.0000      -0.615802       -16.7568
  54   2.0000      -0.605625       -16.4799
  55   2.0000      -0.603374       -16.4186
  56   2.0000      -0.596846       -16.2410
  57   2.0000      -0.584152       -15.8956
  58   2.0000      -0.543022       -14.7764
  59   2.0000      -0.538327       -14.6486
  60   2.0000      -0.524695       -14.2777
  61   2.0000      -0.507671       -13.8144
  62   2.0000      -0.501799       -13.6547
  63   2.0000      -0.498868       -13.5749
  64   2.0000      -0.496391       -13.5075
  65   2.0000      -0.494974       -13.4689
  66   2.0000      -0.489738       -13.3265
  67   2.0000      -0.478416       -13.0184
  68   2.0000      -0.470697       -12.8083
  69   2.0000      -0.469252       -12.7690
  70   2.0000      -0.455652       -12.3989
  71   2.0000      -0.454431       -12.3657
  72   2.0000      -0.451542       -12.2871
  73   2.0000      -0.447335       -12.1726
  74   2.0000      -0.439927       -11.9710
  75   2.0000      -0.433630       -11.7997
  76   2.0000      -0.430057       -11.7024
  77   2.0000      -0.426383       -11.6025
  78   2.0000      -0.419659       -11.4195
  79   2.0000      -0.416447       -11.3321
  80   2.0000      -0.407700       -11.0941
  81   2.0000      -0.400681       -10.9031
  82   2.0000      -0.399990       -10.8843
  83   2.0000      -0.397456       -10.8153
  84   2.0000      -0.393578       -10.7098
  85   2.0000      -0.387463       -10.5434
  86   2.0000      -0.383900       -10.4465
  87   2.0000      -0.382521       -10.4089
  88   2.0000      -0.374102       -10.1798
  89   2.0000      -0.369970       -10.0674
  90   2.0000      -0.364316        -9.9135
  91   2.0000      -0.361078        -9.8254
  92   2.0000      -0.357894        -9.7388
  93   2.0000      -0.355809        -9.6820
  94   2.0000      -0.351183        -9.5562
  95   2.0000      -0.346138        -9.4189
  96   2.0000      -0.340828        -9.2744
  97   2.0000      -0.334642        -9.1061
  98   2.0000      -0.328860        -8.9487
  99   2.0000      -0.309884        -8.4324
 100   2.0000      -0.307486        -8.3671
 101   2.0000      -0.267948        -7.2912
 102   2.0000      -0.266214        -7.2441
 103   2.0000      -0.265919        -7.2360
 104   2.0000      -0.254708        -6.9310
 105   2.0000      -0.252571        -6.8728
 106   2.0000      -0.249756        -6.7962
 107   2.0000      -0.239093        -6.5060
 108   2.0000      -0.214633        -5.8405
 109   2.0000      -0.211266        -5.7488
 110   0.0000      -0.061378        -1.6702
 111   0.0000      -0.039064        -1.0630
 112   0.0000      -0.016562        -0.4507
 113   0.0000      -0.009817        -0.2671
 114   0.0000      -0.007474        -0.2034

MULLIKEN ATOMIC CHARGES
-----------------------
   0 C :   -0.444659
   1 C :   -0.072696
   2 C :    0.156333
   3 C :   -0.150659
   4 C :   -0.209352
   5 C :    0.406360
   6 F :   -0.325534
   7 C :   -0.218631
   8 C :   -0.164057
   9 N :   -0.410498
  10 C :   -0.235591
  11 C :    0.173363
  12 C :   -0.154823
  13 C :   -0.134517
  14 C :   -0.160281
  15 C :    0.081712
  16 C :    0.522511
  17 O :   -0.452703
  18 O :   -0.625963
  19 C :   -0.217688
  20 C :    0.400220
  21 O :   -0.449122
  22 C :    0.085866
  23 C :   -0.155661
  24 C :   -0.199082
  25 C :    0.360473
  26 C :    0.088655
  27 C :   -0.196998
  28 C :   -0.385299
  29 C :   -0.027319
  30 O :   -0.502314
  31 H :    0.153886
  32 H :    0.156212
  33 H :    0.148590
  34 H :    0.156053
  35 H :    0.139297
  36 H :    0.145145
  37 H :    0.140046
  38 H :    0.147756
  39 H :    0.177302
  40 H :    0.146677
  41 H :    0.143428
  42 H :    0.139462
  43 H :    0.159533
  44 H :    0.430102
  45 H :    0.165143
  46 H :    0.152678
  47 H :    0.142397
  48 H :    0.138925
  49 H :    0.158390
  50 H :    0.171767
  51 H :    0.156253
  52 H :    0.148913
Sum of atomic charges:    0.0000000

LOEWDIN ATOMIC CHARGES
----------------------
   0 C :   -0.360173
   1 C :   -0.049556
   2 C :   -0.028600
   3 C :   -0.116429
   4 C :   -0.157324
   5 C :    0.108382
   6 F :   -0.108948
   7 C :   -0.165053
   8 C :   -0.120865
   9 N :   -0.132393
  10 C :   -0.139614
  11 C :   -0.027068
  12 C :   -0.109280
  13 C :   -0.129070
  14 C :   -0.106650
  15 C :   -0.058385
  16 C :    0.178465
  17 O :   -0.270257
  18 O :   -0.337484
  19 C :   -0.103983
  20 C :    0.140700
  21 O :   -0.255902
  22 C :   -0.064670
  23 C :   -0.096700
  24 C :   -0.159366
  25 C :    0.088267
  26 C :   -0.052196
  27 C :   -0.103889
  28 C :   -0.238468
  29 C :   -0.078916
  30 O :   -0.172995
  31 H :    0.131831
  32 H :    0.128379
  33 H :    0.128722
  34 H :    0.137126
  35 H :    0.138580
  36 H :    0.143443
  37 H :    0.140474
  38 H :    0.142001
  39 H :    0.146775
  40 H :    0.120033
  41 H :    0.137635
  42 H :    0.136686
  43 H :    0.147742
  44 H :    0.346905
  45 H :    0.150768
  46 H :    0.146344
  47 H :    0.142389
  48 H :    0.139073
  49 H :    0.135058
  50 H :    0.141324
  51 H :    0.125247
  52 H :    0.121883

  Mayer bond orders larger than 0.100000
B(  0-C ,  1-C ) :   0.9989 B(  0-C , 31-H ) :   0.9438 B(  0-C , 32-H ) :   0.9353
B(  0-C , 33-H ) :   0.9396 B(  1-C ,  2-C ) :   0.9628 B(  1-C ,  9-N ) :   0.9330
B(  1-C , 34-H ) :   0.9175 B(  2-C ,  3-C ) :   1.4254 B(  2-C ,  8-C ) :   1.4218
B(  3-C ,  4-C ) :   1.4143 B(  3-C , 35-H ) :   0.9183 B(  4-C ,  5-C ) :   1.3962
B(  4-C , 36-H ) :   0.9201 B(  5-C ,  6-F ) :   0.9045 B(  5-C ,  7-C ) :   1.3831
B(  7-C ,  8-C ) :   1.4208 B(  7-C , 37-H ) :   0.9217 B(  8-C , 38-H ) :   0.9137
B(  9-N , 10-C ) :   0.9529 B(  9-N , 20-C ) :   1.0001 B( 10-C , 11-C ) :   0.9464
B( 10-C , 39-H ) :   0.9234 B( 10-C , 40-H ) :   0.9226 B( 11-C , 12-C ) :   1.4058
B( 11-C , 19-C ) :   1.4039 B( 12-C , 13-C ) :   1.4393 B( 12-C , 41-H ) :   0.9200
B( 13-C , 14-C ) :   1.4212 B( 13-C , 42-H ) :   0.9286 B( 14-C , 15-C ) :   1.3922
B( 14-C , 43-H ) :   0.9173 B( 15-C , 16-C ) :   1.0102 B( 15-C , 19-C ) :   1.3739
B( 16-C , 17-O ) :   1.8567 B( 16-C , 18-O ) :   1.0198 B( 18-O , 44-H ) :   0.7443
B( 19-C , 45-H ) :   0.9050 B( 20-C , 21-O ) :   1.8390 B( 20-C , 22-C ) :   0.9845
B( 22-C , 23-C ) :   1.3788 B( 22-C , 27-C ) :   1.3547 B( 23-C , 24-C ) :   1.4296
B( 23-C , 46-H ) :   0.9202 B( 24-C , 25-C ) :   1.3837 B( 24-C , 47-H ) :   0.9195
B( 25-C , 26-C ) :   1.3851 B( 25-C , 30-O ) :   0.9321 B( 26-C , 27-C ) :   1.4313
B( 26-C , 28-C ) :   0.9910 B( 27-C , 48-H ) :   0.9071 B( 28-C , 29-C ) :   0.9772
B( 28-C , 49-H ) :   0.9293 B( 28-C , 50-H ) :   0.9192 B( 29-C , 30-O ) :   0.9225
B( 29-C , 51-H ) :   0.9344 B( 29-C , 52-H ) :   0.9366

FINAL SINGLE POINT ENERGY     -1420.526859235581

DIPOLE MOMENT
-------------

Method             : SCF
Type of density    : Electron Density
Multiplicity       :   1
Irrep              :   0
Energy             : -1420.5268592355807868 Eh
Relativity type    :
Basis              : AO
                                X                 Y                 Z
Electronic contribution:      0.647154129       0.795166670       6.907986258
Nuclear contribution   :     -0.437635120       0.209955908      -5.638331105
                        -----------------------------------------
Total Dipole Moment    :      0.209519010       1.005122578       1.269655152
                        -----------------------------------------
Magnitude (a.u.)       :      1.632848375
Magnitude (Debye)      :      4.150370735

Rotational constants in cm-1:             0.007662             0.003390             0.003034
Rotational constants in MHz :           229.714338           101.625056            90.953366

                             ****ORCA TERMINATED NORMALLY****
TOTAL RUN TIME: 0 days 0 hours 9 minutes 4 seconds 71 msec
