                         Program Version 6.0.0  -   RELEASE  -
|  1> ! B3LYP 6-31G* SP
|  2>
|  3> * xyz 0 1
|  4> O 1.2621 1.3418 -1.8665
|  5> C 1.3178 0.6489 -0.8134
|  6> N 0.1036 0.1712 -0.2085
|  7> C -1.2037 0.3013 -0.8678
|  8> C -2.1054 -0.9121 -0.6929
|  9> C -3.3956 -0.8879 -1.2539
| 10> C -4.2375 -1.9987 -1.1602
| 11> C -3.8064 -3.1660 -0.5107
| 12> C -4.6980 -4.3805 -0.4506
| 13> F -6.0296 -4.0066 -0.3939
| 14> F -4.4140 -5.1398 0.6714
| 15> F -4.4941 -5.1512 -1.5798
| 16> C -2.4950 -3.2209 -0.0123
| 17> C -1.6511 -2.1107 -0.1067
| 18> C -1.8487 1.6268 -0.4871
| 19> N -1.6769 2.6395 -1.3847
| 20> C -2.1771 3.8857 -1.2040
| 21> C -2.9109 4.1776 -0.0638
| 22> C -3.1099 3.1848 0.8904
| 23> C -2.5618 1.8954 0.7271
| 24> C -2.8692 0.8617 1.8006
| 25> F -3.9748 0.1219 1.4279
| 26> F -3.1510 1.4738 3.0106
| 27> F -1.8068 0.0153 2.0226
| 28> C 2.6381 0.3561 -0.2057
| 29> C 2.8175 -0.7630 0.6298
| 30> C 4.0664 -1.0370 1.1953
| 31> C 5.1570 -0.1998 0.9294
| 32> C 6.4195 -0.4502 1.4828
| 33> C 7.4854 0.4044 1.1932
| 34> C 7.2789 1.5009 0.3523
| 35> N 6.0488 1.7328 -0.1792
| 36> C 4.9907 0.9185 0.0843
| 37> C 3.7394 1.1882 -0.4802
| 38> H 0.1465 -0.1075 0.7940
| 39> H -1.0236 0.3284 -1.9666
| 40> H -3.7531 -0.0019 -1.7643
| 41> H -5.2249 -1.9464 -1.6016
| 42> H -2.1173 -4.1282 0.4424
| 43> H -0.6437 -2.2051 0.2737
| 44> H -2.0105 4.6472 -1.9541
| 45> H -3.3276 5.1663 0.0794
| 46> H -3.7025 3.4332 1.7617
| 47> H 2.0008 -1.4433 0.8315
| 48> H 4.1804 -1.9049 1.8340
| 49> H 6.5805 -1.3006 2.1345
| 50> H 8.4640 0.2187 1.6166
| 51> H 8.0982 2.1687 0.1219
| 52> H 3.6251 2.0530 -1.1233
| 53> *
| 54>
| 55>                          ****END OF INPUT****

CARTESIAN COORDINATES (ANGSTROEM)
---------------------------------
  O      1.262100    1.341800   -1.866500
  C      1.317800    0.648900   -0.813400
  N      0.103600    0.171200   -0.208500
  C     -1.203700    0.301300   -0.867800
  C     -2.105400   -0.912100   -0.692900
  C     -3.395600   -0.887900   -1.253900
  C     -4.237500   -1.998700   -1.160200
  C     -3.806400   -3.166000   -0.510700
  C     -4.698000   -4.380500   -0.450600
  F     -6.029600   -4.006600   -0.393900
  F     -4.414000   -5.139800    0.671400
  F     -4.494100   -5.151200   -1.579800
  C     -2.495000   -3.220900   -0.012300
  C     -1.651100   -2.110700   -0.106700
  C     -1.848700    1.626800   -0.487100
  N     -1.676900    2.639500   -1.384700
  C     -2.177100    3.885700   -1.204000
  C     -2.910900    4.177600   -0.063800
  C     -3.109900    3.184800    0.890400
  C     -2.561800    1.895400    0.727100
  C     -2.869200    0.861700    1.800600
  F     -3.974800    0.121900    1.427900
  F     -3.151000    1.473800    3.010600
  F     -1.806800    0.015300    2.022600
  C      2.638100    0.356100   -0.205700
  C      2.817500   -0.763000    0.629800
  C      4.066400   -1.037000    1.195300
  C      5.157000   -0.199800    0.929400
  C      6.419500   -0.450200    1.482800
  C      7.485400    0.404400    1.193200
  C      7.278900    1.500900    0.352300
  N      6.048800    1.732800   -0.179200
  C      4.990700    0.918500    0.084300
  C      3.739400    1.188200   -0.480200
  H      0.146500   -0.107500    0.794000
  H     -1.023600    0.328400   -1.966600
  H     -3.753100   -0.001900   -1.764300
  H     -5.224900   -1.946400   -1.601600
  H     -2.117300   -4.128200    0.442400
  H     -0.643700   -2.205100    0.273700
  H     -2.010500    4.647200   -1.954100
  H     -3.327600    5.166300    0.079400
  H     -3.702500    3.433200    1.761700
  H      2.000800   -1.443300    0.831500
  H      4.180400   -1.904900    1.834000
  H      6.580500   -1.300600    2.134500
  H      8.464000    0.218700    1.616600
  H      8.098200    2.168700    0.121900
  H      3.625100    2.053000   -1.123300

 Total Charge           Charge          ....    0
 Multiplicity           Mult            ....    1
 Number of Electrons    NEL             ....  242
 Basis Dimension        Dim             ....  506

ORBITAL ENERGIES
----------------

  NO   OCC          E(Eh)            E(eV)
   0   2.0000     -24.739427      -673.1940
   1   2.0000     -24.730076      -672.9396
   2   2.0000     -24.725656      -672.8193
   3   2.0000     -24.715443      -672.5414
   4   2.0000     -24.715232      -672.5357
   5   2.0000     -24.711458      -672.4329
   6   2.0000     -19.111279      -520.0443
   7   2.0000     -14.362896      -390.8343
   8   2.0000     -14.339489      -390.1973
   9   2.0000     -14.328930      -389.9100
  10   2.0000     -10.449451      -284.3440
  11   2.0000     -10.430360      -283.8245
  12   2.0000     -10.293401      -280.0977
  13   2.0000     -10.254255      -279.0325
  14   2.0000     -10.244419      -278.7648
  15   2.0000     -10.234534      -278.4958
  16   2.0000     -10.231867      -278.4233
  17   2.0000     -10.226805      -278.2855
  18   2.0000     -10.224581      -278.2250
  19   2.0000     -10.221660      -278.1455
  20   2.0000     -10.211254      -277.8623
  21   2.0000     -10.209986      -277.8278
  22   2.0000     -10.209529      -277.8154
  23   2.0000     -10.207500      -277.7602
  24   2.0000     -10.206031      -277.7202
  25   2.0000     -10.202805      -277.6324
  26   2.0000     -10.202341      -277.6198
  27   2.0000     -10.200438      -277.5680
  28   2.0000     -10.200139      -277.5599
  29   2.0000     -10.199111      -277.5319
  30   2.0000     -10.198991      -277.5286
  31   2.0000     -10.196633      -277.4645
  32   2.0000     -10.196122      -277.4506
  33   2.0000     -10.195273      -277.4275
  34   2.0000      -1.295720       -35.2583
  35   2.0000      -1.275092       -34.6970
  36   2.0000      -1.222077       -33.2544
  37   2.0000      -1.213629       -33.0245
  38   2.0000      -1.200739       -32.6738
  39   2.0000      -1.199309       -32.6349
  40   2.0000      -1.012082       -27.5401
  41   2.0000      -0.949283       -25.8313
  42   2.0000      -0.939212       -25.5573
  43   2.0000      -0.912714       -24.8362
  44   2.0000      -0.868755       -23.6400
  45   2.0000      -0.857903       -23.3447
  46   2.0000      -0.827328       -22.5127
  47   2.0000      -0.813872       -22.1466
  48   2.0000      -0.806429       -21.9440
  49   2.0000      -0.785018       -21.3614
  50   2.0000      -0.770138       -20.9565
  51   2.0000      -0.758113       -20.6293
  52   2.0000      -0.746014       -20.3001
  53   2.0000      -0.730421       -19.8758
  54   2.0000      -0.708951       -19.2915
  55   2.0000      -0.680536       -18.5183
  56   2.0000      -0.665254       -18.1025
  57   2.0000      -0.644447       -17.5363
  58   2.0000      -0.641441       -17.4545
  59   2.0000      -0.632036       -17.1986
  60   2.0000      -0.623643       -16.9702
  61   2.0000      -0.612829       -16.6759
  62   2.0000      -0.602534       -16.3958
  63   2.0000      -0.585294       -15.9267
  64   2.0000      -0.582885       -15.8611
  65   2.0000      -0.579440       -15.7674
  66   2.0000      -0.567095       -15.4314
  67   2.0000      -0.565993       -15.4015
  68   2.0000      -0.562217       -15.2987
  69   2.0000      -0.558833       -15.2066
  70   2.0000      -0.547162       -14.8890
  71   2.0000      -0.528352       -14.3772
  72   2.0000      -0.520669       -14.1681
  73   2.0000      -0.517850       -14.0914
  74   2.0000      -0.500631       -13.6229
  75   2.0000      -0.497545       -13.5389
  76   2.0000      -0.476848       -12.9757
  77   2.0000      -0.475842       -12.9483
  78   2.0000      -0.468228       -12.7411
  79   2.0000      -0.462386       -12.5822
  80   2.0000      -0.461919       -12.5694
  81   2.0000      -0.453588       -12.3427
  82   2.0000      -0.450314       -12.2537
  83   2.0000      -0.444814       -12.1040
  84   2.0000      -0.442458       -12.0399
  85   2.0000      -0.441501       -12.0138
  86   2.0000      -0.436130       -11.8677
  87   2.0000      -0.435266       -11.8442
  88   2.0000      -0.433417       -11.7939
  89   2.0000      -0.432138       -11.7591
  90   2.0000      -0.430469       -11.7136
  91   2.0000      -0.423646       -11.5280
  92   2.0000      -0.416973       -11.3464
  93   2.0000      -0.416144       -11.3239
  94   2.0000      -0.413749       -11.2587
  95   2.0000      -0.411881       -11.2079
  96   2.0000      -0.409363       -11.1393
  97   2.0000      -0.406197       -11.0532
  98   2.0000      -0.404398       -11.0042
  99   2.0000      -0.397021       -10.8035
 100   2.0000      -0.393800       -10.7159
 101   2.0000      -0.390310       -10.6209
 102   2.0000      -0.385445       -10.4885
 103   2.0000      -0.375884       -10.2283
 104   2.0000      -0.366528        -9.9737
 105   2.0000      -0.365567        -9.9476
 106   2.0000      -0.361589        -9.8393
 107   2.0000      -0.356108        -9.6902
 108   2.0000      -0.350650        -9.5417
 109   2.0000      -0.337934        -9.1957
 110   2.0000      -0.308339        -8.3903
 111   2.0000      -0.298047        -8.1103
 112   2.0000      -0.285034        -7.7562
 113   2.0000      -0.264472        -7.1966
 114   2.0000      -0.263474        -7.1695
 115   2.0000      -0.261403        -7.1131
 116   2.0000      -0.256787        -6.9875
 117   2.0000      -0.252952        -6.8832
 118   2.0000      -0.249115        -6.7788
 119   2.0000      -0.240440        -6.5427
 120   2.0000      -0.230485        -6.2718
 121   0.0000      -0.071975        -1.9585
 122   0.0000      -0.047121        -1.2822
 123   0.0000      -0.040799        -1.1102
 124   0.0000      -0.035348        -0.9619
 125   0.0000      -0.026831        -0.7301

MULLIKEN ATOMIC CHARGES
-----------------------
   0 O :   -0.460366
   1 C :    0.501917
   2 N :   -0.646659
   3 C :   -0.059857
   4 C :    0.112754
   5 C :   -0.161936
   6 C :   -0.161416
   7 C :   -0.010780
   8 C :    0.893516
   9 F :   -0.306121
  10 F :   -0.306477
  11 F :   -0.296995
  12 C :   -0.161313
  13 C :   -0.167045
  14 C :    0.235859
  15 N :   -0.387469
  16 C :    0.028864
  17 C :   -0.133619
  18 C :   -0.128535
  19 C :   -0.076248
  20 C :    0.918917
  21 F :   -0.288278
  22 F :   -0.304766
  23 F :   -0.304207
  24 C :    0.071808
  25 C :   -0.181772
  26 C :   -0.207516
  27 C :    0.173375
  28 C :   -0.153133
  29 C :   -0.144641
  30 C :    0.016304
  31 N :   -0.428019
  32 C :    0.210016
  33 C :   -0.170959
  34 H :    0.328918
  35 H :    0.217988
  36 H :    0.145785
  37 H :    0.152935
  38 H :    0.150340
  39 H :    0.130114
  40 H :    0.163159
  41 H :    0.145912
  42 H :    0.166035
  43 H :    0.135315
  44 H :    0.136621
  45 H :    0.143716
  46 H :    0.137700
  47 H :    0.153904
  48 H :    0.176355
Sum of atomic charges:   -0.0000000

LOEWDIN ATOMIC CHARGES
----------------------
   0 O :   -0.270710
   1 C :    0.143789
   2 N :   -0.234906
   3 C :   -0.053125
   4 C :   -0.015614
   5 C :   -0.125613
   6 C :   -0.109097
   7 C :   -0.071177
   8 C :    0.309701
   9 F :   -0.114198
  10 F :   -0.114539
  11 F :   -0.114477
  12 C :   -0.111123
  13 C :   -0.131920
  14 C :    0.045269
  15 N :   -0.113398
  16 C :   -0.051581
  17 C :   -0.143074
  18 C :   -0.089681
  19 C :   -0.085625
  20 C :    0.308835
  21 F :   -0.102307
  22 F :   -0.111190
  23 F :   -0.104132
  24 C :   -0.049480
  25 C :   -0.129399
  26 C :   -0.120026
  27 C :   -0.022257
  28 C :   -0.093298
  29 C :   -0.144681
  30 C :   -0.060933
  31 N :   -0.124125
  32 C :    0.013073
  33 C :   -0.073827
  34 H :    0.248620
  35 H :    0.178886
  36 H :    0.140186
  37 H :    0.144120
  38 H :    0.142647
  39 H :    0.132380
  40 H :    0.142130
  41 H :    0.141517
  42 H :    0.149346
  43 H :    0.132318
  44 H :    0.135114
  45 H :    0.138846
  46 H :    0.137463
  47 H :    0.137707
  48 H :    0.163562

  Mayer bond orders larger than 0.100000
B(  0-O ,  1-C ) :   1.8207 B(  1-C ,  2-N ) :   1.0205 B(  1-C , 24-C ) :   0.9839
B(  2-N ,  3-C ) :   0.9282 B(  2-N , 34-H ) :   0.8019 B(  3-C ,  4-C ) :   0.9606
B(  3-C , 14-C ) :   0.9387 B(  3-C , 35-H ) :   0.8838 B(  4-C ,  5-C ) :   1.4121
B(  4-C , 13-C ) :   1.4259 B(  5-C ,  6-C ) :   1.4302 B(  5-C , 36-H ) :   0.9196
B(  6-C ,  7-C ) :   1.4089 B(  6-C , 37-H ) :   0.9196 B(  7-C ,  8-C ) :   0.9798
B(  7-C , 12-C ) :   1.4147 B(  8-C ,  9-F ) :   0.9476 B(  8-C , 10-F ) :   0.9472
B(  8-C , 11-F ) :   0.9863 B( 12-C , 13-C ) :   1.4229 B( 12-C , 38-H ) :   0.9201
B( 13-C , 39-H ) :   0.9142 B( 14-C , 15-N ) :   1.3943 B( 14-C , 19-C ) :   1.3410
B( 15-N , 16-C ) :   1.4183 B( 16-C , 17-C ) :   1.4182 B( 16-C , 40-H ) :   0.9263
B( 17-C , 18-C ) :   1.4380 B( 17-C , 41-H ) :   0.9232 B( 18-C , 19-C ) :   1.4053
B( 18-C , 42-H ) :   0.9169 B( 19-C , 20-C ) :   0.9706 B( 20-C , 21-F ) :   0.9769
B( 20-C , 22-F ) :   0.9410 B( 20-C , 23-F ) :   0.9127 B( 24-C , 25-C ) :   1.2996
B( 24-C , 33-C ) :   1.4508 B( 25-C , 26-C ) :   1.5027 B( 25-C , 43-H ) :   0.9189
B( 26-C , 27-C ) :   1.2866 B( 26-C , 33-C ) :   0.1017 B( 26-C , 44-H ) :   0.9233
B( 27-C , 28-C ) :   1.3026 B( 27-C , 32-C ) :   1.2503 B( 28-C , 29-C ) :   1.5143
B( 28-C , 45-H ) :   0.9240 B( 29-C , 30-C ) :   1.3204 B( 29-C , 46-H ) :   0.9245
B( 30-C , 31-N ) :   1.5171 B( 30-C , 47-H ) :   0.9294 B( 31-N , 32-C ) :   1.2430
B( 32-C , 33-C ) :   1.2684 B( 33-C , 48-H ) :   0.9041

FINAL SINGLE POINT ENERGY     -1761.184955774497

DIPOLE MOMENT
-------------

Method             : SCF
Type of density    : Electron Density
Multiplicity       :   1
Irrep              :   0
Energy             : -1761.1849557744974391 Eh
Relativity type    :
Basis              : AO
                                X                 Y                 Z
Electronic contribution:    -37.123038192     -18.277279927       5.864560595
Nuclear contribution   :     37.734111919      18.787816914      -4.444964637
                        -----------------------------------------
Total Dipole Moment    :      0.611073727       0.510536987       1.419595958
                        -----------------------------------------
Magnitude (a.u.)       :      1.627670667
Magnitude (Debye)      :      4.137210045

Rotational constants in cm-1:             0.005658             0.002012             0.001678
Rotational constants in MHz :           169.615863            60.325463            50.297880

                             ****ORCA TERMINATED NORMALLY****
TOTAL RUN TIME: 0 days 0 hours 8 minutes 41 seconds 404 msec
