                         Program Version 6.0.0  -   RELEASE  -
|  1> ! B3LYP 6-31G* SP
|  2>
|  3> * xyz 0 1
|  4> C 2.5533 3.3183 -0.9676
|  5> N 3.1052 1.9966 -0.6084
|  6> C 2.6326 1.3423 0.4956
|  7> O 1.7385 1.8938 1.1913
|  8> C 3.1362 0.0671 0.8512
|  9> C 2.7000 -0.6664 2.0093
| 10> C 1.6241 -0.1964 2.9747
| 11> C 0.2518 -0.3382 2.3789
| 12> O -0.5324 0.6488 2.3970
| 13> N -0.1780 -1.6003 1.8442
| 14> C -1.3918 -1.7726 1.1014
| 15> C -1.8438 -2.9719 0.5930
| 16> C -3.0129 -2.6405 -0.0591
| 17> N -3.2223 -1.3102 0.0684
| 18> C -4.3174 -0.5428 -0.4744
| 19> C -5.4782 -1.1713 -0.9631
| 20> C -6.5348 -0.4114 -1.4685
| 21> C -6.4487 0.9810 -1.5008
| 22> C -5.2926 1.6313 -1.0398
| 23> C -5.2168 3.1378 -1.0258
| 24> F -3.9097 3.5615 -1.1940
| 25> F -5.9802 3.6777 -2.0464
| 26> F -5.6896 3.6057 0.1859
| 27> C -4.2431 0.8627 -0.5053
| 28> N -2.2337 -0.7758 0.7707
| 29> C 3.2637 -1.9242 2.2765
| 30> C 4.2338 -2.4640 1.4499
| 31> C 4.6635 -1.7700 0.3295
| 32> C 4.1291 -0.5012 0.0006
| 33> N 4.5492 0.1733 -1.1274
| 34> C 5.5623 -0.4236 -2.0262
| 35> C 4.0259 1.4054 -1.4284
| 36> O 4.3931 2.0064 -2.4786
| 37> H 3.3055 3.9431 -1.4952
| 38> H 1.6655 3.1860 -1.6215
| 39> H 2.2595 3.8964 -0.0655
| 40> H 1.6422 -0.7938 3.9120
| 41> H 1.8219 0.8433 3.3082
| 42> H 0.4313 -2.4371 1.9850
| 43> H -1.3819 -3.9469 0.6735
| 44> H -3.6416 -3.3304 -0.6044
| 45> H -5.5867 -2.2459 -0.9365
| 46> H -7.4290 -0.9041 -1.8286
| 47> H -7.2880 1.5491 -1.8818
| 48> H -3.3634 1.3604 -0.1169
| 49> H 2.9454 -2.5030 3.1354
| 50> H 4.6545 -3.4355 1.6772
| 51> H 5.4195 -2.2508 -0.2737
| 52> H 5.1885 -1.3888 -2.4298
| 53> H 6.5117 -0.5843 -1.4724
| 54> H 5.8085 0.2132 -2.9003
| 55> *
| 56>
| 57>                          ****END OF INPUT****

CARTESIAN COORDINATES (ANGSTROEM)
---------------------------------
  C      2.553300    3.318300   -0.967600
  N      3.105200    1.996600   -0.608400
  C      2.632600    1.342300    0.495600
  O      1.738500    1.893800    1.191300
  C      3.136200    0.067100    0.851200
  C      2.700000   -0.666400    2.009300
  C      1.624100   -0.196400    2.974700
  C      0.251800   -0.338200    2.378900
  O     -0.532400    0.648800    2.397000
  N     -0.178000   -1.600300    1.844200
  C     -1.391800   -1.772600    1.101400
  C     -1.843800   -2.971900    0.593000
  C     -3.012900   -2.640500   -0.059100
  N     -3.222300   -1.310200    0.068400
  C     -4.317400   -0.542800   -0.474400
  C     -5.478200   -1.171300   -0.963100
  C     -6.534800   -0.411400   -1.468500
  C     -6.448700    0.981000   -1.500800
  C     -5.292600    1.631300   -1.039800
  C     -5.216800    3.137800   -1.025800
  F     -3.909700    3.561500   -1.194000
  F     -5.980200    3.677700   -2.046400
  F     -5.689600    3.605700    0.185900
  C     -4.243100    0.862700   -0.505300
  N     -2.233700   -0.775800    0.770700
  C      3.263700   -1.924200    2.276500
  C      4.233800   -2.464000    1.449900
  C      4.663500   -1.770000    0.329500
  C      4.129100   -0.501200    0.000600
  N      4.549200    0.173300   -1.127400
  C      5.562300   -0.423600   -2.026200
  C      4.025900    1.405400   -1.428400
  O      4.393100    2.006400   -2.478600
  H      3.305500    3.943100   -1.495200
  H      1.665500    3.186000   -1.621500
  H      2.259500    3.896400   -0.065500
  H      1.642200   -0.793800    3.912000
  H      1.821900    0.843300    3.308200
  H      0.431300   -2.437100    1.985000
  H     -1.381900   -3.946900    0.673500
  H     -3.641600   -3.330400   -0.604400
  H     -5.586700   -2.245900   -0.936500
  H     -7.429000   -0.904100   -1.828600
  H     -7.288000    1.549100   -1.881800
  H     -3.363400    1.360400   -0.116900
  H      2.945400   -2.503000    3.135400
  H      4.654500   -3.435500    1.677200
  H      5.419500   -2.250800   -0.273700
  H      5.188500   -1.388800   -2.429800
  H      6.511700   -0.584300   -1.472400
  H      5.808500    0.213200   -2.900300

 Total Charge           Charge          ....    0
 Multiplicity           Mult            ....    1
 Number of Electrons    NEL             ....  236
 Basis Dimension        Dim             ....  498

ORBITAL ENERGIES
----------------

  NO   OCC          E(Eh)            E(eV)
   0   2.0000     -24.712587      -672.4637
   1   2.0000     -24.709280      -672.3737
   2   2.0000     -24.706606      -672.3009
   3   2.0000     -19.106523      -519.9149
   4   2.0000     -19.104429      -519.8579
   5   2.0000     -19.094349      -519.5836
   6   2.0000     -14.419243      -392.3675
   7   2.0000     -14.401835      -391.8939
   8   2.0000     -14.391013      -391.5994
   9   2.0000     -14.367401      -390.9569
  10   2.0000     -14.330087      -389.9415
  11   2.0000     -10.427019      -283.7336
  12   2.0000     -10.322505      -280.8896
  13   2.0000     -10.287337      -279.9327
  14   2.0000     -10.280741      -279.7532
  15   2.0000     -10.259858      -279.1849
  16   2.0000     -10.248205      -278.8678
  17   2.0000     -10.242240      -278.7055
  18   2.0000     -10.233536      -278.4687
  19   2.0000     -10.224673      -278.2275
  20   2.0000     -10.214734      -277.9570
  21   2.0000     -10.213000      -277.9099
  22   2.0000     -10.211493      -277.8688
  23   2.0000     -10.211206      -277.8610
  24   2.0000     -10.207600      -277.7629
  25   2.0000     -10.203758      -277.6584
  26   2.0000     -10.202436      -277.6224
  27   2.0000     -10.199168      -277.5335
  28   2.0000     -10.197956      -277.5005
  29   2.0000     -10.197179      -277.4794
  30   2.0000     -10.196502      -277.4609
  31   2.0000     -10.193115      -277.3688
  32   2.0000     -10.175775      -276.8969
  33   2.0000      -1.270431       -34.5702
  34   2.0000      -1.196453       -32.5571
  35   2.0000      -1.193882       -32.4872
  36   2.0000      -1.064949       -28.9787
  37   2.0000      -1.061651       -28.8890
  38   2.0000      -1.016869       -27.6704
  39   2.0000      -0.994918       -27.0731
  40   2.0000      -0.969176       -26.3726
  41   2.0000      -0.934323       -25.4242
  42   2.0000      -0.911000       -24.7896
  43   2.0000      -0.877064       -23.8661
  44   2.0000      -0.870677       -23.6923
  45   2.0000      -0.826691       -22.4954
  46   2.0000      -0.796052       -21.6617
  47   2.0000      -0.787390       -21.4260
  48   2.0000      -0.786080       -21.3903
  49   2.0000      -0.776025       -21.1167
  50   2.0000      -0.745961       -20.2986
  51   2.0000      -0.741153       -20.1678
  52   2.0000      -0.722795       -19.6683
  53   2.0000      -0.704683       -19.1754
  54   2.0000      -0.691013       -18.8034
  55   2.0000      -0.654950       -17.8221
  56   2.0000      -0.652292       -17.7498
  57   2.0000      -0.644552       -17.5392
  58   2.0000      -0.626977       -17.0609
  59   2.0000      -0.611252       -16.6330
  60   2.0000      -0.598802       -16.2942
  61   2.0000      -0.597240       -16.2517
  62   2.0000      -0.573678       -15.6106
  63   2.0000      -0.567695       -15.4478
  64   2.0000      -0.560750       -15.2588
  65   2.0000      -0.557803       -15.1786
  66   2.0000      -0.549195       -14.9444
  67   2.0000      -0.542919       -14.7736
  68   2.0000      -0.521288       -14.1850
  69   2.0000      -0.516178       -14.0459
  70   2.0000      -0.504584       -13.7304
  71   2.0000      -0.500410       -13.6168
  72   2.0000      -0.488370       -13.2892
  73   2.0000      -0.487130       -13.2555
  74   2.0000      -0.474346       -12.9076
  75   2.0000      -0.468042       -12.7361
  76   2.0000      -0.461189       -12.5496
  77   2.0000      -0.459044       -12.4912
  78   2.0000      -0.458101       -12.4656
  79   2.0000      -0.455765       -12.4020
  80   2.0000      -0.443925       -12.0798
  81   2.0000      -0.442185       -12.0325
  82   2.0000      -0.439001       -11.9458
  83   2.0000      -0.437534       -11.9059
  84   2.0000      -0.433510       -11.7964
  85   2.0000      -0.430046       -11.7022
  86   2.0000      -0.421170       -11.4606
  87   2.0000      -0.411732       -11.2038
  88   2.0000      -0.409658       -11.1474
  89   2.0000      -0.405528       -11.0350
  90   2.0000      -0.402575       -10.9546
  91   2.0000      -0.399242       -10.8639
  92   2.0000      -0.396019       -10.7762
  93   2.0000      -0.393959       -10.7202
  94   2.0000      -0.390244       -10.6191
  95   2.0000      -0.388973       -10.5845
  96   2.0000      -0.382322       -10.4035
  97   2.0000      -0.380689       -10.3591
  98   2.0000      -0.377971       -10.2851
  99   2.0000      -0.370583       -10.0841
 100   2.0000      -0.369349       -10.0505
 101   2.0000      -0.368711       -10.0331
 102   2.0000      -0.356807        -9.7092
 103   2.0000      -0.355205        -9.6656
 104   2.0000      -0.353657        -9.6235
 105   2.0000      -0.316338        -8.6080
 106   2.0000      -0.306096        -8.3293
 107   2.0000      -0.279209        -7.5977
 108   2.0000      -0.269785        -7.3412
 109   2.0000      -0.267816        -7.2877
 110   2.0000      -0.265345        -7.2204
 111   2.0000      -0.263439        -7.1685
 112   2.0000      -0.258743        -7.0407
 113   2.0000      -0.241788        -6.5794
 114   2.0000      -0.240675        -6.5491
 115   2.0000      -0.232337        -6.3222
 116   2.0000      -0.216982        -5.9044
 117   2.0000      -0.206869        -5.6292
 118   0.0000      -0.056985        -1.5506
 119   0.0000      -0.032572        -0.8863
 120   0.0000      -0.024109        -0.6561
 121   0.0000      -0.019876        -0.5409
 122   0.0000       0.017052         0.4640

MULLIKEN ATOMIC CHARGES
-----------------------
   0 C :   -0.313790
   1 N :   -0.463759
   2 C :    0.498409
   3 O :   -0.468622
   4 C :    0.009618
   5 C :    0.101172
   6 C :   -0.424955
   7 C :    0.581636
   8 O :   -0.425512
   9 N :   -0.700327
  10 C :    0.504594
  11 C :   -0.284152
  12 C :    0.054870
  13 N :   -0.310625
  14 C :    0.316073
  15 C :   -0.162426
  16 C :   -0.134505
  17 C :   -0.156726
  18 C :   -0.017986
  19 C :    0.902149
  20 F :   -0.301410
  21 F :   -0.307046
  22 F :   -0.294271
  23 C :   -0.199078
  24 N :   -0.298340
  25 C :   -0.213996
  26 C :   -0.105097
  27 C :   -0.199307
  28 C :    0.319695
  29 N :   -0.511426
  30 C :   -0.335464
  31 C :    0.671252
  32 O :   -0.510565
  33 H :    0.191509
  34 H :    0.182140
  35 H :    0.198127
  36 H :    0.156499
  37 H :    0.215750
  38 H :    0.327498
  39 H :    0.131718
  40 H :    0.154935
  41 H :    0.142256
  42 H :    0.143552
  43 H :    0.150619
  44 H :    0.207569
  45 H :    0.130206
  46 H :    0.141287
  47 H :    0.140570
  48 H :    0.170436
  49 H :    0.170615
  50 H :    0.224633
Sum of atomic charges:   -0.0000000

LOEWDIN ATOMIC CHARGES
----------------------
   0 C :   -0.258132
   1 N :   -0.020906
   2 C :    0.110226
   3 O :   -0.263861
   4 C :   -0.071425
   5 C :    0.032650
   6 C :   -0.239003
   7 C :    0.150074
   8 O :   -0.235551
   9 N :   -0.214480
  10 C :    0.041306
  11 C :   -0.213864
  12 C :   -0.112925
  13 N :    0.084773
  14 C :    0.042414
  15 C :   -0.131702
  16 C :   -0.121969
  17 C :   -0.119452
  18 C :   -0.062837
  19 C :    0.312741
  20 F :   -0.110237
  21 F :   -0.113967
  22 F :   -0.111404
  23 C :   -0.108395
  24 N :   -0.138326
  25 C :   -0.163858
  26 C :   -0.103123
  27 C :   -0.167335
  28 C :    0.054698
  29 N :   -0.028117
  30 C :   -0.265233
  31 C :    0.136818
  32 O :   -0.319315
  33 H :    0.150600
  34 H :    0.143207
  35 H :    0.154094
  36 H :    0.137021
  37 H :    0.172423
  38 H :    0.256837
  39 H :    0.136898
  40 H :    0.138596
  41 H :    0.138377
  42 H :    0.139940
  43 H :    0.143091
  44 H :    0.171225
  45 H :    0.131524
  46 H :    0.138735
  47 H :    0.140099
  48 H :    0.134452
  49 H :    0.134337
  50 H :    0.168262

  Mayer bond orders larger than 0.100000
B(  0-C ,  1-N ) :   0.9159 B(  0-C , 33-H ) :   0.9266 B(  0-C , 34-H ) :   0.9398
B(  0-C , 35-H ) :   0.9232 B(  1-N ,  2-C ) :   0.9894 B(  1-N , 31-C ) :   1.0473
B(  2-C ,  3-O ) :   1.7731 B(  2-C ,  4-C ) :   1.0515 B(  4-C ,  5-C ) :   1.3661
B(  4-C , 28-C ) :   1.2882 B(  5-C ,  6-C ) :   0.9803 B(  5-C , 25-C ) :   1.4194
B(  6-C ,  7-C ) :   0.9503 B(  6-C , 36-H ) :   0.9145 B(  6-C , 37-H ) :   0.8966
B(  7-C ,  8-O ) :   1.8786 B(  7-C ,  9-N ) :   0.9971 B(  9-N , 10-C ) :   0.9160
B(  9-N , 38-H ) :   0.8229 B( 10-C , 11-C ) :   1.3364 B( 10-C , 24-N ) :   1.4247
B( 11-C , 12-C ) :   1.5183 B( 11-C , 39-H ) :   0.9274 B( 12-C , 13-N ) :   1.1692
B( 12-C , 24-N ) :   0.1058 B( 12-C , 40-H ) :   0.9205 B( 13-N , 14-C ) :   0.8737
B( 13-N , 24-N ) :   1.1646 B( 14-C , 15-C ) :   1.4011 B( 14-C , 23-C ) :   1.3942
B( 15-C , 16-C ) :   1.4475 B( 15-C , 41-H ) :   0.9161 B( 16-C , 17-C ) :   1.4343
B( 16-C , 42-H ) :   0.9275 B( 17-C , 18-C ) :   1.4126 B( 17-C , 43-H ) :   0.9204
B( 18-C , 19-C ) :   0.9760 B( 18-C , 23-C ) :   1.3853 B( 19-C , 20-F ) :   0.9520
B( 19-C , 21-F ) :   0.9449 B( 19-C , 22-F ) :   0.9892 B( 23-C , 44-H ) :   0.8890
B( 25-C , 26-C ) :   1.4037 B( 25-C , 45-H ) :   0.9245 B( 26-C , 27-C ) :   1.4723
B( 26-C , 46-H ) :   0.9263 B( 27-C , 28-C ) :   1.3416 B( 27-C , 47-H ) :   0.9144
B( 28-C , 29-N ) :   0.9734 B( 29-N , 30-C ) :   0.9356 B( 29-N , 31-C ) :   1.0392
B( 30-C , 48-H ) :   0.9323 B( 30-C , 49-H ) :   0.9322 B( 30-C , 50-H ) :   0.9136
B( 31-C , 32-O ) :   1.7848

FINAL SINGLE POINT ENERGY     -1647.235669467290

DIPOLE MOMENT
-------------

Method             : SCF
Type of density    : Electron Density
Multiplicity       :   1
Irrep              :   0
Energy             : -1647.2356694672896538 Eh
Relativity type    :
Basis              : AO
                                X                 Y                 Z
Electronic contribution:    -32.450827227      20.737048639      -2.035726427
Nuclear contribution   :     33.669754494     -24.101368927       1.722976740
                        -----------------------------------------
Total Dipole Moment    :      1.218927268      -3.364320288      -0.312749687
                        -----------------------------------------
Magnitude (a.u.)       :      3.591969801
Magnitude (Debye)      :      9.130061655

Rotational constants in cm-1:             0.006517             0.002074             0.001796
Rotational constants in MHz :           195.387569            62.179770            53.843713

                             ****ORCA TERMINATED NORMALLY****
TOTAL RUN TIME: 0 days 0 hours 9 minutes 6 seconds 555 msec
