                         Program Version 6.0.0  -   RELEASE  -
|  1> ! B3LYP 6-31G* SP
|  2>
|  3> * xyz 0 1
|  4> C -3.5427 -2.3648 -0.6308
|  5> N -4.1816 -1.1138 -0.1851
|  6> C -3.5296 -0.3020 0.7153
|  7> O -2.3998 -0.6305 1.1690
|  8> C -4.1341 0.8916 1.1248
|  9> C -3.6746 1.8681 2.0580
| 10> C -2.3612 1.8130 2.7870
| 11> C -1.2318 2.1877 1.8725
| 12> O -1.2607 3.3028 1.2848
| 13> N -0.1101 1.3047 1.7132
| 14> C 0.8775 1.4241 0.6794
| 15> N 1.9796 0.6467 0.6386
| 16> C 2.7574 0.9027 -0.4515
| 17> C 4.0234 0.1589 -0.6896
| 18> C 4.3119 -0.9898 0.0680
| 19> C 5.4966 -1.7020 -0.1361
| 20> C 6.4255 -1.2790 -1.1043
| 21> O 7.6276 -1.9657 -1.3463
| 22> C 8.0599 -3.1412 -0.6645
| 23> F 8.1997 -2.8837 0.6876
| 24> F 9.2841 -3.5292 -1.1726
| 25> F 7.1520 -4.1664 -0.8581
| 26> C 6.1456 -0.1300 -1.8579
| 27> Cl 7.2845 0.4354 -3.0714
| 28> C 4.9585 0.5826 -1.6527
| 29> C 2.2515 1.8949 -1.2991
| 30> S 0.8034 2.4513 -0.6510
| 31> N -4.5065 2.9341 2.2353
| 32> S -5.8186 2.6697 1.2454
| 33> C -5.3534 1.2165 0.5758
| 34> N -5.9863 0.4522 -0.3537
| 35> C -7.2976 0.8535 -0.8837
| 36> C -5.3948 -0.7318 -0.7246
| 37> O -5.9678 -1.4770 -1.5693
| 38> H -4.2981 -3.1290 -0.9123
| 39> H -2.9327 -2.8175 0.1805
| 40> H -2.8901 -2.1577 -1.5049
| 41> H -2.3779 2.5280 3.6373
| 42> H -2.2110 0.8030 3.2219
| 43> H -0.0077 0.5088 2.3825
| 44> H 3.6175 -1.3458 0.8189
| 45> H 5.6762 -2.5808 0.4666
| 46> H 4.7869 1.4727 -2.2410
| 47> H 2.6828 2.2442 -2.2262
| 48> H -7.3626 1.9572 -0.9872
| 49> H -7.4724 0.4307 -1.8958
| 50> H -8.0984 0.5028 -0.1994
| 51> *
| 52>
| 53>                          ****END OF INPUT****

CARTESIAN COORDINATES (ANGSTROEM)
---------------------------------
  C     -3.542700   -2.364800   -0.630800
  N     -4.181600   -1.113800   -0.185100
  C     -3.529600   -0.302000    0.715300
  O     -2.399800   -0.630500    1.169000
  C     -4.134100    0.891600    1.124800
  C     -3.674600    1.868100    2.058000
  C     -2.361200    1.813000    2.787000
  C     -1.231800    2.187700    1.872500
  O     -1.260700    3.302800    1.284800
  N     -0.110100    1.304700    1.713200
  C      0.877500    1.424100    0.679400
  N      1.979600    0.646700    0.638600
  C      2.757400    0.902700   -0.451500
  C      4.023400    0.158900   -0.689600
  C      4.311900   -0.989800    0.068000
  C      5.496600   -1.702000   -0.136100
  C      6.425500   -1.279000   -1.104300
  O      7.627600   -1.965700   -1.346300
  C      8.059900   -3.141200   -0.664500
  F      8.199700   -2.883700    0.687600
  F      9.284100   -3.529200   -1.172600
  F      7.152000   -4.166400   -0.858100
  C      6.145600   -0.130000   -1.857900
  Cl     7.284500    0.435400   -3.071400
  C      4.958500    0.582600   -1.652700
  C      2.251500    1.894900   -1.299100
  S      0.803400    2.451300   -0.651000
  N     -4.506500    2.934100    2.235300
  S     -5.818600    2.669700    1.245400
  C     -5.353400    1.216500    0.575800
  N     -5.986300    0.452200   -0.353700
  C     -7.297600    0.853500   -0.883700
  C     -5.394800   -0.731800   -0.724600
  O     -5.967800   -1.477000   -1.569300
  H     -4.298100   -3.129000   -0.912300
  H     -2.932700   -2.817500    0.180500
  H     -2.890100   -2.157700   -1.504900
  H     -2.377900    2.528000    3.637300
  H     -2.211000    0.803000    3.221900
  H     -0.007700    0.508800    2.382500
  H      3.617500   -1.345800    0.818900
  H      5.676200   -2.580800    0.466600
  H      4.786900    1.472700   -2.241000
  H      2.682800    2.244200   -2.226200
  H     -7.362600    1.957200   -0.987200
  H     -7.472400    0.430700   -1.895800
  H     -8.098400    0.502800   -0.199400

 Total Charge           Charge          ....    0
 Multiplicity           Mult            ....    1
 Number of Electrons    NEL             ....  270
 Basis Dimension        Dim             ....  514

ORBITAL ENERGIES
----------------

  NO   OCC          E(Eh)            E(eV)
   0   2.0000    -101.529996     -2762.7716
   1   2.0000     -88.939199     -2420.1586
   2   2.0000     -88.902586     -2419.1624
   3   2.0000     -24.740086      -673.2120
   4   2.0000     -24.738729      -673.1750
   5   2.0000     -24.738306      -673.1635
   6   2.0000     -19.214224      -522.8456
   7   2.0000     -19.133628      -520.6525
   8   2.0000     -19.132666      -520.6263
   9   2.0000     -19.129330      -520.5355
  10   2.0000     -14.433090      -392.7444
  11   2.0000     -14.413355      -392.2073
  12   2.0000     -14.392747      -391.6465
  13   2.0000     -14.374082      -391.1386
  14   2.0000     -14.330869      -389.9628
  15   2.0000     -10.504360      -285.8382
  16   2.0000     -10.348494      -281.5968
  17   2.0000     -10.315182      -280.6904
  18   2.0000     -10.310767      -280.5702
  19   2.0000     -10.291002      -280.0324
  20   2.0000     -10.289486      -279.9911
  21   2.0000     -10.276131      -279.6277
  22   2.0000     -10.265591      -279.3409
  23   2.0000     -10.255842      -279.0756
  24   2.0000     -10.255554      -279.0678
  25   2.0000     -10.231745      -278.4199
  26   2.0000     -10.227125      -278.2942
  27   2.0000     -10.218755      -278.0665
  28   2.0000     -10.218581      -278.0617
  29   2.0000     -10.208321      -277.7825
  30   2.0000     -10.206180      -277.7243
  31   2.0000     -10.204636      -277.6823
  32   2.0000     -10.200646      -277.5737
  33   2.0000     -10.193976      -277.3922
  34   2.0000      -9.461396      -257.4577
  35   2.0000      -8.013346      -218.0542
  36   2.0000      -7.978811      -217.1145
  37   2.0000      -7.224702      -196.5941
  38   2.0000      -7.214947      -196.3287
  39   2.0000      -7.214553      -196.3180
  40   2.0000      -5.977657      -162.6603
  41   2.0000      -5.972319      -162.5151
  42   2.0000      -5.969405      -162.4358
  43   2.0000      -5.941948      -161.6886
  44   2.0000      -5.937690      -161.5728
  45   2.0000      -5.935786      -161.5209
  46   2.0000      -1.303642       -35.4739
  47   2.0000      -1.224450       -33.3190
  48   2.0000      -1.223446       -33.2917
  49   2.0000      -1.089088       -29.6356
  50   2.0000      -1.084482       -29.5103
  51   2.0000      -1.039686       -28.2913
  52   2.0000      -1.034302       -28.1448
  53   2.0000      -1.008666       -27.4472
  54   2.0000      -0.977290       -26.5934
  55   2.0000      -0.974885       -26.5280
  56   2.0000      -0.956503       -26.0278
  57   2.0000      -0.914856       -24.8945
  58   2.0000      -0.892172       -24.2772
  59   2.0000      -0.841280       -22.8924
  60   2.0000      -0.831708       -22.6319
  61   2.0000      -0.820643       -22.3308
  62   2.0000      -0.808477       -21.9998
  63   2.0000      -0.786908       -21.4129
  64   2.0000      -0.771437       -20.9919
  65   2.0000      -0.752227       -20.4691
  66   2.0000      -0.744935       -20.2707
  67   2.0000      -0.735563       -20.0157
  68   2.0000      -0.721989       -19.6463
  69   2.0000      -0.696672       -18.9574
  70   2.0000      -0.674017       -18.3409
  71   2.0000      -0.659124       -17.9357
  72   2.0000      -0.645586       -17.5673
  73   2.0000      -0.634020       -17.2526
  74   2.0000      -0.617179       -16.7943
  75   2.0000      -0.608059       -16.5461
  76   2.0000      -0.596893       -16.2423
  77   2.0000      -0.595821       -16.2131
  78   2.0000      -0.589108       -16.0304
  79   2.0000      -0.583607       -15.8807
  80   2.0000      -0.570264       -15.5177
  81   2.0000      -0.561128       -15.2691
  82   2.0000      -0.534138       -14.5346
  83   2.0000      -0.527045       -14.3416
  84   2.0000      -0.518530       -14.1099
  85   2.0000      -0.514283       -13.9943
  86   2.0000      -0.509160       -13.8550
  87   2.0000      -0.494084       -13.4447
  88   2.0000      -0.485426       -13.2091
  89   2.0000      -0.482442       -13.1279
  90   2.0000      -0.478874       -13.0308
  91   2.0000      -0.469727       -12.7819
  92   2.0000      -0.468945       -12.7606
  93   2.0000      -0.462683       -12.5902
  94   2.0000      -0.460865       -12.5408
  95   2.0000      -0.458695       -12.4817
  96   2.0000      -0.448033       -12.1916
  97   2.0000      -0.446430       -12.1480
  98   2.0000      -0.443765       -12.0754
  99   2.0000      -0.440770       -11.9940
 100   2.0000      -0.435780       -11.8582
 101   2.0000      -0.433410       -11.7937
 102   2.0000      -0.429923       -11.6988
 103   2.0000      -0.428053       -11.6479
 104   2.0000      -0.424648       -11.5553
 105   2.0000      -0.419141       -11.4054
 106   2.0000      -0.416777       -11.3411
 107   2.0000      -0.414709       -11.2848
 108   2.0000      -0.412028       -11.2119
 109   2.0000      -0.406477       -11.0608
 110   2.0000      -0.401876       -10.9356
 111   2.0000      -0.399264       -10.8645
 112   2.0000      -0.395985       -10.7753
 113   2.0000      -0.392551       -10.6819
 114   2.0000      -0.376026       -10.2322
 115   2.0000      -0.372138       -10.1264
 116   2.0000      -0.362814        -9.8727
 117   2.0000      -0.358007        -9.7419
 118   2.0000      -0.352570        -9.5939
 119   2.0000      -0.345292        -9.3959
 120   2.0000      -0.337147        -9.1742
 121   2.0000      -0.326357        -8.8806
 122   2.0000      -0.311655        -8.4806
 123   2.0000      -0.310319        -8.4442
 124   2.0000      -0.292005        -7.9459
 125   2.0000      -0.288554        -7.8520
 126   2.0000      -0.284462        -7.7406
 127   2.0000      -0.281357        -7.6561
 128   2.0000      -0.275889        -7.5073
 129   2.0000      -0.268833        -7.3153
 130   2.0000      -0.264842        -7.2067
 131   2.0000      -0.257192        -6.9985
 132   2.0000      -0.255458        -6.9514
 133   2.0000      -0.244143        -6.6435
 134   2.0000      -0.209741        -5.7074
 135   0.0000      -0.053960        -1.4683
 136   0.0000      -0.046131        -1.2553
 137   0.0000      -0.037876        -1.0307
 138   0.0000      -0.026199        -0.7129
 139   0.0000      -0.016301        -0.4436

MULLIKEN ATOMIC CHARGES
-----------------------
   0 C :   -0.318059
   1 N :   -0.480590
   2 C :    0.521828
   3 O :   -0.508055
   4 C :    0.054369
   5 C :    0.193885
   6 C :   -0.408174
   7 C :    0.574015
   8 O :   -0.450482
   9 N :   -0.627152
  10 C :    0.266134
  11 N :   -0.437309
  12 C :    0.213817
  13 C :    0.130445
  14 C :   -0.170467
  15 C :   -0.181946
  16 C :    0.363747
  17 O :   -0.535639
  18 C :    1.089480
  19 F :   -0.290801
  20 F :   -0.276541
  21 F :   -0.290886
  22 C :   -0.135304
  23 Cl:    0.008673
  24 C :   -0.181637
  25 C :   -0.405625
  26 S :    0.316405
  27 N :   -0.472471
  28 S :    0.406238
  29 C :    0.044067
  30 N :   -0.447952
  31 C :   -0.342390
  32 C :    0.688314
  33 O :   -0.494724
  34 H :    0.199207
  35 H :    0.196562
  36 H :    0.184549
  37 H :    0.203968
  38 H :    0.181112
  39 H :    0.361670
  40 H :    0.162999
  41 H :    0.159893
  42 H :    0.153686
  43 H :    0.182000
  44 H :    0.185842
  45 H :    0.221681
  46 H :    0.191617
Sum of atomic charges:   -0.0000000

LOEWDIN ATOMIC CHARGES
----------------------
   0 C :   -0.259845
   1 N :   -0.026620
   2 C :    0.117027
   3 O :   -0.299921
   4 C :   -0.128468
   5 C :    0.050387
   6 C :   -0.243187
   7 C :    0.157845
   8 O :   -0.256745
   9 N :   -0.187114
  10 C :   -0.074514
  11 N :   -0.186810
  12 C :   -0.007831
  13 C :   -0.016971
  14 C :   -0.108245
  15 C :   -0.152576
  16 C :    0.078524
  17 O :   -0.152050
  18 C :    0.360995
  19 F :   -0.104236
  20 F :   -0.084950
  21 F :   -0.104091
  22 C :   -0.101378
  23 Cl:    0.050351
  24 C :   -0.123447
  25 C :   -0.350564
  26 S :    0.427207
  27 N :   -0.310374
  28 S :    0.479989
  29 C :   -0.118356
  30 N :   -0.021083
  31 C :   -0.262862
  32 C :    0.146682
  33 O :   -0.303147
  34 H :    0.154736
  35 H :    0.153535
  36 H :    0.143877
  37 H :    0.168257
  38 H :    0.151382
  39 H :    0.279991
  40 H :    0.151320
  41 H :    0.146876
  42 H :    0.147157
  43 H :    0.160646
  44 H :    0.146021
  45 H :    0.167606
  46 H :    0.144975

  Mayer bond orders larger than 0.100000
B(  0-C ,  1-N ) :   0.9136 B(  0-C , 34-H ) :   0.9244 B(  0-C , 35-H ) :   0.9243
B(  0-C , 36-H ) :   0.9389 B(  1-N ,  2-C ) :   0.9857 B(  1-N , 32-C ) :   1.0404
B(  2-C ,  3-O ) :   1.7553 B(  2-C ,  4-C ) :   1.0928 B(  4-C ,  5-C ) :   1.2401
B(  4-C , 29-C ) :   1.3475 B(  5-C ,  6-C ) :   1.0063 B(  5-C , 27-N ) :   1.5389
B(  6-C ,  7-C ) :   0.9441 B(  6-C , 37-H ) :   0.9021 B(  6-C , 38-H ) :   0.9057
B(  7-C ,  8-O ) :   1.8330 B(  7-C ,  9-N ) :   1.0318 B(  9-N , 10-C ) :   0.9536
B(  9-N , 39-H ) :   0.8051 B( 10-C , 11-N ) :   1.4781 B( 10-C , 25-C ) :   0.1064
B( 10-C , 26-S ) :   1.1804 B( 11-N , 12-C ) :   1.2898 B( 12-C , 13-C ) :   1.0576
B( 12-C , 25-C ) :   1.5156 B( 13-C , 14-C ) :   1.3946 B( 13-C , 24-C ) :   1.4024
B( 14-C , 15-C ) :   1.4172 B( 14-C , 40-H ) :   0.9097 B( 15-C , 16-C ) :   1.3811
B( 15-C , 41-H ) :   0.9079 B( 16-C , 17-O ) :   0.8523 B( 16-C , 22-C ) :   1.3498
B( 17-O , 18-C ) :   0.9837 B( 18-C , 19-F ) :   0.9689 B( 18-C , 20-F ) :   1.0107
B( 18-C , 21-F ) :   0.9682 B( 22-C , 23-Cl) :   1.0408 B( 22-C , 24-C ) :   1.4103
B( 24-C , 42-H ) :   0.9110 B( 25-C , 26-S ) :   1.1101 B( 25-C , 43-H ) :   0.9012
B( 27-N , 28-S ) :   1.0953 B( 27-N , 29-C ) :   0.1324 B( 28-S , 29-C ) :   1.1616
B( 29-C , 30-N ) :   0.9976 B( 30-N , 31-C ) :   0.9221 B( 30-N , 32-C ) :   1.0271
B( 31-C , 44-H ) :   0.9234 B( 31-C , 45-H ) :   0.9178 B( 31-C , 46-H ) :   0.9319
B( 32-C , 33-O ) :   1.8000

FINAL SINGLE POINT ENERGY     -2861.556726959559

DIPOLE MOMENT
-------------

Method             : SCF
Type of density    : Electron Density
Multiplicity       :   1
Irrep              :   0
Energy             : -2861.5567269595594553 Eh
Relativity type    :
Basis              : AO
                                X                 Y                 Z
Electronic contribution:     56.266145140      -7.082765723      -6.614480158
Nuclear contribution   :    -58.836518939       6.655178559       7.093992192
                        -----------------------------------------
Total Dipole Moment    :     -2.570373799      -0.427587165       0.479512034
                        -----------------------------------------
Magnitude (a.u.)       :      2.649449762
Magnitude (Debye)      :      6.734366106

Rotational constants in cm-1:             0.007400             0.001035             0.000988
Rotational constants in MHz :           221.831505            31.025736            29.628802

                             ****ORCA TERMINATED NORMALLY****
TOTAL RUN TIME: 0 days 0 hours 8 minutes 39 seconds 161 msec
