                         Program Version 6.0.0  -   RELEASE  -
|  1> ! B3LYP 6-31G* SP
|  2>
|  3> * xyz 0 1
|  4> C -0.4777 3.1087 2.0977
|  5> C 0.3429 2.1432 1.3007
|  6> O 1.2054 1.4404 1.8904
|  7> C 0.1244 1.9676 -0.1541
|  8> C -0.2948 0.7124 -0.6513
|  9> N -0.5070 -0.4034 0.2262
| 10> C 0.2707 -1.6304 0.0396
| 11> C 1.7074 -1.3924 0.4124
| 12> C 2.6179 -0.9198 -0.5451
| 13> C 3.9363 -0.6274 -0.1838
| 14> C 4.3616 -0.7984 1.1486
| 15> O 5.6689 -0.5091 1.5707
| 16> C 6.7087 0.0023 0.7396
| 17> F 6.3389 1.2272 0.2135
| 18> F 6.9834 -0.8870 -0.2837
| 19> F 7.8487 0.1709 1.5010
| 20> C 3.4478 -1.2667 2.1013
| 21> C 2.1297 -1.5582 1.7397
| 22> S -1.8949 -0.4222 1.2706
| 23> O -1.4479 -0.6220 2.6921
| 24> O -2.6343 0.8841 1.1794
| 25> C -2.9780 -1.7162 0.7715
| 26> C -3.0447 -2.9118 1.4976
| 27> C -3.8960 -3.9406 1.0826
| 28> C -4.6908 -3.7880 -0.0672
| 29> C -5.5923 -4.8777 -0.5023
| 30> O -6.3242 -4.7334 -1.5192
| 31> O -5.6413 -6.0745 0.2087
| 32> C -4.6121 -2.5870 -0.7962
| 33> C -3.7588 -1.5613 -0.3801
| 34> N -0.5006 0.5422 -1.9839
| 35> C -0.3262 1.5422 -2.8812
| 36> C 0.0995 2.8024 -2.4539
| 37> C 0.3003 3.8340 -3.3843
| 38> C 0.7591 5.0811 -2.9597
| 39> C 1.0310 5.3042 -1.6100
| 40> C 0.8330 4.2868 -0.6733
| 41> C 0.3444 3.0243 -1.0753
| 42> H -1.2110 3.6350 1.4515
| 43> H 0.1855 3.8566 2.5798
| 44> H -1.0315 2.5593 2.8866
| 45> H -0.1426 -2.4518 0.6643
| 46> H 0.1956 -1.9665 -1.0173
| 47> H 2.3024 -0.7630 -1.5691
| 48> H 4.6077 -0.2585 -0.9446
| 49> H 3.7597 -1.3959 3.1299
| 50> H 1.4341 -1.8982 2.4972
| 51> H -2.4358 -3.0526 2.3813
| 52> H -3.9301 -4.8547 1.6623
| 53> H -6.2556 -6.8265 -0.0804
| 54> H -5.2068 -2.4409 -1.6893
| 55> H -3.7043 -0.6465 -0.9578
| 56> H -0.5124 1.3466 -3.9298
| 57> H 0.1088 3.6733 -4.4387
| 58> H 0.9153 5.8735 -3.6803
| 59> H 1.4021 6.2684 -1.2876
| 60> H 1.0801 4.4963 0.3574
| 61> *
| 62>
| 63>                          ****END OF INPUT****

CARTESIAN COORDINATES (ANGSTROEM)
---------------------------------
  C     -0.477700    3.108700    2.097700
  C      0.342900    2.143200    1.300700
  O      1.205400    1.440400    1.890400
  C      0.124400    1.967600   -0.154100
  C     -0.294800    0.712400   -0.651300
  N     -0.507000   -0.403400    0.226200
  C      0.270700   -1.630400    0.039600
  C      1.707400   -1.392400    0.412400
  C      2.617900   -0.919800   -0.545100
  C      3.936300   -0.627400   -0.183800
  C      4.361600   -0.798400    1.148600
  O      5.668900   -0.509100    1.570700
  C      6.708700    0.002300    0.739600
  F      6.338900    1.227200    0.213500
  F      6.983400   -0.887000   -0.283700
  F      7.848700    0.170900    1.501000
  C      3.447800   -1.266700    2.101300
  C      2.129700   -1.558200    1.739700
  S     -1.894900   -0.422200    1.270600
  O     -1.447900   -0.622000    2.692100
  O     -2.634300    0.884100    1.179400
  C     -2.978000   -1.716200    0.771500
  C     -3.044700   -2.911800    1.497600
  C     -3.896000   -3.940600    1.082600
  C     -4.690800   -3.788000   -0.067200
  C     -5.592300   -4.877700   -0.502300
  O     -6.324200   -4.733400   -1.519200
  O     -5.641300   -6.074500    0.208700
  C     -4.612100   -2.587000   -0.796200
  C     -3.758800   -1.561300   -0.380100
  N     -0.500600    0.542200   -1.983900
  C     -0.326200    1.542200   -2.881200
  C      0.099500    2.802400   -2.453900
  C      0.300300    3.834000   -3.384300
  C      0.759100    5.081100   -2.959700
  C      1.031000    5.304200   -1.610000
  C      0.833000    4.286800   -0.673300
  C      0.344400    3.024300   -1.075300
  H     -1.211000    3.635000    1.451500
  H      0.185500    3.856600    2.579800
  H     -1.031500    2.559300    2.886600
  H     -0.142600   -2.451800    0.664300
  H      0.195600   -1.966500   -1.017300
  H      2.302400   -0.763000   -1.569100
  H      4.607700   -0.258500   -0.944600
  H      3.759700   -1.395900    3.129900
  H      1.434100   -1.898200    2.497200
  H     -2.435800   -3.052600    2.381300
  H     -3.930100   -4.854700    1.662300
  H     -6.255600   -6.826500   -0.080400
  H     -5.206800   -2.440900   -1.689300
  H     -3.704300   -0.646500   -0.957800
  H     -0.512400    1.346600   -3.929800
  H      0.108800    3.673300   -4.438700
  H      0.915300    5.873500   -3.680300
  H      1.402100    6.268400   -1.287600
  H      1.080100    4.496300    0.357400

 Total Charge           Charge          ....    0
 Multiplicity           Mult            ....    1
 Number of Electrons    NEL             ....  280
 Basis Dimension        Dim             ....  574

ORBITAL ENERGIES
----------------

  NO   OCC          E(Eh)            E(eV)
   0   2.0000     -89.101354     -2424.5711
   1   2.0000     -24.734426      -673.0580
   2   2.0000     -24.732158      -672.9962
   3   2.0000     -24.731405      -672.9757
   4   2.0000     -19.203189      -522.5453
   5   2.0000     -19.197751      -522.3974
   6   2.0000     -19.139730      -520.8185
   7   2.0000     -19.132126      -520.6116
   8   2.0000     -19.129359      -520.5363
   9   2.0000     -19.124992      -520.4175
  10   2.0000     -14.374342      -391.1457
  11   2.0000     -14.343880      -390.3168
  12   2.0000     -10.496295      -285.6187
  13   2.0000     -10.337041      -281.2852
  14   2.0000     -10.273751      -279.5630
  15   2.0000     -10.269429      -279.4454
  16   2.0000     -10.257122      -279.1105
  17   2.0000     -10.244506      -278.7672
  18   2.0000     -10.238298      -278.5983
  19   2.0000     -10.233996      -278.4812
  20   2.0000     -10.231350      -278.4092
  21   2.0000     -10.222342      -278.1641
  22   2.0000     -10.222231      -278.1611
  23   2.0000     -10.219892      -278.0974
  24   2.0000     -10.219347      -278.0826
  25   2.0000     -10.219224      -278.0792
  26   2.0000     -10.214300      -277.9452
  27   2.0000     -10.210636      -277.8455
  28   2.0000     -10.206349      -277.7289
  29   2.0000     -10.205798      -277.7139
  30   2.0000     -10.204417      -277.6763
  31   2.0000     -10.203806      -277.6597
  32   2.0000     -10.186133      -277.1788
  33   2.0000     -10.185100      -277.1507
  34   2.0000     -10.184663      -277.1388
  35   2.0000     -10.183542      -277.1083
  36   2.0000     -10.182575      -277.0820
  37   2.0000     -10.172622      -276.8111
  38   2.0000      -8.137227      -221.4252
  39   2.0000      -6.102218      -166.0498
  40   2.0000      -6.100295      -165.9975
  41   2.0000      -6.099835      -165.9850
  42   2.0000      -1.297111       -35.2962
  43   2.0000      -1.217925       -33.1414
  44   2.0000      -1.217423       -33.1278
  45   2.0000      -1.088264       -29.6132
  46   2.0000      -1.082223       -29.4488
  47   2.0000      -1.073151       -29.2019
  48   2.0000      -1.009112       -27.4593
  49   2.0000      -0.996543       -27.1173
  50   2.0000      -0.969817       -26.3900
  51   2.0000      -0.966904       -26.3108
  52   2.0000      -0.921417       -25.0730
  53   2.0000      -0.892280       -24.2802
  54   2.0000      -0.873808       -23.7775
  55   2.0000      -0.852317       -23.1927
  56   2.0000      -0.814488       -22.1633
  57   2.0000      -0.808219       -21.9928
  58   2.0000      -0.786679       -21.4066
  59   2.0000      -0.778389       -21.1810
  60   2.0000      -0.775454       -21.1012
  61   2.0000      -0.750073       -20.4105
  62   2.0000      -0.745510       -20.2864
  63   2.0000      -0.731910       -19.9163
  64   2.0000      -0.724019       -19.7015
  65   2.0000      -0.704393       -19.1675
  66   2.0000      -0.674266       -18.3477
  67   2.0000      -0.672921       -18.3111
  68   2.0000      -0.656928       -17.8759
  69   2.0000      -0.641093       -17.4450
  70   2.0000      -0.631453       -17.1827
  71   2.0000      -0.627250       -17.0683
  72   2.0000      -0.618609       -16.8332
  73   2.0000      -0.611444       -16.6382
  74   2.0000      -0.597677       -16.2636
  75   2.0000      -0.589138       -16.0313
  76   2.0000      -0.583924       -15.8894
  77   2.0000      -0.565071       -15.3764
  78   2.0000      -0.562207       -15.2984
  79   2.0000      -0.558110       -15.1870
  80   2.0000      -0.543630       -14.7929
  81   2.0000      -0.539162       -14.6713
  82   2.0000      -0.519508       -14.1365
  83   2.0000      -0.502245       -13.6668
  84   2.0000      -0.498505       -13.5650
  85   2.0000      -0.491038       -13.3618
  86   2.0000      -0.483933       -13.1685
  87   2.0000      -0.480237       -13.0679
  88   2.0000      -0.477509       -12.9937
  89   2.0000      -0.473051       -12.8724
  90   2.0000      -0.463595       -12.6151
  91   2.0000      -0.463232       -12.6052
  92   2.0000      -0.462699       -12.5907
  93   2.0000      -0.461987       -12.5713
  94   2.0000      -0.454201       -12.3594
  95   2.0000      -0.451459       -12.2848
  96   2.0000      -0.449944       -12.2436
  97   2.0000      -0.445772       -12.1301
  98   2.0000      -0.443743       -12.0749
  99   2.0000      -0.439763       -11.9666
 100   2.0000      -0.437762       -11.9121
 101   2.0000      -0.434436       -11.8216
 102   2.0000      -0.431697       -11.7471
 103   2.0000      -0.427082       -11.6215
 104   2.0000      -0.425847       -11.5879
 105   2.0000      -0.421287       -11.4638
 106   2.0000      -0.418662       -11.3924
 107   2.0000      -0.413840       -11.2612
 108   2.0000      -0.409564       -11.1448
 109   2.0000      -0.407421       -11.0865
 110   2.0000      -0.402712       -10.9583
 111   2.0000      -0.396282       -10.7834
 112   2.0000      -0.394143       -10.7252
 113   2.0000      -0.387221       -10.5368
 114   2.0000      -0.384110       -10.4522
 115   2.0000      -0.379325       -10.3220
 116   2.0000      -0.375572       -10.2198
 117   2.0000      -0.370228       -10.0744
 118   2.0000      -0.366854        -9.9826
 119   2.0000      -0.364258        -9.9120
 120   2.0000      -0.362564        -9.8659
 121   2.0000      -0.337836        -9.1930
 122   2.0000      -0.336222        -9.1491
 123   2.0000      -0.333346        -9.0708
 124   2.0000      -0.327616        -8.9149
 125   2.0000      -0.323091        -8.7917
 126   2.0000      -0.311748        -8.4831
 127   2.0000      -0.309794        -8.4299
 128   2.0000      -0.296317        -8.0632
 129   2.0000      -0.286049        -7.7838
 130   2.0000      -0.283853        -7.7240
 131   2.0000      -0.281175        -7.6512
 132   2.0000      -0.276310        -7.5188
 133   2.0000      -0.274388        -7.4665
 134   2.0000      -0.269568        -7.3353
 135   2.0000      -0.256911        -6.9909
 136   2.0000      -0.247798        -6.7429
 137   2.0000      -0.237021        -6.4497
 138   2.0000      -0.230865        -6.2822
 139   2.0000      -0.224988        -6.1222
 140   0.0000      -0.086336        -2.3493
 141   0.0000      -0.074729        -2.0335
 142   0.0000      -0.041299        -1.1238
 143   0.0000      -0.032768        -0.8917
 144   0.0000      -0.027331        -0.7437

MULLIKEN ATOMIC CHARGES
-----------------------
   0 C :   -0.517302
   1 C :    0.331427
   2 O :   -0.406959
   3 C :    0.041358
   4 C :    0.363810
   5 N :   -0.596763
   6 C :   -0.259480
   7 C :    0.177728
   8 C :   -0.171353
   9 C :   -0.188494
  10 C :    0.354578
  11 O :   -0.545753
  12 C :    1.085027
  13 F :   -0.292180
  14 F :   -0.293020
  15 F :   -0.280744
  16 C :   -0.163371
  17 C :   -0.134414
  18 S :    1.222413
  19 O :   -0.541889
  20 O :   -0.562962
  21 C :   -0.129369
  22 C :   -0.150038
  23 C :   -0.146129
  24 C :    0.083082
  25 C :    0.529025
  26 O :   -0.443750
  27 O :   -0.623586
  28 C :   -0.140433
  29 C :   -0.137755
  30 N :   -0.408328
  31 C :   -0.047257
  32 C :    0.131368
  33 C :   -0.202911
  34 C :   -0.124453
  35 C :   -0.121909
  36 C :   -0.195762
  37 C :    0.135282
  38 H :    0.160058
  39 H :    0.168741
  40 H :    0.220073
  41 H :    0.165009
  42 H :    0.175084
  43 H :    0.138002
  44 H :    0.145631
  45 H :    0.146694
  46 H :    0.150946
  47 H :    0.185518
  48 H :    0.174145
  49 H :    0.434729
  50 H :    0.181750
  51 H :    0.186649
  52 H :    0.158076
  53 H :    0.142287
  54 H :    0.140894
  55 H :    0.144781
  56 H :    0.152199
Sum of atomic charges:    0.0000000

LOEWDIN ATOMIC CHARGES
----------------------
   0 C :   -0.381672
   1 C :    0.136544
   2 O :   -0.206266
   3 C :   -0.025021
   4 C :    0.055608
   5 N :   -0.271431
   6 C :   -0.147438
   7 C :   -0.035750
   8 C :   -0.123012
   9 C :   -0.160874
  10 C :    0.089867
  11 O :   -0.159650
  12 C :    0.358639
  13 F :   -0.105684
  14 F :   -0.106357
  15 F :   -0.088888
  16 C :   -0.133184
  17 C :   -0.097626
  18 S :    1.261622
  19 O :   -0.569936
  20 O :   -0.576780
  21 C :   -0.175318
  22 C :   -0.108296
  23 C :   -0.099074
  24 C :   -0.038161
  25 C :    0.180346
  26 O :   -0.259959
  27 O :   -0.334566
  28 C :   -0.084964
  29 C :   -0.096848
  30 N :   -0.137009
  31 C :   -0.051866
  32 C :   -0.028596
  33 C :   -0.110838
  34 C :   -0.122500
  35 C :   -0.112493
  36 C :   -0.119174
  37 C :    0.004049
  38 H :    0.135817
  39 H :    0.145224
  40 H :    0.173895
  41 H :    0.140137
  42 H :    0.135391
  43 H :    0.136077
  44 H :    0.138951
  45 H :    0.144728
  46 H :    0.143870
  47 H :    0.159898
  48 H :    0.155330
  49 H :    0.350217
  50 H :    0.161051
  51 H :    0.160981
  52 H :    0.139697
  53 H :    0.138646
  54 H :    0.137911
  55 H :    0.140130
  56 H :    0.144604

  Mayer bond orders larger than 0.100000
B(  0-C ,  1-C ) :   0.9736 B(  0-C , 38-H ) :   0.9357 B(  0-C , 39-H ) :   0.9248
B(  0-C , 40-H ) :   0.9156 B(  1-C ,  2-O ) :   1.9035 B(  1-C ,  3-C ) :   0.9084
B(  3-C ,  4-C ) :   1.4269 B(  3-C , 37-C ) :   1.2673 B(  4-C ,  5-N ) :   0.9116
B(  4-C , 30-N ) :   1.2798 B(  5-N ,  6-C ) :   0.9174 B(  5-N , 18-S ) :   0.8109
B(  6-C ,  7-C ) :   0.9571 B(  6-C , 41-H ) :   0.9215 B(  6-C , 42-H ) :   0.9181
B(  7-C ,  8-C ) :   1.4381 B(  7-C , 17-C ) :   1.4307 B(  8-C ,  9-C ) :   1.4286
B(  8-C , 43-H ) :   0.9195 B(  9-C , 10-C ) :   1.3965 B(  9-C , 44-H ) :   0.9107
B( 10-C , 11-O ) :   0.8200 B( 10-C , 16-C ) :   1.4155 B( 11-O , 12-C ) :   0.9957
B( 12-C , 13-F ) :   0.9683 B( 12-C , 14-F ) :   0.9663 B( 12-C , 15-F ) :   1.0064
B( 16-C , 17-C ) :   1.4435 B( 16-C , 45-H ) :   0.9186 B( 17-C , 46-H ) :   0.9170
B( 18-S , 19-O ) :   1.6414 B( 18-S , 20-O ) :   1.6032 B( 18-S , 21-C ) :   0.8079
B( 21-C , 22-C ) :   1.3976 B( 21-C , 29-C ) :   1.3790 B( 22-C , 23-C ) :   1.4100
B( 22-C , 47-H ) :   0.9088 B( 23-C , 24-C ) :   1.3885 B( 23-C , 48-H ) :   0.9145
B( 24-C , 25-C ) :   1.0078 B( 24-C , 28-C ) :   1.3966 B( 25-C , 26-O ) :   1.8627
B( 25-C , 27-O ) :   1.0254 B( 27-O , 49-H ) :   0.7415 B( 28-C , 29-C ) :   1.4311
B( 28-C , 50-H ) :   0.9093 B( 29-C , 51-H ) :   0.9094 B( 30-N , 31-C ) :   1.4825
B( 31-C , 32-C ) :   1.2448 B( 31-C , 52-H ) :   0.9250 B( 32-C , 33-C ) :   1.2825
B( 32-C , 37-C ) :   1.2867 B( 33-C , 34-C ) :   1.5138 B( 33-C , 36-C ) :   0.1044
B( 33-C , 53-H ) :   0.9227 B( 34-C , 35-C ) :   1.3506 B( 34-C , 54-H ) :   0.9284
B( 35-C , 36-C ) :   1.5124 B( 35-C , 55-H ) :   0.9275 B( 36-C , 37-C ) :   1.2928
B( 36-C , 56-H ) :   0.9122

FINAL SINGLE POINT ENERGY     -2259.580734488523

DIPOLE MOMENT
-------------

Method             : SCF
Type of density    : Electron Density
Multiplicity       :   1
Irrep              :   0
Energy             : -2259.5807344885229213 Eh
Relativity type    :
Basis              : AO
                                X                 Y                 Z
Electronic contribution:     31.683830519      -7.013537260       3.659820021
Nuclear contribution   :    -32.177196793       6.999374737      -5.170176791
                        -----------------------------------------
Total Dipole Moment    :     -0.493366274      -0.014162524      -1.510356770
                        -----------------------------------------
Magnitude (a.u.)       :      1.588958284
Magnitude (Debye)      :      4.038810989

Rotational constants in cm-1:             0.004186             0.001748             0.001428
Rotational constants in MHz :           125.488168            52.391833            42.813883

                             ****ORCA TERMINATED NORMALLY****
TOTAL RUN TIME: 0 days 0 hours 8 minutes 17 seconds 17 msec
