                         Program Version 6.0.0  -   RELEASE  -
|  1> ! B3LYP 6-31G* SP
|  2>
|  3> * xyz 0 1
|  4> N -2.5734 6.0448 -4.3416
|  5> C -2.5356 5.1776 -3.5762
|  6> C -2.4886 4.0988 -2.6243
|  7> C -2.1975 2.7977 -3.0513
|  8> C -2.1511 1.7489 -2.1272
|  9> C -2.3962 1.9951 -0.7618
| 10> O -2.3583 0.9799 0.2049
| 11> C -2.0513 -0.3863 -0.0704
| 12> C -2.0618 -1.2096 1.2392
| 13> O -3.3167 -1.0055 1.8483
| 14> C -0.9262 -0.7339 2.2006
| 15> C 0.3731 -1.5455 2.0511
| 16> N 0.5152 -2.0191 0.6667
| 17> S 2.1290 -2.6302 0.3961
| 18> O 2.1614 -3.4348 -0.8738
| 19> O 2.5285 -3.5060 1.5521
| 20> C 3.2664 -1.2846 0.2349
| 21> C 2.7717 0.0131 0.0229
| 22> C 3.6472 1.0929 -0.1121
| 23> C 5.0270 0.8880 -0.0483
| 24> Cl 6.1248 2.2454 -0.2201
| 25> C 5.5323 -0.4009 0.1428
| 26> C 4.6626 -1.4902 0.2793
| 27> Cl 5.3657 -3.0918 0.4773
| 28> C -0.4853 -3.0598 0.3568
| 29> C -1.8882 -2.7174 0.9123
| 30> C -2.6878 3.2995 -0.3444
| 31> C -2.7341 4.3476 -1.2687
| 32> H -2.0065 2.5938 -4.0982
| 33> H -1.9254 0.7536 -2.4844
| 34> H -2.8161 -0.7924 -0.7686
| 35> H -1.0589 -0.4433 -0.5650
| 36> H -3.3604 -1.5636 2.6687
| 37> H -0.7026 0.3428 2.0356
| 38> H -1.2561 -0.8195 3.2590
| 39> H 0.3604 -2.4081 2.7564
| 40> H 1.2296 -0.8947 2.3329
| 41> H 1.7072 0.1957 -0.0420
| 42> H 3.2512 2.0881 -0.2696
| 43> H 6.6032 -0.5573 0.1794
| 44> H -0.1704 -4.0476 0.7637
| 45> H -0.5585 -3.1575 -0.7480
| 46> H -2.0416 -3.3048 1.8449
| 47> H -2.6696 -3.0507 0.1943
| 48> H -2.8780 3.5014 0.7022
| 49> H -2.9606 5.3503 -0.9264
| 50> *
| 51>
| 52>                          ****END OF INPUT****

CARTESIAN COORDINATES (ANGSTROEM)
---------------------------------
  N     -2.573400    6.044800   -4.341600
  C     -2.535600    5.177600   -3.576200
  C     -2.488600    4.098800   -2.624300
  C     -2.197500    2.797700   -3.051300
  C     -2.151100    1.748900   -2.127200
  C     -2.396200    1.995100   -0.761800
  O     -2.358300    0.979900    0.204900
  C     -2.051300   -0.386300   -0.070400
  C     -2.061800   -1.209600    1.239200
  O     -3.316700   -1.005500    1.848300
  C     -0.926200   -0.733900    2.200600
  C      0.373100   -1.545500    2.051100
  N      0.515200   -2.019100    0.666700
  S      2.129000   -2.630200    0.396100
  O      2.161400   -3.434800   -0.873800
  O      2.528500   -3.506000    1.552100
  C      3.266400   -1.284600    0.234900
  C      2.771700    0.013100    0.022900
  C      3.647200    1.092900   -0.112100
  C      5.027000    0.888000   -0.048300
  Cl     6.124800    2.245400   -0.220100
  C      5.532300   -0.400900    0.142800
  C      4.662600   -1.490200    0.279300
  Cl     5.365700   -3.091800    0.477300
  C     -0.485300   -3.059800    0.356800
  C     -1.888200   -2.717400    0.912300
  C     -2.687800    3.299500   -0.344400
  C     -2.734100    4.347600   -1.268700
  H     -2.006500    2.593800   -4.098200
  H     -1.925400    0.753600   -2.484400
  H     -2.816100   -0.792400   -0.768600
  H     -1.058900   -0.443300   -0.565000
  H     -3.360400   -1.563600    2.668700
  H     -0.702600    0.342800    2.035600
  H     -1.256100   -0.819500    3.259000
  H      0.360400   -2.408100    2.756400
  H      1.229600   -0.894700    2.332900
  H      1.707200    0.195700   -0.042000
  H      3.251200    2.088100   -0.269600
  H      6.603200   -0.557300    0.179400
  H     -0.170400   -4.047600    0.763700
  H     -0.558500   -3.157500   -0.748000
  H     -2.041600   -3.304800    1.844900
  H     -2.669600   -3.050700    0.194300
  H     -2.878000    3.501400    0.702200
  H     -2.960600    5.350300   -0.926400

 Total Charge           Charge          ....    0
 Multiplicity           Mult            ....    1
 Number of Electrons    NEL             ....  228
 Basis Dimension        Dim             ....  440

ORBITAL ENERGIES
----------------

  NO   OCC          E(Eh)            E(eV)
   0   2.0000    -101.555749     -2763.4724
   1   2.0000    -101.545394     -2763.1906
   2   2.0000     -89.104415     -2424.6544
   3   2.0000     -19.186806      -522.0995
   4   2.0000     -19.156917      -521.2862
   5   2.0000     -19.134481      -520.6757
   6   2.0000     -19.132547      -520.6231
   7   2.0000     -14.388014      -391.5178
   8   2.0000     -14.327011      -389.8578
   9   2.0000     -10.293629      -280.1039
  10   2.0000     -10.285467      -279.8818
  11   2.0000     -10.274275      -279.5772
  12   2.0000     -10.269668      -279.4519
  13   2.0000     -10.261388      -279.2266
  14   2.0000     -10.256648      -279.0976
  15   2.0000     -10.240824      -278.6670
  16   2.0000     -10.238822      -278.6125
  17   2.0000     -10.238714      -278.6096
  18   2.0000     -10.235608      -278.5251
  19   2.0000     -10.230793      -278.3940
  20   2.0000     -10.229064      -278.3470
  21   2.0000     -10.217612      -278.0354
  22   2.0000     -10.215178      -277.9691
  23   2.0000     -10.214592      -277.9532
  24   2.0000     -10.212705      -277.9018
  25   2.0000     -10.207068      -277.7485
  26   2.0000     -10.204936      -277.6904
  27   2.0000     -10.203293      -277.6457
  28   2.0000      -9.487484      -258.1676
  29   2.0000      -9.476833      -257.8777
  30   2.0000      -8.141876      -221.5517
  31   2.0000      -7.250699      -197.3016
  32   2.0000      -7.241058      -197.0392
  33   2.0000      -7.240609      -197.0270
  34   2.0000      -7.240484      -197.0236
  35   2.0000      -7.230323      -196.7471
  36   2.0000      -7.229584      -196.7270
  37   2.0000      -6.106570      -166.1682
  38   2.0000      -6.104872      -166.1220
  39   2.0000      -6.104418      -166.1097
  40   2.0000      -1.094088       -29.7716
  41   2.0000      -1.068028       -29.0625
  42   2.0000      -1.037751       -28.2386
  43   2.0000      -0.971586       -26.4382
  44   2.0000      -0.956788       -26.0355
  45   2.0000      -0.931901       -25.3583
  46   2.0000      -0.902465       -24.5573
  47   2.0000      -0.893905       -24.3244
  48   2.0000      -0.874629       -23.7999
  49   2.0000      -0.854982       -23.2652
  50   2.0000      -0.818505       -22.2726
  51   2.0000      -0.794546       -21.6207
  52   2.0000      -0.782708       -21.2986
  53   2.0000      -0.781543       -21.2669
  54   2.0000      -0.773003       -21.0345
  55   2.0000      -0.771491       -20.9933
  56   2.0000      -0.730702       -19.8834
  57   2.0000      -0.692344       -18.8396
  58   2.0000      -0.661200       -17.9922
  59   2.0000      -0.658984       -17.9319
  60   2.0000      -0.647691       -17.6246
  61   2.0000      -0.638011       -17.3612
  62   2.0000      -0.625332       -17.0161
  63   2.0000      -0.607396       -16.5281
  64   2.0000      -0.573641       -15.6096
  65   2.0000      -0.568508       -15.4699
  66   2.0000      -0.565386       -15.3849
  67   2.0000      -0.542741       -14.7687
  68   2.0000      -0.526570       -14.3287
  69   2.0000      -0.519132       -14.1263
  70   2.0000      -0.515379       -14.0242
  71   2.0000      -0.502650       -13.6778
  72   2.0000      -0.493111       -13.4182
  73   2.0000      -0.490052       -13.3350
  74   2.0000      -0.485919       -13.2225
  75   2.0000      -0.474612       -12.9148
  76   2.0000      -0.468316       -12.7435
  77   2.0000      -0.463929       -12.6241
  78   2.0000      -0.462817       -12.5939
  79   2.0000      -0.450252       -12.2520
  80   2.0000      -0.447671       -12.1818
  81   2.0000      -0.443103       -12.0574
  82   2.0000      -0.440414       -11.9843
  83   2.0000      -0.431292       -11.7361
  84   2.0000      -0.422965       -11.5095
  85   2.0000      -0.417936       -11.3726
  86   2.0000      -0.415673       -11.3110
  87   2.0000      -0.412414       -11.2224
  88   2.0000      -0.406147       -11.0518
  89   2.0000      -0.404666       -11.0115
  90   2.0000      -0.394776       -10.7424
  91   2.0000      -0.389310       -10.5937
  92   2.0000      -0.382953       -10.4207
  93   2.0000      -0.375057       -10.2058
  94   2.0000      -0.362540        -9.8652
  95   2.0000      -0.360319        -9.8048
  96   2.0000      -0.351431        -9.5629
  97   2.0000      -0.346896        -9.4395
  98   2.0000      -0.345215        -9.3938
  99   2.0000      -0.341219        -9.2850
 100   2.0000      -0.337000        -9.1702
 101   2.0000      -0.331197        -9.0123
 102   2.0000      -0.325948        -8.8695
 103   2.0000      -0.323165        -8.7938
 104   2.0000      -0.315898        -8.5960
 105   2.0000      -0.310182        -8.4405
 106   2.0000      -0.303821        -8.2674
 107   2.0000      -0.290099        -7.8940
 108   2.0000      -0.280805        -7.6411
 109   2.0000      -0.280161        -7.6236
 110   2.0000      -0.275054        -7.4846
 111   2.0000      -0.270184        -7.3521
 112   2.0000      -0.263781        -7.1779
 113   2.0000      -0.240307        -6.5391
 114   0.0000      -0.067215        -1.8290
 115   0.0000      -0.049847        -1.3564
 116   0.0000      -0.039230        -1.0675
 117   0.0000      -0.025984        -0.7071
 118   0.0000      -0.018928        -0.5151

MULLIKEN ATOMIC CHARGES
-----------------------
   0 N :   -0.309137
   1 C :    0.076158
   2 C :    0.108275
   3 C :   -0.134011
   4 C :   -0.210649
   5 C :    0.383407
   6 O :   -0.517179
   7 C :   -0.037896
   8 C :    0.343157
   9 O :   -0.640944
  10 C :   -0.312973
  11 C :   -0.166980
  12 N :   -0.549551
  13 S :    1.217948
  14 O :   -0.533230
  15 O :   -0.545420
  16 C :   -0.132780
  17 C :   -0.150612
  18 C :   -0.120843
  19 C :   -0.053234
  20 Cl:    0.022109
  21 C :   -0.123165
  22 C :   -0.076310
  23 Cl:    0.071353
  24 C :   -0.144926
  25 C :   -0.339018
  26 C :   -0.180093
  27 C :   -0.132260
  28 H :    0.161193
  29 H :    0.148794
  30 H :    0.144489
  31 H :    0.160597
  32 H :    0.393777
  33 H :    0.166275
  34 H :    0.140431
  35 H :    0.166607
  36 H :    0.165529
  37 H :    0.186561
  38 H :    0.172833
  39 H :    0.189945
  40 H :    0.181589
  41 H :    0.182516
  42 H :    0.143254
  43 H :    0.168377
  44 H :    0.154626
  45 H :    0.161413
Sum of atomic charges:    0.0000000

LOEWDIN ATOMIC CHARGES
----------------------
   0 N :   -0.103311
   1 C :   -0.010702
   2 C :   -0.072031
   3 C :   -0.092052
   4 C :   -0.170757
   5 C :    0.104074
   6 O :   -0.174033
   7 C :   -0.088294
   8 C :    0.055326
   9 O :   -0.373062
  10 C :   -0.240785
  11 C :   -0.172721
  12 N :   -0.318469
  13 S :    1.249742
  14 O :   -0.566665
  15 O :   -0.573951
  16 C :   -0.187427
  17 C :   -0.108905
  18 C :   -0.130306
  19 C :   -0.067775
  20 Cl:    0.067033
  21 C :   -0.129628
  22 C :   -0.052119
  23 Cl:    0.097704
  24 C :   -0.165192
  25 C :   -0.239517
  26 C :   -0.143361
  27 C :   -0.092520
  28 H :    0.149164
  29 H :    0.142342
  30 H :    0.120949
  31 H :    0.124944
  32 H :    0.312671
  33 H :    0.135659
  34 H :    0.129055
  35 H :    0.124225
  36 H :    0.136324
  37 H :    0.158477
  38 H :    0.155109
  39 H :    0.165523
  40 H :    0.137133
  41 H :    0.141713
  42 H :    0.126343
  43 H :    0.140980
  44 H :    0.149016
  45 H :    0.150077

  Mayer bond orders larger than 0.100000
B(  0-N ,  1-C ) :   3.0238 B(  1-C ,  2-C ) :   0.9867 B(  2-C ,  3-C ) :   1.4059
B(  2-C , 27-C ) :   1.3914 B(  3-C ,  4-C ) :   1.4357 B(  3-C , 28-H ) :   0.9218
B(  4-C ,  5-C ) :   1.3519 B(  4-C , 29-H ) :   0.9156 B(  5-C ,  6-O ) :   0.9390
B(  5-C , 26-C ) :   1.3849 B(  6-O ,  7-C ) :   0.8841 B(  7-C ,  8-C ) :   0.9713
B(  7-C , 30-H ) :   0.9104 B(  7-C , 31-H ) :   0.9037 B(  8-C ,  9-O ) :   0.9084
B(  8-C , 10-C ) :   0.9604 B(  8-C , 25-C ) :   0.9805 B(  9-O , 32-H ) :   0.7793
B( 10-C , 11-C ) :   0.9610 B( 10-C , 33-H ) :   0.9305 B( 10-C , 34-H ) :   0.9347
B( 11-C , 12-N ) :   0.9211 B( 11-C , 35-H ) :   0.9229 B( 11-C , 36-H ) :   0.9291
B( 12-N , 13-S ) :   0.7930 B( 12-N , 24-C ) :   0.9198 B( 13-S , 14-O ) :   1.6587
B( 13-S , 15-O ) :   1.6227 B( 13-S , 16-C ) :   0.8148 B( 16-C , 17-C ) :   1.3868
B( 16-C , 22-C ) :   1.3659 B( 17-C , 18-C ) :   1.4450 B( 17-C , 37-H ) :   0.9047
B( 18-C , 19-C ) :   1.4083 B( 18-C , 38-H ) :   0.9191 B( 19-C , 20-Cl) :   1.0435
B( 19-C , 21-C ) :   1.4027 B( 21-C , 22-C ) :   1.4141 B( 21-C , 39-H ) :   0.9116
B( 22-C , 23-Cl) :   1.0910 B( 24-C , 25-C ) :   0.9569 B( 24-C , 40-H ) :   0.9133
B( 24-C , 41-H ) :   0.9329 B( 25-C , 42-H ) :   0.9351 B( 25-C , 43-H ) :   0.9294
B( 26-C , 27-C ) :   1.4541 B( 26-C , 44-H ) :   0.9168 B( 27-C , 45-H ) :   0.9221

FINAL SINGLE POINT ENERGY     -2462.812712276259

DIPOLE MOMENT
-------------

Method             : SCF
Type of density    : Electron Density
Multiplicity       :   1
Irrep              :   0
Energy             : -2462.8127122762593899 Eh
Relativity type    :
Basis              : AO
                                X                 Y                 Z
Electronic contribution:     39.545020481       3.428688247      -6.160092959
Nuclear contribution   :    -39.875608382      -3.925269470       7.937311268
                        -----------------------------------------
Total Dipole Moment    :     -0.330587902      -0.496581223       1.777218309
                        -----------------------------------------
Magnitude (a.u.)       :      1.874669622
Magnitude (Debye)      :      4.765031496

Rotational constants in cm-1:             0.005398             0.002701             0.001968
Rotational constants in MHz :           161.841759            80.984729            59.010708

                             ****ORCA TERMINATED NORMALLY****
TOTAL RUN TIME: 0 days 0 hours 5 minutes 1 seconds 668 msec
