                         Program Version 6.0.0  -   RELEASE  -
|  1> ! B3LYP 6-31G* SP
|  2>
|  3> * xyz 0 1
|  4> O 2.3308 -1.7208 -1.2401
|  5> C 1.6842 -0.7090 -0.8513
|  6> N 2.3910 0.4960 -0.5012
|  7> C 3.8153 0.5574 -0.3156
|  8> C 4.5090 1.7152 -0.6929
|  9> C 5.8887 1.8103 -0.4967
| 10> C 6.5977 0.7589 0.0949
| 11> O 7.9838 0.9072 0.2648
| 12> C 8.8494 -0.0589 0.8576
| 13> F 10.1407 0.4326 0.8501
| 14> F 8.8165 -1.2381 0.1342
| 15> F 8.4707 -0.2984 2.1670
| 16> C 5.9003 -0.3969 0.4963
| 17> C 4.5201 -0.4928 0.2976
| 18> N 0.2435 -0.7703 -0.7876
| 19> C -0.5609 0.4613 -0.7878
| 20> C -2.0241 0.1721 -1.1431
| 21> C -2.6637 -0.9026 -0.2153
| 22> C -3.8960 -1.5411 -0.9096
| 23> C -5.0165 -0.5151 -1.1358
| 24> C -5.2995 0.2837 0.1102
| 25> C -6.5170 0.9674 0.2442
| 26> C -6.7711 1.7333 1.3854
| 27> C -5.8108 1.8264 2.3959
| 28> C -4.5879 1.1597 2.2670
| 29> Cl -3.3884 1.2957 3.5430
| 30> C -4.3231 0.3967 1.1206
| 31> O -3.0933 -0.2636 0.9939
| 32> C -1.6415 -2.0155 0.1686
| 33> C -0.4351 -2.0741 -0.7724
| 34> H 1.8643 1.3944 -0.4273
| 35> H 3.9800 2.5401 -1.1526
| 36> H 6.4109 2.7069 -0.8064
| 37> H 6.4109 -1.2248 0.9680
| 38> H 4.0020 -1.3765 0.6468
| 39> H -0.5049 0.9412 0.2135
| 40> H -0.1643 1.1686 -1.5482
| 41> H -2.0557 -0.1679 -2.2021
| 42> H -2.5994 1.1221 -1.0882
| 43> H -3.6041 -1.9948 -1.8822
| 44> H -4.3040 -2.3546 -0.2695
| 45> H -5.9343 -1.0554 -1.4549
| 46> H -4.7326 0.1804 -1.9549
| 47> H -7.2678 0.9071 -0.5341
| 48> H -7.7133 2.2568 1.4863
| 49> H -6.0149 2.4229 3.2756
| 50> H -1.2529 -1.8218 1.1932
| 51> H -2.1194 -3.0185 0.2053
| 52> H -0.7631 -2.3381 -1.8010
| 53> H 0.2497 -2.8716 -0.4094
| 54> *
| 55>
| 56>                          ****END OF INPUT****

CARTESIAN COORDINATES (ANGSTROEM)
---------------------------------
  O      2.330800   -1.720800   -1.240100
  C      1.684200   -0.709000   -0.851300
  N      2.391000    0.496000   -0.501200
  C      3.815300    0.557400   -0.315600
  C      4.509000    1.715200   -0.692900
  C      5.888700    1.810300   -0.496700
  C      6.597700    0.758900    0.094900
  O      7.983800    0.907200    0.264800
  C      8.849400   -0.058900    0.857600
  F     10.140700    0.432600    0.850100
  F      8.816500   -1.238100    0.134200
  F      8.470700   -0.298400    2.167000
  C      5.900300   -0.396900    0.496300
  C      4.520100   -0.492800    0.297600
  N      0.243500   -0.770300   -0.787600
  C     -0.560900    0.461300   -0.787800
  C     -2.024100    0.172100   -1.143100
  C     -2.663700   -0.902600   -0.215300
  C     -3.896000   -1.541100   -0.909600
  C     -5.016500   -0.515100   -1.135800
  C     -5.299500    0.283700    0.110200
  C     -6.517000    0.967400    0.244200
  C     -6.771100    1.733300    1.385400
  C     -5.810800    1.826400    2.395900
  C     -4.587900    1.159700    2.267000
  Cl    -3.388400    1.295700    3.543000
  C     -4.323100    0.396700    1.120600
  O     -3.093300   -0.263600    0.993900
  C     -1.641500   -2.015500    0.168600
  C     -0.435100   -2.074100   -0.772400
  H      1.864300    1.394400   -0.427300
  H      3.980000    2.540100   -1.152600
  H      6.410900    2.706900   -0.806400
  H      6.410900   -1.224800    0.968000
  H      4.002000   -1.376500    0.646800
  H     -0.504900    0.941200    0.213500
  H     -0.164300    1.168600   -1.548200
  H     -2.055700   -0.167900   -2.202100
  H     -2.599400    1.122100   -1.088200
  H     -3.604100   -1.994800   -1.882200
  H     -4.304000   -2.354600   -0.269500
  H     -5.934300   -1.055400   -1.454900
  H     -4.732600    0.180400   -1.954900
  H     -7.267800    0.907100   -0.534100
  H     -7.713300    2.256800    1.486300
  H     -6.014900    2.422900    3.275600
  H     -1.252900   -1.821800    1.193200
  H     -2.119400   -3.018500    0.205300
  H     -0.763100   -2.338100   -1.801000
  H      0.249700   -2.871600   -0.409400

 Total Charge           Charge          ....    0
 Multiplicity           Mult            ....    1
 Number of Electrons    NEL             ....  228
 Basis Dimension        Dim             ....  464

ORBITAL ENERGIES
----------------

  NO   OCC          E(Eh)            E(eV)
   0   2.0000    -101.525059     -2762.6373
   1   2.0000     -24.734431      -673.0581
   2   2.0000     -24.731673      -672.9830
   3   2.0000     -24.731268      -672.9720
   4   2.0000     -19.203718      -522.5597
   5   2.0000     -19.174370      -521.7611
   6   2.0000     -19.098192      -519.6882
   7   2.0000     -14.366720      -390.9383
   8   2.0000     -14.353769      -390.5859
   9   2.0000     -10.496349      -285.6202
  10   2.0000     -10.314570      -280.6737
  11   2.0000     -10.262882      -279.2672
  12   2.0000     -10.260113      -279.1919
  13   2.0000     -10.257320      -279.1159
  14   2.0000     -10.246086      -278.8102
  15   2.0000     -10.230825      -278.3949
  16   2.0000     -10.230368      -278.3825
  17   2.0000     -10.221049      -278.1289
  18   2.0000     -10.201670      -277.6016
  19   2.0000     -10.201432      -277.5951
  20   2.0000     -10.199088      -277.5313
  21   2.0000     -10.196567      -277.4627
  22   2.0000     -10.195607      -277.4366
  23   2.0000     -10.191879      -277.3351
  24   2.0000     -10.191684      -277.3298
  25   2.0000     -10.191668      -277.3294
  26   2.0000     -10.191132      -277.3148
  27   2.0000     -10.189274      -277.2642
  28   2.0000     -10.188060      -277.2312
  29   2.0000     -10.184750      -277.1411
  30   2.0000      -9.456488      -257.3241
  31   2.0000      -7.219685      -196.4576
  32   2.0000      -7.210130      -196.1976
  33   2.0000      -7.209677      -196.1853
  34   2.0000      -1.296627       -35.2830
  35   2.0000      -1.217451       -33.1285
  36   2.0000      -1.217142       -33.1201
  37   2.0000      -1.073661       -29.2158
  38   2.0000      -1.060268       -28.8514
  39   2.0000      -1.015365       -27.6295
  40   2.0000      -0.923785       -25.1375
  41   2.0000      -0.914033       -24.8721
  42   2.0000      -0.885131       -24.0856
  43   2.0000      -0.846499       -23.0344
  44   2.0000      -0.841423       -22.8963
  45   2.0000      -0.819976       -22.3127
  46   2.0000      -0.787265       -21.4226
  47   2.0000      -0.772550       -21.0222
  48   2.0000      -0.757171       -20.6037
  49   2.0000      -0.751546       -20.4506
  50   2.0000      -0.735906       -20.0250
  51   2.0000      -0.730405       -19.8753
  52   2.0000      -0.695338       -18.9211
  53   2.0000      -0.667265       -18.1572
  54   2.0000      -0.653298       -17.7771
  55   2.0000      -0.646952       -17.6045
  56   2.0000      -0.631161       -17.1748
  57   2.0000      -0.626670       -17.0526
  58   2.0000      -0.602287       -16.3891
  59   2.0000      -0.599319       -16.3083
  60   2.0000      -0.588668       -16.0185
  61   2.0000      -0.585256       -15.9256
  62   2.0000      -0.571584       -15.5536
  63   2.0000      -0.565756       -15.3950
  64   2.0000      -0.546736       -14.8775
  65   2.0000      -0.543505       -14.7895
  66   2.0000      -0.524727       -14.2785
  67   2.0000      -0.510864       -13.9013
  68   2.0000      -0.498721       -13.5709
  69   2.0000      -0.491838       -13.3836
  70   2.0000      -0.488559       -13.2944
  71   2.0000      -0.475561       -12.9407
  72   2.0000      -0.462596       -12.5879
  73   2.0000      -0.461097       -12.5471
  74   2.0000      -0.457946       -12.4613
  75   2.0000      -0.456484       -12.4216
  76   2.0000      -0.452188       -12.3047
  77   2.0000      -0.450184       -12.2501
  78   2.0000      -0.445838       -12.1319
  79   2.0000      -0.444005       -12.0820
  80   2.0000      -0.437875       -11.9152
  81   2.0000      -0.432523       -11.7696
  82   2.0000      -0.429032       -11.6746
  83   2.0000      -0.424015       -11.5380
  84   2.0000      -0.419565       -11.4169
  85   2.0000      -0.413758       -11.2589
  86   2.0000      -0.409345       -11.1388
  87   2.0000      -0.405696       -11.0396
  88   2.0000      -0.403956       -10.9922
  89   2.0000      -0.400959       -10.9106
  90   2.0000      -0.399000       -10.8573
  91   2.0000      -0.395234       -10.7549
  92   2.0000      -0.392029       -10.6677
  93   2.0000      -0.384355       -10.4588
  94   2.0000      -0.378680       -10.3044
  95   2.0000      -0.377918       -10.2837
  96   2.0000      -0.374637       -10.1944
  97   2.0000      -0.364708        -9.9242
  98   2.0000      -0.361568        -9.8388
  99   2.0000      -0.353168        -9.6102
 100   2.0000      -0.345576        -9.4036
 101   2.0000      -0.341976        -9.3056
 102   2.0000      -0.338239        -9.2039
 103   2.0000      -0.323661        -8.8073
 104   2.0000      -0.315762        -8.5923
 105   2.0000      -0.308262        -8.3882
 106   2.0000      -0.300854        -8.1867
 107   2.0000      -0.279563        -7.6073
 108   2.0000      -0.258346        -7.0300
 109   2.0000      -0.247050        -6.7226
 110   2.0000      -0.244064        -6.6413
 111   2.0000      -0.226203        -6.1553
 112   2.0000      -0.225632        -6.1398
 113   2.0000      -0.210176        -5.7192
 114   0.0000      -0.015471        -0.4210
 115   0.0000      -0.005265        -0.1433
 116   0.0000      -0.003261        -0.0887
 117   0.0000      -0.000217        -0.0059
 118   0.0000       0.029895         0.8135

MULLIKEN ATOMIC CHARGES
-----------------------
   0 O :   -0.497237
   1 C :    0.686877
   2 N :   -0.730003
   3 C :    0.341726
   4 C :   -0.177470
   5 C :   -0.175010
   6 C :    0.350483
   7 O :   -0.548556
   8 C :    1.085242
   9 F :   -0.280976
  10 F :   -0.291203
  11 F :   -0.292724
  12 C :   -0.201854
  13 C :   -0.127643
  14 N :   -0.440540
  15 C :   -0.140668
  16 C :   -0.313791
  17 C :    0.364145
  18 C :   -0.310737
  19 C :   -0.350822
  20 C :    0.115897
  21 C :   -0.184200
  22 C :   -0.124210
  23 C :   -0.133302
  24 C :   -0.143077
  25 Cl:   -0.009262
  26 C :    0.325850
  27 O :   -0.542290
  28 C :   -0.326603
  29 C :   -0.124131
  30 H :    0.329891
  31 H :    0.130114
  32 H :    0.146084
  33 H :    0.153947
  34 H :    0.159390
  35 H :    0.158205
  36 H :    0.142571
  37 H :    0.148976
  38 H :    0.161167
  39 H :    0.141498
  40 H :    0.151351
  41 H :    0.155504
  42 H :    0.157500
  43 H :    0.129761
  44 H :    0.133439
  45 H :    0.151848
  46 H :    0.173159
  47 H :    0.149431
  48 H :    0.139790
  49 H :    0.182460
Sum of atomic charges:    0.0000000

LOEWDIN ATOMIC CHARGES
----------------------
   0 O :   -0.313764
   1 C :    0.166240
   2 N :   -0.230783
   3 C :    0.034543
   4 C :   -0.141592
   5 C :   -0.140833
   6 C :    0.076571
   7 O :   -0.162540
   8 C :    0.359319
   9 F :   -0.089254
  10 F :   -0.105007
  11 F :   -0.106400
  12 C :   -0.156011
  13 C :   -0.114146
  14 N :   -0.132271
  15 C :   -0.157700
  16 C :   -0.235755
  17 C :    0.082417
  18 C :   -0.231514
  19 C :   -0.225152
  20 C :   -0.050637
  21 C :   -0.127738
  22 C :   -0.139556
  23 C :   -0.131380
  24 C :   -0.110055
  25 Cl:    0.039334
  26 C :    0.073417
  27 O :   -0.168317
  28 C :   -0.233085
  29 C :   -0.142426
  30 H :    0.254330
  31 H :    0.134323
  32 H :    0.144604
  33 H :    0.143269
  34 H :    0.150929
  35 H :    0.121102
  36 H :    0.120978
  37 H :    0.128832
  38 H :    0.140221
  39 H :    0.127752
  40 H :    0.128363
  41 H :    0.135998
  42 H :    0.131047
  43 H :    0.133337
  44 H :    0.135292
  45 H :    0.145878
  46 H :    0.142449
  47 H :    0.131922
  48 H :    0.113021
  49 H :    0.150430

  Mayer bond orders larger than 0.100000
B(  0-O ,  1-C ) :   1.7815 B(  1-C ,  2-N ) :   1.0014 B(  1-C , 14-N ) :   1.0551
B(  2-N ,  3-C ) :   0.8645 B(  2-N , 30-H ) :   0.8176 B(  3-C ,  4-C ) :   1.4117
B(  3-C , 13-C ) :   1.4209 B(  4-C ,  5-C ) :   1.4409 B(  4-C , 31-H ) :   0.9238
B(  5-C ,  6-C ) :   1.4242 B(  5-C , 32-H ) :   0.9183 B(  6-C ,  7-O ) :   0.8163
B(  6-C , 12-C ) :   1.3826 B(  7-O ,  8-C ) :   0.9954 B(  8-C ,  9-F ) :   1.0058
B(  8-C , 10-F ) :   0.9685 B(  8-C , 11-F ) :   0.9672 B( 12-C , 13-C ) :   1.4390
B( 12-C , 33-H ) :   0.9095 B( 13-C , 34-H ) :   0.9103 B( 14-N , 15-C ) :   0.9421
B( 14-N , 29-C ) :   0.9437 B( 15-C , 16-C ) :   1.0110 B( 15-C , 35-H ) :   0.9157
B( 15-C , 36-H ) :   0.9256 B( 16-C , 17-C ) :   0.9726 B( 16-C , 37-H ) :   0.9242
B( 16-C , 38-H ) :   0.9248 B( 17-C , 18-C ) :   0.9805 B( 17-C , 27-O ) :   0.8316
B( 17-C , 28-C ) :   0.9737 B( 18-C , 19-C ) :   0.9933 B( 18-C , 39-H ) :   0.9288
B( 18-C , 40-H ) :   0.9306 B( 19-C , 20-C ) :   0.9802 B( 19-C , 41-H ) :   0.9326
B( 19-C , 42-H ) :   0.9210 B( 20-C , 21-C ) :   1.4201 B( 20-C , 26-C ) :   1.3621
B( 21-C , 22-C ) :   1.4367 B( 21-C , 43-H ) :   0.9266 B( 22-C , 23-C ) :   1.4449
B( 22-C , 44-H ) :   0.9284 B( 23-C , 24-C ) :   1.4257 B( 23-C , 45-H ) :   0.9230
B( 24-C , 25-Cl) :   1.0259 B( 24-C , 26-C ) :   1.3237 B( 26-C , 27-O ) :   0.9432
B( 28-C , 29-C ) :   0.9842 B( 28-C , 46-H ) :   0.9224 B( 28-C , 47-H ) :   0.9299
B( 29-C , 48-H ) :   0.9285 B( 29-C , 49-H ) :   0.9207

FINAL SINGLE POINT ENERGY     -1906.293038724465

DIPOLE MOMENT
-------------

Method             : SCF
Type of density    : Electron Density
Multiplicity       :   1
Irrep              :   0
Energy             : -1906.2930387244650774 Eh
Relativity type    :
Basis              : AO
                                X                 Y                 Z
Electronic contribution:     57.285893231       5.168144954      20.197933361
Nuclear contribution   :    -59.697037653      -4.456221388     -20.944040554
                        -----------------------------------------
Total Dipole Moment    :     -2.411144421       0.711923566      -0.746107193
                        -----------------------------------------
Magnitude (a.u.)       :      2.622427983
Magnitude (Debye)      :      6.665682203

Rotational constants in cm-1:             0.012225             0.001315             0.001252
Rotational constants in MHz :           366.510157            39.436439            37.524539

                             ****ORCA TERMINATED NORMALLY****
TOTAL RUN TIME: 0 days 0 hours 7 minutes 13 seconds 74 msec
