                         Program Version 6.0.0  -   RELEASE  -
|  1> ! B3LYP 6-31G* SP
|  2>
|  3> * xyz 0 1
|  4> C 2.3487 -3.0477 1.7204
|  5> C 1.6717 -2.3930 0.5206
|  6> N 1.5405 -0.9397 0.7281
|  7> C 0.6458 -0.4582 1.7566
|  8> O 1.0292 0.4424 2.5500
|  9> C -0.7170 -1.0151 1.9147
| 10> C -1.2156 -1.2498 3.2071
| 11> C -2.4968 -1.7729 3.3877
| 12> C -3.2961 -2.0600 2.2821
| 13> C -2.8222 -1.8153 0.9917
| 14> C -1.5345 -1.2776 0.7930
| 15> O -1.0434 -0.9816 -0.4911
| 16> C -1.7734 -1.1064 -1.7117
| 17> C -2.8489 -0.0536 -1.8050
| 18> C -2.5243 1.2951 -1.5782
| 19> C -3.5069 2.2843 -1.6710
| 20> C -4.8192 1.9386 -2.0013
| 21> C -5.1492 0.6033 -2.2467
| 22> C -4.1704 -0.3923 -2.1556
| 23> F -4.5152 -1.6805 -2.4076
| 24> C 2.3563 -0.0072 -0.0816
| 25> C 3.5013 0.6067 0.7429
| 26> C 4.4558 1.4292 -0.1466
| 27> C 3.7653 2.0524 -1.3790
| 28> C 2.2785 2.3704 -1.1254
| 29> N 2.1508 3.3785 -0.0684
| 30> C 1.4860 1.0885 -0.7521
| 31> H 3.3514 -2.5996 1.8840
| 32> H 1.7332 -2.9124 2.6345
| 33> H 2.4689 -4.1355 1.5327
| 34> H 0.6760 -2.8555 0.3632
| 35> H 2.2733 -2.6198 -0.3850
| 36> H -0.6052 -1.0417 4.0774
| 37> H -2.8692 -1.9591 4.3868
| 38> H -4.2880 -2.4693 2.4251
| 39> H -3.4689 -2.0448 0.1580
| 40> H -1.0686 -0.9579 -2.5564
| 41> H -2.1768 -2.1371 -1.8036
| 42> H -1.5110 1.5807 -1.3285
| 43> H -3.2501 3.3198 -1.4891
| 44> H -5.5796 2.7059 -2.0723
| 45> H -6.1658 0.3401 -2.5095
| 46> H 2.8416 -0.5722 -0.9091
| 47> H 4.0753 -0.1984 1.2504
| 48> H 3.0917 1.2748 1.5282
| 49> H 5.2850 0.7770 -0.4977
| 50> H 4.9108 2.2364 0.4682
| 51> H 3.8347 1.3429 -2.2333
| 52> H 4.3068 2.9750 -1.6815
| 53> H 1.8483 2.7869 -2.0652
| 54> H 2.6692 4.2372 -0.3652
| 55> H 1.1460 3.6633 -0.0047
| 56> H 1.0443 0.6576 -1.6774
| 57> H 0.6296 1.3671 -0.1036
| 58> *
| 59>
| 60>                          ****END OF INPUT****

CARTESIAN COORDINATES (ANGSTROEM)
---------------------------------
  C      2.348700   -3.047700    1.720400
  C      1.671700   -2.393000    0.520600
  N      1.540500   -0.939700    0.728100
  C      0.645800   -0.458200    1.756600
  O      1.029200    0.442400    2.550000
  C     -0.717000   -1.015100    1.914700
  C     -1.215600   -1.249800    3.207100
  C     -2.496800   -1.772900    3.387700
  C     -3.296100   -2.060000    2.282100
  C     -2.822200   -1.815300    0.991700
  C     -1.534500   -1.277600    0.793000
  O     -1.043400   -0.981600   -0.491100
  C     -1.773400   -1.106400   -1.711700
  C     -2.848900   -0.053600   -1.805000
  C     -2.524300    1.295100   -1.578200
  C     -3.506900    2.284300   -1.671000
  C     -4.819200    1.938600   -2.001300
  C     -5.149200    0.603300   -2.246700
  C     -4.170400   -0.392300   -2.155600
  F     -4.515200   -1.680500   -2.407600
  C      2.356300   -0.007200   -0.081600
  C      3.501300    0.606700    0.742900
  C      4.455800    1.429200   -0.146600
  C      3.765300    2.052400   -1.379000
  C      2.278500    2.370400   -1.125400
  N      2.150800    3.378500   -0.068400
  C      1.486000    1.088500   -0.752100
  H      3.351400   -2.599600    1.884000
  H      1.733200   -2.912400    2.634500
  H      2.468900   -4.135500    1.532700
  H      0.676000   -2.855500    0.363200
  H      2.273300   -2.619800   -0.385000
  H     -0.605200   -1.041700    4.077400
  H     -2.869200   -1.959100    4.386800
  H     -4.288000   -2.469300    2.425100
  H     -3.468900   -2.044800    0.158000
  H     -1.068600   -0.957900   -2.556400
  H     -2.176800   -2.137100   -1.803600
  H     -1.511000    1.580700   -1.328500
  H     -3.250100    3.319800   -1.489100
  H     -5.579600    2.705900   -2.072300
  H     -6.165800    0.340100   -2.509500
  H      2.841600   -0.572200   -0.909100
  H      4.075300   -0.198400    1.250400
  H      3.091700    1.274800    1.528200
  H      5.285000    0.777000   -0.497700
  H      4.910800    2.236400    0.468200
  H      3.834700    1.342900   -2.233300
  H      4.306800    2.975000   -1.681500
  H      1.848300    2.786900   -2.065200
  H      2.669200    4.237200   -0.365200
  H      1.146000    3.663300   -0.004700
  H      1.044300    0.657600   -1.677400
  H      0.629600    1.367100   -0.103600

 Total Charge           Charge          ....    0
 Multiplicity           Mult            ....    1
 Number of Electrons    NEL             ....  198
 Basis Dimension        Dim             ....  432

ORBITAL ENERGIES
----------------

  NO   OCC          E(Eh)            E(eV)
   0   2.0000     -24.712073      -672.4497
   1   2.0000     -19.170973      -521.6687
   2   2.0000     -19.101301      -519.7728
   3   2.0000     -14.322187      -389.7265
   4   2.0000     -14.296230      -389.0202
   5   2.0000     -10.276798      -279.6459
   6   2.0000     -10.273721      -279.5622
   7   2.0000     -10.255212      -279.0585
   8   2.0000     -10.250747      -278.9370
   9   2.0000     -10.204582      -277.6808
  10   2.0000     -10.204214      -277.6708
  11   2.0000     -10.202918      -277.6355
  12   2.0000     -10.196912      -277.4721
  13   2.0000     -10.196233      -277.4536
  14   2.0000     -10.195378      -277.4303
  15   2.0000     -10.195109      -277.4230
  16   2.0000     -10.192040      -277.3395
  17   2.0000     -10.190249      -277.2908
  18   2.0000     -10.188037      -277.2306
  19   2.0000     -10.186595      -277.1913
  20   2.0000     -10.184043      -277.1219
  21   2.0000     -10.177685      -276.9489
  22   2.0000     -10.165651      -276.6214
  23   2.0000     -10.164201      -276.5820
  24   2.0000     -10.160890      -276.4919
  25   2.0000     -10.155967      -276.3579
  26   2.0000     -10.142728      -275.9976
  27   2.0000      -1.224304       -33.3150
  28   2.0000      -1.050880       -28.5959
  29   2.0000      -0.997692       -27.1486
  30   2.0000      -0.895837       -24.3770
  31   2.0000      -0.870738       -23.6940
  32   2.0000      -0.865421       -23.5493
  33   2.0000      -0.851262       -23.1640
  34   2.0000      -0.787924       -21.4405
  35   2.0000      -0.784328       -21.3427
  36   2.0000      -0.756655       -20.5896
  37   2.0000      -0.751984       -20.4625
  38   2.0000      -0.742894       -20.2152
  39   2.0000      -0.739667       -20.1274
  40   2.0000      -0.709359       -19.3026
  41   2.0000      -0.698172       -18.9982
  42   2.0000      -0.690136       -18.7796
  43   2.0000      -0.638677       -17.3793
  44   2.0000      -0.624857       -17.0032
  45   2.0000      -0.613485       -16.6938
  46   2.0000      -0.606795       -16.5117
  47   2.0000      -0.599014       -16.3000
  48   2.0000      -0.587292       -15.9810
  49   2.0000      -0.584638       -15.9088
  50   2.0000      -0.545963       -14.8564
  51   2.0000      -0.543617       -14.7926
  52   2.0000      -0.522952       -14.2302
  53   2.0000      -0.508222       -13.8294
  54   2.0000      -0.499086       -13.5808
  55   2.0000      -0.491751       -13.3812
  56   2.0000      -0.485668       -13.2157
  57   2.0000      -0.480006       -13.0616
  58   2.0000      -0.476407       -12.9637
  59   2.0000      -0.467371       -12.7178
  60   2.0000      -0.465929       -12.6786
  61   2.0000      -0.463318       -12.6075
  62   2.0000      -0.454164       -12.3584
  63   2.0000      -0.451517       -12.2864
  64   2.0000      -0.441082       -12.0024
  65   2.0000      -0.437789       -11.9128
  66   2.0000      -0.433807       -11.8045
  67   2.0000      -0.424559       -11.5528
  68   2.0000      -0.416648       -11.3376
  69   2.0000      -0.408795       -11.1239
  70   2.0000      -0.403914       -10.9910
  71   2.0000      -0.400033       -10.8854
  72   2.0000      -0.394481       -10.7344
  73   2.0000      -0.389026       -10.5859
  74   2.0000      -0.379083       -10.3154
  75   2.0000      -0.371381       -10.1058
  76   2.0000      -0.368941       -10.0394
  77   2.0000      -0.365268        -9.9395
  78   2.0000      -0.361484        -9.8365
  79   2.0000      -0.360063        -9.7978
  80   2.0000      -0.355308        -9.6684
  81   2.0000      -0.352444        -9.5905
  82   2.0000      -0.349810        -9.5188
  83   2.0000      -0.348894        -9.4939
  84   2.0000      -0.342901        -9.3308
  85   2.0000      -0.333642        -9.0789
  86   2.0000      -0.326670        -8.8892
  87   2.0000      -0.316945        -8.6245
  88   2.0000      -0.315423        -8.5831
  89   2.0000      -0.300533        -8.1779
  90   2.0000      -0.294652        -8.0179
  91   2.0000      -0.286639        -7.7998
  92   2.0000      -0.258030        -7.0213
  93   2.0000      -0.253445        -6.8966
  94   2.0000      -0.247863        -6.7447
  95   2.0000      -0.229490        -6.2447
  96   2.0000      -0.222244        -6.0476
  97   2.0000      -0.218673        -5.9504
  98   2.0000      -0.197175        -5.3654
  99   0.0000      -0.033326        -0.9068
 100   0.0000      -0.019200        -0.5225
 101   0.0000      -0.004145        -0.1128
 102   0.0000       0.006230         0.1695
 103   0.0000       0.042863         1.1663

MULLIKEN ATOMIC CHARGES
-----------------------
   0 C :   -0.427296
   1 C :   -0.138895
   2 N :   -0.405260
   3 C :    0.436014
   4 O :   -0.452729
   5 C :    0.035268
   6 C :   -0.149701
   7 C :   -0.137138
   8 C :   -0.116617
   9 C :   -0.204590
  10 C :    0.337191
  11 O :   -0.517346
  12 C :   -0.107852
  13 C :    0.029230
  14 C :   -0.149923
  15 C :   -0.131823
  16 C :   -0.112244
  17 C :   -0.204063
  18 C :    0.363184
  19 F :   -0.320510
  20 C :    0.040581
  21 C :   -0.252981
  22 C :   -0.255093
  23 C :   -0.270296
  24 C :    0.031505
  25 N :   -0.697515
  26 C :   -0.268304
  27 H :    0.153129
  28 H :    0.149508
  29 H :    0.130044
  30 H :    0.143785
  31 H :    0.138291
  32 H :    0.156939
  33 H :    0.129520
  34 H :    0.135156
  35 H :    0.144584
  36 H :    0.171319
  37 H :    0.156865
  38 H :    0.155688
  39 H :    0.134337
  40 H :    0.139897
  41 H :    0.144849
  42 H :    0.120572
  43 H :    0.116799
  44 H :    0.193311
  45 H :    0.115655
  46 H :    0.135998
  47 H :    0.124328
  48 H :    0.121150
  49 H :    0.091476
  50 H :    0.283101
  51 H :    0.286215
  52 H :    0.120587
  53 H :    0.154102
Sum of atomic charges:   -0.0000000

LOEWDIN ATOMIC CHARGES
----------------------
   0 C :   -0.367302
   1 C :   -0.155279
   2 N :   -0.110488
   3 C :    0.147357
   4 O :   -0.257733
   5 C :   -0.071843
   6 C :   -0.092197
   7 C :   -0.147453
   8 C :   -0.111481
   9 C :   -0.171665
  10 C :    0.100293
  11 O :   -0.176632
  12 C :   -0.084504
  13 C :   -0.070750
  14 C :   -0.113178
  15 C :   -0.133430
  16 C :   -0.118908
  17 C :   -0.155342
  18 C :    0.109876
  19 F :   -0.105087
  20 C :   -0.040531
  21 C :   -0.241651
  22 C :   -0.232639
  23 C :   -0.231959
  24 C :   -0.077900
  25 N :   -0.464916
  26 C :   -0.229861
  27 H :    0.126571
  28 H :    0.126210
  29 H :    0.119248
  30 H :    0.119186
  31 H :    0.121707
  32 H :    0.148884
  33 H :    0.132774
  34 H :    0.135091
  35 H :    0.139576
  36 H :    0.140557
  37 H :    0.124802
  38 H :    0.143865
  39 H :    0.134626
  40 H :    0.137452
  41 H :    0.143367
  42 H :    0.116426
  43 H :    0.113898
  44 H :    0.148308
  45 H :    0.110358
  46 H :    0.122563
  47 H :    0.115149
  48 H :    0.115716
  49 H :    0.089369
  50 H :    0.216898
  51 H :    0.218659
  52 H :    0.114494
  53 H :    0.129449

  Mayer bond orders larger than 0.100000
B(  0-C ,  1-C ) :   1.0056 B(  0-C , 27-H ) :   0.9470 B(  0-C , 28-H ) :   0.9476
B(  0-C , 29-H ) :   0.9439 B(  1-C ,  2-N ) :   0.9628 B(  1-C , 30-H ) :   0.9249
B(  1-C , 31-H ) :   0.9384 B(  2-N ,  3-C ) :   1.0444 B(  2-N , 20-C ) :   0.9319
B(  3-C ,  4-O ) :   1.8130 B(  3-C ,  5-C ) :   0.9485 B(  5-C ,  6-C ) :   1.4127
B(  5-C , 10-C ) :   1.3513 B(  6-C ,  7-C ) :   1.4367 B(  6-C , 32-H ) :   0.9167
B(  7-C ,  8-C ) :   1.4404 B(  7-C , 33-H ) :   0.9298 B(  8-C ,  9-C ) :   1.4484
B(  8-C , 34-H ) :   0.9293 B(  9-C , 10-C ) :   1.3602 B(  9-C , 35-H ) :   0.9088
B( 10-C , 11-O ) :   0.8960 B( 11-O , 12-C ) :   0.9081 B( 12-C , 13-C ) :   0.9554
B( 12-C , 36-H ) :   0.9224 B( 12-C , 37-H ) :   0.9170 B( 13-C , 14-C ) :   1.4189
B( 13-C , 18-C ) :   1.3622 B( 14-C , 15-C ) :   1.4516 B( 14-C , 38-H ) :   0.9122
B( 15-C , 16-C ) :   1.4446 B( 15-C , 39-H ) :   0.9292 B( 16-C , 17-C ) :   1.4425
B( 16-C , 40-H ) :   0.9293 B( 17-C , 18-C ) :   1.3868 B( 17-C , 41-H ) :   0.9195
B( 18-C , 19-F ) :   0.8965 B( 20-C , 21-C ) :   1.0010 B( 20-C , 26-C ) :   0.9944
B( 20-C , 42-H ) :   0.9281 B( 21-C , 22-C ) :   0.9846 B( 21-C , 43-H ) :   0.9390
B( 21-C , 44-H ) :   0.9137 B( 22-C , 23-C ) :   0.9964 B( 22-C , 45-H ) :   0.9470
B( 22-C , 46-H ) :   0.9470 B( 23-C , 24-C ) :   1.0052 B( 23-C , 47-H ) :   0.9423
B( 23-C , 48-H ) :   0.9412 B( 24-C , 25-N ) :   0.9787 B( 24-C , 26-C ) :   0.9650
B( 24-C , 49-H ) :   0.9361 B( 25-N , 50-H ) :   0.8624 B( 25-N , 51-H ) :   0.8624
B( 26-C , 52-H ) :   0.9358 B( 26-C , 53-H ) :   0.9209

FINAL SINGLE POINT ENERGY     -1213.597016790842

DIPOLE MOMENT
-------------

Method             : SCF
Type of density    : Electron Density
Multiplicity       :   1
Irrep              :   0
Energy             : -1213.5970167908419626 Eh
Relativity type    :
Basis              : AO
                                X                 Y                 Z
Electronic contribution:    -32.036707704      -6.870079698      -2.499968539
Nuclear contribution   :     31.103630247       6.753525818       1.125846481
                        -----------------------------------------
Total Dipole Moment    :     -0.933077457      -0.116553881      -1.374122058
                        -----------------------------------------
Magnitude (a.u.)       :      1.665061494
Magnitude (Debye)      :      4.232249974

Rotational constants in cm-1:             0.008332             0.004567             0.003523
Rotational constants in MHz :           249.796696           136.918036           105.622877

                             ****ORCA TERMINATED NORMALLY****
TOTAL RUN TIME: 0 days 0 hours 7 minutes 55 seconds 150 msec
