                         Program Version 6.0.0  -   RELEASE  -
|  1> ! B3LYP 6-31G* SP
|  2>
|  3> * xyz 0 1
|  4> C 1.6258 1.6175 -1.4466
|  5> C 0.6704 2.1250 -0.3889
|  6> C -0.2883 1.2615 0.1939
|  7> N -0.4050 -0.1072 -0.2136
|  8> C 0.0214 -1.1751 0.6914
|  9> C 1.5223 -1.2130 0.7624
| 10> C 2.2065 -0.4261 1.7015
| 11> C 3.6035 -0.3943 1.7094
| 12> C 4.3388 -1.1345 0.7755
| 13> O 5.7402 -1.0563 0.8242
| 14> C 6.6319 -1.7009 -0.0818
| 15> F 7.9307 -1.3851 0.2699
| 16> F 6.4719 -3.0737 -0.0160
| 17> F 6.4002 -1.2598 -1.3734
| 18> C 3.6516 -1.9189 -0.1721
| 19> C 2.2540 -1.9536 -0.1781
| 20> S -1.2484 -0.4970 -1.6806
| 21> O -0.3435 -1.3042 -2.5685
| 22> O -1.6367 0.7619 -2.4046
| 23> C -2.7045 -1.4039 -1.2877
| 24> C -3.6501 -0.8505 -0.4174
| 25> C -4.8023 -1.5663 -0.0813
| 26> C -5.0227 -2.8535 -0.6050
| 27> C -6.2498 -3.6020 -0.2390
| 28> N -6.3135 -5.0277 -0.3368
| 29> O -7.2584 -2.9755 0.1847
| 30> C -4.0721 -3.3984 -1.4884
| 31> C -2.9206 -2.6796 -1.8235
| 32> N -1.1083 1.7164 1.1769
| 33> C -1.0650 2.9929 1.6278
| 34> C -0.1548 3.9007 1.0808
| 35> C -0.1113 5.2252 1.5433
| 36> C 0.7985 6.1303 0.9955
| 37> C 1.6676 5.7228 -0.0159
| 38> C 1.6351 4.4071 -0.4862
| 39> C 0.7259 3.4716 0.0563
| 40> H 1.4257 2.1322 -2.4087
| 41> H 1.5414 0.5280 -1.6200
| 42> H 2.6724 1.8091 -1.1312
| 43> H -0.3594 -2.1578 0.3374
| 44> H -0.4137 -1.0088 1.7009
| 45> H 1.6586 0.1746 2.4180
| 46> H 4.1188 0.2195 2.4382
| 47> H 4.1834 -2.4985 -0.9132
| 48> H 1.7414 -2.5476 -0.9255
| 49> H -3.4921 0.1345 0.0040
| 50> H -5.5158 -1.1177 0.5992
| 51> H -7.2071 -5.5245 -0.1239
| 52> H -5.4662 -5.6047 -0.5307
| 53> H -4.2214 -4.3687 -1.9420
| 54> H -2.2029 -3.1202 -2.5036
| 55> H -1.7459 3.2969 2.4129
| 56> H -0.7803 5.5596 2.3275
| 57> H 0.8290 7.1507 1.3552
| 58> H 2.3695 6.4295 -0.4396
| 59> H 2.3234 4.1381 -1.2755
| 60> *
| 61>
| 62>                          ****END OF INPUT****

CARTESIAN COORDINATES (ANGSTROEM)
---------------------------------
  C      1.625800    1.617500   -1.446600
  C      0.670400    2.125000   -0.388900
  C     -0.288300    1.261500    0.193900
  N     -0.405000   -0.107200   -0.213600
  C      0.021400   -1.175100    0.691400
  C      1.522300   -1.213000    0.762400
  C      2.206500   -0.426100    1.701500
  C      3.603500   -0.394300    1.709400
  C      4.338800   -1.134500    0.775500
  O      5.740200   -1.056300    0.824200
  C      6.631900   -1.700900   -0.081800
  F      7.930700   -1.385100    0.269900
  F      6.471900   -3.073700   -0.016000
  F      6.400200   -1.259800   -1.373400
  C      3.651600   -1.918900   -0.172100
  C      2.254000   -1.953600   -0.178100
  S     -1.248400   -0.497000   -1.680600
  O     -0.343500   -1.304200   -2.568500
  O     -1.636700    0.761900   -2.404600
  C     -2.704500   -1.403900   -1.287700
  C     -3.650100   -0.850500   -0.417400
  C     -4.802300   -1.566300   -0.081300
  C     -5.022700   -2.853500   -0.605000
  C     -6.249800   -3.602000   -0.239000
  N     -6.313500   -5.027700   -0.336800
  O     -7.258400   -2.975500    0.184700
  C     -4.072100   -3.398400   -1.488400
  C     -2.920600   -2.679600   -1.823500
  N     -1.108300    1.716400    1.176900
  C     -1.065000    2.992900    1.627800
  C     -0.154800    3.900700    1.080800
  C     -0.111300    5.225200    1.543300
  C      0.798500    6.130300    0.995500
  C      1.667600    5.722800   -0.015900
  C      1.635100    4.407100   -0.486200
  C      0.725900    3.471600    0.056300
  H      1.425700    2.132200   -2.408700
  H      1.541400    0.528000   -1.620000
  H      2.672400    1.809100   -1.131200
  H     -0.359400   -2.157800    0.337400
  H     -0.413700   -1.008800    1.700900
  H      1.658600    0.174600    2.418000
  H      4.118800    0.219500    2.438200
  H      4.183400   -2.498500   -0.913200
  H      1.741400   -2.547600   -0.925500
  H     -3.492100    0.134500    0.004000
  H     -5.515800   -1.117700    0.599200
  H     -7.207100   -5.524500   -0.123900
  H     -5.466200   -5.604700   -0.530700
  H     -4.221400   -4.368700   -1.942000
  H     -2.202900   -3.120200   -2.503600
  H     -1.745900    3.296900    2.412900
  H     -0.780300    5.559600    2.327500
  H      0.829000    7.150700    1.355200
  H      2.369500    6.429500   -0.439600
  H      2.323400    4.138100   -1.275500

 Total Charge           Charge          ....    0
 Multiplicity           Mult            ....    1
 Number of Electrons    NEL             ....  266
 Basis Dimension        Dim             ....  548

ORBITAL ENERGIES
----------------

  NO   OCC          E(Eh)            E(eV)
   0   2.0000     -89.096374     -2424.4356
   1   2.0000     -24.740349      -673.2191
   2   2.0000     -24.738461      -673.1678
   3   2.0000     -24.737396      -673.1388
   4   2.0000     -19.212231      -522.7914
   5   2.0000     -19.125976      -520.4443
   6   2.0000     -19.124638      -520.4078
   7   2.0000     -19.117421      -520.2115
   8   2.0000     -14.369108      -391.0033
   9   2.0000     -14.363529      -390.8515
  10   2.0000     -14.333135      -390.0244
  11   2.0000     -10.503081      -285.8034
  12   2.0000     -10.303453      -280.3712
  13   2.0000     -10.268187      -279.4116
  14   2.0000     -10.256715      -279.0994
  15   2.0000     -10.238131      -278.5937
  16   2.0000     -10.233992      -278.4811
  17   2.0000     -10.224946      -278.2349
  18   2.0000     -10.224616      -278.2260
  19   2.0000     -10.218423      -278.0574
  20   2.0000     -10.216730      -278.0114
  21   2.0000     -10.215892      -277.9885
  22   2.0000     -10.210921      -277.8533
  23   2.0000     -10.207852      -277.7698
  24   2.0000     -10.204622      -277.6819
  25   2.0000     -10.200027      -277.5568
  26   2.0000     -10.197317      -277.4831
  27   2.0000     -10.196800      -277.4690
  28   2.0000     -10.196699      -277.4663
  29   2.0000     -10.196374      -277.4575
  30   2.0000     -10.195974      -277.4466
  31   2.0000     -10.195584      -277.4359
  32   2.0000     -10.194962      -277.4190
  33   2.0000     -10.194667      -277.4110
  34   2.0000     -10.192977      -277.3650
  35   2.0000     -10.170122      -276.7431
  36   2.0000      -8.132100      -221.2857
  37   2.0000      -6.097163      -165.9122
  38   2.0000      -6.095102      -165.8561
  39   2.0000      -6.094736      -165.8462
  40   2.0000      -1.302820       -35.4515
  41   2.0000      -1.223869       -33.3032
  42   2.0000      -1.223045       -33.2808
  43   2.0000      -1.083006       -29.4701
  44   2.0000      -1.082187       -29.4478
  45   2.0000      -1.017399       -27.6848
  46   2.0000      -0.963471       -26.2174
  47   2.0000      -0.960707       -26.1422
  48   2.0000      -0.914281       -24.8789
  49   2.0000      -0.890955       -24.2441
  50   2.0000      -0.881930       -23.9985
  51   2.0000      -0.865625       -23.5548
  52   2.0000      -0.861137       -23.4327
  53   2.0000      -0.806384       -21.9428
  54   2.0000      -0.799914       -21.7668
  55   2.0000      -0.784954       -21.3597
  56   2.0000      -0.773425       -21.0460
  57   2.0000      -0.772885       -21.0313
  58   2.0000      -0.757528       -20.6134
  59   2.0000      -0.742312       -20.1993
  60   2.0000      -0.725569       -19.7437
  61   2.0000      -0.704896       -19.1812
  62   2.0000      -0.690411       -18.7871
  63   2.0000      -0.675002       -18.3677
  64   2.0000      -0.644422       -17.5356
  65   2.0000      -0.641751       -17.4629
  66   2.0000      -0.635110       -17.2822
  67   2.0000      -0.632241       -17.2042
  68   2.0000      -0.621633       -16.9155
  69   2.0000      -0.602448       -16.3934
  70   2.0000      -0.595058       -16.1924
  71   2.0000      -0.592898       -16.1336
  72   2.0000      -0.590362       -16.0646
  73   2.0000      -0.584267       -15.8987
  74   2.0000      -0.572538       -15.5796
  75   2.0000      -0.558511       -15.1978
  76   2.0000      -0.538734       -14.6597
  77   2.0000      -0.533668       -14.5218
  78   2.0000      -0.518551       -14.1105
  79   2.0000      -0.510679       -13.8963
  80   2.0000      -0.502215       -13.6660
  81   2.0000      -0.496104       -13.4997
  82   2.0000      -0.490681       -13.3521
  83   2.0000      -0.480411       -13.0726
  84   2.0000      -0.475448       -12.9376
  85   2.0000      -0.473537       -12.8856
  86   2.0000      -0.468984       -12.7617
  87   2.0000      -0.468403       -12.7459
  88   2.0000      -0.465054       -12.6548
  89   2.0000      -0.458417       -12.4742
  90   2.0000      -0.450050       -12.2465
  91   2.0000      -0.447805       -12.1854
  92   2.0000      -0.445848       -12.1321
  93   2.0000      -0.444882       -12.1059
  94   2.0000      -0.444373       -12.0920
  95   2.0000      -0.434168       -11.8143
  96   2.0000      -0.430061       -11.7026
  97   2.0000      -0.428963       -11.6727
  98   2.0000      -0.426440       -11.6040
  99   2.0000      -0.424224       -11.5437
 100   2.0000      -0.423344       -11.5198
 101   2.0000      -0.415444       -11.3048
 102   2.0000      -0.411056       -11.1854
 103   2.0000      -0.409112       -11.1325
 104   2.0000      -0.405876       -11.0444
 105   2.0000      -0.400806       -10.9065
 106   2.0000      -0.394877       -10.7452
 107   2.0000      -0.392258       -10.6739
 108   2.0000      -0.383256       -10.4289
 109   2.0000      -0.379899       -10.3376
 110   2.0000      -0.377253       -10.2656
 111   2.0000      -0.374848       -10.2001
 112   2.0000      -0.369250       -10.0478
 113   2.0000      -0.364781        -9.9262
 114   2.0000      -0.353736        -9.6256
 115   2.0000      -0.349492        -9.5101
 116   2.0000      -0.346860        -9.4385
 117   2.0000      -0.345089        -9.3903
 118   2.0000      -0.324429        -8.8282
 119   2.0000      -0.306986        -8.3535
 120   2.0000      -0.302959        -8.2439
 121   2.0000      -0.288163        -7.8413
 122   2.0000      -0.280568        -7.6346
 123   2.0000      -0.277964        -7.5638
 124   2.0000      -0.274940        -7.4815
 125   2.0000      -0.268270        -7.3000
 126   2.0000      -0.266542        -7.2530
 127   2.0000      -0.260535        -7.0895
 128   2.0000      -0.256810        -6.9881
 129   2.0000      -0.254939        -6.9373
 130   2.0000      -0.250792        -6.8244
 131   2.0000      -0.237063        -6.4508
 132   2.0000      -0.221934        -6.0391
 133   0.0000      -0.073549        -2.0014
 134   0.0000      -0.059710        -1.6248
 135   0.0000      -0.032801        -0.8925
 136   0.0000      -0.028542        -0.7767
 137   0.0000      -0.013065        -0.3555

MULLIKEN ATOMIC CHARGES
-----------------------
   0 C :   -0.546558
   1 C :    0.128562
   2 C :    0.314263
   3 N :   -0.613915
   4 C :   -0.245840
   5 C :    0.164439
   6 C :   -0.166768
   7 C :   -0.174156
   8 C :    0.351791
   9 O :   -0.545478
  10 C :    1.086061
  11 F :   -0.279920
  12 F :   -0.291183
  13 F :   -0.291165
  14 C :   -0.190249
  15 C :   -0.167053
  16 S :    1.214990
  17 O :   -0.556172
  18 O :   -0.535682
  19 C :   -0.133231
  20 C :   -0.143226
  21 C :   -0.141726
  22 C :    0.088717
  23 C :    0.504993
  24 N :   -0.777308
  25 O :   -0.468229
  26 C :   -0.161290
  27 C :   -0.148897
  28 N :   -0.405736
  29 C :   -0.057775
  30 C :    0.138287
  31 C :   -0.203910
  32 C :   -0.125554
  33 C :   -0.120758
  34 C :   -0.194152
  35 C :    0.117993
  36 H :    0.176181
  37 H :    0.200051
  38 H :    0.155209
  39 H :    0.166209
  40 H :    0.174040
  41 H :    0.145698
  42 H :    0.147972
  43 H :    0.155372
  44 H :    0.160394
  45 H :    0.192271
  46 H :    0.178721
  47 H :    0.355315
  48 H :    0.332706
  49 H :    0.142866
  50 H :    0.183863
  51 H :    0.150517
  52 H :    0.137992
  53 H :    0.136414
  54 H :    0.138870
  55 H :    0.145175
Sum of atomic charges:    0.0000000

LOEWDIN ATOMIC CHARGES
----------------------
   0 C :   -0.363121
   1 C :    0.008592
   2 C :    0.025158
   3 N :   -0.281433
   4 C :   -0.145842
   5 C :   -0.039098
   6 C :   -0.122340
   7 C :   -0.143088
   8 C :    0.086372
   9 O :   -0.160079
  10 C :    0.359920
  11 F :   -0.088460
  12 F :   -0.104850
  13 F :   -0.105194
  14 C :   -0.158198
  15 C :   -0.113729
  16 S :    1.261700
  17 O :   -0.583258
  18 O :   -0.566529
  19 C :   -0.181768
  20 C :   -0.098209
  21 C :   -0.088781
  22 C :   -0.030262
  23 C :    0.141815
  24 N :   -0.402257
  25 O :   -0.280861
  26 C :   -0.120321
  27 C :   -0.105112
  28 N :   -0.140592
  29 C :   -0.064401
  30 C :   -0.027607
  31 C :   -0.113220
  32 C :   -0.124657
  33 C :   -0.117226
  34 C :   -0.117908
  35 C :   -0.006105
  36 H :    0.146192
  37 H :    0.153646
  38 H :    0.134019
  39 H :    0.140114
  40 H :    0.136063
  41 H :    0.140468
  42 H :    0.144750
  43 H :    0.143318
  44 H :    0.146770
  45 H :    0.162061
  46 H :    0.159633
  47 H :    0.267787
  48 H :    0.249840
  49 H :    0.138995
  50 H :    0.159950
  51 H :    0.135998
  52 H :    0.136559
  53 H :    0.135647
  54 H :    0.137133
  55 H :    0.142006

  Mayer bond orders larger than 0.100000
B(  0-C ,  1-C ) :   1.0102 B(  0-C , 36-H ) :   0.9216 B(  0-C , 37-H ) :   0.9139
B(  0-C , 38-H ) :   0.9261 B(  1-C ,  2-C ) :   1.4337 B(  1-C , 35-C ) :   1.2610
B(  2-C ,  3-N ) :   0.8912 B(  2-C , 28-N ) :   1.2752 B(  3-N ,  4-C ) :   0.9237
B(  3-N , 16-S ) :   0.7990 B(  4-C ,  5-C ) :   0.9538 B(  4-C , 39-H ) :   0.9224
B(  4-C , 40-H ) :   0.9191 B(  5-C ,  6-C ) :   1.4352 B(  5-C , 15-C ) :   1.4289
B(  6-C ,  7-C ) :   1.4316 B(  6-C , 41-H ) :   0.9200 B(  7-C ,  8-C ) :   1.4207
B(  7-C , 42-H ) :   0.9183 B(  8-C ,  9-O ) :   0.8238 B(  8-C , 14-C ) :   1.3877
B(  9-O , 10-C ) :   0.9914 B( 10-C , 11-F ) :   1.0068 B( 10-C , 12-F ) :   0.9673
B( 10-C , 13-F ) :   0.9703 B( 14-C , 15-C ) :   1.4338 B( 14-C , 43-H ) :   0.9093
B( 15-C , 44-H ) :   0.9133 B( 16-S , 17-O ) :   1.6096 B( 16-S , 18-O ) :   1.6647
B( 16-S , 19-C ) :   0.8125 B( 19-C , 20-C ) :   1.3767 B( 19-C , 27-C ) :   1.4063
B( 20-C , 21-C ) :   1.4307 B( 20-C , 45-H ) :   0.9017 B( 21-C , 22-C ) :   1.4000
B( 21-C , 46-H ) :   0.9110 B( 22-C , 23-C ) :   0.9791 B( 22-C , 26-C ) :   1.3900
B( 23-C , 24-N ) :   1.0603 B( 23-C , 25-O ) :   1.8374 B( 24-N , 47-H ) :   0.8219
B( 24-N , 48-H ) :   0.8258 B( 26-C , 27-C ) :   1.4230 B( 26-C , 49-H ) :   0.9194
B( 27-C , 50-H ) :   0.9082 B( 28-N , 29-C ) :   1.4930 B( 29-C , 30-C ) :   1.2411
B( 29-C , 51-H ) :   0.9266 B( 30-C , 31-C ) :   1.2838 B( 30-C , 35-C ) :   1.2915
B( 31-C , 32-C ) :   1.5120 B( 31-C , 34-C ) :   0.1061 B( 31-C , 52-H ) :   0.9235
B( 32-C , 33-C ) :   1.3533 B( 32-C , 53-H ) :   0.9293 B( 33-C , 34-C ) :   1.5068
B( 33-C , 54-H ) :   0.9289 B( 34-C , 35-C ) :   1.2969 B( 34-C , 55-H ) :   0.9149

FINAL SINGLE POINT ENERGY     -2126.462378643943

DIPOLE MOMENT
-------------

Method             : SCF
Type of density    : Electron Density
Multiplicity       :   1
Irrep              :   0
Energy             : -2126.4623786439433388 Eh
Relativity type    :
Basis              : AO
                                X                 Y                 Z
Electronic contribution:     33.331318917     -12.737837400      -2.707751369
Nuclear contribution   :    -33.090650382      12.198390112       3.960857578
                        -----------------------------------------
Total Dipole Moment    :      0.240668535      -0.539447289       1.253106209
                        -----------------------------------------
Magnitude (a.u.)       :      1.385351902
Magnitude (Debye)      :      3.521284693

Rotational constants in cm-1:             0.003984             0.001931             0.001434
Rotational constants in MHz :           119.436096            57.892292            42.985891

                             ****ORCA TERMINATED NORMALLY****
TOTAL RUN TIME: 0 days 0 hours 7 minutes 13 seconds 863 msec
