                         Program Version 6.0.0  -   RELEASE  -
|  1> ! B3LYP 6-31G* SP
|  2>
|  3> * xyz 0 1
|  4> C -4.8701 -2.2141 -1.0821
|  5> C -4.0740 -2.6732 0.1340
|  6> O -2.7351 -2.1854 0.0727
|  7> C -2.3840 -0.8576 0.3433
|  8> O -3.2578 -0.0356 0.7296
|  9> C -0.9748 -0.4497 0.2084
| 10> S 0.2931 -1.5377 0.0091
| 11> C 1.4859 -0.3488 0.0132
| 12> C 2.9419 -0.5794 -0.1266
| 13> C 3.4583 -1.8800 -0.2824
| 14> C 4.8356 -2.0836 -0.4131
| 15> C 5.7109 -0.9958 -0.3899
| 16> C 5.2107 0.2989 -0.2357
| 17> C 3.8345 0.5086 -0.1046
| 18> N 0.9360 0.8777 0.1596
| 19> C -0.4216 0.8381 0.2705
| 20> N -1.2017 2.0416 0.3693
| 21> C -0.6522 3.3047 0.7766
| 22> O 0.5225 3.3767 1.2302
| 23> C -1.4967 4.5404 0.7076
| 24> F -2.5344 4.4387 1.6150
| 25> F -0.7429 5.6619 1.0065
| 26> F -2.0169 4.6760 -0.5662
| 27> H -4.3678 -2.5519 -2.0131
| 28> H -4.9547 -1.1075 -1.0949
| 29> H -5.8911 -2.6491 -1.0457
| 30> H -4.5681 -2.3336 1.0703
| 31> H -4.0455 -3.7832 0.1430
| 32> H 2.8030 -2.7408 -0.3038
| 33> H 5.2245 -3.0867 -0.5326
| 34> H 6.7765 -1.1560 -0.4912
| 35> H 5.8899 1.1414 -0.2177
| 36> H 3.4702 1.5214 0.0140
| 37> H -2.2042 2.0238 0.0823
| 38> *
| 39>
| 40>                          ****END OF INPUT****

CARTESIAN COORDINATES (ANGSTROEM)
---------------------------------
  C     -4.870100   -2.214100   -1.082100
  C     -4.074000   -2.673200    0.134000
  O     -2.735100   -2.185400    0.072700
  C     -2.384000   -0.857600    0.343300
  O     -3.257800   -0.035600    0.729600
  C     -0.974800   -0.449700    0.208400
  S      0.293100   -1.537700    0.009100
  C      1.485900   -0.348800    0.013200
  C      2.941900   -0.579400   -0.126600
  C      3.458300   -1.880000   -0.282400
  C      4.835600   -2.083600   -0.413100
  C      5.710900   -0.995800   -0.389900
  C      5.210700    0.298900   -0.235700
  C      3.834500    0.508600   -0.104600
  N      0.936000    0.877700    0.159600
  C     -0.421600    0.838100    0.270500
  N     -1.201700    2.041600    0.369300
  C     -0.652200    3.304700    0.776600
  O      0.522500    3.376700    1.230200
  C     -1.496700    4.540400    0.707600
  F     -2.534400    4.438700    1.615000
  F     -0.742900    5.661900    1.006500
  F     -2.016900    4.676000   -0.566200
  H     -4.367800   -2.551900   -2.013100
  H     -4.954700   -1.107500   -1.094900
  H     -5.891100   -2.649100   -1.045700
  H     -4.568100   -2.333600    1.070300
  H     -4.045500   -3.783200    0.143000
  H      2.803000   -2.740800   -0.303800
  H      5.224500   -3.086700   -0.532600
  H      6.776500   -1.156000   -0.491200
  H      5.889900    1.141400   -0.217700
  H      3.470200    1.521400    0.014000
  H     -2.204200    2.023800    0.082300

 Total Charge           Charge          ....    0
 Multiplicity           Mult            ....    1
 Number of Electrons    NEL             ....  176
 Basis Dimension        Dim             ....  348

ORBITAL ENERGIES
----------------

  NO   OCC          E(Eh)            E(eV)
   0   2.0000     -88.913276     -2419.4532
   1   2.0000     -24.734588      -673.0623
   2   2.0000     -24.732923      -673.0171
   3   2.0000     -24.726776      -672.8498
   4   2.0000     -19.192250      -522.2477
   5   2.0000     -19.142790      -520.9018
   6   2.0000     -19.140056      -520.8274
   7   2.0000     -14.398345      -391.7989
   8   2.0000     -14.347122      -390.4050
   9   2.0000     -10.450928      -284.3842
  10   2.0000     -10.339827      -281.3610
  11   2.0000     -10.322640      -280.8933
  12   2.0000     -10.293740      -280.1069
  13   2.0000     -10.272079      -279.5175
  14   2.0000     -10.247538      -278.8497
  15   2.0000     -10.238715      -278.6096
  16   2.0000     -10.217739      -278.0388
  17   2.0000     -10.201430      -277.5950
  18   2.0000     -10.196636      -277.4646
  19   2.0000     -10.196120      -277.4505
  20   2.0000     -10.196025      -277.4480
  21   2.0000     -10.194152      -277.3970
  22   2.0000     -10.179987      -277.0115
  23   2.0000      -7.990571      -217.4345
  24   2.0000      -5.953447      -162.0015
  25   2.0000      -5.949423      -161.8920
  26   2.0000      -5.947700      -161.8451
  27   2.0000      -1.292396       -35.1679
  28   2.0000      -1.219739       -33.1908
  29   2.0000      -1.213106       -33.0103
  30   2.0000      -1.087943       -29.6044
  31   2.0000      -1.039730       -28.2925
  32   2.0000      -1.005300       -27.3556
  33   2.0000      -0.990324       -26.9481
  34   2.0000      -0.926445       -25.2099
  35   2.0000      -0.866799       -23.5868
  36   2.0000      -0.832858       -22.6632
  37   2.0000      -0.795980       -21.6597
  38   2.0000      -0.770360       -20.9626
  39   2.0000      -0.760516       -20.6947
  40   2.0000      -0.755494       -20.5580
  41   2.0000      -0.731828       -19.9141
  42   2.0000      -0.677700       -18.4412
  43   2.0000      -0.649287       -17.6680
  44   2.0000      -0.637843       -17.3566
  45   2.0000      -0.618544       -16.8314
  46   2.0000      -0.603784       -16.4298
  47   2.0000      -0.593193       -16.1416
  48   2.0000      -0.585018       -15.9191
  49   2.0000      -0.580664       -15.8007
  50   2.0000      -0.564925       -15.3724
  51   2.0000      -0.552096       -15.0233
  52   2.0000      -0.531764       -14.4700
  53   2.0000      -0.520170       -14.1546
  54   2.0000      -0.498678       -13.5697
  55   2.0000      -0.481411       -13.0999
  56   2.0000      -0.475989       -12.9523
  57   2.0000      -0.466642       -12.6980
  58   2.0000      -0.461125       -12.5479
  59   2.0000      -0.460952       -12.5432
  60   2.0000      -0.453987       -12.3536
  61   2.0000      -0.447733       -12.1834
  62   2.0000      -0.444977       -12.1084
  63   2.0000      -0.442193       -12.0327
  64   2.0000      -0.434598       -11.8260
  65   2.0000      -0.433681       -11.8011
  66   2.0000      -0.429824       -11.6961
  67   2.0000      -0.423772       -11.5314
  68   2.0000      -0.409030       -11.1303
  69   2.0000      -0.405394       -11.0313
  70   2.0000      -0.403294       -10.9742
  71   2.0000      -0.400317       -10.8932
  72   2.0000      -0.386560       -10.5188
  73   2.0000      -0.385717       -10.4959
  74   2.0000      -0.376459       -10.2440
  75   2.0000      -0.370916       -10.0931
  76   2.0000      -0.363308        -9.8861
  77   2.0000      -0.355926        -9.6852
  78   2.0000      -0.339023        -9.2253
  79   2.0000      -0.326553        -8.8860
  80   2.0000      -0.301292        -8.1986
  81   2.0000      -0.298945        -8.1347
  82   2.0000      -0.295002        -8.0274
  83   2.0000      -0.279599        -7.6083
  84   2.0000      -0.268575        -7.3083
  85   2.0000      -0.260941        -7.1006
  86   2.0000      -0.258010        -7.0208
  87   2.0000      -0.229384        -6.2419
  88   0.0000      -0.081734        -2.2241
  89   0.0000      -0.046456        -1.2641
  90   0.0000      -0.012567        -0.3420
  91   0.0000      -0.009761        -0.2656
  92   0.0000       0.024056         0.6546

MULLIKEN ATOMIC CHARGES
-----------------------
   0 C :   -0.461096
   1 C :   -0.021229
   2 O :   -0.479573
   3 C :    0.587721
   4 O :   -0.479450
   5 C :   -0.268087
   6 S :    0.301934
   7 C :   -0.006584
   8 C :    0.134798
   9 C :   -0.186933
  10 C :   -0.133065
  11 C :   -0.114848
  12 C :   -0.128541
  13 C :   -0.153917
  14 N :   -0.382928
  15 C :    0.496421
  16 N :   -0.689249
  17 C :    0.449856
  18 O :   -0.409378
  19 C :    0.898487
  20 F :   -0.290453
  21 F :   -0.282209
  22 F :   -0.295480
  23 H :    0.154393
  24 H :    0.175108
  25 H :    0.147740
  26 H :    0.161237
  27 H :    0.156979
  28 H :    0.149031
  29 H :    0.138603
  30 H :    0.137957
  31 H :    0.142844
  32 H :    0.182093
  33 H :    0.367818
Sum of atomic charges:   -0.0000000

LOEWDIN ATOMIC CHARGES
----------------------
   0 C :   -0.374818
   1 C :   -0.090953
   2 O :   -0.173721
   3 C :    0.181850
   4 O :   -0.279419
   5 C :   -0.266550
   6 S :    0.428012
   7 C :   -0.100345
   8 C :   -0.033456
   9 C :   -0.119726
  10 C :   -0.125743
  11 C :   -0.115034
  12 C :   -0.123398
  13 C :   -0.096968
  14 N :   -0.142944
  15 C :    0.083251
  16 N :   -0.186770
  17 C :    0.106577
  18 O :   -0.211318
  19 C :    0.294268
  20 F :   -0.102468
  21 F :   -0.088619
  22 F :   -0.108127
  23 H :    0.129245
  24 H :    0.138544
  25 H :    0.132027
  26 H :    0.127864
  27 H :    0.130610
  28 H :    0.140167
  29 H :    0.136572
  30 H :    0.136036
  31 H :    0.138633
  32 H :    0.158089
  33 H :    0.278633

  Mayer bond orders larger than 0.100000
B(  0-C ,  1-C ) :   1.0112 B(  0-C , 23-H ) :   0.9475 B(  0-C , 24-H ) :   0.9408
B(  0-C , 25-H ) :   0.9417 B(  1-C ,  2-O ) :   0.8591 B(  1-C , 26-H ) :   0.9250
B(  1-C , 27-H ) :   0.9388 B(  2-O ,  3-C ) :   1.0064 B(  3-C ,  4-O ) :   1.7634
B(  3-C ,  5-C ) :   1.0376 B(  5-C ,  6-S ) :   1.0702 B(  5-C ,  7-C ) :   0.1013
B(  5-C , 15-C ) :   1.4008 B(  6-S ,  7-C ) :   1.1568 B(  7-C ,  8-C ) :   1.0192
B(  7-C , 14-N ) :   1.4224 B(  8-C ,  9-C ) :   1.3881 B(  8-C , 13-C ) :   1.4060
B(  9-C , 10-C ) :   1.4525 B(  9-C , 28-H ) :   0.9164 B( 10-C , 11-C ) :   1.4445
B( 10-C , 29-H ) :   0.9284 B( 11-C , 12-C ) :   1.4417 B( 11-C , 30-H ) :   0.9289
B( 12-C , 13-C ) :   1.4370 B( 12-C , 31-H ) :   0.9282 B( 13-C , 32-H ) :   0.9075
B( 14-N , 15-C ) :   1.3211 B( 15-C , 16-N ) :   0.9519 B( 16-N , 17-C ) :   1.0170
B( 16-N , 33-H ) :   0.7843 B( 17-C , 18-O ) :   1.8680 B( 17-C , 19-C ) :   0.8995
B( 19-C , 20-F ) :   0.9734 B( 19-C , 21-F ) :   0.9803 B( 19-C , 22-F ) :   0.9683

FINAL SINGLE POINT ENERGY     -1572.314155063626

DIPOLE MOMENT
-------------

Method             : SCF
Type of density    : Electron Density
Multiplicity       :   1
Irrep              :   0
Energy             : -1572.3141550636255488 Eh
Relativity type    :
Basis              : AO
                                X                 Y                 Z
Electronic contribution:     -3.618665695      30.999233311       6.750825851
Nuclear contribution   :      3.785931335     -32.806190679      -7.586650351
                        -----------------------------------------
Total Dipole Moment    :      0.167265640      -1.806957368      -0.835824501
                        -----------------------------------------
Magnitude (a.u.)       :      1.997917746
Magnitude (Debye)      :      5.078303332

Rotational constants in cm-1:             0.007555             0.005310             0.003219
Rotational constants in MHz :           226.502336           159.177163            96.508465

                             ****ORCA TERMINATED NORMALLY****
TOTAL RUN TIME: 0 days 0 hours 3 minutes 38 seconds 793 msec
