                         Program Version 6.0.0  -   RELEASE  -
|  1> ! B3LYP 6-31G* SP
|  2>
|  3> * xyz 0 1
|  4> C -0.2715 -2.8122 1.1231
|  5> C 0.5634 -1.6198 0.7108
|  6> C -0.0051 -0.5750 -0.0441
|  7> N -1.3944 -0.5597 -0.3925
|  8> C -2.3970 -0.0880 0.5668
|  9> C -2.0785 1.3021 1.0645
| 10> C -2.2305 1.6118 2.4262
| 11> C -1.9612 2.9034 2.8893
| 12> C -1.5024 3.8963 2.0082
| 13> O -1.2317 5.1723 2.5239
| 14> C -0.1224 5.9823 2.1348
| 15> F 1.0505 5.2599 2.2576
| 16> F -0.2463 6.4190 0.8242
| 17> F -0.0578 7.0774 2.9736
| 18> C -1.3619 3.5934 0.6412
| 19> C -1.6743 2.3135 0.1706
| 20> S -1.8515 -0.9403 -2.0233
| 21> O -2.9415 -0.0107 -2.4842
| 22> O -0.6698 -0.7672 -2.9373
| 23> C -2.4040 -2.6082 -2.0899
| 24> C -1.4748 -3.6423 -2.2485
| 25> C -1.8985 -4.9729 -2.2691
| 26> C -3.2628 -5.2878 -2.1323
| 27> C -3.7067 -6.6986 -2.1698
| 28> O -4.9284 -6.9884 -2.0573
| 29> O -2.7765 -7.7238 -2.3384
| 30> C -4.1921 -4.2434 -1.9662
| 31> C -3.7629 -2.9125 -1.9427
| 32> N 0.7605 0.4647 -0.4478
| 33> C 2.0789 0.5924 -0.1634
| 34> C 2.8067 1.8355 -0.6594
| 35> C 2.0878 2.5938 -1.7864
| 36> C 2.4644 4.0637 -1.6236
| 37> C 3.1908 4.1903 -0.2866
| 38> C 2.9740 2.8737 0.4433
| 39> C 2.7025 -0.4039 0.6312
| 40> C 4.0652 -0.3265 0.9954
| 41> C 4.6517 -1.3174 1.7830
| 42> C 3.9009 -2.4034 2.2211
| 43> C 2.5566 -2.5118 1.8673
| 44> C 1.9328 -1.5221 1.0708
| 45> H -1.2836 -2.7999 0.6736
| 46> H -0.3791 -2.8290 2.2269
| 47> H 0.2166 -3.7491 0.7839
| 48> H -2.4435 -0.8018 1.4144
| 49> H -3.4012 -0.0753 0.0976
| 50> H -2.5652 0.8580 3.1327
| 51> H -2.0945 3.1305 3.9434
| 52> H -1.0503 4.3463 -0.0693
| 53> H -1.5916 2.1091 -0.8884
| 54> H -0.4203 -3.4174 -2.3482
| 55> H -1.1563 -5.7531 -2.3917
| 56> H -3.0709 -8.6937 -2.3660
| 57> H -5.2479 -4.4529 -1.8494
| 58> H -4.4892 -2.1223 -1.8000
| 59> H 3.8070 1.5491 -1.0553
| 60> H 0.9825 2.5195 -1.7037
| 61> H 2.3966 2.2055 -2.7855
| 62> H 1.5502 4.6999 -1.6206
| 63> H 3.1204 4.3910 -2.4592
| 64> H 2.8044 5.0513 0.3069
| 65> H 4.2790 4.3375 -0.4664
| 66> H 3.8363 2.6358 1.1034
| 67> H 2.0460 2.9423 1.0577
| 68> H 4.6955 0.4908 0.6794
| 69> H 5.6950 -1.2399 2.0543
| 70> H 4.3650 -3.1674 2.8337
| 71> H 2.0169 -3.3745 2.2317
| 72> *
| 73>
| 74>                          ****END OF INPUT****

CARTESIAN COORDINATES (ANGSTROEM)
---------------------------------
  C     -0.271500   -2.812200    1.123100
  C      0.563400   -1.619800    0.710800
  C     -0.005100   -0.575000   -0.044100
  N     -1.394400   -0.559700   -0.392500
  C     -2.397000   -0.088000    0.566800
  C     -2.078500    1.302100    1.064500
  C     -2.230500    1.611800    2.426200
  C     -1.961200    2.903400    2.889300
  C     -1.502400    3.896300    2.008200
  O     -1.231700    5.172300    2.523900
  C     -0.122400    5.982300    2.134800
  F      1.050500    5.259900    2.257600
  F     -0.246300    6.419000    0.824200
  F     -0.057800    7.077400    2.973600
  C     -1.361900    3.593400    0.641200
  C     -1.674300    2.313500    0.170600
  S     -1.851500   -0.940300   -2.023300
  O     -2.941500   -0.010700   -2.484200
  O     -0.669800   -0.767200   -2.937300
  C     -2.404000   -2.608200   -2.089900
  C     -1.474800   -3.642300   -2.248500
  C     -1.898500   -4.972900   -2.269100
  C     -3.262800   -5.287800   -2.132300
  C     -3.706700   -6.698600   -2.169800
  O     -4.928400   -6.988400   -2.057300
  O     -2.776500   -7.723800   -2.338400
  C     -4.192100   -4.243400   -1.966200
  C     -3.762900   -2.912500   -1.942700
  N      0.760500    0.464700   -0.447800
  C      2.078900    0.592400   -0.163400
  C      2.806700    1.835500   -0.659400
  C      2.087800    2.593800   -1.786400
  C      2.464400    4.063700   -1.623600
  C      3.190800    4.190300   -0.286600
  C      2.974000    2.873700    0.443300
  C      2.702500   -0.403900    0.631200
  C      4.065200   -0.326500    0.995400
  C      4.651700   -1.317400    1.783000
  C      3.900900   -2.403400    2.221100
  C      2.556600   -2.511800    1.867300
  C      1.932800   -1.522100    1.070800
  H     -1.283600   -2.799900    0.673600
  H     -0.379100   -2.829000    2.226900
  H      0.216600   -3.749100    0.783900
  H     -2.443500   -0.801800    1.414400
  H     -3.401200   -0.075300    0.097600
  H     -2.565200    0.858000    3.132700
  H     -2.094500    3.130500    3.943400
  H     -1.050300    4.346300   -0.069300
  H     -1.591600    2.109100   -0.888400
  H     -0.420300   -3.417400   -2.348200
  H     -1.156300   -5.753100   -2.391700
  H     -3.070900   -8.693700   -2.366000
  H     -5.247900   -4.452900   -1.849400
  H     -4.489200   -2.122300   -1.800000
  H      3.807000    1.549100   -1.055300
  H      0.982500    2.519500   -1.703700
  H      2.396600    2.205500   -2.785500
  H      1.550200    4.699900   -1.620600
  H      3.120400    4.391000   -2.459200
  H      2.804400    5.051300    0.306900
  H      4.279000    4.337500   -0.466400
  H      3.836300    2.635800    1.103400
  H      2.046000    2.942300    1.057700
  H      4.695500    0.490800    0.679400
  H      5.695000   -1.239900    2.054300
  H      4.365000   -3.167400    2.833700
  H      2.016900   -3.374500    2.231700

 Total Charge           Charge          ....    0
 Multiplicity           Mult            ....    1
 Number of Electrons    NEL             ....  304
 Basis Dimension        Dim             ....  632

ORBITAL ENERGIES
----------------

  NO   OCC          E(Eh)            E(eV)
   0   2.0000     -89.097775     -2424.4737
   1   2.0000     -24.738319      -673.1639
   2   2.0000     -24.737075      -673.1300
   3   2.0000     -24.735875      -673.0974
   4   2.0000     -19.206193      -522.6271
   5   2.0000     -19.198466      -522.4168
   6   2.0000     -19.140554      -520.8409
   7   2.0000     -19.128665      -520.5174
   8   2.0000     -19.124685      -520.4091
   9   2.0000     -14.371250      -391.0616
  10   2.0000     -14.320706      -389.6862
  11   2.0000     -10.500091      -285.7220
  12   2.0000     -10.337910      -281.3088
  13   2.0000     -10.260394      -279.1995
  14   2.0000     -10.256476      -279.0929
  15   2.0000     -10.244213      -278.7592
  16   2.0000     -10.235930      -278.5338
  17   2.0000     -10.234792      -278.5028
  18   2.0000     -10.227808      -278.3128
  19   2.0000     -10.223209      -278.1877
  20   2.0000     -10.222059      -278.1564
  21   2.0000     -10.220645      -278.1179
  22   2.0000     -10.220252      -278.1072
  23   2.0000     -10.207699      -277.7656
  24   2.0000     -10.206279      -277.7270
  25   2.0000     -10.200333      -277.5652
  26   2.0000     -10.196585      -277.4632
  27   2.0000     -10.195941      -277.4457
  28   2.0000     -10.195731      -277.4399
  29   2.0000     -10.195350      -277.4296
  30   2.0000     -10.193801      -277.3874
  31   2.0000     -10.193696      -277.3846
  32   2.0000     -10.192689      -277.3572
  33   2.0000     -10.190852      -277.3072
  34   2.0000     -10.188924      -277.2547
  35   2.0000     -10.186078      -277.1773
  36   2.0000     -10.180304      -277.0202
  37   2.0000     -10.166822      -276.6533
  38   2.0000     -10.160684      -276.4863
  39   2.0000     -10.157181      -276.3909
  40   2.0000     -10.153430      -276.2889
  41   2.0000      -8.133447      -221.3223
  42   2.0000      -6.098408      -165.9461
  43   2.0000      -6.096511      -165.8945
  44   2.0000      -6.096149      -165.8846
  45   2.0000      -1.300765       -35.3956
  46   2.0000      -1.221863       -33.2486
  47   2.0000      -1.220857       -33.2212
  48   2.0000      -1.083663       -29.4880
  49   2.0000      -1.082648       -29.4603
  50   2.0000      -1.076951       -29.3053
  51   2.0000      -0.997373       -27.1399
  52   2.0000      -0.963819       -26.2268
  53   2.0000      -0.960109       -26.1259
  54   2.0000      -0.913653       -24.8618
  55   2.0000      -0.892998       -24.2997
  56   2.0000      -0.862454       -23.4686
  57   2.0000      -0.857299       -23.3283
  58   2.0000      -0.832603       -22.6563
  59   2.0000      -0.809891       -22.0383
  60   2.0000      -0.805774       -21.9262
  61   2.0000      -0.781671       -21.2703
  62   2.0000      -0.779448       -21.2099
  63   2.0000      -0.771209       -20.9857
  64   2.0000      -0.751585       -20.4517
  65   2.0000      -0.743935       -20.2435
  66   2.0000      -0.727814       -19.8048
  67   2.0000      -0.723390       -19.6844
  68   2.0000      -0.707629       -19.2556
  69   2.0000      -0.696789       -18.9606
  70   2.0000      -0.683007       -18.5856
  71   2.0000      -0.672826       -18.3085
  72   2.0000      -0.652828       -17.7644
  73   2.0000      -0.641468       -17.4552
  74   2.0000      -0.640222       -17.4213
  75   2.0000      -0.626817       -17.0566
  76   2.0000      -0.622615       -16.9422
  77   2.0000      -0.613577       -16.6963
  78   2.0000      -0.594940       -16.1891
  79   2.0000      -0.592745       -16.1294
  80   2.0000      -0.591909       -16.1067
  81   2.0000      -0.587492       -15.9865
  82   2.0000      -0.568178       -15.4609
  83   2.0000      -0.563396       -15.3308
  84   2.0000      -0.550636       -14.9836
  85   2.0000      -0.545494       -14.8436
  86   2.0000      -0.543190       -14.7809
  87   2.0000      -0.528336       -14.3768
  88   2.0000      -0.514241       -13.9932
  89   2.0000      -0.504181       -13.7195
  90   2.0000      -0.494850       -13.4656
  91   2.0000      -0.491465       -13.3734
  92   2.0000      -0.482339       -13.1251
  93   2.0000      -0.480086       -13.0638
  94   2.0000      -0.474509       -12.9121
  95   2.0000      -0.473058       -12.8726
  96   2.0000      -0.471146       -12.8205
  97   2.0000      -0.465710       -12.6726
  98   2.0000      -0.463529       -12.6133
  99   2.0000      -0.461677       -12.5629
 100   2.0000      -0.458712       -12.4822
 101   2.0000      -0.453981       -12.3535
 102   2.0000      -0.451505       -12.2861
 103   2.0000      -0.448056       -12.1922
 104   2.0000      -0.444635       -12.0991
 105   2.0000      -0.440565       -11.9884
 106   2.0000      -0.440432       -11.9848
 107   2.0000      -0.438356       -11.9283
 108   2.0000      -0.437870       -11.9151
 109   2.0000      -0.431771       -11.7491
 110   2.0000      -0.429830       -11.6963
 111   2.0000      -0.422849       -11.5063
 112   2.0000      -0.417269       -11.3545
 113   2.0000      -0.416791       -11.3415
 114   2.0000      -0.415510       -11.3066
 115   2.0000      -0.412966       -11.2374
 116   2.0000      -0.406420       -11.0592
 117   2.0000      -0.403804       -10.9881
 118   2.0000      -0.403520       -10.9803
 119   2.0000      -0.395320       -10.7572
 120   2.0000      -0.391448       -10.6518
 121   2.0000      -0.388431       -10.5698
 122   2.0000      -0.387771       -10.5518
 123   2.0000      -0.380067       -10.3421
 124   2.0000      -0.371132       -10.0990
 125   2.0000      -0.369645       -10.0585
 126   2.0000      -0.369011       -10.0413
 127   2.0000      -0.359914        -9.7938
 128   2.0000      -0.351232        -9.5575
 129   2.0000      -0.345212        -9.3937
 130   2.0000      -0.338089        -9.1999
 131   2.0000      -0.331928        -9.0322
 132   2.0000      -0.326830        -8.8935
 133   2.0000      -0.324187        -8.8216
 134   2.0000      -0.323111        -8.7923
 135   2.0000      -0.322071        -8.7640
 136   2.0000      -0.317779        -8.6472
 137   2.0000      -0.313815        -8.5393
 138   2.0000      -0.307565        -8.3693
 139   2.0000      -0.297288        -8.0896
 140   2.0000      -0.294325        -8.0090
 141   2.0000      -0.290089        -7.8937
 142   2.0000      -0.281892        -7.6707
 143   2.0000      -0.281496        -7.6599
 144   2.0000      -0.277242        -7.5441
 145   2.0000      -0.272973        -7.4280
 146   2.0000      -0.264500        -7.1974
 147   2.0000      -0.257193        -6.9986
 148   2.0000      -0.256136        -6.9698
 149   2.0000      -0.242978        -6.6118
 150   2.0000      -0.231145        -6.2898
 151   2.0000      -0.220038        -5.9875
 152   0.0000      -0.085551        -2.3280
 153   0.0000      -0.058425        -1.5898
 154   0.0000      -0.034986        -0.9520
 155   0.0000      -0.030316        -0.8249
 156   0.0000      -0.010215        -0.2780

MULLIKEN ATOMIC CHARGES
-----------------------
   0 C :   -0.544274
   1 C :    0.092426
   2 C :    0.312017
   3 N :   -0.627204
   4 C :   -0.215085
   5 C :    0.137521
   6 C :   -0.180534
   7 C :   -0.164015
   8 C :    0.332531
   9 O :   -0.541778
  10 C :    1.069222
  11 F :   -0.281533
  12 F :   -0.284829
  13 F :   -0.277320
  14 C :   -0.187838
  15 C :   -0.138751
  16 S :    1.209205
  17 O :   -0.553140
  18 O :   -0.533701
  19 C :   -0.114386
  20 C :   -0.147145
  21 C :   -0.148028
  22 C :    0.081099
  23 C :    0.528735
  24 O :   -0.443569
  25 O :   -0.624924
  26 C :   -0.139090
  27 C :   -0.152365
  28 N :   -0.409206
  29 C :    0.203363
  30 C :   -0.157813
  31 C :   -0.264291
  32 C :   -0.272452
  33 C :   -0.262021
  34 C :   -0.273270
  35 C :    0.104555
  36 C :   -0.203229
  37 C :   -0.125428
  38 C :   -0.117511
  39 C :   -0.205534
  40 C :    0.127401
  41 H :    0.167531
  42 H :    0.162487
  43 H :    0.161159
  44 H :    0.150193
  45 H :    0.192817
  46 H :    0.130200
  47 H :    0.143927
  48 H :    0.157381
  49 H :    0.186559
  50 H :    0.185751
  51 H :    0.173337
  52 H :    0.434339
  53 H :    0.181347
  54 H :    0.182655
  55 H :    0.131259
  56 H :    0.171983
  57 H :    0.135767
  58 H :    0.132020
  59 H :    0.129256
  60 H :    0.134925
  61 H :    0.124573
  62 H :    0.128243
  63 H :    0.148158
  64 H :    0.142553
  65 H :    0.134420
  66 H :    0.135055
  67 H :    0.134295
Sum of atomic charges:   -0.0000000

LOEWDIN ATOMIC CHARGES
----------------------
   0 C :   -0.361684
   1 C :   -0.023918
   2 C :    0.027426
   3 N :   -0.285736
   4 C :   -0.146053
   5 C :   -0.037618
   6 C :   -0.127453
   7 C :   -0.141274
   8 C :    0.075837
   9 O :   -0.163299
  10 C :    0.360836
  11 F :   -0.103297
  12 F :   -0.106147
  13 F :   -0.088434
  14 C :   -0.154409
  15 C :   -0.097720
  16 S :    1.262086
  17 O :   -0.573561
  18 O :   -0.561294
  19 C :   -0.174630
  20 C :   -0.104827
  21 C :   -0.099637
  22 C :   -0.040025
  23 C :    0.180256
  24 O :   -0.259723
  25 O :   -0.336430
  26 C :   -0.085469
  27 C :   -0.108174
  28 N :   -0.110286
  29 C :    0.057934
  30 C :   -0.125538
  31 C :   -0.227114
  32 C :   -0.235805
  33 C :   -0.235302
  34 C :   -0.224997
  35 C :   -0.024271
  36 C :   -0.113926
  37 C :   -0.127077
  38 C :   -0.119032
  39 C :   -0.126665
  40 C :   -0.005393
  41 H :    0.137406
  42 H :    0.136524
  43 H :    0.135691
  44 H :    0.122208
  45 H :    0.153100
  46 H :    0.133279
  47 H :    0.142761
  48 H :    0.144383
  49 H :    0.157144
  50 H :    0.159851
  51 H :    0.154910
  52 H :    0.349987
  53 H :    0.160718
  54 H :    0.158791
  55 H :    0.123568
  56 H :    0.138711
  57 H :    0.122968
  58 H :    0.117514
  59 H :    0.117729
  60 H :    0.121039
  61 H :    0.114285
  62 H :    0.116928
  63 H :    0.125868
  64 H :    0.139717
  65 H :    0.134939
  66 H :    0.135135
  67 H :    0.136689

  Mayer bond orders larger than 0.100000
B(  0-C ,  1-C ) :   0.9970 B(  0-C , 41-H ) :   0.9309 B(  0-C , 42-H ) :   0.9270
B(  0-C , 43-H ) :   0.9287 B(  1-C ,  2-C ) :   1.4510 B(  1-C , 40-C ) :   1.2549
B(  2-C ,  3-N ) :   0.8692 B(  2-C , 28-N ) :   1.2803 B(  3-N ,  4-C ) :   0.9195
B(  3-N , 16-S ) :   0.8156 B(  4-C ,  5-C ) :   0.9731 B(  4-C , 44-H ) :   0.9225
B(  4-C , 45-H ) :   0.9032 B(  5-C ,  6-C ) :   1.4320 B(  5-C , 15-C ) :   1.4274
B(  6-C ,  7-C ) :   1.4272 B(  6-C , 46-H ) :   0.9226 B(  7-C ,  8-C ) :   1.4296
B(  7-C , 47-H ) :   0.9199 B(  8-C ,  9-O ) :   0.8116 B(  8-C , 14-C ) :   1.3903
B(  9-O , 10-C ) :   1.0025 B( 10-C , 11-F ) :   0.9722 B( 10-C , 12-F ) :   0.9691
B( 10-C , 13-F ) :   1.0091 B( 14-C , 15-C ) :   1.4283 B( 14-C , 48-H ) :   0.9099
B( 15-C , 49-H ) :   0.9010 B( 16-S , 17-O ) :   1.6073 B( 16-S , 18-O ) :   1.6500
B( 16-S , 19-C ) :   0.8145 B( 19-C , 20-C ) :   1.3922 B( 19-C , 27-C ) :   1.3836
B( 20-C , 21-C ) :   1.4184 B( 20-C , 50-H ) :   0.9087 B( 21-C , 22-C ) :   1.3812
B( 21-C , 51-H ) :   0.9147 B( 22-C , 23-C ) :   1.0091 B( 22-C , 26-C ) :   1.4027
B( 23-C , 24-O ) :   1.8638 B( 23-C , 25-O ) :   1.0230 B( 25-O , 52-H ) :   0.7417
B( 26-C , 27-C ) :   1.4192 B( 26-C , 53-H ) :   0.9096 B( 27-C , 54-H ) :   0.9102
B( 28-N , 29-C ) :   1.4576 B( 29-C , 30-C ) :   0.9830 B( 29-C , 35-C ) :   1.2084
B( 30-C , 31-C ) :   1.0005 B( 30-C , 34-C ) :   0.9791 B( 30-C , 55-H ) :   0.9197
B( 31-C , 32-C ) :   0.9870 B( 31-C , 56-H ) :   0.9265 B( 31-C , 57-H ) :   0.9477
B( 32-C , 33-C ) :   1.0006 B( 32-C , 58-H ) :   0.9539 B( 32-C , 59-H ) :   0.9522
B( 33-C , 34-C ) :   1.0019 B( 33-C , 60-H ) :   0.9424 B( 33-C , 61-H ) :   0.9514
B( 34-C , 62-H ) :   0.9391 B( 34-C , 63-H ) :   0.9344 B( 35-C , 36-C ) :   1.2999
B( 35-C , 40-C ) :   1.2829 B( 36-C , 37-C ) :   1.5046 B( 36-C , 39-C ) :   0.1049
B( 36-C , 64-H ) :   0.9127 B( 37-C , 38-C ) :   1.3604 B( 37-C , 65-H ) :   0.9291
B( 38-C , 39-C ) :   1.5071 B( 38-C , 66-H ) :   0.9291 B( 39-C , 40-C ) :   1.2903
B( 39-C , 67-H ) :   0.9173

FINAL SINGLE POINT ENERGY     -2341.531804886328

DIPOLE MOMENT
-------------

Method             : SCF
Type of density    : Electron Density
Multiplicity       :   1
Irrep              :   0
Energy             : -2341.5318048863282456 Eh
Relativity type    :
Basis              : AO
                                X                 Y                 Z
Electronic contribution:    -18.505905574      19.660780826       5.204957048
Nuclear contribution   :     19.597324073     -21.894068041      -3.538744700
                        -----------------------------------------
Total Dipole Moment    :      1.091418498      -2.233287215       1.666212348
                        -----------------------------------------
Magnitude (a.u.)       :      2.992495565
Magnitude (Debye)      :      7.606319243

Rotational constants in cm-1:             0.004377             0.001511             0.001312
Rotational constants in MHz :           131.229293            45.297938            39.328075

                             ****ORCA TERMINATED NORMALLY****
TOTAL RUN TIME: 0 days 0 hours 9 minutes 47 seconds 977 msec
