                         Program Version 6.0.0  -   RELEASE  -
|  1> ! B3LYP 6-31G* SP
|  2>
|  3> * xyz -1 1
|  4> C -0.0696 -1.9434 1.5097
|  5> C -0.9687 -1.7962 0.3014
|  6> C -0.8748 -0.6581 -0.5341
|  7> N 0.0285 0.4118 -0.2355
|  8> C -0.3104 1.4023 0.7872
|  9> C -1.0759 2.5459 0.1768
| 10> C -2.4280 2.3865 -0.1606
| 11> C -3.1318 3.4356 -0.7534
| 12> C -2.4979 4.6558 -1.0105
| 13> F -3.2050 5.6530 -1.6021
| 14> C -1.1463 4.8406 -0.6657
| 15> C -0.4570 6.1483 -0.9841
| 16> F -1.2354 7.2090 -0.5544
| 17> F 0.7774 6.2394 -0.3611
| 18> F -0.2735 6.2459 -2.3527
| 19> C -0.4376 3.7719 -0.0832
| 20> S 1.5089 0.5413 -1.1299
| 21> O 1.8005 1.9830 -1.4395
| 22> O 1.3849 -0.2012 -2.4317
| 23> C 2.8162 -0.1465 -0.1758
| 24> C 3.5040 0.6469 0.7491
| 25> C 4.5245 0.0959 1.5309
| 26> C 4.8696 -1.2611 1.3966
| 27> C 5.9517 -1.8491 2.2173
| 28> O 6.5660 -1.1503 3.0656
| 29> O 6.3070 -3.1821 2.0629
| 30> C 4.1686 -2.0540 0.4708
| 31> C 3.1461 -1.5004 -0.3048
| 32> N -1.6551 -0.5583 -1.6421
| 33> C -2.5579 -1.5091 -1.9851
| 34> C -2.7205 -2.6435 -1.1862
| 35> C -3.6687 -3.6203 -1.5284
| 36> C -3.8323 -4.7505 -0.7267
| 37> C -3.0533 -4.9142 0.4183
| 38> C -2.1044 -3.9504 0.7701
| 39> C -1.9203 -2.7981 -0.0261
| 40> H -0.6840 -1.9461 2.4337
| 41> H 0.5008 -2.8933 1.4390
| 42> H 0.6747 -1.1282 1.6006
| 43> H -0.9226 0.9318 1.5877
| 44> H 0.6182 1.7670 1.2767
| 45> H -2.9368 1.4493 0.0361
| 46> H -4.1766 3.3020 -1.0095
| 47> H 0.6097 3.8873 0.1709
| 48> H 3.2487 1.6913 0.8695
| 49> H 5.0422 0.7322 2.2393
| 50> H 4.4061 -3.1029 0.3490
| 51> H 2.6089 -2.1296 -0.9996
| 52> H -3.1542 -1.3709 -2.8782
| 53> H -4.2841 -3.5080 -2.4134
| 54> H -4.5662 -5.5008 -0.9929
| 55> H -3.1868 -5.7914 1.0386
| 56> H -1.5275 -4.1161 1.6695
| 57> *
| 58>
| 59>                          ****END OF INPUT****

CARTESIAN COORDINATES (ANGSTROEM)
---------------------------------
  C     -0.069600   -1.943400    1.509700
  C     -0.968700   -1.796200    0.301400
  C     -0.874800   -0.658100   -0.534100
  N      0.028500    0.411800   -0.235500
  C     -0.310400    1.402300    0.787200
  C     -1.075900    2.545900    0.176800
  C     -2.428000    2.386500   -0.160600
  C     -3.131800    3.435600   -0.753400
  C     -2.497900    4.655800   -1.010500
  F     -3.205000    5.653000   -1.602100
  C     -1.146300    4.840600   -0.665700
  C     -0.457000    6.148300   -0.984100
  F     -1.235400    7.209000   -0.554400
  F      0.777400    6.239400   -0.361100
  F     -0.273500    6.245900   -2.352700
  C     -0.437600    3.771900   -0.083200
  S      1.508900    0.541300   -1.129900
  O      1.800500    1.983000   -1.439500
  O      1.384900   -0.201200   -2.431700
  C      2.816200   -0.146500   -0.175800
  C      3.504000    0.646900    0.749100
  C      4.524500    0.095900    1.530900
  C      4.869600   -1.261100    1.396600
  C      5.951700   -1.849100    2.217300
  O      6.566000   -1.150300    3.065600
  O      6.307000   -3.182100    2.062900
  C      4.168600   -2.054000    0.470800
  C      3.146100   -1.500400   -0.304800
  N     -1.655100   -0.558300   -1.642100
  C     -2.557900   -1.509100   -1.985100
  C     -2.720500   -2.643500   -1.186200
  C     -3.668700   -3.620300   -1.528400
  C     -3.832300   -4.750500   -0.726700
  C     -3.053300   -4.914200    0.418300
  C     -2.104400   -3.950400    0.770100
  C     -1.920300   -2.798100   -0.026100
  H     -0.684000   -1.946100    2.433700
  H      0.500800   -2.893300    1.439000
  H      0.674700   -1.128200    1.600600
  H     -0.922600    0.931800    1.587700
  H      0.618200    1.767000    1.276700
  H     -2.936800    1.449300    0.036100
  H     -4.176600    3.302000   -1.009500
  H      0.609700    3.887300    0.170900
  H      3.248700    1.691300    0.869500
  H      5.042200    0.732200    2.239300
  H      4.406100   -3.102900    0.349000
  H      2.608900   -2.129600   -0.999600
  H     -3.154200   -1.370900   -2.878200
  H     -4.284100   -3.508000   -2.413400
  H     -4.566200   -5.500800   -0.992900
  H     -3.186800   -5.791400    1.038600
  H     -1.527500   -4.116100    1.669500

 Total Charge           Charge          ....   -1
 Multiplicity           Mult            ....    1
 Number of Electrons    NEL             ....  266
 Basis Dimension        Dim             ....  542

ORBITAL ENERGIES
----------------

  NO   OCC          E(Eh)            E(eV)
   0   2.0000     -89.005776     -2421.9703
   1   2.0000     -24.655262      -670.9038
   2   2.0000     -24.651795      -670.8094
   3   2.0000     -24.648316      -670.7148
   4   2.0000     -24.648210      -670.7119
   5   2.0000     -19.037157      -518.0274
   6   2.0000     -19.034574      -517.9571
   7   2.0000     -18.909794      -514.5617
   8   2.0000     -18.887036      -513.9424
   9   2.0000     -14.288826      -388.8187
  10   2.0000     -14.264692      -388.1620
  11   2.0000     -10.371232      -282.2156
  12   2.0000     -10.221392      -278.1382
  13   2.0000     -10.193961      -277.3918
  14   2.0000     -10.169219      -276.7185
  15   2.0000     -10.161852      -276.5180
  16   2.0000     -10.151425      -276.2343
  17   2.0000     -10.146421      -276.0981
  18   2.0000     -10.146059      -276.0883
  19   2.0000     -10.141574      -275.9663
  20   2.0000     -10.141386      -275.9611
  21   2.0000     -10.140692      -275.9423
  22   2.0000     -10.140109      -275.9264
  23   2.0000     -10.138378      -275.8793
  24   2.0000     -10.137218      -275.8477
  25   2.0000     -10.136639      -275.8320
  26   2.0000     -10.136086      -275.8169
  27   2.0000     -10.134425      -275.7717
  28   2.0000     -10.122191      -275.4388
  29   2.0000     -10.117865      -275.3211
  30   2.0000     -10.100547      -274.8498
  31   2.0000     -10.096794      -274.7477
  32   2.0000     -10.095788      -274.7204
  33   2.0000     -10.079696      -274.2825
  34   2.0000     -10.077869      -274.2328
  35   2.0000     -10.076720      -274.2015
  36   2.0000      -8.041399      -218.8176
  37   2.0000      -6.006842      -163.4545
  38   2.0000      -6.004644      -163.3947
  39   2.0000      -6.003395      -163.3607
  40   2.0000      -1.212629       -32.9973
  41   2.0000      -1.160734       -31.5852
  42   2.0000      -1.138592       -30.9827
  43   2.0000      -1.135873       -30.9087
  44   2.0000      -0.993488       -27.0342
  45   2.0000      -0.892073       -24.2745
  46   2.0000      -0.872188       -23.7334
  47   2.0000      -0.845582       -23.0095
  48   2.0000      -0.819788       -22.3076
  49   2.0000      -0.808592       -22.0029
  50   2.0000      -0.803468       -21.8635
  51   2.0000      -0.762075       -20.7371
  52   2.0000      -0.746447       -20.3119
  53   2.0000      -0.727348       -19.7921
  54   2.0000      -0.717335       -19.5197
  55   2.0000      -0.707083       -19.2407
  56   2.0000      -0.700223       -19.0540
  57   2.0000      -0.682857       -18.5815
  58   2.0000      -0.669836       -18.2272
  59   2.0000      -0.648370       -17.6430
  60   2.0000      -0.642269       -17.4770
  61   2.0000      -0.631956       -17.1964
  62   2.0000      -0.623225       -16.9588
  63   2.0000      -0.590729       -16.0745
  64   2.0000      -0.584811       -15.9135
  65   2.0000      -0.566916       -15.4266
  66   2.0000      -0.555257       -15.1093
  67   2.0000      -0.541818       -14.7436
  68   2.0000      -0.535413       -14.5693
  69   2.0000      -0.508021       -13.8239
  70   2.0000      -0.506189       -13.7741
  71   2.0000      -0.502972       -13.6866
  72   2.0000      -0.502778       -13.6813
  73   2.0000      -0.495036       -13.4706
  74   2.0000      -0.473709       -12.8903
  75   2.0000      -0.465813       -12.6754
  76   2.0000      -0.459917       -12.5150
  77   2.0000      -0.443794       -12.0763
  78   2.0000      -0.441159       -12.0045
  79   2.0000      -0.432887       -11.7795
  80   2.0000      -0.419248       -11.4083
  81   2.0000      -0.416952       -11.3459
  82   2.0000      -0.409382       -11.1399
  83   2.0000      -0.404928       -11.0186
  84   2.0000      -0.390731       -10.6323
  85   2.0000      -0.387851       -10.5540
  86   2.0000      -0.386886       -10.5277
  87   2.0000      -0.383475       -10.4349
  88   2.0000      -0.380096       -10.3429
  89   2.0000      -0.379655       -10.3309
  90   2.0000      -0.370810       -10.0903
  91   2.0000      -0.369159       -10.0453
  92   2.0000      -0.361075        -9.8254
  93   2.0000      -0.354606        -9.6493
  94   2.0000      -0.350800        -9.5458
  95   2.0000      -0.349390        -9.5074
  96   2.0000      -0.344760        -9.3814
  97   2.0000      -0.340957        -9.2779
  98   2.0000      -0.337541        -9.1850
  99   2.0000      -0.335192        -9.1210
 100   2.0000      -0.331128        -9.0104
 101   2.0000      -0.329493        -8.9660
 102   2.0000      -0.323405        -8.8003
 103   2.0000      -0.322394        -8.7728
 104   2.0000      -0.320134        -8.7113
 105   2.0000      -0.314206        -8.5500
 106   2.0000      -0.308706        -8.4003
 107   2.0000      -0.297527        -8.0961
 108   2.0000      -0.296198        -8.0599
 109   2.0000      -0.292471        -7.9586
 110   2.0000      -0.291789        -7.9400
 111   2.0000      -0.283551        -7.7158
 112   2.0000      -0.277446        -7.5497
 113   2.0000      -0.249427        -6.7872
 114   2.0000      -0.243434        -6.6242
 115   2.0000      -0.233241        -6.3468
 116   2.0000      -0.230642        -6.2761
 117   2.0000      -0.217601        -5.9212
 118   2.0000      -0.213010        -5.7963
 119   2.0000      -0.206480        -5.6186
 120   2.0000      -0.204642        -5.5686
 121   2.0000      -0.198349        -5.3973
 122   2.0000      -0.189259        -5.1500
 123   2.0000      -0.188100        -5.1185
 124   2.0000      -0.183957        -5.0057
 125   2.0000      -0.181253        -4.9322
 126   2.0000      -0.175377        -4.7723
 127   2.0000      -0.160924        -4.3790
 128   2.0000      -0.154846        -4.2136
 129   2.0000      -0.133864        -3.6426
 130   2.0000      -0.063984        -1.7411
 131   2.0000      -0.041890        -1.1399
 132   2.0000      -0.025009        -0.6805
 133   0.0000      -0.002038        -0.0555
 134   0.0000       0.030086         0.8187
 135   0.0000       0.037138         1.0106
 136   0.0000       0.050578         1.3763
 137   0.0000       0.064191         1.7467

MULLIKEN ATOMIC CHARGES
-----------------------
   0 C :   -0.545115
   1 C :    0.102833
   2 C :    0.299917
   3 N :   -0.597444
   4 C :   -0.261895
   5 C :    0.186799
   6 C :   -0.125538
   7 C :   -0.211473
   8 C :    0.379930
   9 F :   -0.310822
  10 C :   -0.123104
  11 C :    0.914689
  12 F :   -0.308014
  13 F :   -0.305503
  14 F :   -0.296943
  15 C :   -0.167938
  16 S :    1.189488
  17 O :   -0.558564
  18 O :   -0.548362
  19 C :   -0.135436
  20 C :   -0.160730
  21 C :   -0.157988
  22 C :    0.104432
  23 C :    0.410809
  24 O :   -0.550798
  25 O :   -0.655678
  26 C :   -0.152244
  27 C :   -0.159010
  28 N :   -0.353786
  29 C :   -0.061925
  30 C :    0.140515
  31 C :   -0.204312
  32 C :   -0.128349
  33 C :   -0.122984
  34 C :   -0.198450
  35 C :    0.118818
  36 H :    0.147670
  37 H :    0.179676
  38 H :    0.195151
  39 H :    0.158694
  40 H :    0.173835
  41 H :    0.138451
  42 H :    0.137633
  43 H :    0.173652
  44 H :    0.136081
  45 H :    0.147883
  46 H :    0.152789
  47 H :    0.147092
  48 H :    0.143464
  49 H :    0.129435
  50 H :    0.122788
  51 H :    0.128267
  52 H :    0.141615
Sum of atomic charges:   -1.0000000

LOEWDIN ATOMIC CHARGES
----------------------
   0 C :   -0.362164
   1 C :   -0.014737
   2 C :    0.031769
   3 N :   -0.289071
   4 C :   -0.144303
   5 C :   -0.028170
   6 C :   -0.100645
   7 C :   -0.157827
   8 C :    0.127937
   9 F :   -0.102281
  10 C :   -0.101097
  11 C :    0.315776
  12 F :   -0.118566
  13 F :   -0.112019
  14 F :   -0.113164
  15 C :   -0.091457
  16 S :    1.266539
  17 O :   -0.585069
  18 O :   -0.575339
  19 C :   -0.215996
  20 C :   -0.131942
  21 C :   -0.114035
  22 C :   -0.003426
  23 C :    0.070090
  24 O :   -0.376624
  25 O :   -0.503480
  26 C :   -0.108054
  27 C :   -0.128302
  28 N :   -0.107537
  29 C :   -0.066168
  30 C :   -0.030326
  31 C :   -0.115885
  32 C :   -0.133898
  33 C :   -0.124363
  34 C :   -0.122321
  35 C :   -0.008628
  36 H :    0.130113
  37 H :    0.146944
  38 H :    0.151145
  39 H :    0.133088
  40 H :    0.139557
  41 H :    0.138298
  42 H :    0.141179
  43 H :    0.155183
  44 H :    0.134051
  45 H :    0.146980
  46 H :    0.150553
  47 H :    0.140625
  48 H :    0.133082
  49 H :    0.132631
  50 H :    0.129221
  51 H :    0.132110
  52 H :    0.140024

  Mayer bond orders larger than 0.100000
B(  0-C ,  1-C ) :   0.9970 B(  0-C , 36-H ) :   0.9280 B(  0-C , 37-H ) :   0.9245
B(  0-C , 38-H ) :   0.9234 B(  1-C ,  2-C ) :   1.4304 B(  1-C , 29-C ) :   0.1037
B(  1-C , 35-C ) :   1.2593 B(  2-C ,  3-N ) :   0.9117 B(  2-C , 28-N ) :   1.2858
B(  3-N ,  4-C ) :   0.9416 B(  3-N , 16-S ) :   0.7720 B(  4-C ,  5-C ) :   0.9419
B(  4-C , 39-H ) :   0.9243 B(  4-C , 40-H ) :   0.9200 B(  5-C ,  6-C ) :   1.4292
B(  5-C , 15-C ) :   1.4286 B(  6-C ,  7-C ) :   1.4226 B(  6-C , 41-H ) :   0.9194
B(  7-C ,  8-C ) :   1.3874 B(  7-C , 42-H ) :   0.9210 B(  8-C ,  9-F ) :   0.9433
B(  8-C , 10-C ) :   1.3307 B( 10-C , 11-C ) :   0.9647 B( 10-C , 15-C ) :   1.3911
B( 11-C , 12-F ) :   0.9537 B( 11-C , 13-F ) :   0.9470 B( 11-C , 14-F ) :   0.9849
B( 15-C , 43-H ) :   0.9022 B( 16-S , 17-O ) :   1.6213 B( 16-S , 18-O ) :   1.6385
B( 16-S , 19-C ) :   0.8441 B( 19-C , 20-C ) :   1.3620 B( 19-C , 27-C ) :   1.3627
B( 20-C , 21-C ) :   1.4098 B( 20-C , 44-H ) :   0.9204 B( 21-C , 22-C ) :   1.3906
B( 21-C , 45-H ) :   0.9069 B( 22-C , 23-C ) :   0.9260 B( 22-C , 26-C ) :   1.3991
B( 23-C , 24-O ) :   1.7091 B( 23-C , 25-O ) :   1.5511 B( 24-O , 25-O ) :   0.1477
B( 26-C , 27-C ) :   1.4043 B( 26-C , 46-H ) :   0.9014 B( 27-C , 47-H ) :   0.9197
B( 28-N , 29-C ) :   1.5004 B( 29-C , 30-C ) :   1.2301 B( 29-C , 48-H ) :   0.9286
B( 30-C , 31-C ) :   1.2846 B( 30-C , 35-C ) :   1.2917 B( 31-C , 32-C ) :   1.5128
B( 31-C , 34-C ) :   0.1067 B( 31-C , 49-H ) :   0.9245 B( 32-C , 33-C ) :   1.3525
B( 32-C , 50-H ) :   0.9314 B( 33-C , 34-C ) :   1.5099 B( 33-C , 51-H ) :   0.9306
B( 34-C , 35-C ) :   1.2946 B( 34-C , 52-H ) :   0.9155

FINAL SINGLE POINT ENERGY     -2169.780193060893

DIPOLE MOMENT
-------------

Method             : SCF
Type of density    : Electron Density
Multiplicity       :   1
Irrep              :   0
Energy             : -2169.7801930608929979 Eh
Relativity type    :
Basis              : AO
                                X                 Y                 Z
Electronic contribution:     -3.029898590      50.716470315     -15.005751517
Nuclear contribution   :     -6.946787602     -49.013213840      13.565326103
                        -----------------------------------------
Total Dipole Moment    :     -9.976686192       1.703256475      -1.440425415
                        -----------------------------------------
Magnitude (a.u.)       :     10.223021831
Magnitude (Debye)      :     25.984856444

Rotational constants in cm-1:             0.003581             0.002359             0.001544
Rotational constants in MHz :           107.357375            70.727663            46.286804

                             ****ORCA TERMINATED NORMALLY****
TOTAL RUN TIME: 0 days 0 hours 11 minutes 1 seconds 348 msec
