                         Program Version 6.0.0  -   RELEASE  -
|  1> ! B3LYP 6-31G* SP
|  2>
|  3> * xyz -1 1
|  4> O -6.2215 5.8755 -2.2664
|  5> C -6.2484 4.6190 -2.1771
|  6> O -7.1787 3.9102 -2.9282
|  7> C -5.3053 3.9073 -1.2868
|  8> C -5.3467 2.5057 -1.1832
|  9> C -4.4560 1.8311 -0.3433
| 10> C -3.5151 2.5458 0.4074
| 11> S -2.3780 1.6833 1.4358
| 12> O -3.0951 0.5764 2.1577
| 13> O -1.7875 2.6106 2.4613
| 14> N -1.1105 1.0243 0.4512
| 15> C -0.1613 1.9294 -0.2003
| 16> C 1.2494 1.5028 0.0986
| 17> C 1.8710 0.5261 -0.6870
| 18> C 3.1453 0.0604 -0.3610
| 19> C 3.8378 0.5664 0.7621
| 20> C 5.2196 0.0537 1.1571
| 21> F 5.1244 -0.5264 2.4146
| 22> F 6.0818 1.1333 1.2444
| 23> C 5.8388 -0.9295 0.1364
| 24> C 6.8906 -1.8858 0.6808
| 25> C 5.5068 -2.4042 0.3176
| 26> C 3.1961 1.5484 1.5571
| 27> Cl 3.9470 2.2198 3.0039
| 28> C 1.9157 2.0044 1.2225
| 29> C -1.2540 -0.3127 -0.0408
| 30> N -1.8516 -0.4777 -1.2493
| 31> C -2.0205 -1.6889 -1.8245
| 32> C -1.5620 -2.8383 -1.1835
| 33> C -1.7296 -4.0924 -1.7915
| 34> C -1.2653 -5.2457 -1.1618
| 35> C -0.6301 -5.1572 0.0748
| 36> C -0.4572 -3.9159 0.6928
| 37> C -0.9235 -2.7279 0.0795
| 38> C -0.7686 -1.4412 0.6793
| 39> C -0.0801 -1.3011 2.0364
| 40> F -0.7622 -2.0471 2.9798
| 41> F 1.2211 -1.7597 1.9416
| 42> F -0.0291 -0.0038 2.5025
| 43> C -3.4615 3.9408 0.3025
| 44> C -4.3520 4.6184 -0.5356
| 45> H -6.0653 1.9297 -1.7520
| 46> H -4.4966 0.7508 -0.2819
| 47> H -0.3366 1.9280 -1.2976
| 48> H -0.3208 2.9737 0.1439
| 49> H 1.3581 0.1079 -1.5444
| 50> H 3.5703 -0.7056 -0.9935
| 51> H 6.0227 -0.5957 -0.9083
| 52> H 7.0866 -1.8489 1.7730
| 53> H 7.6771 -2.1693 -0.0496
| 54> H 4.8690 -2.6630 1.1899
| 55> H 5.4756 -2.9833 -0.6291
| 56> H 1.4302 2.7402 1.8521
| 57> H -2.5089 -1.7490 -2.7893
| 58> H -2.2182 -4.1799 -2.7551
| 59> H -1.3959 -6.2107 -1.6350
| 60> H -0.2680 -6.0556 0.5585
| 61> H 0.0467 -3.9102 1.6476
| 62> H -2.7289 4.5057 0.8644
| 63> H -4.2911 5.6978 -0.5980
| 64> *
| 65>
| 66>                          ****END OF INPUT****

CARTESIAN COORDINATES (ANGSTROEM)
---------------------------------
  O     -6.221500    5.875500   -2.266400
  C     -6.248400    4.619000   -2.177100
  O     -7.178700    3.910200   -2.928200
  C     -5.305300    3.907300   -1.286800
  C     -5.346700    2.505700   -1.183200
  C     -4.456000    1.831100   -0.343300
  C     -3.515100    2.545800    0.407400
  S     -2.378000    1.683300    1.435800
  O     -3.095100    0.576400    2.157700
  O     -1.787500    2.610600    2.461300
  N     -1.110500    1.024300    0.451200
  C     -0.161300    1.929400   -0.200300
  C      1.249400    1.502800    0.098600
  C      1.871000    0.526100   -0.687000
  C      3.145300    0.060400   -0.361000
  C      3.837800    0.566400    0.762100
  C      5.219600    0.053700    1.157100
  F      5.124400   -0.526400    2.414600
  F      6.081800    1.133300    1.244400
  C      5.838800   -0.929500    0.136400
  C      6.890600   -1.885800    0.680800
  C      5.506800   -2.404200    0.317600
  C      3.196100    1.548400    1.557100
  Cl     3.947000    2.219800    3.003900
  C      1.915700    2.004400    1.222500
  C     -1.254000   -0.312700   -0.040800
  N     -1.851600   -0.477700   -1.249300
  C     -2.020500   -1.688900   -1.824500
  C     -1.562000   -2.838300   -1.183500
  C     -1.729600   -4.092400   -1.791500
  C     -1.265300   -5.245700   -1.161800
  C     -0.630100   -5.157200    0.074800
  C     -0.457200   -3.915900    0.692800
  C     -0.923500   -2.727900    0.079500
  C     -0.768600   -1.441200    0.679300
  C     -0.080100   -1.301100    2.036400
  F     -0.762200   -2.047100    2.979800
  F      1.221100   -1.759700    1.941600
  F     -0.029100   -0.003800    2.502500
  C     -3.461500    3.940800    0.302500
  C     -4.352000    4.618400   -0.535600
  H     -6.065300    1.929700   -1.752000
  H     -4.496600    0.750800   -0.281900
  H     -0.336600    1.928000   -1.297600
  H     -0.320800    2.973700    0.143900
  H      1.358100    0.107900   -1.544400
  H      3.570300   -0.705600   -0.993500
  H      6.022700   -0.595700   -0.908300
  H      7.086600   -1.848900    1.773000
  H      7.677100   -2.169300   -0.049600
  H      4.869000   -2.663000    1.189900
  H      5.475600   -2.983300   -0.629100
  H      1.430200    2.740200    1.852100
  H     -2.508900   -1.749000   -2.789300
  H     -2.218200   -4.179900   -2.755100
  H     -1.395900   -6.210700   -1.635000
  H     -0.268000   -6.055600    0.558500
  H      0.046700   -3.910200    1.647600
  H     -2.728900    4.505700    0.864400
  H     -4.291100    5.697800   -0.598000

 Total Charge           Charge          ....   -1
 Multiplicity           Mult            ....    1
 Number of Electrons    NEL             ....  312
 Basis Dimension        Dim             ....  620

ORBITAL ENERGIES
----------------

  NO   OCC          E(Eh)            E(eV)
   0   2.0000    -101.463946     -2760.9743
   1   2.0000     -89.004859     -2421.9453
   2   2.0000     -24.655600      -670.9130
   3   2.0000     -24.650430      -670.7723
   4   2.0000     -24.645469      -670.6373
   5   2.0000     -24.643519      -670.5842
   6   2.0000     -24.630885      -670.2405
   7   2.0000     -19.036953      -518.0218
   8   2.0000     -19.036005      -517.9960
   9   2.0000     -18.912913      -514.6465
  10   2.0000     -18.894466      -514.1446
  11   2.0000     -14.290178      -388.8555
  12   2.0000     -14.278886      -388.5482
  13   2.0000     -10.372229      -282.2427
  14   2.0000     -10.298141      -280.2267
  15   2.0000     -10.213534      -277.9244
  16   2.0000     -10.193137      -277.3693
  17   2.0000     -10.176862      -276.9265
  18   2.0000     -10.164964      -276.6027
  19   2.0000     -10.164228      -276.5827
  20   2.0000     -10.163774      -276.5703
  21   2.0000     -10.156434      -276.3706
  22   2.0000     -10.153904      -276.3018
  23   2.0000     -10.152145      -276.2539
  24   2.0000     -10.148051      -276.1425
  25   2.0000     -10.147698      -276.1329
  26   2.0000     -10.146332      -276.0957
  27   2.0000     -10.145132      -276.0631
  28   2.0000     -10.144181      -276.0372
  29   2.0000     -10.143722      -276.0247
  30   2.0000     -10.143598      -276.0213
  31   2.0000     -10.142901      -276.0024
  32   2.0000     -10.135270      -275.7947
  33   2.0000     -10.134252      -275.7670
  34   2.0000     -10.117380      -275.3079
  35   2.0000     -10.098029      -274.7813
  36   2.0000     -10.095249      -274.7057
  37   2.0000     -10.093171      -274.6491
  38   2.0000     -10.075927      -274.1799
  39   2.0000     -10.075466      -274.1674
  40   2.0000     -10.073958      -274.1263
  41   2.0000      -9.395863      -255.6744
  42   2.0000      -8.040731      -218.7994
  43   2.0000      -7.159093      -194.8088
  44   2.0000      -7.149509      -194.5480
  45   2.0000      -7.148889      -194.5312
  46   2.0000      -6.006198      -163.4370
  47   2.0000      -6.003974      -163.3764
  48   2.0000      -6.002612      -163.3394
  49   2.0000      -1.213998       -33.0346
  50   2.0000      -1.177289       -32.0357
  51   2.0000      -1.140130       -31.0245
  52   2.0000      -1.132822       -30.8257
  53   2.0000      -1.123380       -30.5687
  54   2.0000      -0.994020       -27.0487
  55   2.0000      -0.904347       -24.6085
  56   2.0000      -0.873002       -23.7556
  57   2.0000      -0.852449       -23.1963
  58   2.0000      -0.829795       -22.5799
  59   2.0000      -0.821954       -22.3665
  60   2.0000      -0.814680       -22.1686
  61   2.0000      -0.813443       -22.1349
  62   2.0000      -0.778109       -21.1734
  63   2.0000      -0.758681       -20.6448
  64   2.0000      -0.755333       -20.5536
  65   2.0000      -0.732123       -19.9221
  66   2.0000      -0.723304       -19.6821
  67   2.0000      -0.704002       -19.1569
  68   2.0000      -0.692432       -18.8420
  69   2.0000      -0.680775       -18.5248
  70   2.0000      -0.672203       -18.2916
  71   2.0000      -0.658709       -17.9244
  72   2.0000      -0.644099       -17.5268
  73   2.0000      -0.638881       -17.3848
  74   2.0000      -0.614441       -16.7198
  75   2.0000      -0.596355       -16.2276
  76   2.0000      -0.594651       -16.1813
  77   2.0000      -0.570195       -15.5158
  78   2.0000      -0.564283       -15.3549
  79   2.0000      -0.554820       -15.0974
  80   2.0000      -0.548067       -14.9137
  81   2.0000      -0.533381       -14.5140
  82   2.0000      -0.526313       -14.3217
  83   2.0000      -0.508433       -13.8352
  84   2.0000      -0.506073       -13.7710
  85   2.0000      -0.504300       -13.7227
  86   2.0000      -0.502695       -13.6790
  87   2.0000      -0.493385       -13.4257
  88   2.0000      -0.487874       -13.2757
  89   2.0000      -0.475027       -12.9262
  90   2.0000      -0.471368       -12.8266
  91   2.0000      -0.468647       -12.7525
  92   2.0000      -0.462383       -12.5821
  93   2.0000      -0.446395       -12.1470
  94   2.0000      -0.441144       -12.0041
  95   2.0000      -0.429957       -11.6997
  96   2.0000      -0.427912       -11.6441
  97   2.0000      -0.421349       -11.4655
  98   2.0000      -0.413736       -11.2583
  99   2.0000      -0.406512       -11.0617
 100   2.0000      -0.398257       -10.8371
 101   2.0000      -0.394095       -10.7239
 102   2.0000      -0.389970       -10.6116
 103   2.0000      -0.385663       -10.4944
 104   2.0000      -0.381067       -10.3694
 105   2.0000      -0.377637       -10.2760
 106   2.0000      -0.376740       -10.2516
 107   2.0000      -0.374276       -10.1846
 108   2.0000      -0.369870       -10.0647
 109   2.0000      -0.363196        -9.8831
 110   2.0000      -0.360998        -9.8233
 111   2.0000      -0.358072        -9.7436
 112   2.0000      -0.349083        -9.4990
 113   2.0000      -0.345943        -9.4136
 114   2.0000      -0.342575        -9.3219
 115   2.0000      -0.339389        -9.2352
 116   2.0000      -0.337276        -9.1777
 117   2.0000      -0.335371        -9.1259
 118   2.0000      -0.330641        -8.9972
 119   2.0000      -0.330110        -8.9827
 120   2.0000      -0.328765        -8.9461
 121   2.0000      -0.325312        -8.8522
 122   2.0000      -0.320153        -8.7118
 123   2.0000      -0.319571        -8.6960
 124   2.0000      -0.318412        -8.6644
 125   2.0000      -0.314679        -8.5629
 126   2.0000      -0.303390        -8.2557
 127   2.0000      -0.299057        -8.1378
 128   2.0000      -0.297671        -8.1000
 129   2.0000      -0.295070        -8.0293
 130   2.0000      -0.285087        -7.7576
 131   2.0000      -0.275433        -7.4949
 132   2.0000      -0.269214        -7.3257
 133   2.0000      -0.251069        -6.8319
 134   2.0000      -0.249619        -6.7925
 135   2.0000      -0.248748        -6.7688
 136   2.0000      -0.246134        -6.6976
 137   2.0000      -0.241032        -6.5588
 138   2.0000      -0.237082        -6.4513
 139   2.0000      -0.234494        -6.3809
 140   2.0000      -0.221796        -6.0354
 141   2.0000      -0.216978        -5.9043
 142   2.0000      -0.206628        -5.6226
 143   2.0000      -0.202945        -5.5224
 144   2.0000      -0.200481        -5.4554
 145   2.0000      -0.196566        -5.3488
 146   2.0000      -0.191975        -5.2239
 147   2.0000      -0.187805        -5.1104
 148   2.0000      -0.186062        -5.0630
 149   2.0000      -0.178148        -4.8477
 150   2.0000      -0.174154        -4.7390
 151   2.0000      -0.149939        -4.0801
 152   2.0000      -0.132212        -3.5977
 153   2.0000      -0.066616        -1.8127
 154   2.0000      -0.045928        -1.2498
 155   2.0000      -0.028531        -0.7764
 156   0.0000      -0.015845        -0.4312
 157   0.0000       0.018722         0.5094
 158   0.0000       0.029517         0.8032
 159   0.0000       0.045087         1.2269
 160   0.0000       0.059257         1.6125

MULLIKEN ATOMIC CHARGES
-----------------------
   0 O :   -0.545688
   1 C :    0.417656
   2 O :   -0.648894
   3 C :    0.103042
   4 C :   -0.152787
   5 C :   -0.139643
   6 C :   -0.138927
   7 S :    1.204843
   8 O :   -0.566711
   9 O :   -0.564721
  10 N :   -0.592248
  11 C :   -0.236733
  12 C :    0.179029
  13 C :   -0.183896
  14 C :   -0.155293
  15 C :    0.062387
  16 C :    0.672981
  17 F :   -0.331548
  18 F :   -0.335067
  19 C :   -0.199960
  20 C :   -0.319739
  21 C :   -0.308988
  22 C :   -0.114263
  23 Cl:   -0.001690
  24 C :   -0.165006
  25 C :    0.328359
  26 N :   -0.377131
  27 C :   -0.048496
  28 C :    0.135181
  29 C :   -0.204683
  30 C :   -0.125647
  31 C :   -0.123639
  32 C :   -0.189660
  33 C :    0.114603
  34 C :   -0.080237
  35 C :    0.943714
  36 F :   -0.304204
  37 F :   -0.311476
  38 F :   -0.275825
  39 C :   -0.159542
  40 C :   -0.157062
  41 H :    0.150779
  42 H :    0.140144
  43 H :    0.171964
  44 H :    0.186891
  45 H :    0.138353
  46 H :    0.139372
  47 H :    0.160066
  48 H :    0.169528
  49 H :    0.143967
  50 H :    0.175238
  51 H :    0.143766
  52 H :    0.180001
  53 H :    0.160596
  54 H :    0.136915
  55 H :    0.126661
  56 H :    0.131367
  57 H :    0.153086
  58 H :    0.142708
  59 H :    0.146208
Sum of atomic charges:   -1.0000000

LOEWDIN ATOMIC CHARGES
----------------------
   0 O :   -0.369601
   1 C :    0.076105
   2 O :   -0.494507
   3 C :   -0.005722
   4 C :   -0.106819
   5 C :   -0.117460
   6 C :   -0.213151
   7 S :    1.260532
   8 O :   -0.584339
   9 O :   -0.586948
  10 N :   -0.287829
  11 C :   -0.144291
  12 C :   -0.014538
  13 C :   -0.136575
  14 C :   -0.120483
  15 C :   -0.059837
  16 C :    0.239000
  17 F :   -0.128622
  18 F :   -0.133215
  19 C :   -0.164100
  20 C :   -0.251342
  21 C :   -0.255965
  22 C :   -0.067142
  23 Cl:    0.036279
  24 C :   -0.118063
  25 C :    0.058519
  26 N :   -0.123858
  27 C :   -0.048516
  28 C :   -0.030004
  29 C :   -0.116456
  30 C :   -0.130373
  31 C :   -0.121225
  32 C :   -0.123192
  33 C :    0.008680
  34 C :   -0.060849
  35 C :    0.315793
  36 F :   -0.109453
  37 F :   -0.116808
  38 F :   -0.079778
  39 C :   -0.127895
  40 C :   -0.114737
  41 H :    0.149547
  42 H :    0.138192
  43 H :    0.133218
  44 H :    0.152221
  45 H :    0.136351
  46 H :    0.140880
  47 H :    0.142218
  48 H :    0.142573
  49 H :    0.130760
  50 H :    0.144636
  51 H :    0.129700
  52 H :    0.157775
  53 H :    0.140925
  54 H :    0.136344
  55 H :    0.131152
  56 H :    0.133840
  57 H :    0.143751
  58 H :    0.138527
  59 H :    0.146175

  Mayer bond orders larger than 0.100000
B(  0-O ,  1-C ) :   1.7078 B(  0-O ,  2-O ) :   0.1432 B(  1-C ,  2-O ) :   1.5346
B(  1-C ,  3-C ) :   0.9286 B(  3-C ,  4-C ) :   1.3986 B(  3-C , 40-C ) :   1.3943
B(  4-C ,  5-C ) :   1.4124 B(  4-C , 41-H ) :   0.9029 B(  5-C ,  6-C ) :   1.3618
B(  5-C , 42-H ) :   0.9194 B(  6-C ,  7-S ) :   0.8447 B(  6-C , 39-C ) :   1.3730
B(  7-S ,  8-O ) :   1.6249 B(  7-S ,  9-O ) :   1.6187 B(  7-S , 10-N ) :   0.7572
B( 10-N , 11-C ) :   0.9348 B( 10-N , 25-C ) :   0.9502 B( 11-C , 12-C ) :   0.9539
B( 11-C , 43-H ) :   0.9167 B( 11-C , 44-H ) :   0.9129 B( 12-C , 13-C ) :   1.4352
B( 12-C , 24-C ) :   1.4297 B( 13-C , 14-C ) :   1.4072 B( 13-C , 45-H ) :   0.9199
B( 14-C , 15-C ) :   1.4273 B( 14-C , 46-H ) :   0.9138 B( 15-C , 16-C ) :   0.9656
B( 15-C , 22-C ) :   1.3550 B( 16-C , 17-F ) :   0.8700 B( 16-C , 18-F ) :   0.8787
B( 16-C , 19-C ) :   1.0094 B( 19-C , 20-C ) :   0.9425 B( 19-C , 21-C ) :   0.9240
B( 19-C , 47-H ) :   0.9242 B( 20-C , 21-C ) :   0.9627 B( 20-C , 48-H ) :   0.9351
B( 20-C , 49-H ) :   0.9450 B( 21-C , 50-H ) :   0.9352 B( 21-C , 51-H ) :   0.9444
B( 22-C , 23-Cl) :   1.0417 B( 22-C , 24-C ) :   1.3953 B( 24-C , 52-H ) :   0.9078
B( 25-C , 26-N ) :   1.2843 B( 25-C , 34-C ) :   1.4058 B( 26-N , 27-C ) :   1.4820
B( 27-C , 28-C ) :   1.2361 B( 27-C , 53-H ) :   0.9246 B( 28-C , 29-C ) :   1.2829
B( 28-C , 33-C ) :   1.2927 B( 29-C , 30-C ) :   1.5113 B( 29-C , 32-C ) :   0.1022
B( 29-C , 54-H ) :   0.9235 B( 30-C , 31-C ) :   1.3547 B( 30-C , 55-H ) :   0.9306
B( 31-C , 32-C ) :   1.5039 B( 31-C , 56-H ) :   0.9301 B( 32-C , 33-C ) :   1.3063
B( 32-C , 57-H ) :   0.9013 B( 33-C , 34-C ) :   1.2508 B( 34-C , 35-C ) :   0.9539
B( 35-C , 36-F ) :   0.9289 B( 35-C , 37-F ) :   0.9219 B( 35-C , 38-F ) :   0.9357
B( 39-C , 40-C ) :   1.4069 B( 39-C , 58-H ) :   0.9201 B( 40-C , 59-H ) :   0.9081

FINAL SINGLE POINT ENERGY     -2845.119258273030

DIPOLE MOMENT
-------------

Method             : SCF
Type of density    : Electron Density
Multiplicity       :   1
Irrep              :   0
Energy             : -2845.1192582730304821 Eh
Relativity type    :
Basis              : AO
                                X                 Y                 Z
Electronic contribution:     11.946557692       8.523258194      28.188872557
Nuclear contribution   :     -2.342783384     -16.467304095     -27.051262437
                        -----------------------------------------
Total Dipole Moment    :      9.603774307      -7.944045901       1.137610120
                        -----------------------------------------
Magnitude (a.u.)       :     12.515370670
Magnitude (Debye)      :     31.811544138

Rotational constants in cm-1:             0.003886             0.001585             0.001305
Rotational constants in MHz :           116.491511            47.525932            39.115910

                             ****ORCA TERMINATED NORMALLY****
TOTAL RUN TIME: 0 days 0 hours 12 minutes 32 seconds 457 msec
