                         Program Version 6.0.0  -   RELEASE  -
|  1> ! B3LYP 6-31G* SP
|  2>
|  3> * xyz 0 1
|  4> C -2.9424 -2.8950 0.2844
|  5> N -3.7393 -1.6606 0.1383
|  6> C -3.2405 -0.4749 0.6025
|  7> O -2.1035 -0.4661 1.1458
|  8> C -3.9821 0.7240 0.4662
|  9> C -3.5355 1.9964 0.9660
| 10> C -2.2272 2.2208 1.7050
| 11> C -1.0596 2.2353 0.7588
| 12> O -1.1224 2.9328 -0.2897
| 13> N 0.1408 1.5199 1.0909
| 14> C 1.2083 1.2496 0.1713
| 15> N 2.3598 0.6590 0.5536
| 16> C 3.2145 0.4610 -0.4900
| 17> C 4.5414 -0.1800 -0.2912
| 18> C 4.8275 -0.8328 0.9195
| 19> C 6.0681 -1.4395 1.1250
| 20> C 7.0567 -1.4099 0.1357
| 21> O 8.2758 -2.0484 0.4279
| 22> C 9.4146 -2.1463 -0.4239
| 23> F 9.9022 -0.8860 -0.7195
| 24> F 10.4006 -2.8560 0.2334
| 25> F 9.0876 -2.8207 -1.5866
| 26> C 6.7802 -0.7495 -1.0828
| 27> F 7.6926 -0.6741 -2.0814
| 28> C 5.5357 -0.1424 -1.2863
| 29> C 2.7223 0.8915 -1.7272
| 30> S 1.1864 1.5322 -1.4872
| 31> C -4.3272 3.1350 0.7497
| 32> C -5.5404 3.0473 0.0885
| 33> C -5.9940 1.8245 -0.3820
| 34> C -5.2338 0.6426 -0.2107
| 35> N -5.6846 -0.5669 -0.6985
| 36> C -6.9792 -0.6544 -1.4104
| 37> C -4.9310 -1.7013 -0.5312
| 38> O -5.3358 -2.8017 -1.0049
| 39> H -2.3391 -2.8809 1.2173
| 40> H -2.2636 -3.0055 -0.5876
| 41> H -3.5919 -3.7933 0.3577
| 42> H -2.0996 1.4674 2.5090
| 43> H -2.2354 3.1955 2.2397
| 44> H 0.2400 1.1463 2.0616
| 45> H 4.0890 -0.8831 1.7098
| 46> H 6.2637 -1.9402 2.0651
| 47> H 5.3664 0.3690 -2.2233
| 48> H 3.2119 0.8128 -2.6871
| 49> H -4.0042 4.1086 1.0985
| 50> H -6.1367 3.9383 -0.0622
| 51> H -6.9481 1.8274 -0.8884
| 52> H -6.9537 -0.0194 -2.3216
| 53> H -7.2327 -1.6818 -1.7428
| 54> H -7.8024 -0.3266 -0.7403
| 55> *
| 56>
| 57>                          ****END OF INPUT****

CARTESIAN COORDINATES (ANGSTROEM)
---------------------------------
  C     -2.942400   -2.895000    0.284400
  N     -3.739300   -1.660600    0.138300
  C     -3.240500   -0.474900    0.602500
  O     -2.103500   -0.466100    1.145800
  C     -3.982100    0.724000    0.466200
  C     -3.535500    1.996400    0.966000
  C     -2.227200    2.220800    1.705000
  C     -1.059600    2.235300    0.758800
  O     -1.122400    2.932800   -0.289700
  N      0.140800    1.519900    1.090900
  C      1.208300    1.249600    0.171300
  N      2.359800    0.659000    0.553600
  C      3.214500    0.461000   -0.490000
  C      4.541400   -0.180000   -0.291200
  C      4.827500   -0.832800    0.919500
  C      6.068100   -1.439500    1.125000
  C      7.056700   -1.409900    0.135700
  O      8.275800   -2.048400    0.427900
  C      9.414600   -2.146300   -0.423900
  F      9.902200   -0.886000   -0.719500
  F     10.400600   -2.856000    0.233400
  F      9.087600   -2.820700   -1.586600
  C      6.780200   -0.749500   -1.082800
  F      7.692600   -0.674100   -2.081400
  C      5.535700   -0.142400   -1.286300
  C      2.722300    0.891500   -1.727200
  S      1.186400    1.532200   -1.487200
  C     -4.327200    3.135000    0.749700
  C     -5.540400    3.047300    0.088500
  C     -5.994000    1.824500   -0.382000
  C     -5.233800    0.642600   -0.210700
  N     -5.684600   -0.566900   -0.698500
  C     -6.979200   -0.654400   -1.410400
  C     -4.931000   -1.701300   -0.531200
  O     -5.335800   -2.801700   -1.004900
  H     -2.339100   -2.880900    1.217300
  H     -2.263600   -3.005500   -0.587600
  H     -3.591900   -3.793300    0.357700
  H     -2.099600    1.467400    2.509000
  H     -2.235400    3.195500    2.239700
  H      0.240000    1.146300    2.061600
  H      4.089000   -0.883100    1.709800
  H      6.263700   -1.940200    2.065100
  H      5.366400    0.369000   -2.223300
  H      3.211900    0.812800   -2.687100
  H     -4.004200    4.108600    1.098500
  H     -6.136700    3.938300   -0.062200
  H     -6.948100    1.827400   -0.888400
  H     -6.953700   -0.019400   -2.321600
  H     -7.232700   -1.681800   -1.742800
  H     -7.802400   -0.326600   -0.740300

 Total Charge           Charge          ....    0
 Multiplicity           Mult            ....    1
 Number of Electrons    NEL             ....  260
 Basis Dimension        Dim             ....  526

ORBITAL ENERGIES
----------------

  NO   OCC          E(Eh)            E(eV)
   0   2.0000     -88.898039     -2419.0386
   1   2.0000     -24.732202      -672.9974
   2   2.0000     -24.725451      -672.8137
   3   2.0000     -24.725297      -672.8095
   4   2.0000     -24.707289      -672.3195
   5   2.0000     -19.209024      -522.7041
   6   2.0000     -19.128419      -520.5107
   7   2.0000     -19.119705      -520.2736
   8   2.0000     -19.113148      -520.0952
   9   2.0000     -14.406814      -392.0293
  10   2.0000     -14.401013      -391.8715
  11   2.0000     -14.386700      -391.4820
  12   2.0000     -14.326704      -389.8494
  13   2.0000     -10.494971      -285.5827
  14   2.0000     -10.329330      -281.0754
  15   2.0000     -10.309057      -280.5237
  16   2.0000     -10.300396      -280.2880
  17   2.0000     -10.284985      -279.8687
  18   2.0000     -10.279683      -279.7244
  19   2.0000     -10.270024      -279.4616
  20   2.0000     -10.263406      -279.2815
  21   2.0000     -10.236911      -278.5605
  22   2.0000     -10.229749      -278.3656
  23   2.0000     -10.223023      -278.1826
  24   2.0000     -10.222243      -278.1614
  25   2.0000     -10.218298      -278.0540
  26   2.0000     -10.210488      -277.8415
  27   2.0000     -10.208253      -277.7807
  28   2.0000     -10.204899      -277.6894
  29   2.0000     -10.204795      -277.6866
  30   2.0000     -10.201658      -277.6012
  31   2.0000     -10.197015      -277.4749
  32   2.0000     -10.196862      -277.4707
  33   2.0000     -10.196787      -277.4687
  34   2.0000     -10.188388      -277.2401
  35   2.0000      -7.974274      -216.9910
  36   2.0000      -5.937406      -161.5650
  37   2.0000      -5.933167      -161.4497
  38   2.0000      -5.931235      -161.3971
  39   2.0000      -1.292979       -35.1837
  40   2.0000      -1.222367       -33.2623
  41   2.0000      -1.212503       -32.9939
  42   2.0000      -1.211932       -32.9783
  43   2.0000      -1.077154       -29.3109
  44   2.0000      -1.072987       -29.1975
  45   2.0000      -1.030399       -28.0386
  46   2.0000      -1.027369       -27.9561
  47   2.0000      -0.974417       -26.5152
  48   2.0000      -0.972456       -26.4619
  49   2.0000      -0.944920       -25.7126
  50   2.0000      -0.909424       -24.7467
  51   2.0000      -0.873907       -23.7802
  52   2.0000      -0.865606       -23.5543
  53   2.0000      -0.805589       -21.9212
  54   2.0000      -0.802236       -21.8299
  55   2.0000      -0.792280       -21.5590
  56   2.0000      -0.784705       -21.3529
  57   2.0000      -0.754463       -20.5300
  58   2.0000      -0.750065       -20.4103
  59   2.0000      -0.738961       -20.1081
  60   2.0000      -0.726231       -19.7618
  61   2.0000      -0.712866       -19.3981
  62   2.0000      -0.690748       -18.7962
  63   2.0000      -0.661219       -17.9927
  64   2.0000      -0.657286       -17.8857
  65   2.0000      -0.637094       -17.3362
  66   2.0000      -0.635036       -17.2802
  67   2.0000      -0.623767       -16.9736
  68   2.0000      -0.607737       -16.5374
  69   2.0000      -0.589356       -16.0372
  70   2.0000      -0.584670       -15.9097
  71   2.0000      -0.584063       -15.8932
  72   2.0000      -0.579852       -15.7786
  73   2.0000      -0.573667       -15.6103
  74   2.0000      -0.557995       -15.1838
  75   2.0000      -0.550277       -14.9738
  76   2.0000      -0.525676       -14.3044
  77   2.0000      -0.517339       -14.0775
  78   2.0000      -0.511809       -13.9270
  79   2.0000      -0.507640       -13.8136
  80   2.0000      -0.500775       -13.6268
  81   2.0000      -0.493935       -13.4406
  82   2.0000      -0.490690       -13.3524
  83   2.0000      -0.477656       -12.9977
  84   2.0000      -0.473695       -12.8899
  85   2.0000      -0.467925       -12.7329
  86   2.0000      -0.465570       -12.6688
  87   2.0000      -0.464378       -12.6364
  88   2.0000      -0.459183       -12.4950
  89   2.0000      -0.452970       -12.3259
  90   2.0000      -0.452111       -12.3026
  91   2.0000      -0.451503       -12.2860
  92   2.0000      -0.444803       -12.1037
  93   2.0000      -0.442842       -12.0503
  94   2.0000      -0.431847       -11.7511
  95   2.0000      -0.430866       -11.7245
  96   2.0000      -0.429213       -11.6795
  97   2.0000      -0.423676       -11.5288
  98   2.0000      -0.422886       -11.5073
  99   2.0000      -0.416661       -11.3379
 100   2.0000      -0.412970       -11.2375
 101   2.0000      -0.409014       -11.1298
 102   2.0000      -0.404797       -11.0151
 103   2.0000      -0.403566       -10.9816
 104   2.0000      -0.398244       -10.8368
 105   2.0000      -0.395616       -10.7652
 106   2.0000      -0.394677       -10.7397
 107   2.0000      -0.393526       -10.7084
 108   2.0000      -0.388653       -10.5758
 109   2.0000      -0.380479       -10.3534
 110   2.0000      -0.377257       -10.2657
 111   2.0000      -0.375967       -10.2306
 112   2.0000      -0.367278        -9.9941
 113   2.0000      -0.365655        -9.9500
 114   2.0000      -0.358039        -9.7427
 115   2.0000      -0.347444        -9.4544
 116   2.0000      -0.341911        -9.3039
 117   2.0000      -0.318593        -8.6694
 118   2.0000      -0.305715        -8.3189
 119   2.0000      -0.284431        -7.7398
 120   2.0000      -0.279001        -7.5920
 121   2.0000      -0.272221        -7.4075
 122   2.0000      -0.270747        -7.3674
 123   2.0000      -0.269692        -7.3387
 124   2.0000      -0.260863        -7.0984
 125   2.0000      -0.256184        -6.9711
 126   2.0000      -0.253922        -6.9096
 127   2.0000      -0.240803        -6.5526
 128   2.0000      -0.234638        -6.3848
 129   2.0000      -0.205249        -5.5851
 130   0.0000      -0.063257        -1.7213
 131   0.0000      -0.036092        -0.9821
 132   0.0000      -0.026575        -0.7231
 133   0.0000      -0.017400        -0.4735
 134   0.0000      -0.005459        -0.1485

MULLIKEN ATOMIC CHARGES
-----------------------
   0 C :   -0.313945
   1 N :   -0.464253
   2 C :    0.509679
   3 O :   -0.510718
   4 C :    0.009461
   5 C :    0.131581
   6 C :   -0.438345
   7 C :    0.590426
   8 O :   -0.462153
   9 N :   -0.627425
  10 C :    0.267497
  11 N :   -0.439382
  12 C :    0.211732
  13 C :    0.137466
  14 C :   -0.168618
  15 C :   -0.173439
  16 C :    0.291095
  17 O :   -0.550244
  18 C :    1.083900
  19 F :   -0.289819
  20 F :   -0.282224
  21 F :   -0.290094
  22 C :    0.371330
  23 F :   -0.310853
  24 C :   -0.276967
  25 C :   -0.405191
  26 S :    0.314582
  27 C :   -0.176904
  28 C :   -0.105364
  29 C :   -0.196167
  30 C :    0.319459
  31 N :   -0.511160
  32 C :   -0.336610
  33 C :    0.672327
  34 O :   -0.509231
  35 H :    0.191539
  36 H :    0.181779
  37 H :    0.196321
  38 H :    0.178851
  39 H :    0.177656
  40 H :    0.357657
  41 H :    0.160004
  42 H :    0.156777
  43 H :    0.147047
  44 H :    0.179626
  45 H :    0.141616
  46 H :    0.146216
  47 H :    0.142570
  48 H :    0.174645
  49 H :    0.224725
  50 H :    0.171537
Sum of atomic charges:   -0.0000000

LOEWDIN ATOMIC CHARGES
----------------------
   0 C :   -0.258241
   1 N :   -0.019352
   2 C :    0.115901
   3 O :   -0.297389
   4 C :   -0.072769
   5 C :    0.044930
   6 C :   -0.241230
   7 C :    0.161643
   8 O :   -0.264718
   9 N :   -0.188122
  10 C :   -0.073192
  11 N :   -0.189036
  12 C :   -0.008352
  13 C :   -0.015083
  14 C :   -0.116612
  15 C :   -0.133471
  16 C :    0.058071
  17 O :   -0.159069
  18 C :    0.354077
  19 F :   -0.104442
  20 F :   -0.090097
  21 F :   -0.104656
  22 C :    0.092022
  23 F :   -0.093768
  24 C :   -0.146792
  25 C :   -0.352366
  26 S :    0.425597
  27 C :   -0.134183
  28 C :   -0.097015
  29 C :   -0.163126
  30 C :    0.054102
  31 N :   -0.026275
  32 C :   -0.265190
  33 C :    0.137101
  34 O :   -0.318248
  35 H :    0.150614
  36 H :    0.142866
  37 H :    0.153179
  38 H :    0.147965
  39 H :    0.148659
  40 H :    0.277830
  41 H :    0.150672
  42 H :    0.149735
  43 H :    0.146123
  44 H :    0.159652
  45 H :    0.139550
  46 H :    0.141512
  47 H :    0.141002
  48 H :    0.136635
  49 H :    0.168320
  50 H :    0.135034

  Mayer bond orders larger than 0.100000
B(  0-C ,  1-N ) :   0.9163 B(  0-C , 35-H ) :   0.9255 B(  0-C , 36-H ) :   0.9398
B(  0-C , 37-H ) :   0.9252 B(  1-N ,  2-C ) :   1.0052 B(  1-N , 33-C ) :   1.0380
B(  2-C ,  3-O ) :   1.7297 B(  2-C ,  4-C ) :   1.0647 B(  4-C ,  5-C ) :   1.3581
B(  4-C , 30-C ) :   1.2855 B(  5-C ,  6-C ) :   0.9970 B(  5-C , 27-C ) :   1.4421
B(  6-C ,  7-C ) :   0.9391 B(  6-C , 38-H ) :   0.9038 B(  6-C , 39-H ) :   0.9108
B(  7-C ,  8-O ) :   1.8307 B(  7-C ,  9-N ) :   1.0237 B(  9-N , 10-C ) :   0.9572
B(  9-N , 40-H ) :   0.8084 B( 10-C , 11-N ) :   1.4778 B( 10-C , 25-C ) :   0.1057
B( 10-C , 26-S ) :   1.1802 B( 11-N , 12-C ) :   1.2905 B( 12-C , 13-C ) :   1.0580
B( 12-C , 25-C ) :   1.5170 B( 13-C , 14-C ) :   1.3978 B( 13-C , 24-C ) :   1.3727
B( 14-C , 15-C ) :   1.4254 B( 14-C , 41-H ) :   0.9104 B( 15-C , 16-C ) :   1.4034
B( 15-C , 42-H ) :   0.9182 B( 16-C , 17-O ) :   0.8179 B( 16-C , 22-C ) :   1.3022
B( 17-O , 18-C ) :   0.9780 B( 18-C , 19-F ) :   0.9798 B( 18-C , 20-F ) :   1.0029
B( 18-C , 21-F ) :   0.9793 B( 22-C , 23-F ) :   0.8965 B( 22-C , 24-C ) :   1.3944
B( 24-C , 43-H ) :   0.9089 B( 25-C , 26-S ) :   1.1076 B( 25-C , 44-H ) :   0.9019
B( 27-C , 28-C ) :   1.4035 B( 27-C , 45-H ) :   0.9213 B( 28-C , 29-C ) :   1.4701
B( 28-C , 46-H ) :   0.9254 B( 29-C , 30-C ) :   1.3442 B( 29-C , 47-H ) :   0.9143
B( 30-C , 31-N ) :   0.9699 B( 31-N , 32-C ) :   0.9338 B( 31-N , 33-C ) :   1.0465
B( 32-C , 48-H ) :   0.9315 B( 32-C , 49-H ) :   0.9138 B( 32-C , 50-H ) :   0.9319
B( 33-C , 34-O ) :   1.7857

FINAL SINGLE POINT ENERGY     -2164.449386701123

DIPOLE MOMENT
-------------

Method             : SCF
Type of density    : Electron Density
Multiplicity       :   1
Irrep              :   0
Energy             : -2164.4493867011233306 Eh
Relativity type    :
Basis              : AO
                                X                 Y                 Z
Electronic contribution:     75.924627666      -9.234083636      -7.357089079
Nuclear contribution   :    -78.822865562      10.046945954       8.090410356
                        -----------------------------------------
Total Dipole Moment    :     -2.898237896       0.812862317       0.733321277
                        -----------------------------------------
Magnitude (a.u.)       :      3.098110415
Magnitude (Debye)      :      7.874770858

Rotational constants in cm-1:             0.009334             0.001045             0.000992
Rotational constants in MHz :           279.837644            31.320835            29.749806

                             ****ORCA TERMINATED NORMALLY****
TOTAL RUN TIME: 0 days 0 hours 5 minutes 11 seconds 888 msec
