                         Program Version 6.0.0  -   RELEASE  -
|  1> ! B3LYP 6-31G* SP
|  2>
|  3> * xyz 0 1
|  4> C 5.7996 0.1014 -0.6572
|  5> C 4.8446 0.3331 0.5027
|  6> O 3.5029 0.1758 0.0537
|  7> C 2.4007 0.3287 0.8998
|  8> O 2.5648 0.6178 2.1164
|  9> C 1.0410 0.1523 0.3714
| 10> S -0.3772 0.3035 1.2638
| 11> C -1.3811 -0.0412 -0.0494
| 12> C -2.8610 -0.0922 -0.0176
| 13> C -3.5693 0.1565 1.1736
| 14> C -4.9667 0.1051 1.1901
| 15> C -5.6715 -0.1940 0.0223
| 16> C -4.9803 -0.4425 -1.1653
| 17> C -3.5830 -0.3926 -1.1878
| 18> N -0.6508 -0.2716 -1.1658
| 19> C 0.6861 -0.1656 -0.9370
| 20> O 1.6186 -0.3640 -1.9501
| 21> H 5.6685 -0.9265 -1.0568
| 22> H 5.5989 0.8356 -1.4660
| 23> H 6.8474 0.2234 -0.3105
| 24> H 4.9900 1.3617 0.8985
| 25> H 5.0597 -0.4023 1.3082
| 26> H -3.0489 0.3906 2.0930
| 27> H -5.5037 0.2975 2.1101
| 28> H -6.7530 -0.2332 0.0376
| 29> H -5.5274 -0.6743 -2.0700
| 30> H -3.0693 -0.5889 -2.1205
| 31> H 1.3205 -0.5942 -2.8902
| 32> *
| 33>
| 34>                          ****END OF INPUT****

CARTESIAN COORDINATES (ANGSTROEM)
---------------------------------
  C      5.799600    0.101400   -0.657200
  C      4.844600    0.333100    0.502700
  O      3.502900    0.175800    0.053700
  C      2.400700    0.328700    0.899800
  O      2.564800    0.617800    2.116400
  C      1.041000    0.152300    0.371400
  S     -0.377200    0.303500    1.263800
  C     -1.381100   -0.041200   -0.049400
  C     -2.861000   -0.092200   -0.017600
  C     -3.569300    0.156500    1.173600
  C     -4.966700    0.105100    1.190100
  C     -5.671500   -0.194000    0.022300
  C     -4.980300   -0.442500   -1.165300
  C     -3.583000   -0.392600   -1.187800
  N     -0.650800   -0.271600   -1.165800
  C      0.686100   -0.165600   -0.937000
  O      1.618600   -0.364000   -1.950100
  H      5.668500   -0.926500   -1.056800
  H      5.598900    0.835600   -1.466000
  H      6.847400    0.223400   -0.310500
  H      4.990000    1.361700    0.898500
  H      5.059700   -0.402300    1.308200
  H     -3.048900    0.390600    2.093000
  H     -5.503700    0.297500    2.110100
  H     -6.753000   -0.233200    0.037600
  H     -5.527400   -0.674300   -2.070000
  H     -3.069300   -0.588900   -2.120500
  H      1.320500   -0.594200   -2.890200

 Total Charge           Charge          ....    0
 Multiplicity           Mult            ....    1
 Number of Electrons    NEL             ....  130
 Basis Dimension        Dim             ....  264

ORBITAL ENERGIES
----------------

  NO   OCC          E(Eh)            E(eV)
   0   2.0000     -88.907325     -2419.2913
   1   2.0000     -19.180097      -521.9170
   2   2.0000     -19.169371      -521.6251
   3   2.0000     -19.115375      -520.1558
   4   2.0000     -14.337890      -390.1538
   5   2.0000     -10.315989      -280.7123
   6   2.0000     -10.291566      -280.0477
   7   2.0000     -10.265775      -279.3460
   8   2.0000     -10.230782      -278.3937
   9   2.0000     -10.221607      -278.1441
  10   2.0000     -10.215972      -277.9907
  11   2.0000     -10.199661      -277.5469
  12   2.0000     -10.195265      -277.4273
  13   2.0000     -10.194982      -277.4196
  14   2.0000     -10.194547      -277.4077
  15   2.0000     -10.193415      -277.3769
  16   2.0000     -10.173590      -276.8375
  17   2.0000      -7.983767      -217.2494
  18   2.0000      -5.946826      -161.8214
  19   2.0000      -5.942746      -161.7103
  20   2.0000      -5.940747      -161.6560
  21   2.0000      -1.066791       -29.0289
  22   2.0000      -1.048706       -28.5367
  23   2.0000      -0.981392       -26.7050
  24   2.0000      -0.965304       -26.2672
  25   2.0000      -0.865203       -23.5434
  26   2.0000      -0.819857       -22.3094
  27   2.0000      -0.788196       -21.4479
  28   2.0000      -0.762641       -20.7525
  29   2.0000      -0.754375       -20.5276
  30   2.0000      -0.731710       -19.9109
  31   2.0000      -0.660828       -17.9820
  32   2.0000      -0.631273       -17.1778
  33   2.0000      -0.620309       -16.8795
  34   2.0000      -0.599916       -16.3245
  35   2.0000      -0.580542       -15.7973
  36   2.0000      -0.552443       -15.0327
  37   2.0000      -0.536401       -14.5962
  38   2.0000      -0.526126       -14.3166
  39   2.0000      -0.494100       -13.4451
  40   2.0000      -0.476137       -12.9563
  41   2.0000      -0.472762       -12.8645
  42   2.0000      -0.447497       -12.1770
  43   2.0000      -0.446181       -12.1412
  44   2.0000      -0.440788       -11.9944
  45   2.0000      -0.436334       -11.8732
  46   2.0000      -0.429388       -11.6843
  47   2.0000      -0.399324       -10.8662
  48   2.0000      -0.392325       -10.6757
  49   2.0000      -0.389822       -10.6076
  50   2.0000      -0.382881       -10.4187
  51   2.0000      -0.382375       -10.4049
  52   2.0000      -0.366858        -9.9827
  53   2.0000      -0.359555        -9.7840
  54   2.0000      -0.355884        -9.6841
  55   2.0000      -0.353625        -9.6226
  56   2.0000      -0.348650        -9.4873
  57   2.0000      -0.321303        -8.7431
  58   2.0000      -0.292111        -7.9487
  59   2.0000      -0.286991        -7.8094
  60   2.0000      -0.276145        -7.5143
  61   2.0000      -0.268156        -7.2969
  62   2.0000      -0.259203        -7.0533
  63   2.0000      -0.251095        -6.8326
  64   2.0000      -0.220640        -6.0039
  65   0.0000      -0.070319        -1.9135
  66   0.0000      -0.011739        -0.3194
  67   0.0000      -0.004173        -0.1136
  68   0.0000       0.022779         0.6198
  69   0.0000       0.042689         1.1616

MULLIKEN ATOMIC CHARGES
-----------------------
   0 C :   -0.452511
   1 C :   -0.004266
   2 O :   -0.472254
   3 C :    0.596573
   4 O :   -0.478992
   5 C :   -0.264161
   6 S :    0.316157
   7 C :   -0.017261
   8 C :    0.138361
   9 C :   -0.187370
  10 C :   -0.132769
  11 C :   -0.116182
  12 C :   -0.127871
  13 C :   -0.150985
  14 N :   -0.429069
  15 C :    0.504462
  16 O :   -0.630746
  17 H :    0.157523
  18 H :    0.157575
  19 H :    0.147940
  20 H :    0.147572
  21 H :    0.147579
  22 H :    0.153240
  23 H :    0.139044
  24 H :    0.136199
  25 H :    0.137862
  26 H :    0.159024
  27 H :    0.425325
Sum of atomic charges:    0.0000000

LOEWDIN ATOMIC CHARGES
----------------------
   0 C :   -0.364603
   1 C :   -0.085796
   2 O :   -0.170172
   3 C :    0.181246
   4 O :   -0.278234
   5 C :   -0.272603
   6 S :    0.441394
   7 C :   -0.104096
   8 C :   -0.031337
   9 C :   -0.119160
  10 C :   -0.124826
  11 C :   -0.117894
  12 C :   -0.125112
  13 C :   -0.102825
  14 N :   -0.190061
  15 C :    0.105077
  16 O :   -0.321657
  17 H :    0.131405
  18 H :    0.131416
  19 H :    0.132009
  20 H :    0.121138
  21 H :    0.121147
  22 H :    0.142217
  23 H :    0.136764
  24 H :    0.135257
  25 H :    0.136259
  26 H :    0.148408
  27 H :    0.344637

  Mayer bond orders larger than 0.100000
B(  0-C ,  1-C ) :   1.0206 B(  0-C , 17-H ) :   0.9475 B(  0-C , 18-H ) :   0.9475
B(  0-C , 19-H ) :   0.9425 B(  1-C ,  2-O ) :   0.8604 B(  1-C , 20-H ) :   0.9305
B(  1-C , 21-H ) :   0.9305 B(  2-O ,  3-C ) :   1.0210 B(  3-C ,  4-O ) :   1.7615
B(  3-C ,  5-C ) :   1.0501 B(  5-C ,  6-S ) :   1.0826 B(  5-C ,  7-C ) :   0.1138
B(  5-C , 15-C ) :   1.3912 B(  6-S ,  7-C ) :   1.1727 B(  7-C ,  8-C ) :   1.0225
B(  7-C , 14-N ) :   1.4312 B(  8-C ,  9-C ) :   1.3891 B(  8-C , 13-C ) :   1.4051
B(  9-C , 10-C ) :   1.4515 B(  9-C , 22-H ) :   0.9157 B( 10-C , 11-C ) :   1.4450
B( 10-C , 23-H ) :   0.9283 B( 11-C , 12-C ) :   1.4421 B( 11-C , 24-H ) :   0.9291
B( 12-C , 13-C ) :   1.4379 B( 12-C , 25-H ) :   0.9290 B( 13-C , 26-H ) :   0.9126
B( 14-N , 15-C ) :   1.2923 B( 15-C , 16-O ) :   1.0093 B( 16-O , 27-H ) :   0.7545

FINAL SINGLE POINT ENERGY     -1141.998934638577

DIPOLE MOMENT
-------------

Method             : SCF
Type of density    : Electron Density
Multiplicity       :   1
Irrep              :   0
Energy             : -1141.9989346385768840 Eh
Relativity type    :
Basis              : AO
                                X                 Y                 Z
Electronic contribution:     -7.826532931       0.475558497       3.379356773
Nuclear contribution   :      7.002666764      -0.738038423      -4.369010232
                        -----------------------------------------
Total Dipole Moment    :     -0.823866167      -0.262479926      -0.989653459
                        -----------------------------------------
Magnitude (a.u.)       :      1.314178504
Magnitude (Debye)      :      3.340376293

Rotational constants in cm-1:             0.048243             0.005958             0.005314
Rotational constants in MHz :          1446.286265           178.610085           159.308563

                             ****ORCA TERMINATED NORMALLY****
TOTAL RUN TIME: 0 days 0 hours 1 minutes 41 seconds 392 msec
