                         Program Version 6.0.0  -   RELEASE  -
|  1> ! B3LYP 6-31G* SP
|  2>
|  3> * xyz 0 1
|  4> N 1.1438 -2.3944 2.3328
|  5> C 0.6860 -1.0598 2.0960
|  6> O 1.2036 -0.1070 2.7394
|  7> C -0.4011 -0.7908 1.0754
|  8> C -1.7422 -0.3838 1.6854
|  9> C -1.9857 -0.4047 3.0791
| 10> C -3.2354 -0.0388 3.5873
| 11> C -4.2636 0.3354 2.7189
| 12> C -4.0483 0.3339 1.3389
| 13> C -2.8027 -0.0338 0.8249
| 14> N 0.0701 0.1987 0.0713
| 15> C -0.0348 1.6205 0.3366
| 16> O 0.0415 2.0423 1.5229
| 17> C -0.2515 2.6030 -0.7520
| 18> C -1.0300 2.2754 -1.8758
| 19> C -1.2087 3.2034 -2.9062
| 20> C -0.6224 4.4676 -2.8201
| 21> C 0.1262 4.8147 -1.6934
| 22> C 0.3070 3.8894 -0.6598
| 23> C 0.8097 -0.2529 -1.1325
| 24> C -0.0511 -1.1653 -2.0420
| 25> C 0.5746 -2.5731 -2.0050
| 26> C 1.8369 -2.3857 -1.2517
| 27> C 2.8118 -3.3549 -1.0045
| 28> C 3.9488 -2.9959 -0.2645
| 29> C 4.0966 -1.6798 0.2121
| 30> Cl 5.5164 -1.2373 1.1411
| 31> C 3.1039 -0.7216 -0.0489
| 32> C 1.9727 -1.1059 -0.7748
| 33> H 1.9061 -2.5703 3.0242
| 34> H 0.7373 -3.2073 1.8184
| 35> H -0.6013 -1.7538 0.5596
| 36> H -1.2206 -0.7015 3.7843
| 37> H -3.4082 -0.0494 4.6576
| 38> H -5.2292 0.6188 3.1152
| 39> H -4.8481 0.6136 0.6654
| 40> H -2.6647 -0.0411 -0.2480
| 41> H -1.5132 1.3096 -1.9516
| 42> H -1.8017 2.9401 -3.7725
| 43> H -0.7590 5.1830 -3.6203
| 44> H 0.5738 5.7978 -1.6229
| 45> H 0.8985 4.1711 0.2011
| 46> H 1.1912 0.6091 -1.7231
| 47> H -1.1132 -1.2010 -1.7195
| 48> H -0.0268 -0.7777 -3.0843
| 49> H -0.0854 -3.2851 -1.4633
| 50> H 0.7837 -2.9457 -3.0313
| 51> H 2.6944 -4.3648 -1.3761
| 52> H 4.7126 -3.7359 -0.0632
| 53> H 3.2019 0.2919 0.3192
| 54> *
| 55>
| 56>                          ****END OF INPUT****

CARTESIAN COORDINATES (ANGSTROEM)
---------------------------------
  N      1.143800   -2.394400    2.332800
  C      0.686000   -1.059800    2.096000
  O      1.203600   -0.107000    2.739400
  C     -0.401100   -0.790800    1.075400
  C     -1.742200   -0.383800    1.685400
  C     -1.985700   -0.404700    3.079100
  C     -3.235400   -0.038800    3.587300
  C     -4.263600    0.335400    2.718900
  C     -4.048300    0.333900    1.338900
  C     -2.802700   -0.033800    0.824900
  N      0.070100    0.198700    0.071300
  C     -0.034800    1.620500    0.336600
  O      0.041500    2.042300    1.522900
  C     -0.251500    2.603000   -0.752000
  C     -1.030000    2.275400   -1.875800
  C     -1.208700    3.203400   -2.906200
  C     -0.622400    4.467600   -2.820100
  C      0.126200    4.814700   -1.693400
  C      0.307000    3.889400   -0.659800
  C      0.809700   -0.252900   -1.132500
  C     -0.051100   -1.165300   -2.042000
  C      0.574600   -2.573100   -2.005000
  C      1.836900   -2.385700   -1.251700
  C      2.811800   -3.354900   -1.004500
  C      3.948800   -2.995900   -0.264500
  C      4.096600   -1.679800    0.212100
  Cl     5.516400   -1.237300    1.141100
  C      3.103900   -0.721600   -0.048900
  C      1.972700   -1.105900   -0.774800
  H      1.906100   -2.570300    3.024200
  H      0.737300   -3.207300    1.818400
  H     -0.601300   -1.753800    0.559600
  H     -1.220600   -0.701500    3.784300
  H     -3.408200   -0.049400    4.657600
  H     -5.229200    0.618800    3.115200
  H     -4.848100    0.613600    0.665400
  H     -2.664700   -0.041100   -0.248000
  H     -1.513200    1.309600   -1.951600
  H     -1.801700    2.940100   -3.772500
  H     -0.759000    5.183000   -3.620300
  H      0.573800    5.797800   -1.622900
  H      0.898500    4.171100    0.201100
  H      1.191200    0.609100   -1.723100
  H     -1.113200   -1.201000   -1.719500
  H     -0.026800   -0.777700   -3.084300
  H     -0.085400   -3.285100   -1.463300
  H      0.783700   -2.945700   -3.031300
  H      2.694400   -4.364800   -1.376100
  H      4.712600   -3.735900   -0.063200
  H      3.201900    0.291900    0.319200

 Total Charge           Charge          ....    0
 Multiplicity           Mult            ....    1
 Number of Electrons    NEL             ....  212
 Basis Dimension        Dim             ....  452

ORBITAL ENERGIES
----------------

  NO   OCC          E(Eh)            E(eV)
   0   2.0000    -101.523226     -2762.5874
   1   2.0000     -19.100074      -519.7394
   2   2.0000     -19.095031      -519.6022
   3   2.0000     -14.351055      -390.5121
   4   2.0000     -14.348691      -390.4477
   5   2.0000     -10.280795      -279.7546
   6   2.0000     -10.277944      -279.6771
   7   2.0000     -10.244990      -278.7803
   8   2.0000     -10.241773      -278.6928
   9   2.0000     -10.229583      -278.3611
  10   2.0000     -10.198185      -277.5067
  11   2.0000     -10.196742      -277.4675
  12   2.0000     -10.195305      -277.4284
  13   2.0000     -10.193872      -277.3894
  14   2.0000     -10.193000      -277.3656
  15   2.0000     -10.192049      -277.3397
  16   2.0000     -10.190837      -277.3068
  17   2.0000     -10.189951      -277.2827
  18   2.0000     -10.189192      -277.2620
  19   2.0000     -10.188809      -277.2516
  20   2.0000     -10.188069      -277.2315
  21   2.0000     -10.187808      -277.2243
  22   2.0000     -10.186766      -277.1960
  23   2.0000     -10.185943      -277.1736
  24   2.0000     -10.179433      -276.9965
  25   2.0000     -10.177344      -276.9396
  26   2.0000     -10.175825      -276.8983
  27   2.0000     -10.175185      -276.8808
  28   2.0000     -10.174768      -276.8695
  29   2.0000      -9.455090      -257.2861
  30   2.0000      -7.218129      -196.4153
  31   2.0000      -7.208702      -196.1588
  32   2.0000      -7.208375      -196.1498
  33   2.0000      -1.004773       -27.3413
  34   2.0000      -0.990954       -26.9652
  35   2.0000      -0.923797       -25.1378
  36   2.0000      -0.887074       -24.1385
  37   2.0000      -0.870413       -23.6851
  38   2.0000      -0.857485       -23.3334
  39   2.0000      -0.855273       -23.2732
  40   2.0000      -0.842420       -22.9234
  41   2.0000      -0.800076       -21.7712
  42   2.0000      -0.775564       -21.1042
  43   2.0000      -0.762820       -20.7574
  44   2.0000      -0.750815       -20.4307
  45   2.0000      -0.746752       -20.3202
  46   2.0000      -0.736582       -20.0434
  47   2.0000      -0.716806       -19.5053
  48   2.0000      -0.703771       -19.1506
  49   2.0000      -0.689030       -18.7495
  50   2.0000      -0.629796       -17.1376
  51   2.0000      -0.621835       -16.9210
  52   2.0000      -0.607600       -16.5336
  53   2.0000      -0.605274       -16.4703
  54   2.0000      -0.593046       -16.1376
  55   2.0000      -0.589434       -16.0393
  56   2.0000      -0.574976       -15.6459
  57   2.0000      -0.572018       -15.5654
  58   2.0000      -0.542368       -14.7586
  59   2.0000      -0.528804       -14.3895
  60   2.0000      -0.519035       -14.1237
  61   2.0000      -0.513012       -13.9598
  62   2.0000      -0.500536       -13.6203
  63   2.0000      -0.491200       -13.3662
  64   2.0000      -0.476280       -12.9602
  65   2.0000      -0.475197       -12.9308
  66   2.0000      -0.468262       -12.7421
  67   2.0000      -0.461550       -12.5594
  68   2.0000      -0.451732       -12.2923
  69   2.0000      -0.448397       -12.2015
  70   2.0000      -0.446793       -12.1579
  71   2.0000      -0.435499       -11.8505
  72   2.0000      -0.431471       -11.7409
  73   2.0000      -0.427675       -11.6376
  74   2.0000      -0.423376       -11.5207
  75   2.0000      -0.420752       -11.4492
  76   2.0000      -0.416316       -11.3285
  77   2.0000      -0.411607       -11.2004
  78   2.0000      -0.398252       -10.8370
  79   2.0000      -0.392588       -10.6829
  80   2.0000      -0.381986       -10.3944
  81   2.0000      -0.378899       -10.3104
  82   2.0000      -0.370992       -10.0952
  83   2.0000      -0.366726        -9.9791
  84   2.0000      -0.359901        -9.7934
  85   2.0000      -0.357945        -9.7402
  86   2.0000      -0.356408        -9.6984
  87   2.0000      -0.355934        -9.6854
  88   2.0000      -0.350109        -9.5269
  89   2.0000      -0.348871        -9.4933
  90   2.0000      -0.345176        -9.3927
  91   2.0000      -0.337278        -9.1778
  92   2.0000      -0.336967        -9.1693
  93   2.0000      -0.331562        -9.0223
  94   2.0000      -0.316166        -8.6033
  95   2.0000      -0.306150        -8.3308
  96   2.0000      -0.262357        -7.1391
  97   2.0000      -0.257026        -6.9940
  98   2.0000      -0.253270        -6.8918
  99   2.0000      -0.249117        -6.7788
 100   2.0000      -0.244533        -6.6541
 101   2.0000      -0.242364        -6.5951
 102   2.0000      -0.238283        -6.4840
 103   2.0000      -0.234715        -6.3869
 104   2.0000      -0.232574        -6.3287
 105   2.0000      -0.205768        -5.5992
 106   0.0000      -0.037326        -1.0157
 107   0.0000      -0.021919        -0.5964
 108   0.0000      -0.009858        -0.2683
 109   0.0000      -0.004114        -0.1119
 110   0.0000       0.000575         0.0157

MULLIKEN ATOMIC CHARGES
-----------------------
   0 N :   -0.769448
   1 C :    0.573103
   2 O :   -0.454028
   3 C :   -0.102135
   4 C :    0.129410
   5 C :   -0.150164
   6 C :   -0.132139
   7 C :   -0.120837
   8 C :   -0.124847
   9 C :   -0.170332
  10 N :   -0.438295
  11 C :    0.454495
  12 O :   -0.426877
  13 C :    0.081016
  14 C :   -0.162935
  15 C :   -0.134839
  16 C :   -0.117294
  17 C :   -0.132144
  18 C :   -0.148064
  19 C :   -0.070942
  20 C :   -0.309301
  21 C :   -0.354384
  22 C :    0.120799
  23 C :   -0.178217
  24 C :   -0.136739
  25 C :   -0.073978
  26 Cl:   -0.016863
  27 C :   -0.164930
  28 C :    0.121550
  29 H :    0.351108
  30 H :    0.325259
  31 H :    0.142927
  32 H :    0.149974
  33 H :    0.130960
  34 H :    0.125438
  35 H :    0.125890
  36 H :    0.124454
  37 H :    0.141197
  38 H :    0.130059
  39 H :    0.132972
  40 H :    0.136843
  41 H :    0.161257
  42 H :    0.174962
  43 H :    0.153932
  44 H :    0.150604
  45 H :    0.144623
  46 H :    0.156270
  47 H :    0.130810
  48 H :    0.147478
  49 H :    0.172340
Sum of atomic charges:   -0.0000000

LOEWDIN ATOMIC CHARGES
----------------------
   0 N :   -0.402731
   1 C :    0.133557
   2 O :   -0.266468
   3 C :   -0.055717
   4 C :   -0.010580
   5 C :   -0.117072
   6 C :   -0.125406
   7 C :   -0.128066
   8 C :   -0.128863
   9 C :   -0.134040
  10 N :   -0.101269
  11 C :    0.141010
  12 O :   -0.233426
  13 C :   -0.047327
  14 C :   -0.123136
  15 C :   -0.132807
  16 C :   -0.119053
  17 C :   -0.127944
  18 C :   -0.095711
  19 C :   -0.051979
  20 C :   -0.236060
  21 C :   -0.228244
  22 C :   -0.030392
  23 C :   -0.133123
  24 C :   -0.131533
  25 C :   -0.088201
  26 Cl:    0.036950
  27 C :   -0.114419
  28 C :   -0.034536
  29 H :    0.264770
  30 H :    0.245848
  31 H :    0.132459
  32 H :    0.143884
  33 H :    0.132964
  34 H :    0.130334
  35 H :    0.130555
  36 H :    0.126047
  37 H :    0.134845
  38 H :    0.132085
  39 H :    0.133462
  40 H :    0.135585
  41 H :    0.150119
  42 H :    0.147154
  43 H :    0.126035
  44 H :    0.130040
  45 H :    0.125003
  46 H :    0.133971
  47 H :    0.134231
  48 H :    0.142191
  49 H :    0.155006

  Mayer bond orders larger than 0.100000
B(  0-N ,  1-C ) :   1.0461 B(  0-N , 29-H ) :   0.8218 B(  0-N , 30-H ) :   0.8310
B(  1-C ,  2-O ) :   1.8638 B(  1-C ,  3-C ) :   0.8950 B(  3-C ,  4-C ) :   0.9622
B(  3-C , 10-N ) :   0.9439 B(  3-C , 31-H ) :   0.9059 B(  4-C ,  5-C ) :   1.4461
B(  4-C ,  9-C ) :   1.4121 B(  5-C ,  6-C ) :   1.4323 B(  5-C , 32-H ) :   0.9100
B(  6-C ,  7-C ) :   1.4563 B(  6-C , 33-H ) :   0.9292 B(  7-C ,  8-C ) :   1.4510
B(  7-C , 34-H ) :   0.9304 B(  8-C ,  9-C ) :   1.4462 B(  8-C , 35-H ) :   0.9301
B(  9-C , 36-H ) :   0.9165 B( 10-N , 11-C ) :   0.9841 B( 10-N , 19-C ) :   0.9440
B( 11-C , 12-O ) :   1.8434 B( 11-C , 13-C ) :   0.9740 B( 13-C , 14-C ) :   1.3938
B( 13-C , 18-C ) :   1.4068 B( 14-C , 15-C ) :   1.4358 B( 14-C , 37-H ) :   0.9136
B( 15-C , 16-C ) :   1.4521 B( 15-C , 38-H ) :   0.9299 B( 16-C , 17-C ) :   1.4418
B( 16-C , 39-H ) :   0.9300 B( 17-C , 18-C ) :   1.4346 B( 17-C , 40-H ) :   0.9294
B( 18-C , 41-H ) :   0.9156 B( 19-C , 20-C ) :   0.9569 B( 19-C , 28-C ) :   0.9667
B( 19-C , 42-H ) :   0.9138 B( 20-C , 21-C ) :   0.9874 B( 20-C , 43-H ) :   0.9378
B( 20-C , 44-H ) :   0.9438 B( 21-C , 22-C ) :   0.9787 B( 21-C , 45-H ) :   0.9314
B( 21-C , 46-H ) :   0.9325 B( 22-C , 23-C ) :   1.3983 B( 22-C , 28-C ) :   1.4796
B( 23-C , 24-C ) :   1.4432 B( 23-C , 47-H ) :   0.9262 B( 24-C , 25-C ) :   1.3896
B( 24-C , 48-H ) :   0.9252 B( 25-C , 26-Cl) :   1.0127 B( 25-C , 27-C ) :   1.4041
B( 27-C , 28-C ) :   1.3943 B( 27-C , 49-H ) :   0.9119

FINAL SINGLE POINT ENERGY     -1646.516854573965

DIPOLE MOMENT
-------------

Method             : SCF
Type of density    : Electron Density
Multiplicity       :   1
Irrep              :   0
Energy             : -1646.5168545739652473 Eh
Relativity type    :
Basis              : AO
                                X                 Y                 Z
Electronic contribution:     22.162706112       0.048996109       9.736389217
Nuclear contribution   :    -23.043192860      -1.612739066     -11.616143446
                        -----------------------------------------
Total Dipole Moment    :     -0.880486748      -1.563742956      -1.879754229
                        -----------------------------------------
Magnitude (a.u.)       :      2.598850690
Magnitude (Debye)      :      6.605753485

Rotational constants in cm-1:             0.006611             0.004241             0.003377
Rotational constants in MHz :           198.196440           127.145434           101.227833

                             ****ORCA TERMINATED NORMALLY****
TOTAL RUN TIME: 0 days 0 hours 10 minutes 27 seconds 802 msec
