                         Program Version 6.0.0  -   RELEASE  -
|  1> ! B3LYP 6-31G* SP
|  2>
|  3> * xyz 0 1
|  4> C -3.4959 1.3595 0.0667
|  5> C -2.5811 1.0305 1.2420
|  6> C -1.9458 -0.3307 1.0564
|  7> N -2.6026 -1.4127 1.3521
|  8> O -3.8620 -1.3809 1.9071
|  9> C -0.6264 -0.4661 0.3945
| 10> C -0.4936 -1.4858 -0.7091
| 11> C 0.4173 0.2782 0.8156
| 12> C 1.7859 0.1985 0.2630
| 13> C 2.4825 -1.0216 0.2016
| 14> C 3.7898 -1.0619 -0.2931
| 15> C 4.4175 0.1149 -0.7115
| 16> F 5.6859 0.0743 -1.1886
| 17> C 3.7413 1.3352 -0.6258
| 18> C 2.4340 1.3791 -0.1312
| 19> H -3.9483 2.3625 0.2165
| 20> H -4.3125 0.6108 -0.0126
| 21> H -2.9152 1.3690 -0.8806
| 22> H -3.1667 1.0549 2.1860
| 23> H -1.8129 1.8265 1.3191
| 24> H -4.3421 -2.2454 2.1222
| 25> H -0.1456 -2.4525 -0.2903
| 26> H 0.2093 -1.1392 -1.4957
| 27> H -1.4762 -1.6510 -1.2002
| 28> H 0.2654 1.0147 1.5945
| 29> H 2.0255 -1.9367 0.5544
| 30> H 4.3190 -2.0048 -0.3425
| 31> H 4.2304 2.2486 -0.9393
| 32> H 1.9229 2.3321 -0.0656
| 33> *
| 34>
| 35>                          ****END OF INPUT****

CARTESIAN COORDINATES (ANGSTROEM)
---------------------------------
  C     -3.495900    1.359500    0.066700
  C     -2.581100    1.030500    1.242000
  C     -1.945800   -0.330700    1.056400
  N     -2.602600   -1.412700    1.352100
  O     -3.862000   -1.380900    1.907100
  C     -0.626400   -0.466100    0.394500
  C     -0.493600   -1.485800   -0.709100
  C      0.417300    0.278200    0.815600
  C      1.785900    0.198500    0.263000
  C      2.482500   -1.021600    0.201600
  C      3.789800   -1.061900   -0.293100
  C      4.417500    0.114900   -0.711500
  F      5.685900    0.074300   -1.188600
  C      3.741300    1.335200   -0.625800
  C      2.434000    1.379100   -0.131200
  H     -3.948300    2.362500    0.216500
  H     -4.312500    0.610800   -0.012600
  H     -2.915200    1.369000   -0.880600
  H     -3.166700    1.054900    2.186000
  H     -1.812900    1.826500    1.319100
  H     -4.342100   -2.245400    2.122200
  H     -0.145600   -2.452500   -0.290300
  H      0.209300   -1.139200   -1.495700
  H     -1.476200   -1.651000   -1.200200
  H      0.265400    1.014700    1.594500
  H      2.025500   -1.936700    0.554400
  H      4.319000   -2.004800   -0.342500
  H      4.230400    2.248600   -0.939300
  H      1.922900    2.332100   -0.065600

 Total Charge           Charge          ....    0
 Multiplicity           Mult            ....    1
 Number of Electrons    NEL             ....  110
 Basis Dimension        Dim             ....  238

ORBITAL ENERGIES
----------------

  NO   OCC          E(Eh)            E(eV)
   0   2.0000     -24.696596      -672.0285
   1   2.0000     -19.178712      -521.8793
   2   2.0000     -14.363477      -390.8501
   3   2.0000     -10.267152      -279.3834
   4   2.0000     -10.215472      -277.9771
   5   2.0000     -10.194589      -277.4089
   6   2.0000     -10.193595      -277.3818
   7   2.0000     -10.190595      -277.3002
   8   2.0000     -10.190429      -277.2957
   9   2.0000     -10.188903      -277.2541
  10   2.0000     -10.188539      -277.2442
  11   2.0000     -10.181040      -277.0402
  12   2.0000     -10.176539      -276.9177
  13   2.0000     -10.170355      -276.7494
  14   2.0000     -10.168207      -276.6910
  15   2.0000      -1.209660       -32.9165
  16   2.0000      -1.063252       -28.9325
  17   2.0000      -0.867738       -23.6123
  18   2.0000      -0.857773       -23.3412
  19   2.0000      -0.795389       -21.6436
  20   2.0000      -0.753837       -20.5129
  21   2.0000      -0.752825       -20.4854
  22   2.0000      -0.741372       -20.1738
  23   2.0000      -0.681232       -18.5373
  24   2.0000      -0.639990       -17.4150
  25   2.0000      -0.619925       -16.8690
  26   2.0000      -0.606076       -16.4922
  27   2.0000      -0.587436       -15.9850
  28   2.0000      -0.541943       -14.7470
  29   2.0000      -0.528706       -14.3868
  30   2.0000      -0.493992       -13.4422
  31   2.0000      -0.476563       -12.9679
  32   2.0000      -0.472205       -12.8494
  33   2.0000      -0.466042       -12.6817
  34   2.0000      -0.452152       -12.3037
  35   2.0000      -0.443265       -12.0619
  36   2.0000      -0.435027       -11.8377
  37   2.0000      -0.428676       -11.6649
  38   2.0000      -0.418038       -11.3754
  39   2.0000      -0.408692       -11.1211
  40   2.0000      -0.403087       -10.9685
  41   2.0000      -0.393115       -10.6972
  42   2.0000      -0.383831       -10.4446
  43   2.0000      -0.365128        -9.9356
  44   2.0000      -0.363838        -9.9005
  45   2.0000      -0.359726        -9.7886
  46   2.0000      -0.354101        -9.6356
  47   2.0000      -0.343064        -9.3352
  48   2.0000      -0.340107        -9.2548
  49   2.0000      -0.330528        -8.9941
  50   2.0000      -0.276847        -7.5334
  51   2.0000      -0.256094        -6.9687
  52   2.0000      -0.241329        -6.5669
  53   2.0000      -0.231471        -6.2987
  54   2.0000      -0.213918        -5.8210
  55   0.0000      -0.030238        -0.8228
  56   0.0000      -0.007733        -0.2104
  57   0.0000       0.015498         0.4217
  58   0.0000       0.046927         1.2769
  59   0.0000       0.057462         1.5636

MULLIKEN ATOMIC CHARGES
-----------------------
   0 C :   -0.435351
   1 C :   -0.308986
   2 C :    0.189766
   3 N :   -0.143882
   4 O :   -0.543832
   5 C :    0.148745
   6 C :   -0.502164
   7 C :   -0.245326
   8 C :    0.110999
   9 C :   -0.146172
  10 C :   -0.211677
  11 C :    0.409813
  12 F :   -0.318610
  13 C :   -0.211161
  14 C :   -0.155447
  15 H :    0.141146
  16 H :    0.162077
  17 H :    0.142473
  18 H :    0.158807
  19 H :    0.133649
  20 H :    0.432990
  21 H :    0.166204
  22 H :    0.159140
  23 H :    0.156137
  24 H :    0.140944
  25 H :    0.144814
  26 H :    0.144284
  27 H :    0.143605
  28 H :    0.137014
Sum of atomic charges:   -0.0000000

LOEWDIN ATOMIC CHARGES
----------------------
   0 C :   -0.350787
   1 C :   -0.242279
   2 C :   -0.007003
   3 N :   -0.072948
   4 O :   -0.332730
   5 C :   -0.016198
   6 C :   -0.351745
   7 C :   -0.137727
   8 C :   -0.030144
   9 C :   -0.113201
  10 C :   -0.158172
  11 C :    0.115066
  12 F :   -0.105022
  13 C :   -0.157487
  14 C :   -0.117199
  15 H :    0.122946
  16 H :    0.130854
  17 H :    0.121905
  18 H :    0.134067
  19 H :    0.122891
  20 H :    0.338332
  21 H :    0.139187
  22 H :    0.135937
  23 H :    0.133455
  24 H :    0.135009
  25 H :    0.140615
  26 H :    0.142976
  27 H :    0.142622
  28 H :    0.136780

  Mayer bond orders larger than 0.100000
B(  0-C ,  1-C ) :   1.0034 B(  0-C , 15-H ) :   0.9492 B(  0-C , 16-H ) :   0.9465
B(  0-C , 17-H ) :   0.9511 B(  1-C ,  2-C ) :   0.9869 B(  1-C , 18-H ) :   0.9253
B(  1-C , 19-H ) :   0.9292 B(  2-C ,  3-N ) :   1.7741 B(  2-C ,  5-C ) :   1.0227
B(  3-N ,  4-O ) :   0.9422 B(  4-O , 20-H ) :   0.7571 B(  5-C ,  6-C ) :   1.0165
B(  5-C ,  7-C ) :   1.7971 B(  6-C , 21-H ) :   0.9294 B(  6-C , 22-H ) :   0.9324
B(  6-C , 23-H ) :   0.9390 B(  7-C ,  8-C ) :   1.0194 B(  7-C , 24-H ) :   0.9130
B(  8-C ,  9-C ) :   1.4114 B(  8-C , 14-C ) :   1.4098 B(  9-C , 10-C ) :   1.4194
B(  9-C , 25-H ) :   0.9216 B( 10-C , 11-C ) :   1.3914 B( 10-C , 26-H ) :   0.9208
B( 11-C , 12-F ) :   0.9176 B( 11-C , 13-C ) :   1.3906 B( 13-C , 14-C ) :   1.4217
B( 13-C , 27-H ) :   0.9210 B( 14-C , 28-H ) :   0.9268

FINAL SINGLE POINT ENERGY      -695.003574641654

DIPOLE MOMENT
-------------

Method             : SCF
Type of density    : Electron Density
Multiplicity       :   1
Irrep              :   0
Energy             :  -695.0035746416540405 Eh
Relativity type    :
Basis              : AO
                                X                 Y                 Z
Electronic contribution:     20.408621211      -2.562445801      -0.732157904
Nuclear contribution   :    -20.988078338       2.569302201       0.869952686
                        -----------------------------------------
Total Dipole Moment    :     -0.579457128       0.006856400       0.137794783
                        -----------------------------------------
Magnitude (a.u.)       :      0.595655081
Magnitude (Debye)      :      1.514034893

Rotational constants in cm-1:             0.056482             0.007570             0.007028
Rotational constants in MHz :          1693.278883           226.944503           210.706780

                             ****ORCA TERMINATED NORMALLY****
TOTAL RUN TIME: 0 days 0 hours 1 minutes 29 seconds 429 msec
