                         Program Version 6.0.0  -   RELEASE  -
|  1> ! B3LYP 6-31G* SP
|  2>
|  3> * xyz 0 1
|  4> C -4.2833 -2.4805 2.4703
|  5> C -3.2336 -2.5197 1.3522
|  6> C -3.8211 -2.4806 -0.0599
|  7> F -4.1372 -3.7580 -0.4931
|  8> C -2.7142 -1.8745 -0.9168
|  9> C -1.5574 -1.6419 0.0625
| 10> C -0.5458 -0.5802 -0.3162
| 11> O 0.3178 -0.2383 0.5366
| 12> N -0.4500 -0.0777 -1.6609
| 13> C 0.5032 0.9630 -2.0400
| 14> C 1.9049 0.4119 -2.0550
| 15> C 2.8328 0.8052 -1.0789
| 16> C 4.1288 0.2582 -1.0836
| 17> C 5.1384 0.6335 -0.0613
| 18> C 6.5082 0.5603 -0.3544
| 19> N 7.4279 0.8965 0.5858
| 20> C 7.0501 1.2926 1.8292
| 21> C 8.0880 1.6899 2.8315
| 22> F 9.0936 0.7410 2.8632
| 23> F 8.6261 2.9116 2.4731
| 24> F 7.5300 1.7937 4.0934
| 25> N 5.7294 1.3681 2.1395
| 26> C 4.7740 1.0443 1.2313
| 27> N 4.4661 -0.6354 -2.0558
| 28> C 3.5889 -1.0299 -3.0150
| 29> C 2.2906 -0.5198 -3.0301
| 30> F 1.4183 -0.9286 -3.9861
| 31> N -2.1552 -1.5074 1.4099
| 32> S -2.6959 0.1423 1.7898
| 33> O -3.4961 0.1560 3.0615
| 34> O -1.4911 1.0003 2.0530
| 35> C -3.6473 0.9269 0.5197
| 36> C -3.0129 1.7333 -0.4387
| 37> C -3.7577 2.3574 -1.4433
| 38> C -5.1456 2.2015 -1.4840
| 39> F -5.8683 2.8077 -2.4577
| 40> C -5.7897 1.4339 -0.5103
| 41> C -5.0456 0.8085 0.4945
| 42> H -5.0070 -1.6564 2.3340
| 43> H -3.7865 -2.3980 3.4611
| 44> H -4.8655 -3.4279 2.4590
| 45> H -2.7376 -3.5120 1.4738
| 46> H -4.7322 -1.8482 -0.1047
| 47> H -3.0721 -0.9255 -1.3665
| 48> H -2.4069 -2.5638 -1.7339
| 49> H -0.9614 -2.5847 0.0662
| 50> H -1.0624 -0.4646 -2.4118
| 51> H 0.4108 1.8258 -1.3451
| 52> H 0.2531 1.3383 -3.0556
| 53> H 2.5465 1.5409 -0.3393
| 54> H 6.8488 0.2506 -1.3337
| 55> H 3.7373 1.0883 1.5330
| 56> H 3.9004 -1.7451 -3.7659
| 57> H -1.9441 1.8843 -0.4078
| 58> H -3.2581 2.9666 -2.1856
| 59> H -6.8668 1.3275 -0.5296
| 60> H -5.5653 0.2390 1.2497
| 61> *
| 62>
| 63>                          ****END OF INPUT****

CARTESIAN COORDINATES (ANGSTROEM)
---------------------------------
  C     -4.283300   -2.480500    2.470300
  C     -3.233600   -2.519700    1.352200
  C     -3.821100   -2.480600   -0.059900
  F     -4.137200   -3.758000   -0.493100
  C     -2.714200   -1.874500   -0.916800
  C     -1.557400   -1.641900    0.062500
  C     -0.545800   -0.580200   -0.316200
  O      0.317800   -0.238300    0.536600
  N     -0.450000   -0.077700   -1.660900
  C      0.503200    0.963000   -2.040000
  C      1.904900    0.411900   -2.055000
  C      2.832800    0.805200   -1.078900
  C      4.128800    0.258200   -1.083600
  C      5.138400    0.633500   -0.061300
  C      6.508200    0.560300   -0.354400
  N      7.427900    0.896500    0.585800
  C      7.050100    1.292600    1.829200
  C      8.088000    1.689900    2.831500
  F      9.093600    0.741000    2.863200
  F      8.626100    2.911600    2.473100
  F      7.530000    1.793700    4.093400
  N      5.729400    1.368100    2.139500
  C      4.774000    1.044300    1.231300
  N      4.466100   -0.635400   -2.055800
  C      3.588900   -1.029900   -3.015000
  C      2.290600   -0.519800   -3.030100
  F      1.418300   -0.928600   -3.986100
  N     -2.155200   -1.507400    1.409900
  S     -2.695900    0.142300    1.789800
  O     -3.496100    0.156000    3.061500
  O     -1.491100    1.000300    2.053000
  C     -3.647300    0.926900    0.519700
  C     -3.012900    1.733300   -0.438700
  C     -3.757700    2.357400   -1.443300
  C     -5.145600    2.201500   -1.484000
  F     -5.868300    2.807700   -2.457700
  C     -5.789700    1.433900   -0.510300
  C     -5.045600    0.808500    0.494500
  H     -5.007000   -1.656400    2.334000
  H     -3.786500   -2.398000    3.461100
  H     -4.865500   -3.427900    2.459000
  H     -2.737600   -3.512000    1.473800
  H     -4.732200   -1.848200   -0.104700
  H     -3.072100   -0.925500   -1.366500
  H     -2.406900   -2.563800   -1.733900
  H     -0.961400   -2.584700    0.066200
  H     -1.062400   -0.464600   -2.411800
  H      0.410800    1.825800   -1.345100
  H      0.253100    1.338300   -3.055600
  H      2.546500    1.540900   -0.339300
  H      6.848800    0.250600   -1.333700
  H      3.737300    1.088300    1.533000
  H      3.900400   -1.745100   -3.765900
  H     -1.944100    1.884300   -0.407800
  H     -3.258100    2.966600   -2.185600
  H     -6.866800    1.327500   -0.529600
  H     -5.565300    0.239000    1.249700

 Total Charge           Charge          ....    0
 Multiplicity           Mult            ....    1
 Number of Electrons    NEL             ....  286
 Basis Dimension        Dim             ....  574

ORBITAL ENERGIES
----------------

  NO   OCC          E(Eh)            E(eV)
   0   2.0000     -89.097973     -2424.4791
   1   2.0000     -24.734555      -673.0615
   2   2.0000     -24.732988      -673.0188
   3   2.0000     -24.712901      -672.4722
   4   2.0000     -24.711327      -672.4294
   5   2.0000     -24.710681      -672.4118
   6   2.0000     -24.691641      -671.8937
   7   2.0000     -19.132547      -520.6231
   8   2.0000     -19.129775      -520.5476
   9   2.0000     -19.122201      -520.3415
  10   2.0000     -14.396761      -391.7558
  11   2.0000     -14.388807      -391.5394
  12   2.0000     -14.351829      -390.5331
  13   2.0000     -14.349353      -390.4657
  14   2.0000     -14.349116      -390.4593
  15   2.0000     -10.433773      -283.9174
  16   2.0000     -10.316551      -280.7276
  17   2.0000     -10.312629      -280.6209
  18   2.0000     -10.296053      -280.1699
  19   2.0000     -10.283371      -279.8248
  20   2.0000     -10.277737      -279.6714
  21   2.0000     -10.266042      -279.3532
  22   2.0000     -10.259243      -279.1682
  23   2.0000     -10.250915      -278.9416
  24   2.0000     -10.250392      -278.9273
  25   2.0000     -10.247959      -278.8611
  26   2.0000     -10.247817      -278.8573
  27   2.0000     -10.245352      -278.7902
  28   2.0000     -10.243723      -278.7459
  29   2.0000     -10.239415      -278.6286
  30   2.0000     -10.237958      -278.5890
  31   2.0000     -10.233578      -278.4698
  32   2.0000     -10.230453      -278.3848
  33   2.0000     -10.230168      -278.3770
  34   2.0000     -10.223801      -278.2038
  35   2.0000     -10.217138      -278.0225
  36   2.0000     -10.216764      -278.0123
  37   2.0000     -10.188615      -277.2463
  38   2.0000      -8.135305      -221.3729
  39   2.0000      -6.100024      -165.9901
  40   2.0000      -6.098280      -165.9426
  41   2.0000      -6.097827      -165.9303
  42   2.0000      -1.272333       -34.6219
  43   2.0000      -1.247179       -33.9375
  44   2.0000      -1.245218       -33.8841
  45   2.0000      -1.205590       -32.8058
  46   2.0000      -1.198007       -32.5994
  47   2.0000      -1.195704       -32.5368
  48   2.0000      -1.088112       -29.6090
  49   2.0000      -1.035057       -28.1653
  50   2.0000      -0.986485       -26.8436
  51   2.0000      -0.975124       -26.5345
  52   2.0000      -0.962274       -26.1848
  53   2.0000      -0.955833       -26.0095
  54   2.0000      -0.934122       -25.4187
  55   2.0000      -0.903888       -24.5960
  56   2.0000      -0.882533       -24.0149
  57   2.0000      -0.837161       -22.7803
  58   2.0000      -0.832402       -22.6508
  59   2.0000      -0.812367       -22.1056
  60   2.0000      -0.804095       -21.8805
  61   2.0000      -0.797751       -21.7079
  62   2.0000      -0.795139       -21.6368
  63   2.0000      -0.779472       -21.2105
  64   2.0000      -0.739128       -20.1127
  65   2.0000      -0.724654       -19.7188
  66   2.0000      -0.713325       -19.4106
  67   2.0000      -0.694342       -18.8940
  68   2.0000      -0.675553       -18.3827
  69   2.0000      -0.662826       -18.0364
  70   2.0000      -0.657834       -17.9006
  71   2.0000      -0.654558       -17.8114
  72   2.0000      -0.649316       -17.6688
  73   2.0000      -0.635159       -17.2836
  74   2.0000      -0.618119       -16.8199
  75   2.0000      -0.601329       -16.3630
  76   2.0000      -0.594932       -16.1889
  77   2.0000      -0.577363       -15.7109
  78   2.0000      -0.574324       -15.6282
  79   2.0000      -0.565739       -15.3946
  80   2.0000      -0.565087       -15.3768
  81   2.0000      -0.559708       -15.2304
  82   2.0000      -0.556335       -15.1386
  83   2.0000      -0.543934       -14.8012
  84   2.0000      -0.538903       -14.6643
  85   2.0000      -0.529879       -14.4187
  86   2.0000      -0.528129       -14.3711
  87   2.0000      -0.522572       -14.2199
  88   2.0000      -0.512956       -13.9583
  89   2.0000      -0.508286       -13.8312
  90   2.0000      -0.500609       -13.6223
  91   2.0000      -0.490740       -13.3537
  92   2.0000      -0.489921       -13.3314
  93   2.0000      -0.488207       -13.2848
  94   2.0000      -0.486598       -13.2410
  95   2.0000      -0.480781       -13.0827
  96   2.0000      -0.476293       -12.9606
  97   2.0000      -0.468835       -12.7577
  98   2.0000      -0.460445       -12.5293
  99   2.0000      -0.458229       -12.4690
 100   2.0000      -0.450577       -12.2608
 101   2.0000      -0.445242       -12.1156
 102   2.0000      -0.443744       -12.0749
 103   2.0000      -0.442712       -12.0468
 104   2.0000      -0.439930       -11.9711
 105   2.0000      -0.439428       -11.9574
 106   2.0000      -0.437129       -11.8949
 107   2.0000      -0.431332       -11.7372
 108   2.0000      -0.428067       -11.6483
 109   2.0000      -0.424674       -11.5560
 110   2.0000      -0.423547       -11.5253
 111   2.0000      -0.419046       -11.4028
 112   2.0000      -0.411339       -11.1931
 113   2.0000      -0.411143       -11.1878
 114   2.0000      -0.405873       -11.0444
 115   2.0000      -0.404268       -11.0007
 116   2.0000      -0.399543       -10.8721
 117   2.0000      -0.397533       -10.8174
 118   2.0000      -0.393194       -10.6994
 119   2.0000      -0.390259       -10.6195
 120   2.0000      -0.389290       -10.5931
 121   2.0000      -0.386224       -10.5097
 122   2.0000      -0.384821       -10.4715
 123   2.0000      -0.381496       -10.3810
 124   2.0000      -0.370726       -10.0880
 125   2.0000      -0.351317        -9.5598
 126   2.0000      -0.345392        -9.3986
 127   2.0000      -0.321032        -8.7357
 128   2.0000      -0.316994        -8.6258
 129   2.0000      -0.315184        -8.5766
 130   2.0000      -0.314339        -8.5536
 131   2.0000      -0.309824        -8.4307
 132   2.0000      -0.301496        -8.2041
 133   2.0000      -0.299512        -8.1501
 134   2.0000      -0.294326        -8.0090
 135   2.0000      -0.291458        -7.9310
 136   2.0000      -0.279048        -7.5933
 137   2.0000      -0.276356        -7.5200
 138   2.0000      -0.270452        -7.3594
 139   2.0000      -0.265464        -7.2237
 140   2.0000      -0.259526        -7.0620
 141   2.0000      -0.252896        -6.8816
 142   2.0000      -0.242740        -6.6053
 143   0.0000      -0.072971        -1.9856
 144   0.0000      -0.066651        -1.8137
 145   0.0000      -0.053822        -1.4646
 146   0.0000      -0.050709        -1.3799
 147   0.0000      -0.043447        -1.1822

MULLIKEN ATOMIC CHARGES
-----------------------
   0 C :   -0.457061
   1 C :   -0.056178
   2 C :    0.277269
   3 F :   -0.348656
   4 C :   -0.366587
   5 C :   -0.076069
   6 C :    0.535751
   7 O :   -0.434009
   8 N :   -0.608566
   9 C :   -0.227330
  10 C :    0.117248
  11 C :   -0.169416
  12 C :    0.181793
  13 C :    0.079967
  14 C :    0.016846
  15 N :   -0.375464
  16 C :    0.217952
  17 C :    0.950614
  18 F :   -0.291498
  19 F :   -0.293082
  20 F :   -0.291590
  21 N :   -0.370286
  22 C :   -0.005547
  23 N :   -0.407592
  24 C :   -0.045360
  25 C :    0.346562
  26 F :   -0.315043
  27 N :   -0.465991
  28 S :    1.187445
  29 O :   -0.542616
  30 O :   -0.527043
  31 C :   -0.162210
  32 C :   -0.128909
  33 C :   -0.203528
  34 C :    0.423512
  35 F :   -0.304170
  36 C :   -0.198059
  37 C :   -0.138686
  38 H :    0.161492
  39 H :    0.194823
  40 H :    0.152691
  41 H :    0.179848
  42 H :    0.129371
  43 H :    0.161401
  44 H :    0.171913
  45 H :    0.206089
  46 H :    0.336423
  47 H :    0.183877
  48 H :    0.171073
  49 H :    0.164399
  50 H :    0.186263
  51 H :    0.190869
  52 H :    0.166605
  53 H :    0.197009
  54 H :    0.161993
  55 H :    0.168631
  56 H :    0.190817
Sum of atomic charges:   -0.0000000

LOEWDIN ATOMIC CHARGES
----------------------
   0 C :   -0.360446
   1 C :   -0.089625
   2 C :    0.035469
   3 F :   -0.163244
   4 C :   -0.272541
   5 C :   -0.086407
   6 C :    0.125161
   7 O :   -0.246089
   8 N :   -0.241960
   9 C :   -0.146691
  10 C :   -0.028138
  11 C :   -0.111369
  12 C :    0.019627
  13 C :   -0.040661
  14 C :   -0.023883
  15 N :   -0.116911
  16 C :    0.011381
  17 C :    0.312224
  18 F :   -0.102558
  19 F :   -0.104483
  20 F :   -0.098810
  21 N :   -0.116852
  22 C :   -0.037645
  23 N :   -0.124838
  24 C :   -0.089815
  25 C :    0.099247
  26 F :   -0.103727
  27 N :   -0.258201
  28 S :    1.243239
  29 O :   -0.561064
  30 O :   -0.549213
  31 C :   -0.208950
  32 C :   -0.096859
  33 C :   -0.155178
  34 C :    0.137460
  35 F :   -0.090849
  36 C :   -0.151595
  37 C :   -0.101574
  38 H :    0.127879
  39 H :    0.153754
  40 H :    0.132495
  41 H :    0.146957
  42 H :    0.118160
  43 H :    0.134525
  44 H :    0.144007
  45 H :    0.165158
  46 H :    0.254228
  47 H :    0.142016
  48 H :    0.142522
  49 H :    0.150097
  50 H :    0.155420
  51 H :    0.153948
  52 H :    0.147211
  53 H :    0.162931
  54 H :    0.152094
  55 H :    0.155151
  56 H :    0.157816

  Mayer bond orders larger than 0.100000
B(  0-C ,  1-C ) :   1.0210 B(  0-C , 38-H ) :   0.9301 B(  0-C , 39-H ) :   0.9306
B(  0-C , 40-H ) :   0.9313 B(  1-C ,  2-C ) :   0.9470 B(  1-C , 27-N ) :   0.9134
B(  1-C , 41-H ) :   0.9030 B(  2-C ,  3-F ) :   0.8741 B(  2-C ,  4-C ) :   0.9797
B(  2-C , 42-H ) :   0.9136 B(  4-C ,  5-C ) :   0.9543 B(  4-C , 43-H ) :   0.9193
B(  4-C , 44-H ) :   0.9221 B(  5-C ,  6-C ) :   0.9460 B(  5-C , 27-N ) :   0.9479
B(  5-C , 45-H ) :   0.8931 B(  6-C ,  7-O ) :   1.8216 B(  6-C ,  8-N ) :   1.0406
B(  8-N ,  9-C ) :   0.9506 B(  8-N , 46-H ) :   0.8161 B(  9-C , 10-C ) :   0.9427
B(  9-C , 47-H ) :   0.9201 B(  9-C , 48-H ) :   0.9286 B( 10-C , 11-C ) :   1.4406
B( 10-C , 25-C ) :   1.3352 B( 11-C , 12-C ) :   1.3579 B( 11-C , 49-H ) :   0.9020
B( 12-C , 13-C ) :   1.0138 B( 12-C , 23-N ) :   1.3747 B( 13-C , 14-C ) :   1.3401
B( 13-C , 22-C ) :   1.3554 B( 14-C , 15-N ) :   1.4262 B( 14-C , 50-H ) :   0.9140
B( 15-N , 16-C ) :   1.3745 B( 16-C , 17-C ) :   0.9299 B( 16-C , 21-N ) :   1.3824
B( 17-C , 18-F ) :   0.9800 B( 17-C , 19-F ) :   0.9819 B( 17-C , 20-F ) :   0.9710
B( 21-N , 22-C ) :   1.4251 B( 22-C , 51-H ) :   0.9143 B( 23-N , 24-C ) :   1.4267
B( 24-C , 25-C ) :   1.3398 B( 24-C , 52-H ) :   0.9187 B( 25-C , 26-F ) :   0.9298
B( 27-N , 28-S ) :   0.7590 B( 28-S , 29-O ) :   1.6027 B( 28-S , 30-O ) :   1.6305
B( 28-S , 31-C ) :   0.7950 B( 31-C , 32-C ) :   1.3911 B( 31-C , 37-C ) :   1.3839
B( 32-C , 33-C ) :   1.4244 B( 32-C , 53-H ) :   0.8983 B( 33-C , 34-C ) :   1.3825
B( 33-C , 54-H ) :   0.9184 B( 34-C , 35-F ) :   0.9330 B( 34-C , 36-C ) :   1.3824
B( 36-C , 37-C ) :   1.4284 B( 36-C , 55-H ) :   0.9166 B( 37-C , 56-H ) :   0.9038

FINAL SINGLE POINT ENERGY     -2383.288434935019

DIPOLE MOMENT
-------------

Method             : SCF
Type of density    : Electron Density
Multiplicity       :   1
Irrep              :   0
Energy             : -2383.2884349350192679 Eh
Relativity type    :
Basis              : AO
                                X                 Y                 Z
Electronic contribution:     47.521900538      13.575091389       6.740118420
Nuclear contribution   :    -50.687315004     -14.216052678     -10.321303987
                        -----------------------------------------
Total Dipole Moment    :     -3.165414466      -0.640961289      -3.581185568
                        -----------------------------------------
Magnitude (a.u.)       :      4.822402947
Magnitude (Debye)      :     12.257574166

Rotational constants in cm-1:             0.005042             0.001212             0.001145
Rotational constants in MHz :           151.142203            36.338999            34.338452

                             ****ORCA TERMINATED NORMALLY****
TOTAL RUN TIME: 0 days 0 hours 10 minutes 15 seconds 782 msec
