                         Program Version 6.0.0  -   RELEASE  -
|  1> ! B3LYP 6-31G* SP
|  2>
|  3> * xyz 0 1
|  4> C 5.5947 1.2428 -0.2511
|  5> C 5.3229 -0.0313 0.5779
|  6> C 6.0570 -1.2061 -0.1118
|  7> C 5.9287 0.1351 1.9890
|  8> C 3.8005 -0.2539 0.6930
|  9> C 2.9960 0.7308 1.3093
| 10> C 1.6142 0.5656 1.4267
| 11> C 0.9939 -0.5892 0.9355
| 12> C -0.5010 -0.7383 1.0128
| 13> N -1.1309 -0.1053 -0.1473
| 14> C -1.1631 1.3202 -0.2668
| 15> N -0.3059 1.9357 -1.1246
| 16> C -0.2807 3.2858 -1.2744
| 17> C -1.1471 4.0970 -0.5246
| 18> C -1.1643 5.5920 -0.7141
| 19> F -2.0922 5.9178 -1.6852
| 20> F -1.5056 6.2257 0.4681
| 21> F 0.0807 6.0516 -1.1078
| 22> C -2.0661 3.4766 0.3356
| 23> C -2.0744 2.0867 0.4756
| 24> Cl -3.2529 1.3338 1.5421
| 25> S -1.8142 -1.0780 -1.4107
| 26> O -2.0773 -0.2324 -2.6256
| 27> O -0.8485 -2.1641 -1.7939
| 28> C -3.3269 -1.7762 -0.8467
| 29> C -4.5058 -1.0221 -0.8928
| 30> C -5.7077 -1.5642 -0.4285
| 31> C -5.7456 -2.8710 0.0910
| 32> C -7.0159 -3.4532 0.5767
| 33> O -8.0726 -2.7669 0.5816
| 34> O -7.0556 -4.7669 1.0331
| 35> C -4.5560 -3.6192 0.1417
| 36> C -3.3548 -3.0733 -0.3200
| 37> C 1.7725 -1.5709 0.3116
| 38> C 3.1558 -1.4115 0.1946
| 39> H 6.6868 1.4022 -0.3817
| 40> H 5.1841 2.1473 0.2437
| 41> H 5.1310 1.1547 -1.2576
| 42> H 5.6903 -1.3473 -1.1517
| 43> H 7.1495 -1.0091 -0.1684
| 44> H 5.9176 -2.1498 0.4588
| 45> H 5.7107 -0.7613 2.6107
| 46> H 7.0321 0.2614 1.9313
| 47> H 5.5196 1.0278 2.5084
| 48> H 3.4327 1.6397 1.7001
| 49> H 1.0252 1.3452 1.8949
| 50> H -0.7719 -1.8159 1.0550
| 51> H -0.8838 -0.2814 1.9502
| 52> H 0.4152 3.7222 -1.9796
| 53> H -2.7800 4.0702 0.8931
| 54> H -4.4938 -0.0120 -1.2834
| 55> H -6.6063 -0.9606 -0.4773
| 56> H -7.9213 -5.1791 1.3601
| 57> H -4.5510 -4.6256 0.5415
| 58> H -2.4476 -3.6622 -0.2629
| 59> H 1.3086 -2.4648 -0.0868
| 60> H 3.7008 -2.2048 -0.2939
| 61> *
| 62>
| 63>                          ****END OF INPUT****

CARTESIAN COORDINATES (ANGSTROEM)
---------------------------------
  C      5.594700    1.242800   -0.251100
  C      5.322900   -0.031300    0.577900
  C      6.057000   -1.206100   -0.111800
  C      5.928700    0.135100    1.989000
  C      3.800500   -0.253900    0.693000
  C      2.996000    0.730800    1.309300
  C      1.614200    0.565600    1.426700
  C      0.993900   -0.589200    0.935500
  C     -0.501000   -0.738300    1.012800
  N     -1.130900   -0.105300   -0.147300
  C     -1.163100    1.320200   -0.266800
  N     -0.305900    1.935700   -1.124600
  C     -0.280700    3.285800   -1.274400
  C     -1.147100    4.097000   -0.524600
  C     -1.164300    5.592000   -0.714100
  F     -2.092200    5.917800   -1.685200
  F     -1.505600    6.225700    0.468100
  F      0.080700    6.051600   -1.107800
  C     -2.066100    3.476600    0.335600
  C     -2.074400    2.086700    0.475600
  Cl    -3.252900    1.333800    1.542100
  S     -1.814200   -1.078000   -1.410700
  O     -2.077300   -0.232400   -2.625600
  O     -0.848500   -2.164100   -1.793900
  C     -3.326900   -1.776200   -0.846700
  C     -4.505800   -1.022100   -0.892800
  C     -5.707700   -1.564200   -0.428500
  C     -5.745600   -2.871000    0.091000
  C     -7.015900   -3.453200    0.576700
  O     -8.072600   -2.766900    0.581600
  O     -7.055600   -4.766900    1.033100
  C     -4.556000   -3.619200    0.141700
  C     -3.354800   -3.073300   -0.320000
  C      1.772500   -1.570900    0.311600
  C      3.155800   -1.411500    0.194600
  H      6.686800    1.402200   -0.381700
  H      5.184100    2.147300    0.243700
  H      5.131000    1.154700   -1.257600
  H      5.690300   -1.347300   -1.151700
  H      7.149500   -1.009100   -0.168400
  H      5.917600   -2.149800    0.458800
  H      5.710700   -0.761300    2.610700
  H      7.032100    0.261400    1.931300
  H      5.519600    1.027800    2.508400
  H      3.432700    1.639700    1.700100
  H      1.025200    1.345200    1.894900
  H     -0.771900   -1.815900    1.055000
  H     -0.883800   -0.281400    1.950200
  H      0.415200    3.722200   -1.979600
  H     -2.780000    4.070200    0.893100
  H     -4.493800   -0.012000   -1.283400
  H     -6.606300   -0.960600   -0.477300
  H     -7.921300   -5.179100    1.360100
  H     -4.551000   -4.625600    0.541500
  H     -2.447600   -3.662200   -0.262900
  H      1.308600   -2.464800   -0.086800
  H      3.700800   -2.204800   -0.293900

 Total Charge           Charge          ....    0
 Multiplicity           Mult            ....    1
 Number of Electrons    NEL             ....  272
 Basis Dimension        Dim             ....  542

ORBITAL ENERGIES
----------------

  NO   OCC          E(Eh)            E(eV)
   0   2.0000    -101.558178     -2763.5385
   1   2.0000     -89.104327     -2424.6520
   2   2.0000     -24.735960      -673.0997
   3   2.0000     -24.735692      -673.0924
   4   2.0000     -24.731441      -672.9767
   5   2.0000     -19.199150      -522.4354
   6   2.0000     -19.140882      -520.8499
   7   2.0000     -19.131680      -520.5995
   8   2.0000     -19.130833      -520.5764
   9   2.0000     -14.381681      -391.3454
  10   2.0000     -14.361625      -390.7997
  11   2.0000     -10.453920      -284.4656
  12   2.0000     -10.338258      -281.3183
  13   2.0000     -10.297554      -280.2107
  14   2.0000     -10.283470      -279.8274
  15   2.0000     -10.255058      -279.0543
  16   2.0000     -10.246485      -278.8210
  17   2.0000     -10.242994      -278.7260
  18   2.0000     -10.242580      -278.7148
  19   2.0000     -10.238510      -278.6040
  20   2.0000     -10.235598      -278.5248
  21   2.0000     -10.224445      -278.2213
  22   2.0000     -10.224145      -278.2131
  23   2.0000     -10.221075      -278.1296
  24   2.0000     -10.220863      -278.1238
  25   2.0000     -10.195440      -277.4320
  26   2.0000     -10.187865      -277.2259
  27   2.0000     -10.185777      -277.1691
  28   2.0000     -10.181161      -277.0435
  29   2.0000     -10.177795      -276.9519
  30   2.0000     -10.175606      -276.8923
  31   2.0000     -10.175173      -276.8805
  32   2.0000     -10.167242      -276.6647
  33   2.0000     -10.166730      -276.6508
  34   2.0000     -10.165836      -276.6265
  35   2.0000      -9.489411      -258.2200
  36   2.0000      -8.139926      -221.4986
  37   2.0000      -7.252663      -197.3550
  38   2.0000      -7.243045      -197.0933
  39   2.0000      -7.242551      -197.0798
  40   2.0000      -6.105113      -166.1286
  41   2.0000      -6.102893      -166.0682
  42   2.0000      -6.102512      -166.0578
  43   2.0000      -1.295382       -35.2491
  44   2.0000      -1.220956       -33.2239
  45   2.0000      -1.219039       -33.1717
  46   2.0000      -1.089475       -29.6461
  47   2.0000      -1.084267       -29.5044
  48   2.0000      -0.998265       -27.1642
  49   2.0000      -0.987616       -26.8744
  50   2.0000      -0.967348       -26.3229
  51   2.0000      -0.932395       -25.3717
  52   2.0000      -0.897263       -24.4158
  53   2.0000      -0.894131       -24.3306
  54   2.0000      -0.853392       -23.2220
  55   2.0000      -0.839685       -22.8490
  56   2.0000      -0.813658       -22.1408
  57   2.0000      -0.809156       -22.0183
  58   2.0000      -0.783949       -21.3323
  59   2.0000      -0.780267       -21.2321
  60   2.0000      -0.757379       -20.6093
  61   2.0000      -0.739691       -20.1280
  62   2.0000      -0.730100       -19.8670
  63   2.0000      -0.710112       -19.3231
  64   2.0000      -0.683751       -18.6058
  65   2.0000      -0.675774       -18.3887
  66   2.0000      -0.675290       -18.3756
  67   2.0000      -0.671769       -18.2798
  68   2.0000      -0.655261       -17.8306
  69   2.0000      -0.643174       -17.5016
  70   2.0000      -0.628531       -17.1032
  71   2.0000      -0.607044       -16.5185
  72   2.0000      -0.599043       -16.3008
  73   2.0000      -0.594714       -16.1830
  74   2.0000      -0.587047       -15.9744
  75   2.0000      -0.585916       -15.9436
  76   2.0000      -0.574370       -15.6294
  77   2.0000      -0.566732       -15.4216
  78   2.0000      -0.545851       -14.8534
  79   2.0000      -0.541352       -14.7309
  80   2.0000      -0.532073       -14.4784
  81   2.0000      -0.521471       -14.1899
  82   2.0000      -0.496363       -13.5067
  83   2.0000      -0.493187       -13.4203
  84   2.0000      -0.486470       -13.2375
  85   2.0000      -0.480506       -13.0752
  86   2.0000      -0.475474       -12.9383
  87   2.0000      -0.470835       -12.8121
  88   2.0000      -0.464779       -12.6473
  89   2.0000      -0.463993       -12.6259
  90   2.0000      -0.462087       -12.5740
  91   2.0000      -0.457613       -12.4523
  92   2.0000      -0.453408       -12.3379
  93   2.0000      -0.452196       -12.3049
  94   2.0000      -0.445455       -12.1214
  95   2.0000      -0.442168       -12.0320
  96   2.0000      -0.438682       -11.9371
  97   2.0000      -0.435364       -11.8468
  98   2.0000      -0.431681       -11.7466
  99   2.0000      -0.429310       -11.6821
 100   2.0000      -0.427038       -11.6203
 101   2.0000      -0.425690       -11.5836
 102   2.0000      -0.421183       -11.4610
 103   2.0000      -0.419358       -11.4113
 104   2.0000      -0.415418       -11.3041
 105   2.0000      -0.412763       -11.2319
 106   2.0000      -0.400131       -10.8881
 107   2.0000      -0.398091       -10.8326
 108   2.0000      -0.395125       -10.7519
 109   2.0000      -0.388804       -10.5799
 110   2.0000      -0.387390       -10.5414
 111   2.0000      -0.379046       -10.3144
 112   2.0000      -0.372450       -10.1349
 113   2.0000      -0.370304       -10.0765
 114   2.0000      -0.367622       -10.0035
 115   2.0000      -0.358584        -9.7576
 116   2.0000      -0.349866        -9.5203
 117   2.0000      -0.346461        -9.4277
 118   2.0000      -0.341984        -9.3059
 119   2.0000      -0.334574        -9.1042
 120   2.0000      -0.324502        -8.8301
 121   2.0000      -0.323107        -8.7922
 122   2.0000      -0.318280        -8.6608
 123   2.0000      -0.316940        -8.6244
 124   2.0000      -0.310485        -8.4487
 125   2.0000      -0.309763        -8.4291
 126   2.0000      -0.298278        -8.1166
 127   2.0000      -0.290309        -7.8997
 128   2.0000      -0.286754        -7.8030
 129   2.0000      -0.281032        -7.6473
 130   2.0000      -0.277946        -7.5633
 131   2.0000      -0.277590        -7.5536
 132   2.0000      -0.274333        -7.4650
 133   2.0000      -0.261051        -7.1036
 134   2.0000      -0.243547        -6.6273
 135   2.0000      -0.231383        -6.2962
 136   0.0000      -0.088971        -2.4210
 137   0.0000      -0.067741        -1.8433
 138   0.0000      -0.053956        -1.4682
 139   0.0000      -0.034544        -0.9400
 140   0.0000      -0.007547        -0.2054

MULLIKEN ATOMIC CHARGES
-----------------------
   0 C :   -0.434744
   1 C :    0.036380
   2 C :   -0.452397
   3 C :   -0.434481
   4 C :    0.165397
   5 C :   -0.181645
   6 C :   -0.169868
   7 C :    0.189674
   8 C :   -0.269106
   9 N :   -0.590210
  10 C :    0.397280
  11 N :   -0.331598
  12 C :   -0.003233
  13 C :   -0.025870
  14 C :    0.904790
  15 F :   -0.289279
  16 F :   -0.301490
  17 F :   -0.300074
  18 C :   -0.132216
  19 C :   -0.096572
  20 Cl:    0.020272
  21 S :    1.205248
  22 O :   -0.533094
  23 O :   -0.536060
  24 C :   -0.115480
  25 C :   -0.135834
  26 C :   -0.141254
  27 C :    0.082827
  28 C :    0.528405
  29 O :   -0.442771
  30 O :   -0.623070
  31 C :   -0.145765
  32 C :   -0.149621
  33 C :   -0.159096
  34 C :   -0.190122
  35 H :    0.135762
  36 H :    0.136417
  37 H :    0.149042
  38 H :    0.145728
  39 H :    0.138958
  40 H :    0.140574
  41 H :    0.142997
  42 H :    0.136190
  43 H :    0.136781
  44 H :    0.123436
  45 H :    0.116354
  46 H :    0.172801
  47 H :    0.169857
  48 H :    0.186915
  49 H :    0.187973
  50 H :    0.183405
  51 H :    0.182379
  52 H :    0.435088
  53 H :    0.173941
  54 H :    0.181248
  55 H :    0.147726
  56 H :    0.131103
Sum of atomic charges:   -0.0000000

LOEWDIN ATOMIC CHARGES
----------------------
   0 C :   -0.342432
   1 C :   -0.035580
   2 C :   -0.348013
   3 C :   -0.342339
   4 C :    0.002088
   5 C :   -0.130842
   6 C :   -0.132545
   7 C :   -0.038864
   8 C :   -0.146380
   9 N :   -0.279426
  10 C :    0.059296
  11 N :   -0.081426
  12 C :   -0.043845
  13 C :   -0.074075
  14 C :    0.312698
  15 F :   -0.106938
  16 F :   -0.110338
  17 F :   -0.107511
  18 C :   -0.093083
  19 C :   -0.099224
  20 Cl:    0.058463
  21 S :    1.269200
  22 O :   -0.561474
  23 O :   -0.566526
  24 C :   -0.174324
  25 C :   -0.096996
  26 C :   -0.085083
  27 C :   -0.037821
  28 C :    0.179044
  29 O :   -0.258864
  30 O :   -0.333575
  31 C :   -0.098968
  32 C :   -0.108214
  33 C :   -0.117043
  34 C :   -0.135399
  35 H :    0.120070
  36 H :    0.119224
  37 H :    0.127138
  38 H :    0.124064
  39 H :    0.123490
  40 H :    0.121696
  41 H :    0.124099
  42 H :    0.120216
  43 H :    0.119194
  44 H :    0.128672
  45 H :    0.125379
  46 H :    0.142858
  47 H :    0.133180
  48 H :    0.154550
  49 H :    0.162187
  50 H :    0.159428
  51 H :    0.161350
  52 H :    0.350497
  53 H :    0.155270
  54 H :    0.157504
  55 H :    0.140701
  56 H :    0.135594

  Mayer bond orders larger than 0.100000
B(  0-C ,  1-C ) :   0.9908 B(  0-C , 35-H ) :   0.9431 B(  0-C , 36-H ) :   0.9429
B(  0-C , 37-H ) :   0.9460 B(  1-C ,  2-C ) :   0.9999 B(  1-C ,  3-C ) :   0.9899
B(  1-C ,  4-C ) :   0.9719 B(  2-C , 38-H ) :   0.9402 B(  2-C , 39-H ) :   0.9430
B(  2-C , 40-H ) :   0.9411 B(  3-C , 41-H ) :   0.9471 B(  3-C , 42-H ) :   0.9432
B(  3-C , 43-H ) :   0.9426 B(  4-C ,  5-C ) :   1.4011 B(  4-C , 34-C ) :   1.4280
B(  5-C ,  6-C ) :   1.4374 B(  5-C , 44-H ) :   0.9215 B(  6-C ,  7-C ) :   1.4234
B(  6-C , 45-H ) :   0.9247 B(  7-C ,  8-C ) :   0.9409 B(  7-C , 33-C ) :   1.4478
B(  8-C ,  9-N ) :   0.9102 B(  8-C , 46-H ) :   0.9223 B(  8-C , 47-H ) :   0.9199
B(  9-N , 10-C ) :   0.9478 B(  9-N , 21-S ) :   0.7992 B( 10-C , 11-N ) :   1.3941
B( 10-C , 19-C ) :   1.3354 B( 11-N , 12-C ) :   1.4119 B( 12-C , 13-C ) :   1.3544
B( 12-C , 48-H ) :   0.9168 B( 13-C , 14-C ) :   0.9718 B( 13-C , 18-C ) :   1.4127
B( 14-C , 15-F ) :   0.9922 B( 14-C , 16-F ) :   0.9511 B( 14-C , 17-F ) :   0.9505
B( 18-C , 19-C ) :   1.3916 B( 18-C , 49-H ) :   0.9081 B( 19-C , 20-Cl) :   1.0421
B( 21-S , 22-O ) :   1.6443 B( 21-S , 23-O ) :   1.6332 B( 21-S , 24-C ) :   0.8148
B( 24-C , 25-C ) :   1.3775 B( 24-C , 32-C ) :   1.3953 B( 25-C , 26-C ) :   1.4275
B( 25-C , 50-H ) :   0.9102 B( 26-C , 27-C ) :   1.3980 B( 26-C , 51-H ) :   0.9090
B( 27-C , 28-C ) :   1.0069 B( 27-C , 31-C ) :   1.3886 B( 28-C , 29-O ) :   1.8644
B( 28-C , 30-O ) :   1.0268 B( 30-O , 52-H ) :   0.7412 B( 31-C , 32-C ) :   1.4126
B( 31-C , 53-H ) :   0.9145 B( 32-C , 54-H ) :   0.9097 B( 33-C , 34-C ) :   1.4181
B( 33-C , 55-H ) :   0.9138 B( 34-C , 56-H ) :   0.9177

FINAL SINGLE POINT ENERGY     -2494.966226899518

DIPOLE MOMENT
-------------

Method             : SCF
Type of density    : Electron Density
Multiplicity       :   1
Irrep              :   0
Energy             : -2494.9662268995184604 Eh
Relativity type    :
Basis              : AO
                                X                 Y                 Z
Electronic contribution:    -57.195891720      33.919898870      -8.445969926
Nuclear contribution   :     57.012215688     -34.381169471      10.349658759
                        -----------------------------------------
Total Dipole Moment    :     -0.183676032      -0.461270601       1.903688833
                        -----------------------------------------
Magnitude (a.u.)       :      1.967368452
Magnitude (Debye)      :      5.000653196

Rotational constants in cm-1:             0.003764             0.002088             0.001490
Rotational constants in MHz :           112.848100            62.584902            44.654324

                             ****ORCA TERMINATED NORMALLY****
TOTAL RUN TIME: 0 days 0 hours 8 minutes 8 seconds 902 msec
