                         Program Version 6.0.0  -   RELEASE  -
|  1> ! B3LYP 6-31G* SP
|  2>
|  3> * xyz 0 1
|  4> C -0.0006 2.9843 -0.0086
|  5> C -1.4548 2.7232 0.3021
|  6> C -1.9559 1.4021 0.5101
|  7> N -1.1321 0.2200 0.3648
|  8> C -0.5720 -0.0971 -0.9622
|  9> C 0.8618 -0.5904 -0.9356
| 10> C 1.3560 -1.2502 -2.0689
| 11> C 2.7026 -1.6061 -2.1550
| 12> C 3.5865 -1.2915 -1.1234
| 13> O 4.9353 -1.6443 -1.2589
| 14> C 6.0140 -0.9921 -0.6353
| 15> C 7.1099 -1.7547 -0.2042
| 16> C 8.1913 -1.1403 0.4329
| 17> C 8.1927 0.2469 0.6228
| 18> C 7.1172 1.0209 0.1659
| 19> C 6.0346 0.4079 -0.4671
| 20> C 3.0955 -0.6573 0.0262
| 21> C 1.7514 -0.2976 0.1121
| 22> S -1.3925 -1.1090 1.4736
| 23> O -0.0694 -1.6486 1.9412
| 24> O -2.1598 -0.6372 2.6787
| 25> C -2.3091 -2.3980 0.6925
| 26> C -1.8732 -3.7325 0.7591
| 27> C -2.6177 -4.7488 0.1457
| 28> C -3.8155 -4.4483 -0.5317
| 29> C -4.6187 -5.5172 -1.1693
| 30> O -4.2332 -6.7214 -1.1305
| 31> O -5.8151 -5.2026 -1.8113
| 32> C -4.2454 -3.1102 -0.5908
| 33> C -3.4981 -2.0969 0.0157
| 34> N -3.2611 1.2335 0.8355
| 35> C -4.1359 2.2593 0.9649
| 36> C -3.7121 3.5716 0.7603
| 37> C -4.6127 4.6383 0.9139
| 38> C -4.1883 5.9493 0.7208
| 39> C -2.8708 6.2054 0.3392
| 40> C -1.9666 5.1530 0.1738
| 41> C -2.3647 3.8157 0.4053
| 42> H 0.6377 2.1039 0.1470
| 43> H 0.4021 3.7673 0.6657
| 44> H 0.0971 3.3153 -1.0645
| 45> H -0.6072 0.7944 -1.6243
| 46> H -1.2155 -0.8589 -1.4473
| 47> H 0.6999 -1.4688 -2.9024
| 48> H 3.0678 -2.1041 -3.0390
| 49> H 7.1089 -2.8284 -0.3504
| 50> H 9.0288 -1.7404 0.7745
| 51> H 9.0225 0.7216 1.1177
| 52> H 7.1272 2.0964 0.2974
| 53> H 5.2114 1.0133 -0.8260
| 54> H 3.7469 -0.4438 0.8609
| 55> H 1.4133 0.1992 1.0066
| 56> H -0.9612 -3.9918 1.2864
| 57> H -2.2586 -5.7705 0.2113
| 58> H -6.3910 -5.9306 -2.2281
| 59> H -5.1619 -2.8437 -1.0991
| 60> H -3.8543 -1.0747 -0.0435
| 61> H -5.1601 2.0431 1.2387
| 62> H -5.6459 4.4612 1.1859
| 63> H -4.8795 6.7705 0.8715
| 64> H -2.5437 7.2246 0.1822
| 65> H -0.9584 5.4061 -0.1373
| 66> *
| 67>
| 68>                          ****END OF INPUT****

CARTESIAN COORDINATES (ANGSTROEM)
---------------------------------
  C     -0.000600    2.984300   -0.008600
  C     -1.454800    2.723200    0.302100
  C     -1.955900    1.402100    0.510100
  N     -1.132100    0.220000    0.364800
  C     -0.572000   -0.097100   -0.962200
  C      0.861800   -0.590400   -0.935600
  C      1.356000   -1.250200   -2.068900
  C      2.702600   -1.606100   -2.155000
  C      3.586500   -1.291500   -1.123400
  O      4.935300   -1.644300   -1.258900
  C      6.014000   -0.992100   -0.635300
  C      7.109900   -1.754700   -0.204200
  C      8.191300   -1.140300    0.432900
  C      8.192700    0.246900    0.622800
  C      7.117200    1.020900    0.165900
  C      6.034600    0.407900   -0.467100
  C      3.095500   -0.657300    0.026200
  C      1.751400   -0.297600    0.112100
  S     -1.392500   -1.109000    1.473600
  O     -0.069400   -1.648600    1.941200
  O     -2.159800   -0.637200    2.678700
  C     -2.309100   -2.398000    0.692500
  C     -1.873200   -3.732500    0.759100
  C     -2.617700   -4.748800    0.145700
  C     -3.815500   -4.448300   -0.531700
  C     -4.618700   -5.517200   -1.169300
  O     -4.233200   -6.721400   -1.130500
  O     -5.815100   -5.202600   -1.811300
  C     -4.245400   -3.110200   -0.590800
  C     -3.498100   -2.096900    0.015700
  N     -3.261100    1.233500    0.835500
  C     -4.135900    2.259300    0.964900
  C     -3.712100    3.571600    0.760300
  C     -4.612700    4.638300    0.913900
  C     -4.188300    5.949300    0.720800
  C     -2.870800    6.205400    0.339200
  C     -1.966600    5.153000    0.173800
  C     -2.364700    3.815700    0.405300
  H      0.637700    2.103900    0.147000
  H      0.402100    3.767300    0.665700
  H      0.097100    3.315300   -1.064500
  H     -0.607200    0.794400   -1.624300
  H     -1.215500   -0.858900   -1.447300
  H      0.699900   -1.468800   -2.902400
  H      3.067800   -2.104100   -3.039000
  H      7.108900   -2.828400   -0.350400
  H      9.028800   -1.740400    0.774500
  H      9.022500    0.721600    1.117700
  H      7.127200    2.096400    0.297400
  H      5.211400    1.013300   -0.826000
  H      3.746900   -0.443800    0.860900
  H      1.413300    0.199200    1.006600
  H     -0.961200   -3.991800    1.286400
  H     -2.258600   -5.770500    0.211300
  H     -6.391000   -5.930600   -2.228100
  H     -5.161900   -2.843700   -1.099100
  H     -3.854300   -1.074700   -0.043500
  H     -5.160100    2.043100    1.238700
  H     -5.645900    4.461200    1.185900
  H     -4.879500    6.770500    0.871500
  H     -2.543700    7.224600    0.182200
  H     -0.958400    5.406100   -0.137300

 Total Charge           Charge          ....    0
 Multiplicity           Mult            ....    1
 Number of Electrons    NEL             ....  274
 Basis Dimension        Dim             ....  584

ORBITAL ENERGIES
----------------

  NO   OCC          E(Eh)            E(eV)
   0   2.0000     -89.093752     -2424.3643
   1   2.0000     -19.194248      -522.3020
   2   2.0000     -19.176115      -521.8086
   3   2.0000     -19.134586      -520.6786
   4   2.0000     -19.121632      -520.3261
   5   2.0000     -19.116510      -520.1867
   6   2.0000     -14.381513      -391.3409
   7   2.0000     -14.333381      -390.0311
   8   2.0000     -10.332501      -281.1617
   9   2.0000     -10.268447      -279.4186
  10   2.0000     -10.247719      -278.8546
  11   2.0000     -10.245427      -278.7922
  12   2.0000     -10.239267      -278.6246
  13   2.0000     -10.237842      -278.5859
  14   2.0000     -10.227631      -278.3080
  15   2.0000     -10.226414      -278.2749
  16   2.0000     -10.215117      -277.9675
  17   2.0000     -10.212718      -277.9022
  18   2.0000     -10.212277      -277.8902
  19   2.0000     -10.212021      -277.8832
  20   2.0000     -10.211836      -277.8782
  21   2.0000     -10.208259      -277.7808
  22   2.0000     -10.199460      -277.5414
  23   2.0000     -10.198491      -277.5150
  24   2.0000     -10.197789      -277.4959
  25   2.0000     -10.196460      -277.4598
  26   2.0000     -10.194952      -277.4188
  27   2.0000     -10.189792      -277.2783
  28   2.0000     -10.185931      -277.1733
  29   2.0000     -10.185496      -277.1614
  30   2.0000     -10.184222      -277.1268
  31   2.0000     -10.184191      -277.1259
  32   2.0000     -10.182061      -277.0680
  33   2.0000     -10.181464      -277.0517
  34   2.0000     -10.180417      -277.0232
  35   2.0000     -10.179068      -276.9865
  36   2.0000     -10.177426      -276.9418
  37   2.0000     -10.177214      -276.9361
  38   2.0000      -8.129520      -221.2155
  39   2.0000      -6.094811      -165.8482
  40   2.0000      -6.092257      -165.7788
  41   2.0000      -6.092168      -165.7763
  42   2.0000      -1.077971       -29.3331
  43   2.0000      -1.076459       -29.2919
  44   2.0000      -1.054868       -28.7044
  45   2.0000      -0.990153       -26.9434
  46   2.0000      -0.965160       -26.2633
  47   2.0000      -0.954450       -25.9719
  48   2.0000      -0.916347       -24.9351
  49   2.0000      -0.883609       -24.0442
  50   2.0000      -0.866052       -23.5665
  51   2.0000      -0.855301       -23.2739
  52   2.0000      -0.842400       -22.9229
  53   2.0000      -0.809633       -22.0312
  54   2.0000      -0.800037       -21.7701
  55   2.0000      -0.781650       -21.2698
  56   2.0000      -0.770321       -20.9615
  57   2.0000      -0.768604       -20.9148
  58   2.0000      -0.746706       -20.3189
  59   2.0000      -0.744708       -20.2645
  60   2.0000      -0.742821       -20.2132
  61   2.0000      -0.734744       -19.9934
  62   2.0000      -0.710889       -19.3443
  63   2.0000      -0.701449       -19.0874
  64   2.0000      -0.680498       -18.5173
  65   2.0000      -0.653586       -17.7850
  66   2.0000      -0.645685       -17.5700
  67   2.0000      -0.630538       -17.1578
  68   2.0000      -0.622294       -16.9335
  69   2.0000      -0.618995       -16.8437
  70   2.0000      -0.611483       -16.6393
  71   2.0000      -0.602010       -16.3815
  72   2.0000      -0.597789       -16.2667
  73   2.0000      -0.589228       -16.0337
  74   2.0000      -0.574113       -15.6224
  75   2.0000      -0.557478       -15.1697
  76   2.0000      -0.541207       -14.7270
  77   2.0000      -0.538015       -14.6401
  78   2.0000      -0.532045       -14.4777
  79   2.0000      -0.515898       -14.0383
  80   2.0000      -0.505359       -13.7515
  81   2.0000      -0.497853       -13.5473
  82   2.0000      -0.488173       -13.2839
  83   2.0000      -0.484168       -13.1749
  84   2.0000      -0.481202       -13.0942
  85   2.0000      -0.471042       -12.8177
  86   2.0000      -0.464982       -12.6528
  87   2.0000      -0.461270       -12.5518
  88   2.0000      -0.456466       -12.4211
  89   2.0000      -0.453560       -12.3420
  90   2.0000      -0.448319       -12.1994
  91   2.0000      -0.447706       -12.1827
  92   2.0000      -0.443739       -12.0747
  93   2.0000      -0.441902       -12.0248
  94   2.0000      -0.439215       -11.9516
  95   2.0000      -0.438735       -11.9386
  96   2.0000      -0.436986       -11.8910
  97   2.0000      -0.431886       -11.7522
  98   2.0000      -0.428251       -11.6533
  99   2.0000      -0.422091       -11.4857
 100   2.0000      -0.420921       -11.4538
 101   2.0000      -0.417341       -11.3564
 102   2.0000      -0.410473       -11.1695
 103   2.0000      -0.407099       -11.0777
 104   2.0000      -0.400796       -10.9062
 105   2.0000      -0.391138       -10.6434
 106   2.0000      -0.389082       -10.5875
 107   2.0000      -0.385116       -10.4795
 108   2.0000      -0.384288       -10.4570
 109   2.0000      -0.380349       -10.3498
 110   2.0000      -0.372216       -10.1285
 111   2.0000      -0.369374       -10.0512
 112   2.0000      -0.362787        -9.8719
 113   2.0000      -0.360625        -9.8131
 114   2.0000      -0.356507        -9.7010
 115   2.0000      -0.353013        -9.6060
 116   2.0000      -0.351998        -9.5784
 117   2.0000      -0.347932        -9.4677
 118   2.0000      -0.328046        -8.9266
 119   2.0000      -0.325919        -8.8687
 120   2.0000      -0.318114        -8.6563
 121   2.0000      -0.314886        -8.5685
 122   2.0000      -0.301852        -8.2138
 123   2.0000      -0.297561        -8.0971
 124   2.0000      -0.292931        -7.9711
 125   2.0000      -0.282315        -7.6822
 126   2.0000      -0.278741        -7.5849
 127   2.0000      -0.273803        -7.4506
 128   2.0000      -0.270904        -7.3717
 129   2.0000      -0.264270        -7.1912
 130   2.0000      -0.256124        -6.9695
 131   2.0000      -0.251070        -6.8320
 132   2.0000      -0.247668        -6.7394
 133   2.0000      -0.244121        -6.6429
 134   2.0000      -0.238688        -6.4950
 135   2.0000      -0.218297        -5.9402
 136   2.0000      -0.208751        -5.6804
 137   0.0000      -0.078855        -2.1457
 138   0.0000      -0.061970        -1.6863
 139   0.0000      -0.025638        -0.6976
 140   0.0000      -0.024894        -0.6774
 141   0.0000      -0.007923        -0.2156

MULLIKEN ATOMIC CHARGES
-----------------------
   0 C :   -0.555261
   1 C :    0.080344
   2 C :    0.353182
   3 N :   -0.631952
   4 C :   -0.233932
   5 C :    0.127392
   6 C :   -0.177943
   7 C :   -0.174983
   8 C :    0.352073
   9 O :   -0.562456
  10 C :    0.344376
  11 C :   -0.172859
  12 C :   -0.126088
  13 C :   -0.131889
  14 C :   -0.126936
  15 C :   -0.180552
  16 C :   -0.198925
  17 C :   -0.126586
  18 S :    1.229307
  19 O :   -0.536241
  20 O :   -0.520434
  21 C :   -0.144301
  22 C :   -0.145179
  23 C :   -0.141880
  24 C :    0.082953
  25 C :    0.528404
  26 O :   -0.447338
  27 O :   -0.623862
  28 C :   -0.148562
  29 C :   -0.147772
  30 N :   -0.394578
  31 C :   -0.043769
  32 C :    0.126938
  33 C :   -0.198987
  34 C :   -0.128722
  35 C :   -0.119319
  36 C :   -0.203109
  37 C :    0.128257
  38 H :    0.184466
  39 H :    0.167908
  40 H :    0.159637
  41 H :    0.187796
  42 H :    0.161887
  43 H :    0.123726
  44 H :    0.138646
  45 H :    0.141420
  46 H :    0.134922
  47 H :    0.126648
  48 H :    0.132347
  49 H :    0.144123
  50 H :    0.153726
  51 H :    0.162956
  52 H :    0.194199
  53 H :    0.180712
  54 H :    0.432965
  55 H :    0.168826
  56 H :    0.190139
  57 H :    0.154457
  58 H :    0.138924
  59 H :    0.135582
  60 H :    0.137261
  61 H :    0.137917
Sum of atomic charges:   -0.0000000

LOEWDIN ATOMIC CHARGES
----------------------
   0 C :   -0.366124
   1 C :   -0.027997
   2 C :    0.047577
   3 N :   -0.281836
   4 C :   -0.151854
   5 C :   -0.052255
   6 C :   -0.128555
   7 C :   -0.147601
   8 C :    0.085828
   9 O :   -0.143664
  10 C :    0.087379
  11 C :   -0.145170
  12 C :   -0.122057
  13 C :   -0.142161
  14 C :   -0.124604
  15 C :   -0.157230
  16 C :   -0.156838
  17 C :   -0.110857
  18 S :    1.270219
  19 O :   -0.562094
  20 O :   -0.554066
  21 C :   -0.174168
  22 C :   -0.097881
  23 C :   -0.087127
  24 C :   -0.040440
  25 C :    0.181901
  26 O :   -0.264141
  27 O :   -0.336015
  28 C :   -0.102273
  29 C :   -0.111657
  30 N :   -0.129683
  31 C :   -0.055838
  32 C :   -0.033168
  33 C :   -0.110291
  34 C :   -0.129924
  35 C :   -0.116108
  36 C :   -0.127884
  37 C :   -0.003914
  38 H :    0.146199
  39 H :    0.140177
  40 H :    0.136007
  41 H :    0.150918
  42 H :    0.128785
  43 H :    0.130617
  44 H :    0.141150
  45 H :    0.141564
  46 H :    0.135044
  47 H :    0.131279
  48 H :    0.133403
  49 H :    0.140457
  50 H :    0.145417
  51 H :    0.147115
  52 H :    0.165553
  53 H :    0.160485
  54 H :    0.349539
  55 H :    0.152765
  56 H :    0.160704
  57 H :    0.138517
  58 H :    0.137212
  59 H :    0.135211
  60 H :    0.136448
  61 H :    0.138004

  Mayer bond orders larger than 0.100000
B(  0-C ,  1-C ) :   0.9965 B(  0-C , 38-H ) :   0.9156 B(  0-C , 39-H ) :   0.9284
B(  0-C , 40-H ) :   0.9272 B(  1-C ,  2-C ) :   1.4220 B(  1-C , 31-C ) :   0.1039
B(  1-C , 37-C ) :   1.2722 B(  2-C ,  3-N ) :   0.8838 B(  2-C , 30-N ) :   1.2780
B(  3-N ,  4-C ) :   0.9121 B(  3-N , 18-S ) :   0.7617 B(  4-C ,  5-C ) :   0.9587
B(  4-C , 41-H ) :   0.9122 B(  4-C , 42-H ) :   0.9157 B(  5-C ,  6-C ) :   1.4195
B(  5-C , 17-C ) :   1.4243 B(  6-C ,  7-C ) :   1.4339 B(  6-C , 43-H ) :   0.9260
B(  7-C ,  8-C ) :   1.4185 B(  7-C , 44-H ) :   0.9201 B(  8-C ,  9-O ) :   0.8794
B(  8-C , 16-C ) :   1.3756 B(  9-O , 10-C ) :   0.8724 B( 10-C , 11-C ) :   1.4215
B( 10-C , 15-C ) :   1.3836 B( 11-C , 12-C ) :   1.4398 B( 11-C , 45-H ) :   0.9207
B( 12-C , 13-C ) :   1.4535 B( 12-C , 46-H ) :   0.9294 B( 13-C , 14-C ) :   1.4468
B( 13-C , 47-H ) :   0.9309 B( 14-C , 15-C ) :   1.4484 B( 14-C , 48-H ) :   0.9296
B( 15-C , 49-H ) :   0.9162 B( 16-C , 17-C ) :   1.4352 B( 16-C , 50-H ) :   0.9124
B( 17-C , 51-H ) :   0.9024 B( 18-S , 19-O ) :   1.6241 B( 18-S , 20-O ) :   1.6704
B( 18-S , 21-C ) :   0.8120 B( 21-C , 22-C ) :   1.3931 B( 21-C , 29-C ) :   1.3885
B( 22-C , 23-C ) :   1.4160 B( 22-C , 52-H ) :   0.9067 B( 23-C , 24-C ) :   1.4005
B( 23-C , 53-H ) :   0.9099 B( 24-C , 25-C ) :   1.0086 B( 24-C , 28-C ) :   1.3809
B( 25-C , 26-O ) :   1.8595 B( 25-C , 27-O ) :   1.0228 B( 27-O , 54-H ) :   0.7425
B( 28-C , 29-C ) :   1.4224 B( 28-C , 55-H ) :   0.9163 B( 29-C , 56-H ) :   0.8855
B( 30-N , 31-C ) :   1.4844 B( 31-C , 32-C ) :   1.2398 B( 31-C , 57-H ) :   0.9252
B( 32-C , 33-C ) :   1.2794 B( 32-C , 37-C ) :   1.2904 B( 33-C , 34-C ) :   1.5198
B( 33-C , 36-C ) :   0.1060 B( 33-C , 58-H ) :   0.9235 B( 34-C , 35-C ) :   1.3483
B( 34-C , 59-H ) :   0.9291 B( 35-C , 36-C ) :   1.5148 B( 35-C , 60-H ) :   0.9290
B( 36-C , 37-C ) :   1.2898 B( 36-C , 61-H ) :   0.9161

FINAL SINGLE POINT ENERGY     -2040.299669881235

DIPOLE MOMENT
-------------

Method             : SCF
Type of density    : Electron Density
Multiplicity       :   1
Irrep              :   0
Energy             : -2040.2996698812353316 Eh
Relativity type    :
Basis              : AO
                                X                 Y                 Z
Electronic contribution:    -14.838595778     -16.755891087       4.201013604
Nuclear contribution   :     13.935011726      18.689716036      -6.032318540
                        -----------------------------------------
Total Dipole Moment    :     -0.903584053       1.933824949      -1.831304937
                        -----------------------------------------
Magnitude (a.u.)       :      2.812440372
Magnitude (Debye)      :      7.148655312

Rotational constants in cm-1:             0.002975             0.001926             0.001261
Rotational constants in MHz :            89.181219            57.744485            37.817894

                             ****ORCA TERMINATED NORMALLY****
TOTAL RUN TIME: 0 days 0 hours 7 minutes 42 seconds 317 msec
