                         Program Version 6.0.0  -   RELEASE  -
|  1> ! B3LYP 6-31G* SP
|  2>
|  3> * xyz 0 1
|  4> C 0.4950 0.0983 2.3419
|  5> C 0.5440 0.3533 0.8260
|  6> C -0.2206 1.5856 0.3488
|  7> C -0.1232 1.9588 -1.0060
|  8> C -0.8176 3.0681 -1.4944
|  9> C -1.6059 3.8347 -0.6366
| 10> C -1.6910 3.5012 0.7165
| 11> Cl -2.6827 4.4666 1.7941
| 12> C -0.9956 2.3925 1.2119
| 13> N 0.1701 -0.8588 0.0448
| 14> C 0.9945 -1.2241 -1.0907
| 15> O 0.4408 -1.5088 -2.1883
| 16> C 2.4775 -1.2518 -1.0203
| 17> C 3.2381 -1.0075 -2.1789
| 18> C 4.6350 -1.0418 -2.1307
| 19> C 5.2875 -1.3283 -0.9299
| 20> C 4.5439 -1.5843 0.2239
| 21> C 3.1468 -1.5511 0.1803
| 22> C -1.1326 -1.5650 0.2030
| 23> C -1.1747 -2.4150 1.4576
| 24> N -0.0354 -3.1876 1.8365
| 25> O -2.2479 -2.5640 2.1013
| 26> C -2.3174 -0.6279 -0.0153
| 27> C -2.6992 -0.3139 -1.3314
| 28> C -3.7404 0.5823 -1.5731
| 29> C -4.4006 1.1687 -0.4953
| 30> N -4.0236 0.8711 0.7746
| 31> C -3.0106 0.0032 1.0385
| 32> H 0.9187 0.9683 2.8876
| 33> H -0.5376 -0.0745 2.6977
| 34> H 1.1081 -0.7873 2.6036
| 35> H 1.6085 0.6017 0.6294
| 36> H 0.4885 1.3886 -1.6918
| 37> H -0.7436 3.3336 -2.5411
| 38> H -2.1455 4.6899 -1.0229
| 39> H -1.0901 2.1630 2.2634
| 40> H 2.7521 -0.7782 -3.1193
| 41> H 5.2118 -0.8459 -3.0254
| 42> H 6.3690 -1.3550 -0.8941
| 43> H 5.0501 -1.8127 1.1530
| 44> H 2.5961 -1.7660 1.0827
| 45> H -1.2216 -2.3367 -0.5939
| 46> H 0.8011 -3.2467 1.2170
| 47> H -0.0578 -3.7660 2.7054
| 48> H -2.1836 -0.7568 -2.1738
| 49> H -4.0297 0.8234 -2.5877
| 50> H -5.2083 1.8673 -0.6674
| 51> H -2.7405 -0.1646 2.0691
| 52> *
| 53>
| 54>                          ****END OF INPUT****

CARTESIAN COORDINATES (ANGSTROEM)
---------------------------------
  C      0.495000    0.098300    2.341900
  C      0.544000    0.353300    0.826000
  C     -0.220600    1.585600    0.348800
  C     -0.123200    1.958800   -1.006000
  C     -0.817600    3.068100   -1.494400
  C     -1.605900    3.834700   -0.636600
  C     -1.691000    3.501200    0.716500
  Cl    -2.682700    4.466600    1.794100
  C     -0.995600    2.392500    1.211900
  N      0.170100   -0.858800    0.044800
  C      0.994500   -1.224100   -1.090700
  O      0.440800   -1.508800   -2.188300
  C      2.477500   -1.251800   -1.020300
  C      3.238100   -1.007500   -2.178900
  C      4.635000   -1.041800   -2.130700
  C      5.287500   -1.328300   -0.929900
  C      4.543900   -1.584300    0.223900
  C      3.146800   -1.551100    0.180300
  C     -1.132600   -1.565000    0.203000
  C     -1.174700   -2.415000    1.457600
  N     -0.035400   -3.187600    1.836500
  O     -2.247900   -2.564000    2.101300
  C     -2.317400   -0.627900   -0.015300
  C     -2.699200   -0.313900   -1.331400
  C     -3.740400    0.582300   -1.573100
  C     -4.400600    1.168700   -0.495300
  N     -4.023600    0.871100    0.774600
  C     -3.010600    0.003200    1.038500
  H      0.918700    0.968300    2.887600
  H     -0.537600   -0.074500    2.697700
  H      1.108100   -0.787300    2.603600
  H      1.608500    0.601700    0.629400
  H      0.488500    1.388600   -1.691800
  H     -0.743600    3.333600   -2.541100
  H     -2.145500    4.689900   -1.022900
  H     -1.090100    2.163000    2.263400
  H      2.752100   -0.778200   -3.119300
  H      5.211800   -0.845900   -3.025400
  H      6.369000   -1.355000   -0.894100
  H      5.050100   -1.812700    1.153000
  H      2.596100   -1.766000    1.082700
  H     -1.221600   -2.336700   -0.593900
  H      0.801100   -3.246700    1.217000
  H     -0.057800   -3.766000    2.705400
  H     -2.183600   -0.756800   -2.173800
  H     -4.029700    0.823400   -2.587700
  H     -5.208300    1.867300   -0.667400
  H     -2.740500   -0.164600    2.069100

 Total Charge           Charge          ....    0
 Multiplicity           Mult            ....    1
 Number of Electrons    NEL             ....  206
 Basis Dimension        Dim             ....  436

ORBITAL ENERGIES
----------------

  NO   OCC          E(Eh)            E(eV)
   0   2.0000    -101.518408     -2762.4563
   1   2.0000     -19.130694      -520.5726
   2   2.0000     -19.117334      -520.2091
   3   2.0000     -14.365740      -390.9117
   4   2.0000     -14.360907      -390.7801
   5   2.0000     -14.309045      -389.3689
   6   2.0000     -10.303688      -280.3776
   7   2.0000     -10.300435      -280.2891
   8   2.0000     -10.246408      -278.8189
   9   2.0000     -10.242476      -278.7119
  10   2.0000     -10.239134      -278.6210
  11   2.0000     -10.216623      -278.0084
  12   2.0000     -10.209815      -277.8232
  13   2.0000     -10.206253      -277.7263
  14   2.0000     -10.205534      -277.7067
  15   2.0000     -10.204852      -277.6881
  16   2.0000     -10.204051      -277.6663
  17   2.0000     -10.203950      -277.6636
  18   2.0000     -10.203042      -277.6389
  19   2.0000     -10.200628      -277.5732
  20   2.0000     -10.192711      -277.3578
  21   2.0000     -10.190471      -277.2968
  22   2.0000     -10.188384      -277.2400
  23   2.0000     -10.187941      -277.2280
  24   2.0000     -10.185556      -277.1631
  25   2.0000     -10.184706      -277.1399
  26   2.0000     -10.184375      -277.1309
  27   2.0000     -10.177431      -276.9420
  28   2.0000      -9.450286      -257.1554
  29   2.0000      -7.213301      -196.2839
  30   2.0000      -7.203879      -196.0275
  31   2.0000      -7.203621      -196.0205
  32   2.0000      -1.029458       -28.0130
  33   2.0000      -1.017061       -27.6756
  34   2.0000      -0.933085       -25.3905
  35   2.0000      -0.910168       -24.7669
  36   2.0000      -0.884238       -24.0613
  37   2.0000      -0.879480       -23.9319
  38   2.0000      -0.873171       -23.7602
  39   2.0000      -0.831362       -22.6225
  40   2.0000      -0.804107       -21.8809
  41   2.0000      -0.782398       -21.2901
  42   2.0000      -0.774877       -21.0855
  43   2.0000      -0.764728       -20.8093
  44   2.0000      -0.759083       -20.6557
  45   2.0000      -0.733366       -19.9559
  46   2.0000      -0.726412       -19.7667
  47   2.0000      -0.713239       -19.4082
  48   2.0000      -0.654630       -17.8134
  49   2.0000      -0.640570       -17.4308
  50   2.0000      -0.624299       -16.9880
  51   2.0000      -0.618664       -16.8347
  52   2.0000      -0.612680       -16.6719
  53   2.0000      -0.598186       -16.2775
  54   2.0000      -0.586891       -15.9701
  55   2.0000      -0.580979       -15.8092
  56   2.0000      -0.560630       -15.2555
  57   2.0000      -0.542280       -14.7562
  58   2.0000      -0.529596       -14.4110
  59   2.0000      -0.515147       -14.0179
  60   2.0000      -0.507714       -13.8156
  61   2.0000      -0.504430       -13.7262
  62   2.0000      -0.489465       -13.3190
  63   2.0000      -0.475755       -12.9460
  64   2.0000      -0.470704       -12.8085
  65   2.0000      -0.463343       -12.6082
  66   2.0000      -0.462554       -12.5867
  67   2.0000      -0.457442       -12.4476
  68   2.0000      -0.453882       -12.3507
  69   2.0000      -0.444593       -12.0980
  70   2.0000      -0.439360       -11.9556
  71   2.0000      -0.436358       -11.8739
  72   2.0000      -0.426709       -11.6113
  73   2.0000      -0.426403       -11.6030
  74   2.0000      -0.421318       -11.4646
  75   2.0000      -0.407455       -11.0874
  76   2.0000      -0.406075       -11.0499
  77   2.0000      -0.396428       -10.7874
  78   2.0000      -0.391142       -10.6435
  79   2.0000      -0.390195       -10.6178
  80   2.0000      -0.384209       -10.4548
  81   2.0000      -0.374704       -10.1962
  82   2.0000      -0.372869       -10.1463
  83   2.0000      -0.366819        -9.9817
  84   2.0000      -0.364627        -9.9220
  85   2.0000      -0.362998        -9.8777
  86   2.0000      -0.355475        -9.6730
  87   2.0000      -0.353339        -9.6149
  88   2.0000      -0.351023        -9.5518
  89   2.0000      -0.346372        -9.4253
  90   2.0000      -0.320234        -8.7140
  91   2.0000      -0.302883        -8.2419
  92   2.0000      -0.282102        -7.6764
  93   2.0000      -0.272915        -7.4264
  94   2.0000      -0.271499        -7.3879
  95   2.0000      -0.268519        -7.3068
  96   2.0000      -0.265295        -7.2191
  97   2.0000      -0.262099        -7.1321
  98   2.0000      -0.256793        -6.9877
  99   2.0000      -0.238210        -6.4820
 100   2.0000      -0.231340        -6.2951
 101   2.0000      -0.226694        -6.1686
 102   2.0000      -0.224725        -6.1151
 103   0.0000      -0.061978        -1.6865
 104   0.0000      -0.025869        -0.7039
 105   0.0000      -0.022637        -0.6160
 106   0.0000      -0.016735        -0.4554
 107   0.0000      -0.001340        -0.0365

MULLIKEN ATOMIC CHARGES
-----------------------
   0 C :   -0.482019
   1 C :   -0.077832
   2 C :    0.173615
   3 C :   -0.172224
   4 C :   -0.116512
   5 C :   -0.131924
   6 C :   -0.053424
   7 Cl:   -0.016988
   8 C :   -0.176668
   9 N :   -0.430024
  10 C :    0.441660
  11 O :   -0.465304
  12 C :    0.082544
  13 C :   -0.146571
  14 C :   -0.129972
  15 C :   -0.114507
  16 C :   -0.131235
  17 C :   -0.175819
  18 C :   -0.170286
  19 C :    0.568629
  20 N :   -0.772826
  21 O :   -0.465821
  22 C :    0.137815
  23 C :   -0.141387
  24 C :   -0.133325
  25 C :    0.022626
  26 N :   -0.375374
  27 C :   -0.000291
  28 H :    0.156493
  29 H :    0.170121
  30 H :    0.160496
  31 H :    0.173857
  32 H :    0.137848
  33 H :    0.135972
  34 H :    0.145813
  35 H :    0.149349
  36 H :    0.161443
  37 H :    0.143378
  38 H :    0.141777
  39 H :    0.139268
  40 H :    0.139786
  41 H :    0.212323
  42 H :    0.339515
  43 H :    0.352523
  44 H :    0.161482
  45 H :    0.127474
  46 H :    0.144020
  47 H :    0.160506
Sum of atomic charges:   -0.0000000

LOEWDIN ATOMIC CHARGES
----------------------
   0 C :   -0.368417
   1 C :   -0.052270
   2 C :   -0.020309
   3 C :   -0.127939
   4 C :   -0.121163
   5 C :   -0.134752
   6 C :   -0.080215
   7 Cl:    0.037907
   8 C :   -0.134499
   9 N :   -0.110052
  10 C :    0.135378
  11 O :   -0.271391
  12 C :   -0.055730
  13 C :   -0.093730
  14 C :   -0.124424
  15 C :   -0.110884
  16 C :   -0.128283
  17 C :   -0.126358
  18 C :   -0.066394
  19 C :    0.136325
  20 N :   -0.403005
  21 O :   -0.276714
  22 C :   -0.036257
  23 C :   -0.099253
  24 C :   -0.146352
  25 C :   -0.067272
  26 N :   -0.136881
  27 C :   -0.058031
  28 H :    0.133507
  29 H :    0.133804
  30 H :    0.130047
  31 H :    0.148017
  32 H :    0.136200
  33 H :    0.136084
  34 H :    0.141782
  35 H :    0.144437
  36 H :    0.149923
  37 H :    0.138728
  38 H :    0.137658
  39 H :    0.136491
  40 H :    0.134302
  41 H :    0.176317
  42 H :    0.249428
  43 H :    0.266338
  44 H :    0.145570
  45 H :    0.132575
  46 H :    0.132129
  47 H :    0.137627

  Mayer bond orders larger than 0.100000
B(  0-C ,  1-C ) :   1.0056 B(  0-C , 28-H ) :   0.9359 B(  0-C , 29-H ) :   0.9262
B(  0-C , 30-H ) :   0.9324 B(  1-C ,  2-C ) :   0.9467 B(  1-C ,  9-N ) :   0.9402
B(  1-C , 31-H ) :   0.9103 B(  2-C ,  3-C ) :   1.4053 B(  2-C ,  8-C ) :   1.4332
B(  3-C ,  4-C ) :   1.4478 B(  3-C , 32-H ) :   0.9177 B(  4-C ,  5-C ) :   1.4431
B(  4-C , 33-H ) :   0.9282 B(  5-C ,  6-C ) :   1.4268 B(  5-C , 34-H ) :   0.9245
B(  6-C ,  7-Cl) :   1.0144 B(  6-C ,  8-C ) :   1.3948 B(  8-C , 35-H ) :   0.9122
B(  9-N , 10-C ) :   1.0275 B(  9-N , 18-C ) :   0.9200 B( 10-C , 11-O ) :   1.7789
B( 10-C , 12-C ) :   0.9829 B( 12-C , 13-C ) :   1.4008 B( 12-C , 17-C ) :   1.3844
B( 13-C , 14-C ) :   1.4373 B( 13-C , 36-H ) :   0.9150 B( 14-C , 15-C ) :   1.4395
B( 14-C , 37-H ) :   0.9282 B( 15-C , 16-C ) :   1.4514 B( 15-C , 38-H ) :   0.9284
B( 16-C , 17-C ) :   1.4374 B( 16-C , 39-H ) :   0.9284 B( 17-C , 40-H ) :   0.9087
B( 18-C , 19-C ) :   0.9120 B( 18-C , 22-C ) :   0.9452 B( 18-C , 41-H ) :   0.8890
B( 19-C , 20-N ) :   1.0661 B( 19-C , 21-O ) :   1.8403 B( 20-N , 42-H ) :   0.8139
B( 20-N , 43-H ) :   0.8232 B( 22-C , 23-C ) :   1.4327 B( 22-C , 25-C ) :   0.1001
B( 22-C , 27-C ) :   1.3845 B( 23-C , 24-C ) :   1.4381 B( 23-C , 44-H ) :   0.9087
B( 24-C , 25-C ) :   1.4218 B( 24-C , 45-H ) :   0.9258 B( 25-C , 26-N ) :   1.4301
B( 25-C , 46-H ) :   0.9319 B( 26-N , 27-C ) :   1.4156 B( 27-C , 47-H ) :   0.9133

FINAL SINGLE POINT ENERGY     -1624.468814440496

DIPOLE MOMENT
-------------

Method             : SCF
Type of density    : Electron Density
Multiplicity       :   1
Irrep              :   0
Energy             : -1624.4688144404956347 Eh
Relativity type    :
Basis              : AO
                                X                 Y                 Z
Electronic contribution:    -14.067608031      11.877778172       2.510439677
Nuclear contribution   :     16.910928486     -12.359772432      -3.065717398
                        -----------------------------------------
Total Dipole Moment    :      2.843320455      -0.481994260      -0.555277721
                        -----------------------------------------
Magnitude (a.u.)       :      2.936855976
Magnitude (Debye)      :      7.464894646

Rotational constants in cm-1:             0.008771             0.004124             0.003590
Rotational constants in MHz :           262.957399           123.629090           107.635653

                             ****ORCA TERMINATED NORMALLY****
TOTAL RUN TIME: 0 days 0 hours 5 minutes 41 seconds 104 msec
