                         Program Version 6.0.0  -   RELEASE  -
|  1> ! B3LYP 6-31G* SP
|  2>
|  3> * xyz 0 1
|  4> C -3.4384 -1.1302 -0.8916
|  5> C -2.4142 -2.1135 -0.3671
|  6> C -1.1696 -1.6598 0.1313
|  7> N -0.8035 -0.2757 0.0730
|  8> C -0.3408 0.2953 -1.1953
|  9> C 1.1028 -0.0587 -1.4294
| 10> C 1.4387 -1.2905 -2.0087
| 11> C 2.7772 -1.6551 -2.1594
| 12> C 3.7938 -0.7976 -1.7323
| 13> F 5.0851 -1.1973 -1.8579
| 14> C 3.4773 0.4508 -1.1591
| 15> C 4.5757 1.3577 -0.6334
| 16> F 4.1214 2.6650 -0.5328
| 17> F 5.6131 1.3732 -1.5507
| 18> C 5.1575 0.9042 0.7308
| 19> C 4.3415 1.3533 1.9438
| 20> C 4.4132 -0.1222 1.5907
| 21> C 2.1234 0.8040 -1.0014
| 22> S -0.5300 0.5721 1.5633
| 23> O -1.4069 -0.0024 2.6408
| 24> O 0.9057 0.4131 1.9747
| 25> C -0.9329 2.2748 1.3689
| 26> C -2.2700 2.6541 1.1889
| 27> C -2.6033 4.0012 1.0125
| 28> C -1.5996 4.9885 1.0074
| 29> C -1.9532 6.4147 0.8213
| 30> O -1.0547 7.2998 0.8061
| 31> O -3.2838 6.7940 0.6622
| 32> C -0.2569 4.5999 1.1833
| 33> C 0.0722 3.2527 1.3646
| 34> N -0.2846 -2.5428 0.6642
| 35> C -0.5303 -3.8739 0.7217
| 36> C -1.7243 -4.3906 0.2115
| 37> C -1.9715 -5.7717 0.2507
| 38> C -3.1606 -6.2864 -0.2668
| 39> C -4.1101 -5.4294 -0.8232
| 40> C -3.8797 -4.0514 -0.8634
| 41> C -2.6835 -3.5073 -0.3450
| 42> H -4.4059 -1.2748 -0.3642
| 43> H -3.1445 -0.0738 -0.7269
| 44> H -3.5828 -1.2863 -1.9820
| 45> H -0.4735 1.3982 -1.1905
| 46> H -0.9619 -0.0880 -2.0344
| 47> H 0.6631 -1.9755 -2.3289
| 48> H 3.0272 -2.6136 -2.5959
| 49> H 6.2561 0.9923 0.9007
| 50> H 3.3462 1.8060 1.7414
| 51> H 4.9451 1.6277 2.8362
| 52> H 5.0622 -0.7058 2.2787
| 53> H 3.4430 -0.5243 1.2320
| 54> H 1.8588 1.7407 -0.5288
| 55> H -3.0545 1.9053 1.1828
| 56> H -3.6463 4.2682 0.8775
| 57> H -3.5354 7.7685 0.5351
| 58> H 0.5401 5.3367 1.1827
| 59> H 1.1110 2.9784 1.4991
| 60> H 0.2153 -4.5281 1.1563
| 61> H -1.2444 -6.4517 0.6796
| 62> H -3.3456 -7.3525 -0.2381
| 63> H -5.0289 -5.8341 -1.2264
| 64> H -4.6405 -3.4257 -1.3092
| 65> *
| 66>
| 67>                          ****END OF INPUT****

CARTESIAN COORDINATES (ANGSTROEM)
---------------------------------
  C     -3.438400   -1.130200   -0.891600
  C     -2.414200   -2.113500   -0.367100
  C     -1.169600   -1.659800    0.131300
  N     -0.803500   -0.275700    0.073000
  C     -0.340800    0.295300   -1.195300
  C      1.102800   -0.058700   -1.429400
  C      1.438700   -1.290500   -2.008700
  C      2.777200   -1.655100   -2.159400
  C      3.793800   -0.797600   -1.732300
  F      5.085100   -1.197300   -1.857900
  C      3.477300    0.450800   -1.159100
  C      4.575700    1.357700   -0.633400
  F      4.121400    2.665000   -0.532800
  F      5.613100    1.373200   -1.550700
  C      5.157500    0.904200    0.730800
  C      4.341500    1.353300    1.943800
  C      4.413200   -0.122200    1.590700
  C      2.123400    0.804000   -1.001400
  S     -0.530000    0.572100    1.563300
  O     -1.406900   -0.002400    2.640800
  O      0.905700    0.413100    1.974700
  C     -0.932900    2.274800    1.368900
  C     -2.270000    2.654100    1.188900
  C     -2.603300    4.001200    1.012500
  C     -1.599600    4.988500    1.007400
  C     -1.953200    6.414700    0.821300
  O     -1.054700    7.299800    0.806100
  O     -3.283800    6.794000    0.662200
  C     -0.256900    4.599900    1.183300
  C      0.072200    3.252700    1.364600
  N     -0.284600   -2.542800    0.664200
  C     -0.530300   -3.873900    0.721700
  C     -1.724300   -4.390600    0.211500
  C     -1.971500   -5.771700    0.250700
  C     -3.160600   -6.286400   -0.266800
  C     -4.110100   -5.429400   -0.823200
  C     -3.879700   -4.051400   -0.863400
  C     -2.683500   -3.507300   -0.345000
  H     -4.405900   -1.274800   -0.364200
  H     -3.144500   -0.073800   -0.726900
  H     -3.582800   -1.286300   -1.982000
  H     -0.473500    1.398200   -1.190500
  H     -0.961900   -0.088000   -2.034400
  H      0.663100   -1.975500   -2.328900
  H      3.027200   -2.613600   -2.595900
  H      6.256100    0.992300    0.900700
  H      3.346200    1.806000    1.741400
  H      4.945100    1.627700    2.836200
  H      5.062200   -0.705800    2.278700
  H      3.443000   -0.524300    1.232000
  H      1.858800    1.740700   -0.528800
  H     -3.054500    1.905300    1.182800
  H     -3.646300    4.268200    0.877500
  H     -3.535400    7.768500    0.535100
  H      0.540100    5.336700    1.182700
  H      1.111000    2.978400    1.499100
  H      0.215300   -4.528100    1.156300
  H     -1.244400   -6.451700    0.679600
  H     -3.345600   -7.352500   -0.238100
  H     -5.028900   -5.834100   -1.226400
  H     -4.640500   -3.425700   -1.309200

 Total Charge           Charge          ....    0
 Multiplicity           Mult            ....    1
 Number of Electrons    NEL             ....  280
 Basis Dimension        Dim             ....  582

ORBITAL ENERGIES
----------------

  NO   OCC          E(Eh)            E(eV)
   0   2.0000     -89.098565     -2424.4952
   1   2.0000     -24.695984      -672.0119
   2   2.0000     -24.680127      -671.5804
   3   2.0000     -24.672030      -671.3601
   4   2.0000     -19.201039      -522.4868
   5   2.0000     -19.142845      -520.9033
   6   2.0000     -19.123658      -520.3812
   7   2.0000     -19.121262      -520.3160
   8   2.0000     -14.372849      -391.1051
   9   2.0000     -14.330042      -389.9403
  10   2.0000     -10.340620      -281.3826
  11   2.0000     -10.339071      -281.3404
  12   2.0000     -10.272606      -279.5318
  13   2.0000     -10.263324      -279.2792
  14   2.0000     -10.250253      -278.9236
  15   2.0000     -10.241249      -278.6786
  16   2.0000     -10.239739      -278.6375
  17   2.0000     -10.229124      -278.3486
  18   2.0000     -10.227293      -278.2988
  19   2.0000     -10.225358      -278.2461
  20   2.0000     -10.225233      -278.2427
  21   2.0000     -10.224165      -278.2137
  22   2.0000     -10.214695      -277.9560
  23   2.0000     -10.210363      -277.8381
  24   2.0000     -10.202646      -277.6281
  25   2.0000     -10.201407      -277.5944
  26   2.0000     -10.201393      -277.5940
  27   2.0000     -10.200372      -277.5662
  28   2.0000     -10.199928      -277.5541
  29   2.0000     -10.198646      -277.5193
  30   2.0000     -10.195223      -277.4261
  31   2.0000     -10.194746      -277.4131
  32   2.0000     -10.194420      -277.4043
  33   2.0000     -10.193822      -277.3880
  34   2.0000     -10.190713      -277.3034
  35   2.0000     -10.186073      -277.1771
  36   2.0000     -10.170170      -276.7444
  37   2.0000     -10.169542      -276.7273
  38   2.0000      -8.134407      -221.3485
  39   2.0000      -6.099508      -165.9760
  40   2.0000      -6.097424      -165.9193
  41   2.0000      -6.096979      -165.9072
  42   2.0000      -1.218496       -33.1570
  43   2.0000      -1.207817       -32.8664
  44   2.0000      -1.161986       -31.6192
  45   2.0000      -1.085328       -29.5333
  46   2.0000      -1.082742       -29.4629
  47   2.0000      -0.999410       -27.1953
  48   2.0000      -0.964417       -26.2431
  49   2.0000      -0.960075       -26.1250
  50   2.0000      -0.916918       -24.9506
  51   2.0000      -0.896525       -24.3957
  52   2.0000      -0.868380       -23.6298
  53   2.0000      -0.864015       -23.5111
  54   2.0000      -0.840227       -22.8637
  55   2.0000      -0.815134       -22.1809
  56   2.0000      -0.810262       -22.0483
  57   2.0000      -0.784377       -21.3440
  58   2.0000      -0.783356       -21.3162
  59   2.0000      -0.774619       -21.0784
  60   2.0000      -0.765120       -20.8200
  61   2.0000      -0.746943       -20.3253
  62   2.0000      -0.719869       -19.5886
  63   2.0000      -0.709611       -19.3095
  64   2.0000      -0.689467       -18.7614
  65   2.0000      -0.682976       -18.5847
  66   2.0000      -0.659199       -17.9377
  67   2.0000      -0.647938       -17.6313
  68   2.0000      -0.642748       -17.4901
  69   2.0000      -0.624369       -16.9899
  70   2.0000      -0.620598       -16.8873
  71   2.0000      -0.608557       -16.5597
  72   2.0000      -0.599528       -16.3140
  73   2.0000      -0.596239       -16.2245
  74   2.0000      -0.571113       -15.5408
  75   2.0000      -0.569320       -15.4920
  76   2.0000      -0.563008       -15.3202
  77   2.0000      -0.545922       -14.8553
  78   2.0000      -0.540902       -14.7187
  79   2.0000      -0.532861       -14.4999
  80   2.0000      -0.522099       -14.2070
  81   2.0000      -0.520280       -14.1575
  82   2.0000      -0.511142       -13.9089
  83   2.0000      -0.505980       -13.7684
  84   2.0000      -0.498943       -13.5769
  85   2.0000      -0.496360       -13.5067
  86   2.0000      -0.489374       -13.3165
  87   2.0000      -0.479591       -13.0503
  88   2.0000      -0.478086       -13.0094
  89   2.0000      -0.473399       -12.8818
  90   2.0000      -0.467029       -12.7085
  91   2.0000      -0.463140       -12.6027
  92   2.0000      -0.455577       -12.3969
  93   2.0000      -0.453553       -12.3418
  94   2.0000      -0.452809       -12.3216
  95   2.0000      -0.450123       -12.2485
  96   2.0000      -0.447615       -12.1802
  97   2.0000      -0.446561       -12.1515
  98   2.0000      -0.442937       -12.0529
  99   2.0000      -0.441154       -12.0044
 100   2.0000      -0.433438       -11.7944
 101   2.0000      -0.427499       -11.6328
 102   2.0000      -0.420311       -11.4372
 103   2.0000      -0.417980       -11.3738
 104   2.0000      -0.411386       -11.1944
 105   2.0000      -0.404360       -11.0032
 106   2.0000      -0.402150       -10.9431
 107   2.0000      -0.398280       -10.8378
 108   2.0000      -0.396053       -10.7772
 109   2.0000      -0.391821       -10.6620
 110   2.0000      -0.390307       -10.6208
 111   2.0000      -0.389789       -10.6067
 112   2.0000      -0.382753       -10.4152
 113   2.0000      -0.380614       -10.3570
 114   2.0000      -0.374854       -10.2003
 115   2.0000      -0.372083       -10.1249
 116   2.0000      -0.370490       -10.0816
 117   2.0000      -0.359614        -9.7856
 118   2.0000      -0.354865        -9.6564
 119   2.0000      -0.354285        -9.6406
 120   2.0000      -0.350185        -9.5290
 121   2.0000      -0.346207        -9.4208
 122   2.0000      -0.326190        -8.8761
 123   2.0000      -0.321739        -8.7549
 124   2.0000      -0.315743        -8.5918
 125   2.0000      -0.310258        -8.4425
 126   2.0000      -0.303714        -8.2645
 127   2.0000      -0.292950        -7.9716
 128   2.0000      -0.288183        -7.8419
 129   2.0000      -0.284257        -7.7350
 130   2.0000      -0.281754        -7.6669
 131   2.0000      -0.279481        -7.6051
 132   2.0000      -0.276342        -7.5196
 133   2.0000      -0.271266        -7.3815
 134   2.0000      -0.266817        -7.2605
 135   2.0000      -0.255194        -6.9442
 136   2.0000      -0.250878        -6.8267
 137   2.0000      -0.248161        -6.7528
 138   2.0000      -0.237277        -6.4566
 139   2.0000      -0.223734        -6.0881
 140   0.0000      -0.091495        -2.4897
 141   0.0000      -0.064192        -1.7467
 142   0.0000      -0.038814        -1.0562
 143   0.0000      -0.033539        -0.9126
 144   0.0000      -0.015765        -0.4290

MULLIKEN ATOMIC CHARGES
-----------------------
   0 C :   -0.543404
   1 C :    0.098882
   2 C :    0.323972
   3 N :   -0.604283
   4 C :   -0.286828
   5 C :    0.193316
   6 C :   -0.138684
   7 C :   -0.208598
   8 C :    0.394680
   9 F :   -0.305952
  10 C :   -0.102003
  11 C :    0.708060
  12 F :   -0.336932
  13 F :   -0.338692
  14 C :   -0.195753
  15 C :   -0.313655
  16 C :   -0.307909
  17 C :   -0.180300
  18 S :    1.213854
  19 O :   -0.536676
  20 O :   -0.531486
  21 C :   -0.150238
  22 C :   -0.141676
  23 C :   -0.145663
  24 C :    0.081447
  25 C :    0.530660
  26 O :   -0.439883
  27 O :   -0.623715
  28 C :   -0.139402
  29 C :   -0.150690
  30 N :   -0.362600
  31 C :   -0.049287
  32 C :    0.134544
  33 C :   -0.201265
  34 C :   -0.126858
  35 C :   -0.120117
  36 C :   -0.199920
  37 C :    0.123435
  38 H :    0.169985
  39 H :    0.168848
  40 H :    0.159888
  41 H :    0.168839
  42 H :    0.170119
  43 H :    0.134578
  44 H :    0.146250
  45 H :    0.158695
  46 H :    0.171807
  47 H :    0.148503
  48 H :    0.146283
  49 H :    0.198113
  50 H :    0.139656
  51 H :    0.181024
  52 H :    0.174863
  53 H :    0.435894
  54 H :    0.188974
  55 H :    0.205109
  56 H :    0.157381
  57 H :    0.142359
  58 H :    0.137659
  59 H :    0.138226
  60 H :    0.136569
Sum of atomic charges:   -0.0000000

LOEWDIN ATOMIC CHARGES
----------------------
   0 C :   -0.360732
   1 C :   -0.014030
   2 C :    0.034596
   3 N :   -0.280730
   4 C :   -0.150987
   5 C :   -0.039949
   6 C :   -0.112026
   7 C :   -0.151699
   8 C :    0.132748
   9 F :   -0.095191
  10 C :   -0.073125
  11 C :    0.240985
  12 F :   -0.137665
  13 F :   -0.135159
  14 C :   -0.165744
  15 C :   -0.248566
  16 C :   -0.248508
  17 C :   -0.111576
  18 S :    1.263183
  19 O :   -0.568811
  20 O :   -0.569300
  21 C :   -0.176896
  22 C :   -0.102409
  23 C :   -0.098906
  24 C :   -0.035672
  25 C :    0.180295
  26 O :   -0.256379
  27 O :   -0.334495
  28 C :   -0.082518
  29 C :   -0.105558
  30 N :   -0.111841
  31 C :   -0.054848
  32 C :   -0.028475
  33 C :   -0.109861
  34 C :   -0.125932
  35 C :   -0.116810
  36 C :   -0.125476
  37 C :   -0.007028
  38 H :    0.141044
  39 H :    0.136570
  40 H :    0.135573
  41 H :    0.136063
  42 H :    0.137924
  43 H :    0.135487
  44 H :    0.145206
  45 H :    0.142836
  46 H :    0.135348
  47 H :    0.131610
  48 H :    0.132066
  49 H :    0.156438
  50 H :    0.138058
  51 H :    0.156305
  52 H :    0.155611
  53 H :    0.351186
  54 H :    0.164490
  55 H :    0.163993
  56 H :    0.139878
  57 H :    0.138651
  58 H :    0.136249
  59 H :    0.136844
  60 H :    0.137663

  Mayer bond orders larger than 0.100000
B(  0-C ,  1-C ) :   0.9975 B(  0-C , 38-H ) :   0.9281 B(  0-C , 39-H ) :   0.9304
B(  0-C , 40-H ) :   0.9273 B(  1-C ,  2-C ) :   1.4408 B(  1-C , 31-C ) :   0.1019
B(  1-C , 37-C ) :   1.2647 B(  2-C ,  3-N ) :   0.8893 B(  2-C , 30-N ) :   1.2838
B(  3-N ,  4-C ) :   0.9387 B(  3-N , 18-S ) :   0.8009 B(  4-C ,  5-C ) :   0.9335
B(  4-C , 41-H ) :   0.9239 B(  4-C , 42-H ) :   0.9229 B(  5-C ,  6-C ) :   1.4334
B(  5-C , 17-C ) :   1.4085 B(  6-C ,  7-C ) :   1.4209 B(  6-C , 43-H ) :   0.9228
B(  7-C ,  8-C ) :   1.3886 B(  7-C , 44-H ) :   0.9188 B(  8-C ,  9-F ) :   0.9451
B(  8-C , 10-C ) :   1.3219 B( 10-C , 11-C ) :   0.9659 B( 10-C , 17-C ) :   1.4008
B( 11-C , 12-F ) :   0.8979 B( 11-C , 13-F ) :   0.8858 B( 11-C , 14-C ) :   0.9857
B( 14-C , 15-C ) :   0.9191 B( 14-C , 16-C ) :   0.9493 B( 14-C , 45-H ) :   0.9241
B( 15-C , 16-C ) :   0.9716 B( 15-C , 46-H ) :   0.9297 B( 15-C , 47-H ) :   0.9468
B( 16-C , 48-H ) :   0.9438 B( 16-C , 49-H ) :   0.9180 B( 17-C , 50-H ) :   0.9064
B( 18-S , 19-O ) :   1.6487 B( 18-S , 20-O ) :   1.6311 B( 18-S , 21-C ) :   0.8086
B( 21-C , 22-C ) :   1.3842 B( 21-C , 29-C ) :   1.3875 B( 22-C , 23-C ) :   1.4252
B( 22-C , 51-H ) :   0.9106 B( 23-C , 24-C ) :   1.3813 B( 23-C , 52-H ) :   0.9143
B( 24-C , 25-C ) :   1.0059 B( 24-C , 28-C ) :   1.4017 B( 25-C , 26-O ) :   1.8656
B( 25-C , 27-O ) :   1.0259 B( 27-O , 53-H ) :   0.7407 B( 28-C , 29-C ) :   1.4156
B( 28-C , 54-H ) :   0.9075 B( 29-C , 55-H ) :   0.8969 B( 30-N , 31-C ) :   1.4966
B( 31-C , 32-C ) :   1.2305 B( 31-C , 56-H ) :   0.9258 B( 32-C , 33-C ) :   1.2845
B( 32-C , 37-C ) :   1.2906 B( 33-C , 34-C ) :   1.5123 B( 33-C , 36-C ) :   0.1062
B( 33-C , 57-H ) :   0.9227 B( 34-C , 35-C ) :   1.3532 B( 34-C , 58-H ) :   0.9290
B( 35-C , 36-C ) :   1.5091 B( 35-C , 59-H ) :   0.9289 B( 36-C , 37-C ) :   1.2937
B( 36-C , 60-H ) :   0.9170

FINAL SINGLE POINT ENERGY     -2187.722965188169

DIPOLE MOMENT
-------------

Method             : SCF
Type of density    : Electron Density
Multiplicity       :   1
Irrep              :   0
Energy             : -2187.7229651881689279 Eh
Relativity type    :
Basis              : AO
                                X                 Y                 Z
Electronic contribution:     22.042154638      12.998087753      -4.182841475
Nuclear contribution   :    -25.000976132     -13.703688496       2.799810675
                        -----------------------------------------
Total Dipole Moment    :     -2.958821493      -0.705600743      -1.383030800
                        -----------------------------------------
Magnitude (a.u.)       :      3.341447475
Magnitude (Debye)      :      8.493284510

Rotational constants in cm-1:             0.003265             0.002458             0.001582
Rotational constants in MHz :            97.868874            73.699516            47.414048

                             ****ORCA TERMINATED NORMALLY****
TOTAL RUN TIME: 0 days 0 hours 14 minutes 6 seconds 791 msec
