                         Program Version 6.0.0  -   RELEASE  -
|  1> ! B3LYP 6-31G* SP
|  2>
|  3> * xyz -1 1
|  4> C -0.0139 -3.5643 -0.6499
|  5> C -1.2932 -2.7964 -0.4220
|  6> C -1.2291 -1.4223 -0.0971
|  7> N 0.0262 -0.7279 -0.0328
|  8> C 0.5740 -0.2079 -1.2935
|  9> C 2.0732 -0.0365 -1.2457
| 10> C 2.6546 1.2035 -1.5602
| 11> C 4.0417 1.3692 -1.5027
| 12> C 4.8734 0.3044 -1.1388
| 13> O 6.2562 0.5375 -1.0721
| 14> C 7.2286 -0.4061 -0.6314
| 15> F 7.2483 -1.5003 -1.4760
| 16> F 8.4740 0.1921 -0.6491
| 17> F 6.9475 -0.8112 0.6619
| 18> C 4.2963 -0.9499 -0.8585
| 19> C 2.9086 -1.1190 -0.9236
| 20> S 0.3951 0.0737 1.4696
| 21> O -0.2741 -0.6539 2.6026
| 22> O 1.8764 0.0533 1.7211
| 23> C -0.1867 1.7361 1.4247
| 24> C 0.6589 2.7692 1.0056
| 25> C 0.1927 4.0861 0.9520
| 26> C -1.1269 4.3911 1.3287
| 27> C -1.6161 5.7861 1.2737
| 28> O -2.7978 6.0652 1.6112
| 29> O -0.7771 6.8104 0.8456
| 30> C -1.9702 3.3501 1.7527
| 31> C -1.5024 2.0334 1.8004
| 32> N -2.3676 -0.7355 0.1776
| 33> C -3.5933 -1.3109 0.1377
| 34> C -4.7227 -0.5476 0.4595
| 35> C -5.9928 -1.1265 0.4264
| 36> C -6.1410 -2.4679 0.0656
| 37> C -5.0205 -3.2384 -0.2596
| 38> C -3.7287 -2.6709 -0.2229
| 39> C -2.5640 -3.4171 -0.5187
| 40> Cl -2.6985 -5.1208 -0.9922
| 41> H 0.4209 -3.2914 -1.6339
| 42> H -0.1551 -4.6640 -0.6228
| 43> H 0.7098 -3.3276 0.1585
| 44> H 0.0728 0.7585 -1.5230
| 45> H 0.3376 -0.9006 -2.1283
| 46> H 2.0345 2.0487 -1.8388
| 47> H 4.4735 2.3374 -1.7318
| 48> H 4.9078 -1.7997 -0.5880
| 49> H 2.4896 -2.0896 -0.7057
| 50> H 1.6796 2.5575 0.7198
| 51> H 0.8671 4.8646 0.6217
| 52> H -2.9915 3.5513 2.0486
| 53> H -2.1669 1.2478 2.1322
| 54> H -4.6179 0.4968 0.7384
| 55> H -6.8642 -0.5328 0.6752
| 56> H -7.1287 -2.9125 0.0385
| 57> H -5.1781 -4.2746 -0.5305
| 58> *
| 59>
| 60>                          ****END OF INPUT****

CARTESIAN COORDINATES (ANGSTROEM)
---------------------------------
  C     -0.013900   -3.564300   -0.649900
  C     -1.293200   -2.796400   -0.422000
  C     -1.229100   -1.422300   -0.097100
  N      0.026200   -0.727900   -0.032800
  C      0.574000   -0.207900   -1.293500
  C      2.073200   -0.036500   -1.245700
  C      2.654600    1.203500   -1.560200
  C      4.041700    1.369200   -1.502700
  C      4.873400    0.304400   -1.138800
  O      6.256200    0.537500   -1.072100
  C      7.228600   -0.406100   -0.631400
  F      7.248300   -1.500300   -1.476000
  F      8.474000    0.192100   -0.649100
  F      6.947500   -0.811200    0.661900
  C      4.296300   -0.949900   -0.858500
  C      2.908600   -1.119000   -0.923600
  S      0.395100    0.073700    1.469600
  O     -0.274100   -0.653900    2.602600
  O      1.876400    0.053300    1.721100
  C     -0.186700    1.736100    1.424700
  C      0.658900    2.769200    1.005600
  C      0.192700    4.086100    0.952000
  C     -1.126900    4.391100    1.328700
  C     -1.616100    5.786100    1.273700
  O     -2.797800    6.065200    1.611200
  O     -0.777100    6.810400    0.845600
  C     -1.970200    3.350100    1.752700
  C     -1.502400    2.033400    1.800400
  N     -2.367600   -0.735500    0.177600
  C     -3.593300   -1.310900    0.137700
  C     -4.722700   -0.547600    0.459500
  C     -5.992800   -1.126500    0.426400
  C     -6.141000   -2.467900    0.065600
  C     -5.020500   -3.238400   -0.259600
  C     -3.728700   -2.670900   -0.222900
  C     -2.564000   -3.417100   -0.518700
  Cl    -2.698500   -5.120800   -0.992200
  H      0.420900   -3.291400   -1.633900
  H     -0.155100   -4.664000   -0.622800
  H      0.709800   -3.327600    0.158500
  H      0.072800    0.758500   -1.523000
  H      0.337600   -0.900600   -2.128300
  H      2.034500    2.048700   -1.838800
  H      4.473500    2.337400   -1.731800
  H      4.907800   -1.799700   -0.588000
  H      2.489600   -2.089600   -0.705700
  H      1.679600    2.557500    0.719800
  H      0.867100    4.864600    0.621700
  H     -2.991500    3.551300    2.048600
  H     -2.166900    1.247800    2.132200
  H     -4.617900    0.496800    0.738400
  H     -6.864200   -0.532800    0.675200
  H     -7.128700   -2.912500    0.038500
  H     -5.178100   -4.274600   -0.530500

 Total Charge           Charge          ....   -1
 Multiplicity           Mult            ....    1
 Number of Electrons    NEL             ....  282
 Basis Dimension        Dim             ....  560

ORBITAL ENERGIES
----------------

  NO   OCC          E(Eh)            E(eV)
   0   2.0000    -101.487097     -2761.6043
   1   2.0000     -89.003402     -2421.9057
   2   2.0000     -24.684918      -671.7108
   3   2.0000     -24.682972      -671.6578
   4   2.0000     -24.678638      -671.5399
   5   2.0000     -19.149773      -521.0918
   6   2.0000     -19.034485      -517.9547
   7   2.0000     -19.033067      -517.9161
   8   2.0000     -18.905795      -514.4528
   9   2.0000     -18.882350      -513.8149
  10   2.0000     -14.298188      -389.0735
  11   2.0000     -14.266979      -388.2242
  12   2.0000     -10.444769      -284.2166
  13   2.0000     -10.208198      -277.7792
  14   2.0000     -10.207013      -277.7469
  15   2.0000     -10.200136      -277.5598
  16   2.0000     -10.168537      -276.7000
  17   2.0000     -10.166451      -276.6432
  18   2.0000     -10.160821      -276.4900
  19   2.0000     -10.149954      -276.1943
  20   2.0000     -10.136547      -275.8295
  21   2.0000     -10.136067      -275.8164
  22   2.0000     -10.134569      -275.7756
  23   2.0000     -10.130393      -275.6620
  24   2.0000     -10.129391      -275.6347
  25   2.0000     -10.128853      -275.6201
  26   2.0000     -10.127798      -275.5914
  27   2.0000     -10.127507      -275.5835
  28   2.0000     -10.126353      -275.5521
  29   2.0000     -10.125322      -275.5240
  30   2.0000     -10.114392      -275.2266
  31   2.0000     -10.090892      -274.5871
  32   2.0000     -10.090433      -274.5746
  33   2.0000     -10.089574      -274.5513
  34   2.0000     -10.071311      -274.0543
  35   2.0000     -10.070868      -274.0422
  36   2.0000     -10.069342      -274.0007
  37   2.0000      -9.418384      -256.2873
  38   2.0000      -8.039368      -218.7623
  39   2.0000      -7.181417      -195.4163
  40   2.0000      -7.172174      -195.1648
  41   2.0000      -7.171631      -195.1500
  42   2.0000      -6.004918      -163.4021
  43   2.0000      -6.002468      -163.3355
  44   2.0000      -6.001272      -163.3029
  45   2.0000      -1.246614       -33.9221
  46   2.0000      -1.168767       -31.8038
  47   2.0000      -1.165654       -31.7191
  48   2.0000      -1.019944       -27.7541
  49   2.0000      -0.992676       -27.0121
  50   2.0000      -0.902467       -24.5574
  51   2.0000      -0.870313       -23.6824
  52   2.0000      -0.855434       -23.2775
  53   2.0000      -0.825027       -22.4501
  54   2.0000      -0.814320       -22.1588
  55   2.0000      -0.796417       -21.6716
  56   2.0000      -0.786860       -21.4115
  57   2.0000      -0.754219       -20.5233
  58   2.0000      -0.739424       -20.1208
  59   2.0000      -0.720098       -19.5949
  60   2.0000      -0.708773       -19.2867
  61   2.0000      -0.694516       -18.8988
  62   2.0000      -0.688832       -18.7441
  63   2.0000      -0.686057       -18.6686
  64   2.0000      -0.667995       -18.1771
  65   2.0000      -0.656120       -17.8539
  66   2.0000      -0.640115       -17.4184
  67   2.0000      -0.637815       -17.3558
  68   2.0000      -0.617224       -16.7955
  69   2.0000      -0.600265       -16.3340
  70   2.0000      -0.569117       -15.4865
  71   2.0000      -0.561749       -15.2860
  72   2.0000      -0.558332       -15.1930
  73   2.0000      -0.546995       -14.8845
  74   2.0000      -0.539048       -14.6682
  75   2.0000      -0.538236       -14.6461
  76   2.0000      -0.531360       -14.4590
  77   2.0000      -0.507802       -13.8180
  78   2.0000      -0.499343       -13.5878
  79   2.0000      -0.496416       -13.5082
  80   2.0000      -0.480890       -13.0857
  81   2.0000      -0.461843       -12.5674
  82   2.0000      -0.447737       -12.1835
  83   2.0000      -0.440428       -11.9847
  84   2.0000      -0.431499       -11.7417
  85   2.0000      -0.420563       -11.4441
  86   2.0000      -0.418111       -11.3774
  87   2.0000      -0.413132       -11.2419
  88   2.0000      -0.411943       -11.2095
  89   2.0000      -0.406751       -11.0683
  90   2.0000      -0.398508       -10.8440
  91   2.0000      -0.394680       -10.7398
  92   2.0000      -0.386739       -10.5237
  93   2.0000      -0.384646       -10.4668
  94   2.0000      -0.383408       -10.4331
  95   2.0000      -0.381409       -10.3787
  96   2.0000      -0.376860       -10.2549
  97   2.0000      -0.374684       -10.1957
  98   2.0000      -0.370395       -10.0790
  99   2.0000      -0.364777        -9.9261
 100   2.0000      -0.359189        -9.7740
 101   2.0000      -0.355176        -9.6648
 102   2.0000      -0.353254        -9.6125
 103   2.0000      -0.351923        -9.5763
 104   2.0000      -0.346768        -9.4360
 105   2.0000      -0.342465        -9.3190
 106   2.0000      -0.333708        -9.0807
 107   2.0000      -0.330467        -8.9925
 108   2.0000      -0.326785        -8.8923
 109   2.0000      -0.319025        -8.6811
 110   2.0000      -0.314131        -8.5479
 111   2.0000      -0.309251        -8.4152
 112   2.0000      -0.306666        -8.3448
 113   2.0000      -0.304931        -8.2976
 114   2.0000      -0.300970        -8.1898
 115   2.0000      -0.291650        -7.9362
 116   2.0000      -0.281971        -7.6728
 117   2.0000      -0.280016        -7.6196
 118   2.0000      -0.277911        -7.5623
 119   2.0000      -0.270401        -7.3580
 120   2.0000      -0.266620        -7.2551
 121   2.0000      -0.242068        -6.5870
 122   2.0000      -0.237076        -6.4512
 123   2.0000      -0.229386        -6.2419
 124   2.0000      -0.228299        -6.2123
 125   2.0000      -0.218446        -5.9442
 126   2.0000      -0.207504        -5.6465
 127   2.0000      -0.203840        -5.5468
 128   2.0000      -0.197791        -5.3822
 129   2.0000      -0.193388        -5.2624
 130   2.0000      -0.187944        -5.1142
 131   2.0000      -0.186131        -5.0649
 132   2.0000      -0.183458        -4.9922
 133   2.0000      -0.178077        -4.8457
 134   2.0000      -0.167529        -4.5587
 135   2.0000      -0.162897        -4.4327
 136   2.0000      -0.145730        -3.9655
 137   2.0000      -0.128843        -3.5060
 138   2.0000      -0.059066        -1.6073
 139   2.0000      -0.037095        -1.0094
 140   2.0000      -0.020372        -0.5544
 141   0.0000      -0.007215        -0.1963
 142   0.0000       0.036762         1.0004
 143   0.0000       0.053203         1.4477
 144   0.0000       0.058031         1.5791
 145   0.0000       0.065927         1.7940

MULLIKEN ATOMIC CHARGES
-----------------------
   0 C :   -0.539659
   1 C :    0.139655
   2 C :    0.355728
   3 N :   -0.612179
   4 C :   -0.229822
   5 C :    0.139252
   6 C :   -0.176419
   7 C :   -0.169646
   8 C :    0.351541
   9 O :   -0.547099
  10 C :    1.081983
  11 F :   -0.295803
  12 F :   -0.285457
  13 F :   -0.289311
  14 C :   -0.184508
  15 C :   -0.122395
  16 S :    1.213089
  17 O :   -0.562849
  18 O :   -0.549988
  19 C :   -0.152859
  20 C :   -0.173098
  21 C :   -0.154783
  22 C :    0.107484
  23 C :    0.410485
  24 O :   -0.553430
  25 O :   -0.659605
  26 C :   -0.164781
  27 C :   -0.129010
  28 N :   -0.437232
  29 C :    0.217800
  30 C :   -0.147306
  31 C :   -0.133211
  32 C :   -0.122696
  33 C :   -0.216841
  34 C :    0.173751
  35 C :   -0.182034
  36 Cl:   -0.005866
  37 H :    0.157838
  38 H :    0.168829
  39 H :    0.200973
  40 H :    0.177258
  41 H :    0.164931
  42 H :    0.153430
  43 H :    0.144346
  44 H :    0.140420
  45 H :    0.135744
  46 H :    0.150071
  47 H :    0.148377
  48 H :    0.141319
  49 H :    0.149649
  50 H :    0.169201
  51 H :    0.135007
  52 H :    0.125005
  53 H :    0.144721
Sum of atomic charges:   -1.0000000

LOEWDIN ATOMIC CHARGES
----------------------
   0 C :   -0.360767
   1 C :   -0.033596
   2 C :    0.065045
   3 N :   -0.290603
   4 C :   -0.144657
   5 C :   -0.034425
   6 C :   -0.119955
   7 C :   -0.142877
   8 C :    0.084668
   9 O :   -0.160943
  10 C :    0.356935
  11 F :   -0.108784
  12 F :   -0.093197
  13 F :   -0.103839
  14 C :   -0.156468
  15 C :   -0.100140
  16 S :    1.267732
  17 O :   -0.585634
  18 O :   -0.572142
  19 C :   -0.217806
  20 C :   -0.134853
  21 C :   -0.113229
  22 C :   -0.003433
  23 C :    0.072198
  24 O :   -0.378793
  25 O :   -0.508102
  26 C :   -0.117536
  27 C :   -0.112195
  28 N :   -0.111618
  29 C :    0.020175
  30 C :   -0.108180
  31 C :   -0.124693
  32 C :   -0.128456
  33 C :   -0.128230
  34 C :   -0.034932
  35 C :   -0.062761
  36 Cl:    0.032847
  37 H :    0.134129
  38 H :    0.138524
  39 H :    0.153092
  40 H :    0.133192
  41 H :    0.138288
  42 H :    0.143101
  43 H :    0.143244
  44 H :    0.136727
  45 H :    0.137929
  46 H :    0.140335
  47 H :    0.148471
  48 H :    0.144064
  49 H :    0.142201
  50 H :    0.154779
  51 H :    0.135284
  52 H :    0.130449
  53 H :    0.139434

  Mayer bond orders larger than 0.100000
B(  0-C ,  1-C ) :   1.0052 B(  0-C , 37-H ) :   0.9253 B(  0-C , 38-H ) :   0.9293
B(  0-C , 39-H ) :   0.9175 B(  1-C ,  2-C ) :   1.2913 B(  1-C , 35-C ) :   1.4307
B(  2-C ,  3-N ) :   0.9344 B(  2-C , 28-N ) :   1.4427 B(  3-N ,  4-C ) :   0.9173
B(  3-N , 16-S ) :   0.7489 B(  4-C ,  5-C ) :   0.9725 B(  4-C , 40-H ) :   0.9159
B(  4-C , 41-H ) :   0.9161 B(  5-C ,  6-C ) :   1.4380 B(  5-C , 15-C ) :   1.4212
B(  6-C ,  7-C ) :   1.4248 B(  6-C , 42-H ) :   0.9159 B(  7-C ,  8-C ) :   1.4277
B(  7-C , 43-H ) :   0.9191 B(  8-C ,  9-O ) :   0.8121 B(  8-C , 14-C ) :   1.3859
B(  9-O , 10-C ) :   1.0032 B( 10-C , 11-F ) :   0.9622 B( 10-C , 12-F ) :   1.0010
B( 10-C , 13-F ) :   0.9737 B( 14-C , 15-C ) :   1.4443 B( 14-C , 44-H ) :   0.9123
B( 15-C , 45-H ) :   0.9138 B( 16-S , 17-O ) :   1.6276 B( 16-S , 18-O ) :   1.6282
B( 16-S , 19-C ) :   0.8449 B( 19-C , 20-C ) :   1.3605 B( 19-C , 27-C ) :   1.3737
B( 20-C , 21-C ) :   1.3988 B( 20-C , 46-H ) :   0.9127 B( 21-C , 22-C ) :   1.4057
B( 21-C , 47-H ) :   0.9022 B( 22-C , 23-C ) :   0.9279 B( 22-C , 26-C ) :   1.3861
B( 23-C , 24-O ) :   1.7066 B( 23-C , 25-O ) :   1.5485 B( 24-O , 25-O ) :   0.1481
B( 26-C , 27-C ) :   1.4119 B( 26-C , 48-H ) :   0.9086 B( 27-C , 49-H ) :   0.9145
B( 28-N , 29-C ) :   1.2438 B( 29-C , 30-C ) :   1.2998 B( 29-C , 34-C ) :   1.2473
B( 30-C , 31-C ) :   1.5168 B( 30-C , 33-C ) :   0.1069 B( 30-C , 50-H ) :   0.9113
B( 31-C , 32-C ) :   1.3481 B( 31-C , 51-H ) :   0.9295 B( 32-C , 33-C ) :   1.5123
B( 32-C , 52-H ) :   0.9318 B( 33-C , 34-C ) :   1.2975 B( 33-C , 53-H ) :   0.9149
B( 34-C , 35-C ) :   1.2290 B( 35-C , 36-Cl) :   1.0398

FINAL SINGLE POINT ENERGY     -2605.288768741179

DIPOLE MOMENT
-------------

Method             : SCF
Type of density    : Electron Density
Multiplicity       :   1
Irrep              :   0
Energy             : -2605.2887687411789557 Eh
Relativity type    :
Basis              : AO
                                X                 Y                 Z
Electronic contribution:     34.516664580     -13.113750588      -0.850918112
Nuclear contribution   :    -32.902140789       3.883651067      -2.584728062
                        -----------------------------------------
Total Dipole Moment    :      1.614523791      -9.230099522      -3.435646175
                        -----------------------------------------
Magnitude (a.u.)       :      9.980234912
Magnitude (Debye)      :     25.367741138

Rotational constants in cm-1:             0.003364             0.001935             0.001308
Rotational constants in MHz :           100.838593            58.001716            39.221909

                             ****ORCA TERMINATED NORMALLY****
TOTAL RUN TIME: 0 days 0 hours 11 minutes 1 seconds 109 msec
