                         Program Version 6.0.0  -   RELEASE  -
|  1> ! B3LYP 6-31G* SP
|  2>
|  3> * xyz 0 1
|  4> C 0.7285 -0.8258 2.0357
|  5> C 0.6056 -1.2138 0.5509
|  6> C 1.8828 -1.7875 -0.0370
|  7> C 1.7876 -2.8021 -1.0072
|  8> C 2.9368 -3.3206 -1.6098
|  9> C 4.1944 -2.8244 -1.2636
| 10> C 4.3059 -1.8047 -0.3152
| 11> Cl 5.8859 -1.1686 0.1044
| 12> C 3.1582 -1.2837 0.2929
| 13> N 0.1021 -0.1043 -0.2891
| 14> C -0.9703 -0.3940 -1.2119
| 15> O -0.7664 -0.2961 -2.4528
| 16> C -2.2995 -0.8349 -0.7285
| 17> C -2.7438 -0.5135 0.5638
| 18> C -4.0050 -0.9258 0.9950
| 19> C -4.8176 -1.6579 0.1293
| 20> N -4.3819 -1.9593 -1.1214
| 21> C -3.1585 -1.5662 -1.5669
| 22> C 0.7401 1.2336 -0.2726
| 23> C 1.1271 1.7091 -1.6606
| 24> N 1.9853 0.9152 -2.4803
| 25> O 0.7305 2.8245 -2.0941
| 26> C -0.1498 2.2219 0.4656
| 27> C -1.3994 2.6097 -0.0577
| 28> C -2.2219 3.4931 0.6476
| 29> C -1.8109 3.9966 1.8841
| 30> C -0.5743 3.6219 2.4142
| 31> C 0.2535 2.7412 1.7108
| 32> H -0.2610 -0.5284 2.4375
| 33> H 1.4289 0.0133 2.2035
| 34> H 1.0851 -1.6993 2.6225
| 35> H -0.1470 -2.0354 0.5495
| 36> H 0.8203 -3.1896 -1.3025
| 37> H 2.8509 -4.1042 -2.3514
| 38> H 5.0801 -3.2284 -1.7372
| 39> H 3.2738 -0.4850 1.0107
| 40> H -2.1322 0.0769 1.2299
| 41> H -4.3517 -0.6736 1.9885
| 42> H -5.7964 -1.9843 0.4508
| 43> H -2.8566 -1.8312 -2.5717
| 44> H 1.7050 1.1692 0.2687
| 45> H 2.3270 -0.0165 -2.1580
| 46> H 2.2611 1.2497 -3.4305
| 47> H -1.7370 2.2345 -1.0142
| 48> H -3.1794 3.7865 0.2353
| 49> H -2.4489 4.6804 2.4297
| 50> H -0.2555 4.0149 3.3726
| 51> H 1.2085 2.4668 2.1405
| 52> *
| 53>
| 54>                          ****END OF INPUT****

CARTESIAN COORDINATES (ANGSTROEM)
---------------------------------
  C      0.728500   -0.825800    2.035700
  C      0.605600   -1.213800    0.550900
  C      1.882800   -1.787500   -0.037000
  C      1.787600   -2.802100   -1.007200
  C      2.936800   -3.320600   -1.609800
  C      4.194400   -2.824400   -1.263600
  C      4.305900   -1.804700   -0.315200
  Cl     5.885900   -1.168600    0.104400
  C      3.158200   -1.283700    0.292900
  N      0.102100   -0.104300   -0.289100
  C     -0.970300   -0.394000   -1.211900
  O     -0.766400   -0.296100   -2.452800
  C     -2.299500   -0.834900   -0.728500
  C     -2.743800   -0.513500    0.563800
  C     -4.005000   -0.925800    0.995000
  C     -4.817600   -1.657900    0.129300
  N     -4.381900   -1.959300   -1.121400
  C     -3.158500   -1.566200   -1.566900
  C      0.740100    1.233600   -0.272600
  C      1.127100    1.709100   -1.660600
  N      1.985300    0.915200   -2.480300
  O      0.730500    2.824500   -2.094100
  C     -0.149800    2.221900    0.465600
  C     -1.399400    2.609700   -0.057700
  C     -2.221900    3.493100    0.647600
  C     -1.810900    3.996600    1.884100
  C     -0.574300    3.621900    2.414200
  C      0.253500    2.741200    1.710800
  H     -0.261000   -0.528400    2.437500
  H      1.428900    0.013300    2.203500
  H      1.085100   -1.699300    2.622500
  H     -0.147000   -2.035400    0.549500
  H      0.820300   -3.189600   -1.302500
  H      2.850900   -4.104200   -2.351400
  H      5.080100   -3.228400   -1.737200
  H      3.273800   -0.485000    1.010700
  H     -2.132200    0.076900    1.229900
  H     -4.351700   -0.673600    1.988500
  H     -5.796400   -1.984300    0.450800
  H     -2.856600   -1.831200   -2.571700
  H      1.705000    1.169200    0.268700
  H      2.327000   -0.016500   -2.158000
  H      2.261100    1.249700   -3.430500
  H     -1.737000    2.234500   -1.014200
  H     -3.179400    3.786500    0.235300
  H     -2.448900    4.680400    2.429700
  H     -0.255500    4.014900    3.372600
  H      1.208500    2.466800    2.140500

 Total Charge           Charge          ....    0
 Multiplicity           Mult            ....    1
 Number of Electrons    NEL             ....  206
 Basis Dimension        Dim             ....  436

ORBITAL ENERGIES
----------------

  NO   OCC          E(Eh)            E(eV)
   0   2.0000    -101.537311     -2762.9707
   1   2.0000     -19.133454      -520.6478
   2   2.0000     -19.098381      -519.6934
   3   2.0000     -14.352071      -390.5397
   4   2.0000     -14.336162      -390.1068
   5   2.0000     -14.335313      -390.0837
   6   2.0000     -10.303240      -280.3654
   7   2.0000     -10.282234      -279.7938
   8   2.0000     -10.259463      -279.1742
   9   2.0000     -10.246930      -278.8331
  10   2.0000     -10.242866      -278.7226
  11   2.0000     -10.232403      -278.4378
  12   2.0000     -10.232254      -278.4338
  13   2.0000     -10.215427      -277.9759
  14   2.0000     -10.213185      -277.9149
  15   2.0000     -10.212482      -277.8958
  16   2.0000     -10.209925      -277.8262
  17   2.0000     -10.207189      -277.7517
  18   2.0000     -10.206359      -277.7292
  19   2.0000     -10.202532      -277.6250
  20   2.0000     -10.202529      -277.6249
  21   2.0000     -10.194037      -277.3938
  22   2.0000     -10.190122      -277.2873
  23   2.0000     -10.184940      -277.1463
  24   2.0000     -10.181965      -277.0654
  25   2.0000     -10.180637      -277.0292
  26   2.0000     -10.180181      -277.0168
  27   2.0000     -10.179781      -277.0059
  28   2.0000      -9.469180      -257.6695
  29   2.0000      -7.232229      -196.7990
  30   2.0000      -7.222775      -196.5417
  31   2.0000      -7.222468      -196.5333
  32   2.0000      -1.029166       -28.0050
  33   2.0000      -0.997281       -27.1374
  34   2.0000      -0.937863       -25.5206
  35   2.0000      -0.933042       -25.3894
  36   2.0000      -0.898918       -24.4608
  37   2.0000      -0.860214       -23.4076
  38   2.0000      -0.852941       -23.2097
  39   2.0000      -0.845448       -23.0058
  40   2.0000      -0.814774       -22.1711
  41   2.0000      -0.798603       -21.7311
  42   2.0000      -0.780361       -21.2347
  43   2.0000      -0.765949       -20.8425
  44   2.0000      -0.749024       -20.3820
  45   2.0000      -0.741925       -20.1888
  46   2.0000      -0.738199       -20.0874
  47   2.0000      -0.707229       -19.2447
  48   2.0000      -0.664364       -18.0783
  49   2.0000      -0.649634       -17.6774
  50   2.0000      -0.637705       -17.3528
  51   2.0000      -0.617748       -16.8098
  52   2.0000      -0.606272       -16.4975
  53   2.0000      -0.599872       -16.3233
  54   2.0000      -0.595109       -16.1937
  55   2.0000      -0.583821       -15.8866
  56   2.0000      -0.550198       -14.9717
  57   2.0000      -0.536276       -14.5928
  58   2.0000      -0.528790       -14.3891
  59   2.0000      -0.514413       -13.9979
  60   2.0000      -0.512748       -13.9526
  61   2.0000      -0.499833       -13.6012
  62   2.0000      -0.492325       -13.3968
  63   2.0000      -0.489939       -13.3319
  64   2.0000      -0.480198       -13.0668
  65   2.0000      -0.474081       -12.9004
  66   2.0000      -0.462366       -12.5816
  67   2.0000      -0.459396       -12.5008
  68   2.0000      -0.452087       -12.3019
  69   2.0000      -0.451005       -12.2725
  70   2.0000      -0.441628       -12.0173
  71   2.0000      -0.432806       -11.7773
  72   2.0000      -0.426344       -11.6014
  73   2.0000      -0.421109       -11.4590
  74   2.0000      -0.415595       -11.3089
  75   2.0000      -0.413707       -11.2575
  76   2.0000      -0.406670       -11.0661
  77   2.0000      -0.406243       -11.0544
  78   2.0000      -0.400100       -10.8873
  79   2.0000      -0.398177       -10.8349
  80   2.0000      -0.386579       -10.5194
  81   2.0000      -0.384388       -10.4597
  82   2.0000      -0.383289       -10.4298
  83   2.0000      -0.369687       -10.0597
  84   2.0000      -0.365977        -9.9587
  85   2.0000      -0.360019        -9.7966
  86   2.0000      -0.357778        -9.7356
  87   2.0000      -0.351865        -9.5747
  88   2.0000      -0.345382        -9.3983
  89   2.0000      -0.340300        -9.2600
  90   2.0000      -0.336860        -9.1664
  91   2.0000      -0.320735        -8.7276
  92   2.0000      -0.291513        -7.9325
  93   2.0000      -0.277953        -7.5635
  94   2.0000      -0.273161        -7.4331
  95   2.0000      -0.267384        -7.2759
  96   2.0000      -0.256700        -6.9852
  97   2.0000      -0.251503        -6.8437
  98   2.0000      -0.249958        -6.8017
  99   2.0000      -0.248636        -6.7657
 100   2.0000      -0.240660        -6.5487
 101   2.0000      -0.237342        -6.4584
 102   2.0000      -0.217317        -5.9135
 103   0.0000      -0.069426        -1.8892
 104   0.0000      -0.033419        -0.9094
 105   0.0000      -0.027260        -0.7418
 106   0.0000      -0.026358        -0.7172
 107   0.0000      -0.004360        -0.1187

MULLIKEN ATOMIC CHARGES
-----------------------
   0 C :   -0.453831
   1 C :   -0.085270
   2 C :    0.184528
   3 C :   -0.176767
   4 C :   -0.118732
   5 C :   -0.134395
   6 C :   -0.068548
   7 Cl:   -0.009782
   8 C :   -0.195531
   9 N :   -0.423841
  10 C :    0.435322
  11 O :   -0.427940
  12 C :    0.063302
  13 C :   -0.131462
  14 C :   -0.146060
  15 C :    0.031214
  16 N :   -0.369830
  17 C :    0.003376
  18 C :   -0.195745
  19 C :    0.580662
  20 N :   -0.757298
  21 O :   -0.470962
  22 C :    0.209294
  23 C :   -0.158144
  24 C :   -0.135214
  25 C :   -0.125058
  26 C :   -0.128133
  27 C :   -0.190455
  28 H :    0.159952
  29 H :    0.150559
  30 H :    0.155785
  31 H :    0.157154
  32 H :    0.142919
  33 H :    0.148299
  34 H :    0.156332
  35 H :    0.150392
  36 H :    0.174039
  37 H :    0.141700
  38 H :    0.157339
  39 H :    0.179763
  40 H :    0.168112
  41 H :    0.341211
  42 H :    0.346983
  43 H :    0.156416
  44 H :    0.133414
  45 H :    0.127531
  46 H :    0.127500
  47 H :    0.119899
Sum of atomic charges:   -0.0000000

LOEWDIN ATOMIC CHARGES
----------------------
   0 C :   -0.361612
   1 C :   -0.050501
   2 C :   -0.021500
   3 C :   -0.129082
   4 C :   -0.118588
   5 C :   -0.135358
   6 C :   -0.087370
   7 Cl:    0.041471
   8 C :   -0.149044
   9 N :   -0.123584
  10 C :    0.142712
  11 O :   -0.227551
  12 C :   -0.074615
  13 C :   -0.089863
  14 C :   -0.145769
  15 C :   -0.053893
  16 N :   -0.132306
  17 C :   -0.035639
  18 C :   -0.064231
  19 C :    0.140077
  20 N :   -0.393763
  21 O :   -0.282793
  22 C :   -0.011862
  23 C :   -0.112446
  24 C :   -0.128890
  25 C :   -0.129672
  26 C :   -0.132422
  27 C :   -0.138024
  28 H :    0.132308
  29 H :    0.123688
  30 H :    0.133335
  31 H :    0.138143
  32 H :    0.138694
  33 H :    0.141912
  34 H :    0.146547
  35 H :    0.142268
  36 H :    0.151054
  37 H :    0.139068
  38 H :    0.138625
  39 H :    0.151397
  40 H :    0.146305
  41 H :    0.252716
  42 H :    0.264053
  43 H :    0.144303
  44 H :    0.133940
  45 H :    0.131086
  46 H :    0.131092
  47 H :    0.125585

  Mayer bond orders larger than 0.100000
B(  0-C ,  1-C ) :   0.9975 B(  0-C , 28-H ) :   0.9369 B(  0-C , 29-H ) :   0.9321
B(  0-C , 30-H ) :   0.9395 B(  1-C ,  2-C ) :   0.9455 B(  1-C ,  9-N ) :   0.9579
B(  1-C , 31-H ) :   0.9169 B(  2-C ,  3-C ) :   1.4137 B(  2-C ,  8-C ) :   1.4085
B(  3-C ,  4-C ) :   1.4397 B(  3-C , 32-H ) :   0.9214 B(  4-C ,  5-C ) :   1.4455
B(  4-C , 33-H ) :   0.9259 B(  5-C ,  6-C ) :   1.4191 B(  5-C , 34-H ) :   0.9230
B(  6-C ,  7-Cl) :   1.0187 B(  6-C ,  8-C ) :   1.3981 B(  8-C , 35-H ) :   0.9133
B(  9-N , 10-C ) :   0.9775 B(  9-N , 18-C ) :   0.9360 B( 10-C , 11-O ) :   1.8466
B( 10-C , 12-C ) :   0.9813 B( 12-C , 13-C ) :   1.3902 B( 12-C , 17-C ) :   1.3439
B( 13-C , 14-C ) :   1.4354 B( 13-C , 36-H ) :   0.9018 B( 14-C , 15-C ) :   1.4170
B( 14-C , 37-H ) :   0.9241 B( 15-C , 16-N ) :   1.4206 B( 15-C , 38-H ) :   0.9294
B( 16-N , 17-C ) :   1.4230 B( 17-C , 39-H ) :   0.9162 B( 18-C , 19-C ) :   0.9092
B( 18-C , 22-C ) :   0.9365 B( 18-C , 40-H ) :   0.9032 B( 19-C , 20-N ) :   1.0930
B( 19-C , 21-O ) :   1.8532 B( 20-N , 41-H ) :   0.8118 B( 20-N , 42-H ) :   0.8270
B( 22-C , 23-C ) :   1.4125 B( 22-C , 27-C ) :   1.4316 B( 23-C , 24-C ) :   1.4477
B( 23-C , 43-H ) :   0.9113 B( 24-C , 25-C ) :   1.4412 B( 24-C , 44-H ) :   0.9292
B( 25-C , 26-C ) :   1.4650 B( 25-C , 45-H ) :   0.9302 B( 26-C , 27-C ) :   1.4334
B( 26-C , 46-H ) :   0.9296 B( 27-C , 47-H ) :   0.9214

FINAL SINGLE POINT ENERGY     -1624.464518813108

DIPOLE MOMENT
-------------

Method             : SCF
Type of density    : Electron Density
Multiplicity       :   1
Irrep              :   0
Energy             : -1624.4645188131084979 Eh
Relativity type    :
Basis              : AO
                                X                 Y                 Z
Electronic contribution:     15.514577322      -3.659105392      -8.284512760
Nuclear contribution   :    -15.427191349       2.349619383       9.901807134
                        -----------------------------------------
Total Dipole Moment    :      0.087385973      -1.309486009       1.617294374
                        -----------------------------------------
Magnitude (a.u.)       :      2.082794039
Magnitude (Debye)      :      5.294041722

Rotational constants in cm-1:             0.007742             0.004085             0.003303
Rotational constants in MHz :           232.090066           122.475063            99.034300

                             ****ORCA TERMINATED NORMALLY****
TOTAL RUN TIME: 0 days 0 hours 8 minutes 35 seconds 805 msec
