                         Program Version 6.0.0  -   RELEASE  -
|  1> ! B3LYP 6-31G* SP
|  2>
|  3> * xyz 0 1
|  4> C 5.8353 1.1465 0.3467
|  5> C 4.6904 0.2133 0.1494
|  6> N 4.8215 -1.0825 -0.1913
|  7> N 3.5923 -1.5630 -0.2967
|  8> C 2.7612 -0.5394 -0.0207
|  9> C 1.2963 -0.6321 -0.0242
| 10> S 0.2486 0.6369 0.3171
| 11> C -1.1414 -0.2969 0.0961
| 12> C -2.5362 0.1808 0.2384
| 13> C -2.8127 1.5167 0.5861
| 14> C -4.1340 1.9551 0.7174
| 15> C -5.1918 1.0687 0.5039
| 16> C -4.9307 -0.2593 0.1585
| 17> F -5.9584 -1.1191 -0.0485
| 18> C -3.6109 -0.7029 0.0259
| 19> N -0.8191 -1.5694 -0.2359
| 20> C 0.5264 -1.7575 -0.3031
| 21> O 1.0774 -2.9926 -0.6286
| 22> O 3.4291 0.5560 0.2511
| 23> H 6.1702 1.5338 -0.6377
| 24> H 5.5227 1.9972 0.9877
| 25> H 6.6764 0.6138 0.8378
| 26> H -2.0128 2.2251 0.7573
| 27> H -4.3379 2.9839 0.9850
| 28> H -6.2132 1.4119 0.6065
| 29> H -3.4316 -1.7365 -0.2426
| 30> H 0.4830 -3.7887 -0.8253
| 31> *
| 32>
| 33>                          ****END OF INPUT****

CARTESIAN COORDINATES (ANGSTROEM)
---------------------------------
  C      5.835300    1.146500    0.346700
  C      4.690400    0.213300    0.149400
  N      4.821500   -1.082500   -0.191300
  N      3.592300   -1.563000   -0.296700
  C      2.761200   -0.539400   -0.020700
  C      1.296300   -0.632100   -0.024200
  S      0.248600    0.636900    0.317100
  C     -1.141400   -0.296900    0.096100
  C     -2.536200    0.180800    0.238400
  C     -2.812700    1.516700    0.586100
  C     -4.134000    1.955100    0.717400
  C     -5.191800    1.068700    0.503900
  C     -4.930700   -0.259300    0.158500
  F     -5.958400   -1.119100   -0.048500
  C     -3.610900   -0.702900    0.025900
  N     -0.819100   -1.569400   -0.235900
  C      0.526400   -1.757500   -0.303100
  O      1.077400   -2.992600   -0.628600
  O      3.429100    0.556000    0.251100
  H      6.170200    1.533800   -0.637700
  H      5.522700    1.997200    0.987700
  H      6.676400    0.613800    0.837800
  H     -2.012800    2.225100    0.757300
  H     -4.337900    2.983900    0.985000
  H     -6.213200    1.411900    0.606500
  H     -3.431600   -1.736500   -0.242600
  H      0.483000   -3.788700   -0.825300

 Total Charge           Charge          ....    0
 Multiplicity           Mult            ....    1
 Number of Electrons    NEL             ....  142
 Basis Dimension        Dim             ....  286

ORBITAL ENERGIES
----------------

  NO   OCC          E(Eh)            E(eV)
   0   2.0000     -88.913428     -2419.4574
   1   2.0000     -24.705260      -672.2643
   2   2.0000     -19.253766      -523.9216
   3   2.0000     -19.176311      -521.8139
   4   2.0000     -14.345649      -390.3650
   5   2.0000     -14.343740      -390.3130
   6   2.0000     -14.342793      -390.2872
   7   2.0000     -10.291694      -280.0512
   8   2.0000     -10.284955      -279.8679
   9   2.0000     -10.279054      -279.7073
  10   2.0000     -10.276847      -279.6472
  11   2.0000     -10.266648      -279.3697
  12   2.0000     -10.234169      -278.4859
  13   2.0000     -10.224565      -278.2246
  14   2.0000     -10.204810      -277.6870
  15   2.0000     -10.203965      -277.6640
  16   2.0000     -10.201760      -277.6040
  17   2.0000     -10.200103      -277.5589
  18   2.0000     -10.199953      -277.5548
  19   2.0000      -7.990413      -217.4302
  20   2.0000      -5.953398      -162.0002
  21   2.0000      -5.949462      -161.8931
  22   2.0000      -5.947361      -161.8359
  23   2.0000      -1.218387       -33.1540
  24   2.0000      -1.196468       -32.5576
  25   2.0000      -1.046908       -28.4878
  26   2.0000      -0.990476       -26.9522
  27   2.0000      -0.969526       -26.3821
  28   2.0000      -0.872717       -23.7478
  29   2.0000      -0.851699       -23.1759
  30   2.0000      -0.813657       -22.1407
  31   2.0000      -0.791028       -21.5250
  32   2.0000      -0.759415       -20.6647
  33   2.0000      -0.745777       -20.2936
  34   2.0000      -0.716380       -19.4937
  35   2.0000      -0.676763       -18.4156
  36   2.0000      -0.650797       -17.7091
  37   2.0000      -0.629868       -17.1396
  38   2.0000      -0.611032       -16.6270
  39   2.0000      -0.593699       -16.1554
  40   2.0000      -0.584654       -15.9093
  41   2.0000      -0.544637       -14.8203
  42   2.0000      -0.537560       -14.6277
  43   2.0000      -0.519159       -14.1270
  44   2.0000      -0.514724       -14.0064
  45   2.0000      -0.506257       -13.7759
  46   2.0000      -0.483839       -13.1659
  47   2.0000      -0.472612       -12.8604
  48   2.0000      -0.461574       -12.5601
  49   2.0000      -0.446786       -12.1577
  50   2.0000      -0.445775       -12.1302
  51   2.0000      -0.439954       -11.9717
  52   2.0000      -0.428325       -11.6553
  53   2.0000      -0.426656       -11.6099
  54   2.0000      -0.410851       -11.1798
  55   2.0000      -0.402772       -10.9600
  56   2.0000      -0.396127       -10.7792
  57   2.0000      -0.381235       -10.3739
  58   2.0000      -0.379928       -10.3384
  59   2.0000      -0.364986        -9.9318
  60   2.0000      -0.354134        -9.6365
  61   2.0000      -0.352538        -9.5931
  62   2.0000      -0.349130        -9.5003
  63   2.0000      -0.319449        -8.6926
  64   2.0000      -0.313857        -8.5405
  65   2.0000      -0.287749        -7.8301
  66   2.0000      -0.270157        -7.3514
  67   2.0000      -0.264818        -7.2061
  68   2.0000      -0.254361        -6.9215
  69   2.0000      -0.252418        -6.8686
  70   2.0000      -0.205834        -5.6010
  71   0.0000      -0.071560        -1.9472
  72   0.0000      -0.015487        -0.4214
  73   0.0000      -0.006901        -0.1878
  74   0.0000       0.015031         0.4090
  75   0.0000       0.022834         0.6213

MULLIKEN ATOMIC CHARGES
-----------------------
   0 C :   -0.526730
   1 C :    0.432093
   2 N :   -0.262144
   3 N :   -0.267982
   4 C :    0.436642
   5 C :   -0.263507
   6 S :    0.284853
   7 C :   -0.017547
   8 C :    0.155917
   9 C :   -0.197689
  10 C :   -0.121275
  11 C :   -0.200313
  12 C :    0.420114
  13 F :   -0.315139
  14 C :   -0.244792
  15 N :   -0.421952
  16 C :    0.502364
  17 O :   -0.622477
  18 O :   -0.371387
  19 H :    0.187779
  20 H :    0.171018
  21 H :    0.198869
  22 H :    0.148752
  23 H :    0.145938
  24 H :    0.149502
  25 H :    0.172606
  26 H :    0.426485
Sum of atomic charges:    0.0000000

LOEWDIN ATOMIC CHARGES
----------------------
   0 C :   -0.360556
   1 C :    0.045549
   2 N :   -0.127512
   3 N :   -0.112450
   4 C :    0.046297
   5 C :   -0.252040
   6 S :    0.412035
   7 C :   -0.115860
   8 C :   -0.021164
   9 C :   -0.134348
  10 C :   -0.116995
  11 C :   -0.150742
  12 C :    0.120366
  13 F :   -0.100361
  14 C :   -0.136385
  15 N :   -0.178636
  16 C :    0.100256
  17 O :   -0.315125
  18 O :    0.005586
  19 H :    0.153185
  20 H :    0.145410
  21 H :    0.161963
  22 H :    0.140522
  23 H :    0.140517
  24 H :    0.145670
  25 H :    0.158966
  26 H :    0.345853

  Mayer bond orders larger than 0.100000
B(  0-C ,  1-C ) :   1.0319 B(  0-C , 19-H ) :   0.9256 B(  0-C , 20-H ) :   0.9348
B(  0-C , 21-H ) :   0.9306 B(  1-C ,  2-N ) :   1.5429 B(  1-C , 18-O ) :   1.0857
B(  2-N ,  3-N ) :   1.2547 B(  3-N ,  4-C ) :   1.5045 B(  4-C ,  5-C ) :   1.0593
B(  4-C , 18-O ) :   1.0502 B(  5-C ,  6-S ) :   1.0801 B(  5-C ,  7-C ) :   0.1206
B(  5-C , 16-C ) :   1.4094 B(  6-S ,  7-C ) :   1.1450 B(  7-C ,  8-C ) :   1.0305
B(  7-C , 15-N ) :   1.4423 B(  8-C ,  9-C ) :   1.3900 B(  8-C , 14-C ) :   1.3734
B(  9-C , 10-C ) :   1.4484 B(  9-C , 22-H ) :   0.9163 B( 10-C , 11-C ) :   1.4270
B( 10-C , 23-H ) :   0.9281 B( 11-C , 12-C ) :   1.3847 B( 11-C , 24-H ) :   0.9202
B( 12-C , 13-F ) :   0.9127 B( 12-C , 14-C ) :   1.3745 B( 14-C , 25-H ) :   0.9039
B( 15-N , 16-C ) :   1.2884 B( 16-C , 17-O ) :   1.0133 B( 17-O , 26-H ) :   0.7537

FINAL SINGLE POINT ENERGY     -1274.216975082561

DIPOLE MOMENT
-------------

Method             : SCF
Type of density    : Electron Density
Multiplicity       :   1
Irrep              :   0
Energy             : -1274.2169750825612482 Eh
Relativity type    :
Basis              : AO
                                X                 Y                 Z
Electronic contribution:     -9.613388759      -5.984607807      -1.338287765
Nuclear contribution   :      9.133498364       7.561008856       1.741022628
                        -----------------------------------------
Total Dipole Moment    :     -0.479890395       1.576401049       0.402734863
                        -----------------------------------------
Magnitude (a.u.)       :      1.696328515
Magnitude (Debye)      :      4.311724426

Rotational constants in cm-1:             0.035649             0.004752             0.004196
Rotational constants in MHz :          1068.715263           142.453985           125.802853

                             ****ORCA TERMINATED NORMALLY****
TOTAL RUN TIME: 0 days 0 hours 2 minutes 7 seconds 968 msec
