                         Program Version 6.0.0  -   RELEASE  -
|  1> ! B3LYP 6-31G* SP
|  2>
|  3> * xyz 0 1
|  4> C -3.7557 -2.7802 1.3598
|  5> C -3.4364 -2.0600 0.0431
|  6> N -2.4646 -0.9866 0.2817
|  7> C -1.5874 -0.4969 -0.7461
|  8> O -1.4943 -1.1196 -1.8393
|  9> N -0.7826 0.6794 -0.5272
| 10> C -1.2481 1.7260 0.3922
| 11> C -0.9608 3.1050 -0.1899
| 12> C 0.4827 3.2283 -0.5792
| 13> C 1.1081 4.4830 -0.5744
| 14> C 2.4310 4.6062 -0.9985
| 15> C 3.1133 3.4745 -1.4430
| 16> N 2.4904 2.2671 -1.4585
| 17> C 1.2036 2.1081 -1.0372
| 18> C 0.5763 0.7296 -1.1049
| 19> C 1.4600 -0.2920 -0.4173
| 20> C 1.8823 -1.4388 -1.1075
| 21> C 2.6720 -2.3998 -0.4707
| 22> C 3.0542 -2.2340 0.8729
| 23> C 3.9008 -3.2646 1.5805
| 24> F 4.2701 -4.2953 0.7332
| 25> F 5.0489 -2.6656 2.0669
| 26> F 3.1873 -3.7986 2.6381
| 27> C 2.6223 -1.0894 1.5673
| 28> F 2.9642 -0.9020 2.8676
| 29> C 1.8319 -0.1302 0.9279
| 30> C -4.7104 -1.4868 -0.5999
| 31> F -5.6313 -2.4967 -0.8168
| 32> F -4.4063 -0.9042 -1.8169
| 33> F -5.2758 -0.5290 0.2242
| 34> H -4.4415 -3.6348 1.1786
| 35> H -2.8194 -3.1773 1.8066
| 36> H -4.2287 -2.0847 2.0858
| 37> H -2.9947 -2.8149 -0.6446
| 38> H -2.3740 -0.5928 1.2456
| 39> H -2.3453 1.6506 0.5551
| 40> H -0.7413 1.6128 1.3742
| 41> H -1.2277 3.8760 0.5655
| 42> H -1.5902 3.2649 -1.0919
| 43> H 0.5705 5.3644 -0.2473
| 44> H 2.9198 5.5719 -0.9920
| 45> H 4.1373 3.5559 -1.7822
| 46> H 0.5007 0.4940 -2.1897
| 47> H 1.5971 -1.5940 -2.1406
| 48> H 2.9783 -3.2721 -1.0334
| 49> H 1.5136 0.7434 1.4818
| 50> *
| 51>
| 52>                          ****END OF INPUT****

CARTESIAN COORDINATES (ANGSTROEM)
---------------------------------
  C     -3.755700   -2.780200    1.359800
  C     -3.436400   -2.060000    0.043100
  N     -2.464600   -0.986600    0.281700
  C     -1.587400   -0.496900   -0.746100
  O     -1.494300   -1.119600   -1.839300
  N     -0.782600    0.679400   -0.527200
  C     -1.248100    1.726000    0.392200
  C     -0.960800    3.105000   -0.189900
  C      0.482700    3.228300   -0.579200
  C      1.108100    4.483000   -0.574400
  C      2.431000    4.606200   -0.998500
  C      3.113300    3.474500   -1.443000
  N      2.490400    2.267100   -1.458500
  C      1.203600    2.108100   -1.037200
  C      0.576300    0.729600   -1.104900
  C      1.460000   -0.292000   -0.417300
  C      1.882300   -1.438800   -1.107500
  C      2.672000   -2.399800   -0.470700
  C      3.054200   -2.234000    0.872900
  C      3.900800   -3.264600    1.580500
  F      4.270100   -4.295300    0.733200
  F      5.048900   -2.665600    2.066900
  F      3.187300   -3.798600    2.638100
  C      2.622300   -1.089400    1.567300
  F      2.964200   -0.902000    2.867600
  C      1.831900   -0.130200    0.927900
  C     -4.710400   -1.486800   -0.599900
  F     -5.631300   -2.496700   -0.816800
  F     -4.406300   -0.904200   -1.816900
  F     -5.275800   -0.529000    0.224200
  H     -4.441500   -3.634800    1.178600
  H     -2.819400   -3.177300    1.806600
  H     -4.228700   -2.084700    2.085800
  H     -2.994700   -2.814900   -0.644600
  H     -2.374000   -0.592800    1.245600
  H     -2.345300    1.650600    0.555100
  H     -0.741300    1.612800    1.374200
  H     -1.227700    3.876000    0.565500
  H     -1.590200    3.264900   -1.091900
  H      0.570500    5.364400   -0.247300
  H      2.919800    5.571900   -0.992000
  H      4.137300    3.555900   -1.782200
  H      0.500700    0.494000   -2.189700
  H      1.597100   -1.594000   -2.140600
  H      2.978300   -3.272100   -1.033400
  H      1.513600    0.743400    1.481800

 Total Charge           Charge          ....    0
 Multiplicity           Mult            ....    1
 Number of Electrons    NEL             ....  222
 Basis Dimension        Dim             ....  452

ORBITAL ENERGIES
----------------

  NO   OCC          E(Eh)            E(eV)
   0   2.0000     -24.721057      -672.6942
   1   2.0000     -24.720453      -672.6777
   2   2.0000     -24.717646      -672.6013
   3   2.0000     -24.712317      -672.4563
   4   2.0000     -24.710663      -672.4113
   5   2.0000     -24.710086      -672.3956
   6   2.0000     -24.709767      -672.3869
   7   2.0000     -19.108413      -519.9663
   8   2.0000     -14.370745      -391.0478
   9   2.0000     -14.363561      -390.8524
  10   2.0000     -14.333144      -390.0247
  11   2.0000     -10.432193      -283.8744
  12   2.0000     -10.429303      -283.7958
  13   2.0000     -10.322502      -280.8896
  14   2.0000     -10.285364      -279.8790
  15   2.0000     -10.253516      -279.0124
  16   2.0000     -10.243098      -278.7289
  17   2.0000     -10.239347      -278.6268
  18   2.0000     -10.236891      -278.5600
  19   2.0000     -10.225431      -278.2481
  20   2.0000     -10.214726      -277.9568
  21   2.0000     -10.209840      -277.8239
  22   2.0000     -10.208889      -277.7980
  23   2.0000     -10.206461      -277.7319
  24   2.0000     -10.204261      -277.6721
  25   2.0000     -10.203219      -277.6437
  26   2.0000     -10.199967      -277.5552
  27   2.0000     -10.199208      -277.5346
  28   2.0000     -10.197738      -277.4946
  29   2.0000     -10.190567      -277.2994
  30   2.0000      -1.278140       -34.7800
  31   2.0000      -1.274089       -34.6697
  32   2.0000      -1.222395       -33.2631
  33   2.0000      -1.206223       -32.8230
  34   2.0000      -1.200204       -32.6592
  35   2.0000      -1.199955       -32.6524
  36   2.0000      -1.196567       -32.5602
  37   2.0000      -1.024631       -27.8816
  38   2.0000      -0.948784       -25.8177
  39   2.0000      -0.926113       -25.2008
  40   2.0000      -0.919432       -25.0190
  41   2.0000      -0.873091       -23.7580
  42   2.0000      -0.825987       -22.4762
  43   2.0000      -0.808260       -21.9939
  44   2.0000      -0.788067       -21.4444
  45   2.0000      -0.782049       -21.2806
  46   2.0000      -0.762879       -20.7590
  47   2.0000      -0.756479       -20.5848
  48   2.0000      -0.709263       -19.3000
  49   2.0000      -0.702933       -19.1278
  50   2.0000      -0.678306       -18.4577
  51   2.0000      -0.661831       -18.0093
  52   2.0000      -0.637685       -17.3523
  53   2.0000      -0.634836       -17.2748
  54   2.0000      -0.624258       -16.9869
  55   2.0000      -0.610010       -16.5992
  56   2.0000      -0.604932       -16.4610
  57   2.0000      -0.576509       -15.6876
  58   2.0000      -0.568481       -15.4691
  59   2.0000      -0.567686       -15.4475
  60   2.0000      -0.564468       -15.3600
  61   2.0000      -0.563680       -15.3385
  62   2.0000      -0.562081       -15.2950
  63   2.0000      -0.549425       -14.9506
  64   2.0000      -0.534170       -14.5355
  65   2.0000      -0.527010       -14.3407
  66   2.0000      -0.519812       -14.1448
  67   2.0000      -0.501860       -13.6563
  68   2.0000      -0.491676       -13.3792
  69   2.0000      -0.489547       -13.3212
  70   2.0000      -0.486027       -13.2255
  71   2.0000      -0.470412       -12.8006
  72   2.0000      -0.467204       -12.7133
  73   2.0000      -0.454096       -12.3566
  74   2.0000      -0.450692       -12.2639
  75   2.0000      -0.449187       -12.2230
  76   2.0000      -0.447574       -12.1791
  77   2.0000      -0.445250       -12.1159
  78   2.0000      -0.441981       -12.0269
  79   2.0000      -0.441547       -12.0151
  80   2.0000      -0.432821       -11.7777
  81   2.0000      -0.427951       -11.6451
  82   2.0000      -0.422353       -11.4928
  83   2.0000      -0.418171       -11.3790
  84   2.0000      -0.414996       -11.2926
  85   2.0000      -0.412765       -11.2319
  86   2.0000      -0.411629       -11.2010
  87   2.0000      -0.410236       -11.1631
  88   2.0000      -0.408425       -11.1138
  89   2.0000      -0.405292       -11.0286
  90   2.0000      -0.401720       -10.9314
  91   2.0000      -0.396280       -10.7833
  92   2.0000      -0.395470       -10.7613
  93   2.0000      -0.391557       -10.6548
  94   2.0000      -0.384091       -10.4516
  95   2.0000      -0.378124       -10.2893
  96   2.0000      -0.376410       -10.2426
  97   2.0000      -0.375458       -10.2167
  98   2.0000      -0.367694       -10.0055
  99   2.0000      -0.363894        -9.9021
 100   2.0000      -0.361458        -9.8358
 101   2.0000      -0.352126        -9.5818
 102   2.0000      -0.349297        -9.5049
 103   2.0000      -0.287946        -7.8354
 104   2.0000      -0.268419        -7.3041
 105   2.0000      -0.263664        -7.1747
 106   2.0000      -0.259589        -7.0638
 107   2.0000      -0.255582        -6.9547
 108   2.0000      -0.251947        -6.8558
 109   2.0000      -0.250010        -6.8031
 110   2.0000      -0.234866        -6.3910
 111   0.0000      -0.036412        -0.9908
 112   0.0000      -0.030876        -0.8402
 113   0.0000      -0.019545        -0.5318
 114   0.0000      -0.005897        -0.1605
 115   0.0000       0.022085         0.6010

MULLIKEN ATOMIC CHARGES
-----------------------
   0 C :   -0.489232
   1 C :   -0.048512
   2 N :   -0.637531
   3 C :    0.704685
   4 O :   -0.495833
   5 N :   -0.459625
   6 C :   -0.159025
   7 C :   -0.339883
   8 C :    0.110204
   9 C :   -0.147279
  10 C :   -0.134247
  11 C :    0.013131
  12 N :   -0.408910
  13 C :    0.191760
  14 C :   -0.087219
  15 C :    0.223570
  16 C :   -0.177779
  17 C :   -0.154070
  18 C :   -0.116937
  19 C :    0.917830
  20 F :   -0.306307
  21 F :   -0.299614
  22 F :   -0.300745
  23 C :    0.385912
  24 F :   -0.304445
  25 C :   -0.264463
  26 C :    0.941279
  27 F :   -0.305414
  28 F :   -0.291869
  29 F :   -0.310667
  30 H :    0.178870
  31 H :    0.171276
  32 H :    0.158314
  33 H :    0.198942
  34 H :    0.331411
  35 H :    0.162968
  36 H :    0.137193
  37 H :    0.147880
  38 H :    0.175224
  39 H :    0.138265
  40 H :    0.136234
  41 H :    0.153550
  42 H :    0.198261
  43 H :    0.157717
  44 H :    0.161678
  45 H :    0.143452
Sum of atomic charges:    0.0000000

LOEWDIN ATOMIC CHARGES
----------------------
   0 C :   -0.362364
   1 C :   -0.090633
   2 N :   -0.248914
   3 C :    0.167095
   4 O :   -0.310596
   5 N :   -0.122833
   6 C :   -0.156965
   7 C :   -0.227323
   8 C :   -0.039507
   9 C :   -0.106447
  10 C :   -0.142636
  11 C :   -0.067135
  12 N :   -0.129021
  13 C :    0.020963
  14 C :   -0.037950
  15 C :    0.010360
  16 C :   -0.126156
  17 C :   -0.105868
  18 C :   -0.100690
  19 C :    0.313629
  20 F :   -0.111544
  21 F :   -0.112476
  22 F :   -0.114107
  23 C :    0.132308
  24 F :   -0.096308
  25 C :   -0.154584
  26 C :    0.301450
  27 F :   -0.115868
  28 F :   -0.105722
  29 F :   -0.121600
  30 H :    0.144993
  31 H :    0.139893
  32 H :    0.130285
  33 H :    0.160238
  34 H :    0.253574
  35 H :    0.136017
  36 H :    0.108137
  37 H :    0.132532
  38 H :    0.144044
  39 H :    0.136598
  40 H :    0.136784
  41 H :    0.137394
  42 H :    0.161871
  43 H :    0.147058
  44 H :    0.149038
  45 H :    0.142986

  Mayer bond orders larger than 0.100000
B(  0-C ,  1-C ) :   0.9883 B(  0-C , 30-H ) :   0.9383 B(  0-C , 31-H ) :   0.9397
B(  0-C , 32-H ) :   0.9393 B(  1-C ,  2-N ) :   0.9300 B(  1-C , 26-C ) :   0.9301
B(  1-C , 33-H ) :   0.8985 B(  2-N ,  3-C ) :   1.0222 B(  2-N , 34-H ) :   0.8180
B(  3-C ,  4-O ) :   1.7872 B(  3-C ,  5-N ) :   1.0282 B(  5-N ,  6-C ) :   0.9483
B(  5-N , 14-C ) :   0.9210 B(  6-C ,  7-C ) :   0.9898 B(  6-C , 35-H ) :   0.9252
B(  6-C , 36-H ) :   0.9177 B(  7-C ,  8-C ) :   0.9874 B(  7-C , 37-H ) :   0.9280
B(  7-C , 38-H ) :   0.9166 B(  8-C ,  9-C ) :   1.4199 B(  8-C , 13-C ) :   1.3968
B(  9-C , 10-C ) :   1.4523 B(  9-C , 39-H ) :   0.9242 B( 10-C , 11-C ) :   1.4109
B( 10-C , 40-H ) :   0.9242 B( 11-C , 12-N ) :   1.4398 B( 11-C , 41-H ) :   0.9292
B( 12-N , 13-C ) :   1.3578 B( 13-C , 14-C ) :   0.9660 B( 14-C , 15-C ) :   0.9531
B( 14-C , 42-H ) :   0.8909 B( 15-C , 16-C ) :   1.4314 B( 15-C , 25-C ) :   1.3751
B( 16-C , 17-C ) :   1.4135 B( 16-C , 43-H ) :   0.9175 B( 17-C , 18-C ) :   1.4133
B( 17-C , 44-H ) :   0.9181 B( 18-C , 19-C ) :   0.9678 B( 18-C , 23-C ) :   1.3198
B( 19-C , 20-F ) :   0.9462 B( 19-C , 21-F ) :   0.9695 B( 19-C , 22-F ) :   0.9716
B( 23-C , 24-F ) :   0.9468 B( 23-C , 25-C ) :   1.3909 B( 25-C , 45-H ) :   0.9094
B( 26-C , 27-F ) :   0.9563 B( 26-C , 28-F ) :   0.9856 B( 26-C , 29-F ) :   0.9577

FINAL SINGLE POINT ENERGY     -1671.177203749658

DIPOLE MOMENT
-------------

Method             : SCF
Type of density    : Electron Density
Multiplicity       :   1
Irrep              :   0
Energy             : -1671.1772037496582470 Eh
Relativity type    :
Basis              : AO
                                X                 Y                 Z
Electronic contribution:      9.223060668     -25.254178581       6.652049718
Nuclear contribution   :     -9.911843163      26.939639982      -5.900321275
                        -----------------------------------------
Total Dipole Moment    :     -0.688782495       1.685461401       0.751728443
                        -----------------------------------------
Magnitude (a.u.)       :      1.969846977
Magnitude (Debye)      :      5.006953106

Rotational constants in cm-1:             0.005339             0.003354             0.002305
Rotational constants in MHz :           160.072644           100.559210            69.106487

                             ****ORCA TERMINATED NORMALLY****
TOTAL RUN TIME: 0 days 0 hours 4 minutes 47 seconds 628 msec
