                         Program Version 6.0.0  -   RELEASE  -
|  1> ! B3LYP def2-TZVP SP
|  2>
|  3> * xyz 0 1
|  4> C -1.9417 1.8756 -1.5905
|  5> C -1.1671 2.3807 -0.3919
|  6> C -0.4610 1.4802 0.4353
|  7> N -0.3877 0.0833 0.1257
|  8> C 0.4933 -0.3805 -0.9495
|  9> C 1.8570 -0.7040 -0.4031
| 10> C 2.2237 -2.0335 -0.1462
| 11> C 3.4683 -2.3248 0.4183
| 12> C 4.3632 -1.2973 0.7392
| 13> O 5.5872 -1.6483 1.3304
| 14> C 6.5955 -0.7286 1.7464
| 15> F 6.0819 0.1554 2.6780
| 16> F 7.6299 -1.4332 2.3285
| 17> F 7.0852 -0.0353 0.6545
| 18> C 4.0013 0.0371 0.4678
| 19> C 2.7555 0.3287 -0.0956
| 20> S -1.0639 -1.0573 1.2470
| 21> O 0.0177 -1.5760 2.1521
| 22> O -2.1147 -0.3851 2.0862
| 23> C -1.8202 -2.3739 0.3589
| 24> C -2.9663 -2.1219 -0.4050
| 25> C -3.5597 -3.1488 -1.1430
| 26> C -3.0105 -4.4429 -1.1324
| 27> C -3.6363 -5.5261 -1.9218
| 28> O -3.1466 -6.6881 -1.9139
| 29> O -4.7742 -5.2723 -2.6818
| 30> C -1.8577 -4.6885 -0.3655
| 31> C -1.2691 -3.6613 0.3770
| 32> N 0.1712 1.9307 1.5482
| 33> C 0.1881 3.2355 1.9106
| 34> Br 1.1346 3.6885 3.5164
| 35> C -0.4618 4.1923 1.1090
| 36> C -0.4488 5.5606 1.4432
| 37> C -1.0932 6.4925 0.6312
| 38> C -1.7551 6.0783 -0.5217
| 39> C -1.7832 4.7277 -0.8701
| 40> C -1.1447 3.7611 -0.0618
| 41> H -1.4649 2.2389 -2.5253
| 42> H -2.9909 2.2367 -1.5413
| 43> H -1.9938 0.7695 -1.6356
| 44> H 0.5887 0.4017 -1.7345
| 45> H 0.0452 -1.2687 -1.4444
| 46> H 1.5447 -2.8441 -0.3757
| 47> H 3.7358 -3.3554 0.6177
| 48> H 4.6671 0.8560 0.6954
| 49> H 2.4865 1.3611 -0.2839
| 50> H -3.3962 -1.1275 -0.4350
| 51> H -4.4443 -2.9266 -1.7266
| 52> H -5.2114 -6.0062 -3.2276
| 53> H -1.4097 -5.6733 -0.3418
| 54> H -0.3790 -3.8714 0.9556
| 55> H 0.0576 5.9234 2.3275
| 56> H -1.0751 7.5416 0.8957
| 57> H -2.2490 6.8071 -1.1506
| 58> H -2.3012 4.4565 -1.7797
| 59> *
| 60>
| 61>                          ****END OF INPUT****

CARTESIAN COORDINATES (ANGSTROEM)
---------------------------------
  C     -1.941700    1.875600   -1.590500
  C     -1.167100    2.380700   -0.391900
  C     -0.461000    1.480200    0.435300
  N     -0.387700    0.083300    0.125700
  C      0.493300   -0.380500   -0.949500
  C      1.857000   -0.704000   -0.403100
  C      2.223700   -2.033500   -0.146200
  C      3.468300   -2.324800    0.418300
  C      4.363200   -1.297300    0.739200
  O      5.587200   -1.648300    1.330400
  C      6.595500   -0.728600    1.746400
  F      6.081900    0.155400    2.678000
  F      7.629900   -1.433200    2.328500
  F      7.085200   -0.035300    0.654500
  C      4.001300    0.037100    0.467800
  C      2.755500    0.328700   -0.095600
  S     -1.063900   -1.057300    1.247000
  O      0.017700   -1.576000    2.152100
  O     -2.114700   -0.385100    2.086200
  C     -1.820200   -2.373900    0.358900
  C     -2.966300   -2.121900   -0.405000
  C     -3.559700   -3.148800   -1.143000
  C     -3.010500   -4.442900   -1.132400
  C     -3.636300   -5.526100   -1.921800
  O     -3.146600   -6.688100   -1.913900
  O     -4.774200   -5.272300   -2.681800
  C     -1.857700   -4.688500   -0.365500
  C     -1.269100   -3.661300    0.377000
  N      0.171200    1.930700    1.548200
  C      0.188100    3.235500    1.910600
  Br     1.134600    3.688500    3.516400
  C     -0.461800    4.192300    1.109000
  C     -0.448800    5.560600    1.443200
  C     -1.093200    6.492500    0.631200
  C     -1.755100    6.078300   -0.521700
  C     -1.783200    4.727700   -0.870100
  C     -1.144700    3.761100   -0.061800
  H     -1.464900    2.238900   -2.525300
  H     -2.990900    2.236700   -1.541300
  H     -1.993800    0.769500   -1.635600
  H      0.588700    0.401700   -1.734500
  H      0.045200   -1.268700   -1.444400
  H      1.544700   -2.844100   -0.375700
  H      3.735800   -3.355400    0.617700
  H      4.667100    0.856000    0.695400
  H      2.486500    1.361100   -0.283900
  H     -3.396200   -1.127500   -0.435000
  H     -4.444300   -2.926600   -1.726600
  H     -5.211400   -6.006200   -3.227600
  H     -1.409700   -5.673300   -0.341800
  H     -0.379000   -3.871400    0.955600
  H      0.057600    5.923400    2.327500
  H     -1.075100    7.541600    0.895700
  H     -2.249000    6.807100   -1.150600
  H     -2.301200    4.456500   -1.779700

 Total Charge           Charge          ....    0
 Multiplicity           Mult            ....    1
 Number of Electrons    NEL             ....  300
 Basis Dimension        Dim             .... 1278

ORBITAL ENERGIES
----------------

  NO   OCC          E(Eh)            E(eV)
   0   2.0000    -482.862836    -13139.3658
   1   2.0000     -89.066698     -2423.6281
   2   2.0000     -62.510048     -1700.9849
   3   2.0000     -56.325672     -1532.6995
   4   2.0000     -56.323073     -1532.6287
   5   2.0000     -56.322861     -1532.6230
   6   2.0000     -24.733708      -673.0384
   7   2.0000     -24.731279      -672.9723
   8   2.0000     -24.729623      -672.9273
   9   2.0000     -19.197971      -522.4034
  10   2.0000     -19.193449      -522.2803
  11   2.0000     -19.131075      -520.5830
  12   2.0000     -19.113221      -520.0972
  13   2.0000     -19.108234      -519.9615
  14   2.0000     -14.368497      -390.9867
  15   2.0000     -14.330960      -389.9653
  16   2.0000     -10.497679      -285.6564
  17   2.0000     -10.339417      -281.3498
  18   2.0000     -10.275821      -279.6193
  19   2.0000     -10.267837      -279.4020
  20   2.0000     -10.259391      -279.1722
  21   2.0000     -10.247691      -278.8538
  22   2.0000     -10.239455      -278.6297
  23   2.0000     -10.237892      -278.5872
  24   2.0000     -10.225713      -278.2558
  25   2.0000     -10.223744      -278.2022
  26   2.0000     -10.222617      -278.1715
  27   2.0000     -10.221599      -278.1438
  28   2.0000     -10.215425      -277.9759
  29   2.0000     -10.214745      -277.9573
  30   2.0000     -10.212436      -277.8945
  31   2.0000     -10.200481      -277.5692
  32   2.0000     -10.199830      -277.5515
  33   2.0000     -10.197833      -277.4971
  34   2.0000     -10.196034      -277.4482
  35   2.0000     -10.195893      -277.4443
  36   2.0000     -10.189412      -277.2680
  37   2.0000     -10.188447      -277.2417
  38   2.0000     -10.187535      -277.2169
  39   2.0000     -10.187235      -277.2087
  40   2.0000     -10.186948      -277.2009
  41   2.0000      -8.700805      -236.7609
  42   2.0000      -8.110786      -220.7057
  43   2.0000      -6.530431      -177.7021
  44   2.0000      -6.519564      -177.4064
  45   2.0000      -6.518655      -177.3816
  46   2.0000      -6.075029      -165.3099
  47   2.0000      -6.072799      -165.2493
  48   2.0000      -6.072015      -165.2279
  49   2.0000      -2.645055       -71.9756
  50   2.0000      -2.642135       -71.8961
  51   2.0000      -2.641410       -71.8764
  52   2.0000      -2.632460       -71.6329
  53   2.0000      -2.632443       -71.6324
  54   2.0000      -1.313725       -35.7483
  55   2.0000      -1.235609       -33.6226
  56   2.0000      -1.234451       -33.5911
  57   2.0000      -1.097411       -29.8621
  58   2.0000      -1.086797       -29.5733
  59   2.0000      -1.084730       -29.5170
  60   2.0000      -1.011702       -27.5298
  61   2.0000      -0.978722       -26.6324
  62   2.0000      -0.965788       -26.2804
  63   2.0000      -0.932584       -25.3769
  64   2.0000      -0.905778       -24.6475
  65   2.0000      -0.880401       -23.9569
  66   2.0000      -0.866911       -23.5899
  67   2.0000      -0.833366       -22.6771
  68   2.0000      -0.820308       -22.3217
  69   2.0000      -0.804816       -21.9002
  70   2.0000      -0.791918       -21.5492
  71   2.0000      -0.788871       -21.4663
  72   2.0000      -0.774361       -21.0714
  73   2.0000      -0.760647       -20.6983
  74   2.0000      -0.756827       -20.5943
  75   2.0000      -0.737176       -20.0596
  76   2.0000      -0.725263       -19.7354
  77   2.0000      -0.702444       -19.1145
  78   2.0000      -0.687480       -18.7073
  79   2.0000      -0.667681       -18.1685
  80   2.0000      -0.658494       -17.9185
  81   2.0000      -0.651739       -17.7347
  82   2.0000      -0.640511       -17.4292
  83   2.0000      -0.632754       -17.2181
  84   2.0000      -0.628132       -17.0923
  85   2.0000      -0.608273       -16.5520
  86   2.0000      -0.607799       -16.5391
  87   2.0000      -0.601675       -16.3724
  88   2.0000      -0.599420       -16.3111
  89   2.0000      -0.579239       -15.7619
  90   2.0000      -0.572657       -15.5828
  91   2.0000      -0.557545       -15.1716
  92   2.0000      -0.547395       -14.8954
  93   2.0000      -0.529536       -14.4094
  94   2.0000      -0.516410       -14.0522
  95   2.0000      -0.509758       -13.8712
  96   2.0000      -0.505037       -13.7428
  97   2.0000      -0.498048       -13.5526
  98   2.0000      -0.490756       -13.3542
  99   2.0000      -0.487770       -13.2729
 100   2.0000      -0.485520       -13.2117
 101   2.0000      -0.484447       -13.1825
 102   2.0000      -0.478972       -13.0335
 103   2.0000      -0.477558       -12.9950
 104   2.0000      -0.470889       -12.8136
 105   2.0000      -0.464171       -12.6307
 106   2.0000      -0.462021       -12.5722
 107   2.0000      -0.461339       -12.5537
 108   2.0000      -0.458688       -12.4815
 109   2.0000      -0.458285       -12.4706
 110   2.0000      -0.456312       -12.4169
 111   2.0000      -0.453315       -12.3353
 112   2.0000      -0.445948       -12.1349
 113   2.0000      -0.436929       -11.8894
 114   2.0000      -0.434578       -11.8255
 115   2.0000      -0.431301       -11.7363
 116   2.0000      -0.429377       -11.6839
 117   2.0000      -0.428261       -11.6536
 118   2.0000      -0.422553       -11.4983
 119   2.0000      -0.421009       -11.4562
 120   2.0000      -0.418603       -11.3908
 121   2.0000      -0.414615       -11.2822
 122   2.0000      -0.410858       -11.1800
 123   2.0000      -0.404431       -11.0051
 124   2.0000      -0.402180       -10.9439
 125   2.0000      -0.391133       -10.6433
 126   2.0000      -0.386042       -10.5047
 127   2.0000      -0.385691       -10.4952
 128   2.0000      -0.383299       -10.4301
 129   2.0000      -0.374746       -10.1974
 130   2.0000      -0.366080        -9.9615
 131   2.0000      -0.356506        -9.7010
 132   2.0000      -0.352950        -9.6043
 133   2.0000      -0.342238        -9.3128
 134   2.0000      -0.337600        -9.1866
 135   2.0000      -0.329525        -8.9668
 136   2.0000      -0.322746        -8.7824
 137   2.0000      -0.313579        -8.5329
 138   2.0000      -0.300848        -8.1865
 139   2.0000      -0.297016        -8.0822
 140   2.0000      -0.296372        -8.0647
 141   2.0000      -0.295704        -8.0465
 142   2.0000      -0.290191        -7.8965
 143   2.0000      -0.289419        -7.8755
 144   2.0000      -0.284025        -7.7287
 145   2.0000      -0.272703        -7.4206
 146   2.0000      -0.267429        -7.2771
 147   2.0000      -0.260299        -7.0831
 148   2.0000      -0.245685        -6.6854
 149   2.0000      -0.233938        -6.3658
 150   0.0000      -0.107094        -2.9142
 151   0.0000      -0.082456        -2.2437
 152   0.0000      -0.055137        -1.5004
 153   0.0000      -0.052050        -1.4163
 154   0.0000      -0.025178        -0.6851

MULLIKEN ATOMIC CHARGES
-----------------------
   0 C :   -0.433051
   1 C :    0.116896
   2 C :    0.128640
   3 N :   -0.126522
   4 C :   -0.249587
   5 C :    0.210700
   6 C :   -0.159098
   7 C :   -0.172658
   8 C :    0.271874
   9 O :   -0.265586
  10 C :    0.588701
  11 F :   -0.170916
  12 F :   -0.157282
  13 F :   -0.175210
  14 C :   -0.185814
  15 C :   -0.185276
  16 S :    0.812500
  17 O :   -0.465209
  18 O :   -0.473732
  19 C :    0.014655
  20 C :   -0.134062
  21 C :   -0.172073
  22 C :    0.081202
  23 C :    0.348753
  24 O :   -0.349772
  25 O :   -0.415346
  26 C :   -0.146715
  27 C :   -0.110833
  28 N :   -0.212297
  29 C :    0.095481
  30 Br:   -0.037547
  31 C :    0.000425
  32 C :   -0.157573
  33 C :   -0.089445
  34 C :   -0.109411
  35 C :   -0.208869
  36 C :    0.056673
  37 H :    0.132857
  38 H :    0.134810
  39 H :    0.136368
  40 H :    0.147408
  41 H :    0.149401
  42 H :    0.115432
  43 H :    0.113696
  44 H :    0.122092
  45 H :    0.115483
  46 H :    0.152256
  47 H :    0.143876
  48 H :    0.348555
  49 H :    0.155525
  50 H :    0.177555
  51 H :    0.128401
  52 H :    0.118359
  53 H :    0.117003
  54 H :    0.128304
Sum of atomic charges:    0.0000000

LOEWDIN ATOMIC CHARGES
----------------------
   0 C :   -0.257231
   1 C :   -0.096661
   2 C :   -0.265200
   3 N :    0.032690
   4 C :   -0.247859
   5 C :   -0.154476
   6 C :   -0.102766
   7 C :   -0.102877
   8 C :   -0.200236
   9 O :    0.257764
  10 C :   -0.617706
  11 F :    0.157113
  12 F :    0.165720
  13 F :    0.153234
  14 C :   -0.113736
  15 C :   -0.092355
  16 S :    0.815866
  17 O :   -0.300803
  18 O :   -0.308302
  19 C :   -0.267997
  20 C :   -0.105423
  21 C :   -0.070502
  22 C :   -0.110852
  23 C :   -0.365056
  24 O :    0.048579
  25 O :    0.038373
  26 C :   -0.054542
  27 C :   -0.103444
  28 N :    0.171323
  29 C :   -0.388076
  30 Br:    0.361457
  31 C :   -0.115240
  32 C :   -0.085885
  33 C :   -0.128515
  34 C :   -0.123112
  35 C :   -0.088000
  36 C :   -0.064653
  37 H :    0.133249
  38 H :    0.135495
  39 H :    0.129791
  40 H :    0.154141
  41 H :    0.143756
  42 H :    0.143656
  43 H :    0.149624
  44 H :    0.146858
  45 H :    0.148326
  46 H :    0.154986
  47 H :    0.157272
  48 H :    0.223363
  49 H :    0.161972
  50 H :    0.159313
  51 H :    0.147304
  52 H :    0.145492
  53 H :    0.145320
  54 H :    0.149465

  Mayer bond orders larger than 0.100000
B(  0-C ,  1-C ) :   0.8791 B(  0-C , 37-H ) :   0.9648 B(  0-C , 38-H ) :   0.9706
B(  0-C , 39-H ) :   0.9958 B(  1-C ,  2-C ) :   1.4630 B(  1-C , 36-C ) :   1.2169
B(  2-C ,  3-N ) :   0.9365 B(  2-C , 28-N ) :   1.2430 B(  3-N ,  4-C ) :   0.8513
B(  3-N , 16-S ) :   0.9475 B(  4-C ,  5-C ) :   0.8777 B(  4-C , 40-H ) :   0.9665
B(  4-C , 41-H ) :   0.9829 B(  5-C ,  6-C ) :   1.3717 B(  5-C , 15-C ) :   1.3545
B(  6-C ,  7-C ) :   1.4166 B(  6-C , 42-H ) :   0.9587 B(  7-C ,  8-C ) :   1.4032
B(  7-C , 43-H ) :   0.9762 B(  8-C ,  9-O ) :   0.9709 B(  8-C , 14-C ) :   1.3399
B(  9-O , 10-C ) :   1.1289 B( 10-C , 11-F ) :   1.1075 B( 10-C , 12-F ) :   1.1582
B( 10-C , 13-F ) :   1.1018 B( 14-C , 15-C ) :   1.4350 B( 14-C , 44-H ) :   0.9428
B( 15-C , 45-H ) :   0.9580 B( 16-S , 17-O ) :   1.8265 B( 16-S , 18-O ) :   1.7807
B( 16-S , 19-C ) :   0.8946 B( 19-C , 20-C ) :   1.3612 B( 19-C , 27-C ) :   1.3302
B( 20-C , 21-C ) :   1.3814 B( 20-C , 46-H ) :   0.9535 B( 21-C , 22-C ) :   1.3380
B( 21-C , 47-H ) :   0.9674 B( 22-C , 23-C ) :   1.0110 B( 22-C , 25-O ) :  -0.1046
B( 22-C , 26-C ) :   1.3748 B( 23-C , 24-O ) :   2.0113 B( 23-C , 25-O ) :   1.2322
B( 25-O , 48-H ) :   0.8354 B( 26-C , 27-C ) :   1.3519 B( 26-C , 49-H ) :   0.9637
B( 27-C , 50-H ) :   0.9469 B( 28-N , 29-C ) :   1.6116 B( 29-C , 30-Br) :   1.0983
B( 29-C , 31-C ) :   1.2144 B( 31-C , 32-C ) :   1.2964 B( 31-C , 36-C ) :   1.2081
B( 32-C , 33-C ) :   1.4955 B( 32-C , 51-H ) :   0.9479 B( 33-C , 34-C ) :   1.3198
B( 33-C , 52-H ) :   0.9690 B( 34-C , 35-C ) :   1.5168 B( 34-C , 53-H ) :   0.9685
B( 35-C , 36-C ) :   1.2715 B( 35-C , 54-H ) :   0.9635

FINAL SINGLE POINT ENERGY     -4720.550871175062

DIPOLE MOMENT
-------------

Method             : SCF
Type of density    : Electron Density
Multiplicity       :   1
Irrep              :   0
Energy             : -4720.5508711750617294 Eh
Relativity type    :
Basis              : AO
                                X                 Y                 Z
Electronic contribution:     43.751758485      30.063126243      50.481446688
Nuclear contribution   :    -45.519190697     -28.871100283     -53.521888966
                        -----------------------------------------
Total Dipole Moment    :     -1.767432212       1.192025960      -3.040442278
                        -----------------------------------------
Magnitude (a.u.)       :      3.713358555
Magnitude (Debye)      :      9.438607349

Rotational constants in cm-1:             0.002703             0.001951             0.001273
Rotational constants in MHz :            81.044758            58.496272            38.172465

                             ****ORCA TERMINATED NORMALLY****
TOTAL RUN TIME: 0 days 0 hours 26 minutes 58 seconds 185 msec
