                         Program Version 6.0.0  -   RELEASE  -
|  1> ! B3LYP 6-31G* SP
|  2>
|  3> * xyz -1 1
|  4> C -4.1122 -1.0371 -0.7251
|  5> C -3.0010 -1.8931 -0.1584
|  6> C -1.8111 -1.2979 0.3221
|  7> N -1.5833 0.1119 0.2065
|  8> C -1.2148 0.6869 -1.0899
|  9> C 0.2450 0.4542 -1.3674
| 10> C 0.6732 -0.7663 -1.9106
| 11> C 2.0334 -1.0048 -2.1222
| 12> C 2.9874 -0.0368 -1.7868
| 13> O 4.3407 -0.3359 -2.0126
| 14> C 5.4477 0.4658 -1.6003
| 15> C 5.6481 0.3715 -0.0781
| 16> C 6.9540 0.9994 0.4039
| 17> C 7.4351 -0.3667 0.8755
| 18> C 6.1354 -0.9975 0.3940
| 19> C 2.5575 1.1902 -1.2443
| 20> C 1.1965 1.4295 -1.0339
| 21> S -1.4002 1.0514 1.6547
| 22> O -2.0114 0.3200 2.8179
| 23> O 0.0605 1.2659 1.9380
| 24> C -2.2290 2.5918 1.4622
| 25> C -1.5049 3.7691 1.2349
| 26> C -2.1746 4.9832 1.0549
| 27> C -3.5807 5.0348 1.0962
| 28> C -4.2952 6.3159 0.9041
| 29> O -3.6552 7.3808 0.6916
| 30> O -5.6851 6.3620 0.9540
| 31> C -4.3005 3.8478 1.3196
| 32> C -3.6278 2.6357 1.4988
| 33> N -0.8488 -2.0653 0.8976
| 34> C -0.9618 -3.4102 1.0117
| 35> C -2.0914 -4.0642 0.5145
| 36> C -2.1993 -5.4605 0.6079
| 37> C -3.3248 -6.1125 0.1043
| 38> C -4.3465 -5.3791 -0.4983
| 39> C -4.2534 -3.9882 -0.5964
| 40> C -3.1271 -3.3052 -0.0861
| 41> H -3.9603 0.0440 -0.5309
| 42> H -4.1797 -1.1924 -1.8223
| 43> H -5.0788 -1.3048 -0.2496
| 44> H -1.4417 1.7744 -1.1031
| 45> H -1.8263 0.2314 -1.8985
| 46> H -0.0462 -1.5358 -2.1636
| 47> H 2.3499 -1.9521 -2.5402
| 48> H 6.3559 0.0959 -2.1238
| 49> H 5.3015 1.5219 -1.9111
| 50> H 4.7728 0.7308 0.5066
| 51> H 6.7962 1.7060 1.2484
| 52> H 7.5904 1.4141 -0.4096
| 53> H 7.5531 -0.4205 1.9800
| 54> H 8.3201 -0.7267 0.3057
| 55> H 6.2998 -1.7321 -0.4258
| 56> H 5.5234 -1.3974 1.2324
| 57> H 3.2616 1.9658 -0.9792
| 58> H 0.8853 2.3745 -0.6063
| 59> H -0.4233 3.7497 1.1910
| 60> H -1.5922 5.8800 0.8814
| 61> H -5.3833 3.8538 1.3530
| 62> H -4.1979 1.7300 1.6621
| 63> H -0.1597 -3.9677 1.4789
| 64> H -1.4124 -6.0464 1.0674
| 65> H -3.4037 -7.1895 0.1781
| 66> H -5.2149 -5.8906 -0.8936
| 67> H -5.0640 -3.4628 -1.0816
| 68> *
| 69>
| 70>                          ****END OF INPUT****

CARTESIAN COORDINATES (ANGSTROEM)
---------------------------------
  C     -4.112200   -1.037100   -0.725100
  C     -3.001000   -1.893100   -0.158400
  C     -1.811100   -1.297900    0.322100
  N     -1.583300    0.111900    0.206500
  C     -1.214800    0.686900   -1.089900
  C      0.245000    0.454200   -1.367400
  C      0.673200   -0.766300   -1.910600
  C      2.033400   -1.004800   -2.122200
  C      2.987400   -0.036800   -1.786800
  O      4.340700   -0.335900   -2.012600
  C      5.447700    0.465800   -1.600300
  C      5.648100    0.371500   -0.078100
  C      6.954000    0.999400    0.403900
  C      7.435100   -0.366700    0.875500
  C      6.135400   -0.997500    0.394000
  C      2.557500    1.190200   -1.244300
  C      1.196500    1.429500   -1.033900
  S     -1.400200    1.051400    1.654700
  O     -2.011400    0.320000    2.817900
  O      0.060500    1.265900    1.938000
  C     -2.229000    2.591800    1.462200
  C     -1.504900    3.769100    1.234900
  C     -2.174600    4.983200    1.054900
  C     -3.580700    5.034800    1.096200
  C     -4.295200    6.315900    0.904100
  O     -3.655200    7.380800    0.691600
  O     -5.685100    6.362000    0.954000
  C     -4.300500    3.847800    1.319600
  C     -3.627800    2.635700    1.498800
  N     -0.848800   -2.065300    0.897600
  C     -0.961800   -3.410200    1.011700
  C     -2.091400   -4.064200    0.514500
  C     -2.199300   -5.460500    0.607900
  C     -3.324800   -6.112500    0.104300
  C     -4.346500   -5.379100   -0.498300
  C     -4.253400   -3.988200   -0.596400
  C     -3.127100   -3.305200   -0.086100
  H     -3.960300    0.044000   -0.530900
  H     -4.179700   -1.192400   -1.822300
  H     -5.078800   -1.304800   -0.249600
  H     -1.441700    1.774400   -1.103100
  H     -1.826300    0.231400   -1.898500
  H     -0.046200   -1.535800   -2.163600
  H      2.349900   -1.952100   -2.540200
  H      6.355900    0.095900   -2.123800
  H      5.301500    1.521900   -1.911100
  H      4.772800    0.730800    0.506600
  H      6.796200    1.706000    1.248400
  H      7.590400    1.414100   -0.409600
  H      7.553100   -0.420500    1.980000
  H      8.320100   -0.726700    0.305700
  H      6.299800   -1.732100   -0.425800
  H      5.523400   -1.397400    1.232400
  H      3.261600    1.965800   -0.979200
  H      0.885300    2.374500   -0.606300
  H     -0.423300    3.749700    1.191000
  H     -1.592200    5.880000    0.881400
  H     -5.383300    3.853800    1.353000
  H     -4.197900    1.730000    1.662100
  H     -0.159700   -3.967700    1.478900
  H     -1.412400   -6.046400    1.067400
  H     -3.403700   -7.189500    0.178100
  H     -5.214900   -5.890600   -0.893600
  H     -5.064000   -3.462800   -1.081600

 Total Charge           Charge          ....   -1
 Multiplicity           Mult            ....    1
 Number of Electrons    NEL             ....  272
 Basis Dimension        Dim             ....  576

ORBITAL ENERGIES
----------------

  NO   OCC          E(Eh)            E(eV)
   0   2.0000     -88.995670     -2421.6953
   1   2.0000     -19.095783      -519.6227
   2   2.0000     -19.023612      -517.6588
   3   2.0000     -19.020371      -517.5706
   4   2.0000     -18.907927      -514.5108
   5   2.0000     -18.887381      -513.9518
   6   2.0000     -14.280489      -388.5919
   7   2.0000     -14.257330      -387.9617
   8   2.0000     -10.187341      -277.2116
   9   2.0000     -10.177760      -276.9509
  10   2.0000     -10.175141      -276.8797
  11   2.0000     -10.154924      -276.3295
  12   2.0000     -10.152247      -276.2567
  13   2.0000     -10.141525      -275.9649
  14   2.0000     -10.139362      -275.9061
  15   2.0000     -10.137795      -275.8634
  16   2.0000     -10.136869      -275.8382
  17   2.0000     -10.135619      -275.8042
  18   2.0000     -10.134710      -275.7795
  19   2.0000     -10.134614      -275.7769
  20   2.0000     -10.119359      -275.3618
  21   2.0000     -10.118168      -275.3294
  22   2.0000     -10.117464      -275.3102
  23   2.0000     -10.117461      -275.3101
  24   2.0000     -10.117002      -275.2976
  25   2.0000     -10.111828      -275.1568
  26   2.0000     -10.111671      -275.1526
  27   2.0000     -10.108511      -275.0666
  28   2.0000     -10.108359      -275.0624
  29   2.0000     -10.107920      -275.0505
  30   2.0000     -10.107667      -275.0436
  31   2.0000     -10.096053      -274.7276
  32   2.0000     -10.094586      -274.6877
  33   2.0000     -10.093354      -274.6541
  34   2.0000     -10.076517      -274.1960
  35   2.0000     -10.075957      -274.1807
  36   2.0000     -10.074820      -274.1498
  37   2.0000      -8.031380      -218.5450
  38   2.0000      -5.996847      -163.1825
  39   2.0000      -5.994353      -163.1146
  40   2.0000      -5.993611      -163.0944
  41   2.0000      -0.981768       -26.7153
  42   2.0000      -0.974873       -26.5276
  43   2.0000      -0.883621       -24.0445
  44   2.0000      -0.859808       -23.3966
  45   2.0000      -0.836206       -22.7543
  46   2.0000      -0.816829       -22.2270
  47   2.0000      -0.799955       -21.7679
  48   2.0000      -0.798247       -21.7214
  49   2.0000      -0.774854       -21.0848
  50   2.0000      -0.757765       -20.6198
  51   2.0000      -0.740741       -20.1566
  52   2.0000      -0.712953       -19.4005
  53   2.0000      -0.698341       -19.0028
  54   2.0000      -0.697149       -18.9704
  55   2.0000      -0.679465       -18.4892
  56   2.0000      -0.672975       -18.3126
  57   2.0000      -0.665440       -18.1075
  58   2.0000      -0.655094       -17.8260
  59   2.0000      -0.644980       -17.5508
  60   2.0000      -0.631194       -17.1757
  61   2.0000      -0.607336       -16.5264
  62   2.0000      -0.600513       -16.3408
  63   2.0000      -0.586021       -15.9464
  64   2.0000      -0.580218       -15.7885
  65   2.0000      -0.566693       -15.4205
  66   2.0000      -0.543351       -14.7853
  67   2.0000      -0.537914       -14.6374
  68   2.0000      -0.531224       -14.4553
  69   2.0000      -0.508953       -13.8493
  70   2.0000      -0.502831       -13.6827
  71   2.0000      -0.497057       -13.5256
  72   2.0000      -0.470737       -12.8094
  73   2.0000      -0.467934       -12.7331
  74   2.0000      -0.457902       -12.4601
  75   2.0000      -0.451602       -12.2887
  76   2.0000      -0.439914       -11.9707
  77   2.0000      -0.435290       -11.8449
  78   2.0000      -0.433662       -11.8006
  79   2.0000      -0.419002       -11.4016
  80   2.0000      -0.414585       -11.2814
  81   2.0000      -0.410424       -11.1682
  82   2.0000      -0.403169       -10.9708
  83   2.0000      -0.400521       -10.8987
  84   2.0000      -0.386232       -10.5099
  85   2.0000      -0.379829       -10.3357
  86   2.0000      -0.377130       -10.2622
  87   2.0000      -0.372978       -10.1492
  88   2.0000      -0.365579        -9.9479
  89   2.0000      -0.364633        -9.9222
  90   2.0000      -0.358182        -9.7466
  91   2.0000      -0.355944        -9.6857
  92   2.0000      -0.347989        -9.4693
  93   2.0000      -0.346218        -9.4211
  94   2.0000      -0.341633        -9.2963
  95   2.0000      -0.337019        -9.1707
  96   2.0000      -0.336741        -9.1632
  97   2.0000      -0.331890        -9.0312
  98   2.0000      -0.323060        -8.7909
  99   2.0000      -0.321184        -8.7399
 100   2.0000      -0.318476        -8.6662
 101   2.0000      -0.316408        -8.6099
 102   2.0000      -0.309109        -8.4113
 103   2.0000      -0.307107        -8.3568
 104   2.0000      -0.304975        -8.2988
 105   2.0000      -0.296618        -8.0714
 106   2.0000      -0.291299        -7.9266
 107   2.0000      -0.287706        -7.8289
 108   2.0000      -0.286722        -7.8021
 109   2.0000      -0.277770        -7.5585
 110   2.0000      -0.273810        -7.4507
 111   2.0000      -0.266015        -7.2386
 112   2.0000      -0.247577        -6.7369
 113   2.0000      -0.245995        -6.6939
 114   2.0000      -0.245556        -6.6819
 115   2.0000      -0.233109        -6.3432
 116   2.0000      -0.232372        -6.3232
 117   2.0000      -0.229642        -6.2489
 118   2.0000      -0.226291        -6.1577
 119   2.0000      -0.220031        -5.9873
 120   2.0000      -0.211537        -5.7562
 121   2.0000      -0.209997        -5.7143
 122   2.0000      -0.198178        -5.3927
 123   2.0000      -0.191885        -5.2215
 124   2.0000      -0.187061        -5.0902
 125   2.0000      -0.179660        -4.8888
 126   2.0000      -0.175224        -4.7681
 127   2.0000      -0.173651        -4.7253
 128   2.0000      -0.159484        -4.3398
 129   2.0000      -0.155416        -4.2291
 130   2.0000      -0.151541        -4.1236
 131   2.0000      -0.140358        -3.8193
 132   2.0000      -0.130477        -3.5505
 133   2.0000      -0.061952        -1.6858
 134   2.0000      -0.040308        -1.0968
 135   2.0000      -0.023805        -0.6478
 136   0.0000       0.003943         0.1073
 137   0.0000       0.036378         0.9899
 138   0.0000       0.063641         1.7318
 139   0.0000       0.071382         1.9424
 140   0.0000       0.080207         2.1826

MULLIKEN ATOMIC CHARGES
-----------------------
   0 C :   -0.545826
   1 C :    0.092860
   2 C :    0.334800
   3 N :   -0.601069
   4 C :   -0.282248
   5 C :    0.186284
   6 C :   -0.152839
   7 C :   -0.179614
   8 C :    0.368637
   9 O :   -0.531885
  10 C :   -0.031053
  11 C :   -0.096315
  12 C :   -0.281729
  13 C :   -0.263936
  14 C :   -0.266375
  15 C :   -0.207603
  16 C :   -0.138760
  17 S :    1.197156
  18 O :   -0.559858
  19 O :   -0.553694
  20 C :   -0.158339
  21 C :   -0.158643
  22 C :   -0.157005
  23 C :    0.105237
  24 C :    0.411960
  25 O :   -0.551462
  26 O :   -0.657234
  27 C :   -0.150848
  28 C :   -0.152484
  29 N :   -0.353160
  30 C :   -0.053403
  31 C :    0.136494
  32 C :   -0.203027
  33 C :   -0.130130
  34 C :   -0.123580
  35 C :   -0.199569
  36 C :    0.121298
  37 H :    0.194251
  38 H :    0.150360
  39 H :    0.160785
  40 H :    0.181239
  41 H :    0.152806
  42 H :    0.118167
  43 H :    0.118581
  44 H :    0.132604
  45 H :    0.129295
  46 H :    0.157467
  47 H :    0.136956
  48 H :    0.120623
  49 H :    0.130778
  50 H :    0.122158
  51 H :    0.132613
  52 H :    0.141789
  53 H :    0.126380
  54 H :    0.142896
  55 H :    0.151040
  56 H :    0.146907
  57 H :    0.152498
  58 H :    0.140093
  59 H :    0.143253
  60 H :    0.128425
  61 H :    0.119349
  62 H :    0.122771
  63 H :    0.132877
Sum of atomic charges:   -1.0000000

LOEWDIN ATOMIC CHARGES
----------------------
   0 C :   -0.361740
   1 C :   -0.018873
   2 C :    0.047737
   3 N :   -0.285404
   4 C :   -0.150388
   5 C :   -0.043621
   6 C :   -0.120585
   7 C :   -0.155067
   8 C :    0.087317
   9 O :   -0.193063
  10 C :   -0.084877
  11 C :   -0.140563
  12 C :   -0.232374
  13 C :   -0.233493
  14 C :   -0.228341
  15 C :   -0.173875
  16 C :   -0.104734
  17 S :    1.260928
  18 O :   -0.588569
  19 O :   -0.587096
  20 C :   -0.215522
  21 C :   -0.128132
  22 C :   -0.115157
  23 C :   -0.001852
  24 C :    0.072155
  25 O :   -0.376983
  26 O :   -0.505597
  27 C :   -0.107029
  28 C :   -0.125891
  29 N :   -0.103339
  30 C :   -0.062183
  31 C :   -0.031604
  32 C :   -0.114781
  33 C :   -0.137862
  34 C :   -0.127071
  35 C :   -0.126199
  36 C :   -0.007740
  37 H :    0.149605
  38 H :    0.131104
  39 H :    0.136237
  40 H :    0.143974
  41 H :    0.128799
  42 H :    0.128242
  43 H :    0.131960
  44 H :    0.119047
  45 H :    0.107942
  46 H :    0.132493
  47 H :    0.122286
  48 H :    0.112620
  49 H :    0.117931
  50 H :    0.112938
  51 H :    0.118903
  52 H :    0.124863
  53 H :    0.131566
  54 H :    0.138320
  55 H :    0.140082
  56 H :    0.146632
  57 H :    0.150342
  58 H :    0.136736
  59 H :    0.133249
  60 H :    0.132275
  61 H :    0.127660
  62 H :    0.129541
  63 H :    0.136122

  Mayer bond orders larger than 0.100000
B(  0-C ,  1-C ) :   0.9959 B(  0-C , 37-H ) :   0.9227 B(  0-C , 38-H ) :   0.9288
B(  0-C , 39-H ) :   0.9301 B(  1-C ,  2-C ) :   1.4334 B(  1-C , 30-C ) :   0.1047
B(  1-C , 36-C ) :   1.2658 B(  2-C ,  3-N ) :   0.9178 B(  2-C , 29-N ) :   1.2794
B(  3-N ,  4-C ) :   0.9414 B(  3-N , 17-S ) :   0.7735 B(  4-C ,  5-C ) :   0.9377
B(  4-C , 40-H ) :   0.9182 B(  4-C , 41-H ) :   0.9257 B(  5-C ,  6-C ) :   1.4261
B(  5-C , 16-C ) :   1.4418 B(  6-C ,  7-C ) :   1.4431 B(  6-C , 42-H ) :   0.9240
B(  7-C ,  8-C ) :   1.4059 B(  7-C , 43-H ) :   0.9226 B(  8-C ,  9-O ) :   0.8955
B(  8-C , 15-C ) :   1.3667 B(  9-O , 10-C ) :   0.9080 B( 10-C , 11-C ) :   0.9873
B( 10-C , 44-H ) :   0.9356 B( 10-C , 45-H ) :   0.9184 B( 11-C , 12-C ) :   0.9882
B( 11-C , 14-C ) :   1.0022 B( 11-C , 46-H ) :   0.9243 B( 12-C , 13-C ) :   1.0083
B( 12-C , 47-H ) :   0.9459 B( 12-C , 48-H ) :   0.9437 B( 13-C , 14-C ) :   1.0066
B( 13-C , 49-H ) :   0.9500 B( 13-C , 50-H ) :   0.9517 B( 14-C , 51-H ) :   0.9443
B( 14-C , 52-H ) :   0.9463 B( 15-C , 16-C ) :   1.4327 B( 15-C , 53-H ) :   0.9181
B( 16-C , 54-H ) :   0.9139 B( 17-S , 18-O ) :   1.6337 B( 17-S , 19-O ) :   1.6365
B( 17-S , 20-C ) :   0.8394 B( 20-C , 21-C ) :   1.3697 B( 20-C , 28-C ) :   1.3567
B( 21-C , 22-C ) :   1.4045 B( 21-C , 55-H ) :   0.9158 B( 22-C , 23-C ) :   1.3909
B( 22-C , 56-H ) :   0.9075 B( 23-C , 24-C ) :   0.9278 B( 23-C , 27-C ) :   1.3963
B( 24-C , 25-O ) :   1.7073 B( 24-C , 26-O ) :   1.5471 B( 25-O , 26-O ) :   0.1492
B( 27-C , 28-C ) :   1.4124 B( 27-C , 57-H ) :   0.9015 B( 28-C , 58-H ) :   0.9207
B( 29-N , 30-C ) :   1.5021 B( 30-C , 31-C ) :   1.2282 B( 30-C , 59-H ) :   0.9289
B( 31-C , 32-C ) :   1.2852 B( 31-C , 36-C ) :   1.2895 B( 32-C , 33-C ) :   1.5133
B( 32-C , 35-C ) :   0.1065 B( 32-C , 60-H ) :   0.9245 B( 33-C , 34-C ) :   1.3520
B( 33-C , 61-H ) :   0.9318 B( 34-C , 35-C ) :   1.5114 B( 34-C , 62-H ) :   0.9314
B( 35-C , 36-C ) :   1.2917 B( 35-C , 63-H ) :   0.9170

FINAL SINGLE POINT ENERGY     -2004.020776585442

DIPOLE MOMENT
-------------

Method             : SCF
Type of density    : Electron Density
Multiplicity       :   1
Irrep              :   0
Energy             : -2004.0207765854424906 Eh
Relativity type    :
Basis              : AO
                                X                 Y                 Z
Electronic contribution:    -29.573749978       8.560894907       8.256177541
Nuclear contribution   :     34.914746920     -18.033463854     -10.948654193
                        -----------------------------------------
Total Dipole Moment    :      5.340996943      -9.472568946      -2.692476652
                        -----------------------------------------
Magnitude (a.u.)       :     11.202912179
Magnitude (Debye)      :     28.475539772

Rotational constants in cm-1:             0.002946             0.002229             0.001407
Rotational constants in MHz :            88.331102            66.837249            42.181427

                             ****ORCA TERMINATED NORMALLY****
TOTAL RUN TIME: 0 days 0 hours 7 minutes 42 seconds 414 msec
