                         Program Version 6.0.0  -   RELEASE  -
|  1> ! B3LYP 6-31G* SP
|  2>
|  3> * xyz 0 1
|  4> C -1.7389 1.8165 -1.9553
|  5> C -1.4404 1.2673 -0.7662
|  6> C -1.6517 2.0677 0.5081
|  7> C -0.3874 2.8630 0.8616
|  8> C -2.1044 1.1683 1.6766
|  9> C -1.2926 -0.1270 1.7874
| 10> C -1.2391 -0.9377 0.4707
| 11> C -2.5529 -1.7490 0.1753
| 12> C -3.5994 -1.0207 -0.6904
| 13> C -2.2207 -3.1012 -0.4781
| 14> C -0.7287 -0.0711 -0.7129
| 15> O 0.6721 0.1765 -0.5807
| 16> C 1.6623 -0.7735 -0.8630
| 17> O 1.3415 -1.9114 -1.3052
| 18> C 3.0855 -0.4360 -0.6449
| 19> C 4.0960 -1.3834 -0.8964
| 20> C 5.4394 -1.0573 -0.6856
| 21> C 5.7880 0.2137 -0.2232
| 22> C 4.7939 1.1617 0.0291
| 23> C 3.4489 0.8411 -0.1799
| 24> H -2.1881 2.8029 -2.0187
| 25> H -1.5363 1.2895 -2.8827
| 26> H -2.4665 2.8090 0.3441
| 27> H -0.5821 3.5189 1.7366
| 28> H -0.0910 3.5087 0.0074
| 29> H 0.4582 2.1889 1.1078
| 30> H -3.1793 0.9215 1.5716
| 31> H -2.0199 1.7268 2.6344
| 32> H -1.7124 -0.7524 2.6048
| 33> H -0.2551 0.1294 2.0944
| 34> H -0.4505 -1.6975 0.6677
| 35> H -3.0449 -1.9868 1.1442
| 36> H -3.8725 -0.0366 -0.2707
| 37> H -3.2359 -0.8796 -1.7296
| 38> H -4.5311 -1.6241 -0.7376
| 39> H -1.7035 -2.9520 -1.4497
| 40> H -3.1491 -3.6860 -0.6537
| 41> H -1.5660 -3.7026 0.1882
| 42> H -0.8957 -0.6230 -1.6649
| 43> H 3.8493 -2.3752 -1.2544
| 44> H 6.2107 -1.7911 -0.8808
| 45> H 6.8284 0.4640 -0.0607
| 46> H 5.0653 2.1465 0.3868
| 47> H 2.6968 1.5933 0.0206
| 48> *
| 49>
| 50>                          ****END OF INPUT****

CARTESIAN COORDINATES (ANGSTROEM)
---------------------------------
  C     -1.738900    1.816500   -1.955300
  C     -1.440400    1.267300   -0.766200
  C     -1.651700    2.067700    0.508100
  C     -0.387400    2.863000    0.861600
  C     -2.104400    1.168300    1.676600
  C     -1.292600   -0.127000    1.787400
  C     -1.239100   -0.937700    0.470700
  C     -2.552900   -1.749000    0.175300
  C     -3.599400   -1.020700   -0.690400
  C     -2.220700   -3.101200   -0.478100
  C     -0.728700   -0.071100   -0.712900
  O      0.672100    0.176500   -0.580700
  C      1.662300   -0.773500   -0.863000
  O      1.341500   -1.911400   -1.305200
  C      3.085500   -0.436000   -0.644900
  C      4.096000   -1.383400   -0.896400
  C      5.439400   -1.057300   -0.685600
  C      5.788000    0.213700   -0.223200
  C      4.793900    1.161700    0.029100
  C      3.448900    0.841100   -0.179900
  H     -2.188100    2.802900   -2.018700
  H     -1.536300    1.289500   -2.882700
  H     -2.466500    2.809000    0.344100
  H     -0.582100    3.518900    1.736600
  H     -0.091000    3.508700    0.007400
  H      0.458200    2.188900    1.107800
  H     -3.179300    0.921500    1.571600
  H     -2.019900    1.726800    2.634400
  H     -1.712400   -0.752400    2.604800
  H     -0.255100    0.129400    2.094400
  H     -0.450500   -1.697500    0.667700
  H     -3.044900   -1.986800    1.144200
  H     -3.872500   -0.036600   -0.270700
  H     -3.235900   -0.879600   -1.729600
  H     -4.531100   -1.624100   -0.737600
  H     -1.703500   -2.952000   -1.449700
  H     -3.149100   -3.686000   -0.653700
  H     -1.566000   -3.702600    0.188200
  H     -0.895700   -0.623000   -1.664900
  H      3.849300   -2.375200   -1.254400
  H      6.210700   -1.791100   -0.880800
  H      6.828400    0.464000   -0.060700
  H      5.065300    2.146500    0.386800
  H      2.696800    1.593300    0.020600

 Total Charge           Charge          ....    0
 Multiplicity           Mult            ....    1
 Number of Electrons    NEL             ....  148
 Basis Dimension        Dim             ....  328

ORBITAL ENERGIES
----------------

  NO   OCC          E(Eh)            E(eV)
   0   2.0000     -19.175254      -521.7852
   1   2.0000     -19.121550      -520.3238
   2   2.0000     -10.314410      -280.6694
   3   2.0000     -10.238249      -278.5969
   4   2.0000     -10.206164      -277.7239
   5   2.0000     -10.194412      -277.4041
   6   2.0000     -10.194357      -277.4026
   7   2.0000     -10.194007      -277.3930
   8   2.0000     -10.190498      -277.2975
   9   2.0000     -10.190469      -277.2968
  10   2.0000     -10.184292      -277.1287
  11   2.0000     -10.183098      -277.0962
  12   2.0000     -10.177632      -276.9475
  13   2.0000     -10.174833      -276.8713
  14   2.0000     -10.169187      -276.7177
  15   2.0000     -10.168926      -276.7106
  16   2.0000     -10.168567      -276.7008
  17   2.0000     -10.165302      -276.6119
  18   2.0000     -10.158988      -276.4401
  19   2.0000     -10.155924      -276.3568
  20   2.0000      -1.071382       -29.1538
  21   2.0000      -0.985679       -26.8217
  22   2.0000      -0.860568       -23.4172
  23   2.0000      -0.837489       -22.7892
  24   2.0000      -0.790958       -21.5230
  25   2.0000      -0.771365       -20.9899
  26   2.0000      -0.756776       -20.5929
  27   2.0000      -0.750603       -20.4249
  28   2.0000      -0.736530       -20.0420
  29   2.0000      -0.693314       -18.8660
  30   2.0000      -0.667523       -18.1642
  31   2.0000      -0.657562       -17.8932
  32   2.0000      -0.633381       -17.2352
  33   2.0000      -0.611931       -16.6515
  34   2.0000      -0.605101       -16.4656
  35   2.0000      -0.577295       -15.7090
  36   2.0000      -0.565093       -15.3770
  37   2.0000      -0.550091       -14.9687
  38   2.0000      -0.529674       -14.4132
  39   2.0000      -0.497523       -13.5383
  40   2.0000      -0.489932       -13.3317
  41   2.0000      -0.471433       -12.8283
  42   2.0000      -0.458589       -12.4788
  43   2.0000      -0.451685       -12.2910
  44   2.0000      -0.450448       -12.2573
  45   2.0000      -0.445361       -12.1189
  46   2.0000      -0.442156       -12.0317
  47   2.0000      -0.431035       -11.7290
  48   2.0000      -0.425990       -11.5918
  49   2.0000      -0.419130       -11.4051
  50   2.0000      -0.413292       -11.2462
  51   2.0000      -0.406098       -11.0505
  52   2.0000      -0.396325       -10.7846
  53   2.0000      -0.386652       -10.5213
  54   2.0000      -0.383336       -10.4311
  55   2.0000      -0.378785       -10.3073
  56   2.0000      -0.370468       -10.0809
  57   2.0000      -0.369339       -10.0502
  58   2.0000      -0.361201        -9.8288
  59   2.0000      -0.356587        -9.7032
  60   2.0000      -0.348934        -9.4950
  61   2.0000      -0.346475        -9.4281
  62   2.0000      -0.336257        -9.1500
  63   2.0000      -0.331859        -9.0303
  64   2.0000      -0.320455        -8.7200
  65   2.0000      -0.313687        -8.5359
  66   2.0000      -0.310597        -8.4518
  67   2.0000      -0.294871        -8.0238
  68   2.0000      -0.286450        -7.7947
  69   2.0000      -0.273557        -7.4439
  70   2.0000      -0.259486        -7.0610
  71   2.0000      -0.257500        -7.0069
  72   2.0000      -0.255140        -6.9427
  73   2.0000      -0.244620        -6.6564
  74   0.0000      -0.049882        -1.3574
  75   0.0000      -0.006800        -0.1850
  76   0.0000       0.004509         0.1227
  77   0.0000       0.053422         1.4537
  78   0.0000       0.076763         2.0888

MULLIKEN ATOMIC CHARGES
-----------------------
   0 C :   -0.394955
   1 C :    0.212236
   2 C :   -0.136075
   3 C :   -0.443193
   4 C :   -0.270810
   5 C :   -0.282246
   6 C :   -0.109677
   7 C :   -0.073570
   8 C :   -0.447929
   9 C :   -0.438975
  10 C :    0.084985
  11 O :   -0.506692
  12 C :    0.544307
  13 O :   -0.470134
  14 C :    0.061446
  15 C :   -0.146977
  16 C :   -0.133025
  17 C :   -0.112682
  18 C :   -0.133009
  19 C :   -0.162712
  20 H :    0.137789
  21 H :    0.140587
  22 H :    0.124674
  23 H :    0.133883
  24 H :    0.142526
  25 H :    0.160765
  26 H :    0.135220
  27 H :    0.124901
  28 H :    0.131156
  29 H :    0.134788
  30 H :    0.142905
  31 H :    0.118077
  32 H :    0.145517
  33 H :    0.141551
  34 H :    0.134162
  35 H :    0.154660
  36 H :    0.130813
  37 H :    0.140512
  38 H :    0.147137
  39 H :    0.163696
  40 H :    0.138615
  41 H :    0.136595
  42 H :    0.135922
  43 H :    0.163237
Sum of atomic charges:    0.0000000

LOEWDIN ATOMIC CHARGES
----------------------
   0 C :   -0.264204
   1 C :   -0.014065
   2 C :   -0.118373
   3 C :   -0.352319
   4 C :   -0.228694
   5 C :   -0.229134
   6 C :   -0.127208
   7 C :   -0.120333
   8 C :   -0.359885
   9 C :   -0.352726
  10 C :    0.012905
  11 O :   -0.167616
  12 C :    0.186787
  13 O :   -0.271438
  14 C :   -0.056718
  15 C :   -0.090870
  16 C :   -0.129532
  17 C :   -0.110320
  18 C :   -0.130734
  19 C :   -0.105117
  20 H :    0.128485
  21 H :    0.129165
  22 H :    0.121872
  23 H :    0.118577
  24 H :    0.124672
  25 H :    0.126067
  26 H :    0.117201
  27 H :    0.117382
  28 H :    0.120660
  29 H :    0.117729
  30 H :    0.131877
  31 H :    0.114853
  32 H :    0.121443
  33 H :    0.121071
  34 H :    0.120245
  35 H :    0.127298
  36 H :    0.117660
  37 H :    0.121604
  38 H :    0.127462
  39 H :    0.151539
  40 H :    0.136541
  41 H :    0.135064
  42 H :    0.134873
  43 H :    0.146251

  Mayer bond orders larger than 0.100000
B(  0-C ,  1-C ) :   1.8904 B(  0-C , 20-H ) :   0.9310 B(  0-C , 21-H ) :   0.9299
B(  1-C ,  2-C ) :   1.0058 B(  1-C , 10-C ) :   0.9875 B(  2-C ,  3-C ) :   0.9979
B(  2-C ,  4-C ) :   0.9850 B(  2-C , 22-H ) :   0.9305 B(  3-C , 23-H ) :   0.9423
B(  3-C , 24-H ) :   0.9483 B(  3-C , 25-H ) :   0.9345 B(  4-C ,  5-C ) :   1.0120
B(  4-C , 26-H ) :   0.9333 B(  4-C , 27-H ) :   0.9360 B(  5-C ,  6-C ) :   0.9910
B(  5-C , 28-H ) :   0.9347 B(  5-C , 29-H ) :   0.9344 B(  6-C ,  7-C ) :   0.9708
B(  6-C , 10-C ) :   0.9524 B(  6-C , 30-H ) :   0.9161 B(  7-C ,  8-C ) :   1.0100
B(  7-C ,  9-C ) :   1.0073 B(  7-C , 31-H ) :   0.9309 B(  8-C , 32-H ) :   0.9386
B(  8-C , 33-H ) :   0.9427 B(  8-C , 34-H ) :   0.9462 B(  9-C , 35-H ) :   0.9419
B(  9-C , 36-H ) :   0.9472 B(  9-C , 37-H ) :   0.9486 B( 10-C , 11-O ) :   0.8043
B( 10-C , 38-H ) :   0.9091 B( 11-O , 12-C ) :   1.0035 B( 12-C , 13-O ) :   1.7886
B( 12-C , 14-C ) :   1.0214 B( 14-C , 15-C ) :   1.4023 B( 14-C , 19-C ) :   1.3899
B( 15-C , 16-C ) :   1.4370 B( 15-C , 39-H ) :   0.9126 B( 16-C , 17-C ) :   1.4382
B( 16-C , 40-H ) :   0.9294 B( 17-C , 18-C ) :   1.4492 B( 17-C , 41-H ) :   0.9296
B( 18-C , 19-C ) :   1.4326 B( 18-C , 42-H ) :   0.9297 B( 19-C , 43-H ) :   0.9120

FINAL SINGLE POINT ENERGY      -850.247502153785

DIPOLE MOMENT
-------------

Method             : SCF
Type of density    : Electron Density
Multiplicity       :   1
Irrep              :   0
Energy             :  -850.2475021537851489 Eh
Relativity type    :
Basis              : AO
                                X                 Y                 Z
Electronic contribution:     22.042165004      -1.673858867      -5.375396224
Nuclear contribution   :    -21.659359544       2.382054469       5.815140671
                        -----------------------------------------
Total Dipole Moment    :      0.382805460       0.708195601       0.439744447
                        -----------------------------------------
Magnitude (a.u.)       :      0.917309222
Magnitude (Debye)      :      2.331614746

Rotational constants in cm-1:             0.018993             0.006884             0.005802
Rotational constants in MHz :           569.406013           206.380878           173.943532

                             ****ORCA TERMINATED NORMALLY****
TOTAL RUN TIME: 0 days 0 hours 3 minutes 5 seconds 671 msec
