                         Program Version 6.0.0  -   RELEASE  -
|  1> ! B3LYP def2-TZVP SP
|  2>
|  3> * xyz 0 1
|  4> O -2.5940 -1.0568 -1.8108
|  5> C -2.0089 -0.6908 -0.7544
|  6> N -2.7786 -0.3828 0.4188
|  7> C -4.1742 -0.0368 0.3943
|  8> C -4.9786 -0.3398 1.5019
|  9> C -6.3331 0.0055 1.5118
| 10> C -6.9099 0.6579 0.4091
| 11> C -8.3585 1.0756 0.4406
| 12> F -8.4572 2.3342 1.0037
| 13> F -9.1074 0.1856 1.1909
| 14> F -8.8845 1.1115 -0.8393
| 15> C -6.0925 1.0050 -0.6799
| 16> C -4.7382 0.6585 -0.6894
| 17> N -0.5697 -0.6455 -0.7128
| 18> C 0.2098 -1.4102 -1.6944
| 19> C 1.5145 -1.9194 -1.0677
| 20> C 2.3224 -0.7993 -0.3736
| 21> C 1.4058 -0.0781 0.6482
| 22> C 0.1068 0.4345 0.0174
| 23> C 2.9320 0.1675 -1.4262
| 24> C 3.9095 1.1824 -0.7990
| 25> O 4.6481 1.8020 -1.8210
| 26> C 4.8552 0.5217 0.1801
| 27> C 6.0077 1.1989 0.6151
| 28> C 6.8752 0.6002 1.5318
| 29> C 6.5953 -0.6721 2.0338
| 30> C 5.4384 -1.3465 1.6318
| 31> Br 5.0629 -3.0782 2.3528
| 32> C 4.5571 -0.7471 0.7203
| 33> O 3.3903 -1.4227 0.3439
| 34> H -2.3225 -0.5241 1.3484
| 35> H -4.5551 -0.8485 2.3589
| 36> H -6.9286 -0.2345 2.3837
| 37> H -6.4988 1.5535 -1.5206
| 38> H -4.1288 0.9602 -1.5309
| 39> H 0.4248 -0.7724 -2.5778
| 40> H -0.3672 -2.2930 -2.0472
| 41> H 1.2592 -2.7001 -0.3168
| 42> H 2.1319 -2.4111 -1.8509
| 43> H 1.9367 0.7632 1.1394
| 44> H 1.1378 -0.7952 1.4557
| 45> H 0.3195 1.2736 -0.6776
| 46> H -0.5356 0.8413 0.8257
| 47> H 2.1428 0.7196 -1.9766
| 48> H 3.4918 -0.4333 -2.1776
| 49> H 3.3328 1.9561 -0.2428
| 50> H 4.0376 2.4461 -2.2667
| 51> H 6.2369 2.1893 0.2419
| 52> H 7.7656 1.1241 1.8545
| 53> H 7.2735 -1.1299 2.7424
| 54> *
| 55>
| 56>                          ****END OF INPUT****

CARTESIAN COORDINATES (ANGSTROEM)
---------------------------------
  O     -2.594000   -1.056800   -1.810800
  C     -2.008900   -0.690800   -0.754400
  N     -2.778600   -0.382800    0.418800
  C     -4.174200   -0.036800    0.394300
  C     -4.978600   -0.339800    1.501900
  C     -6.333100    0.005500    1.511800
  C     -6.909900    0.657900    0.409100
  C     -8.358500    1.075600    0.440600
  F     -8.457200    2.334200    1.003700
  F     -9.107400    0.185600    1.190900
  F     -8.884500    1.111500   -0.839300
  C     -6.092500    1.005000   -0.679900
  C     -4.738200    0.658500   -0.689400
  N     -0.569700   -0.645500   -0.712800
  C      0.209800   -1.410200   -1.694400
  C      1.514500   -1.919400   -1.067700
  C      2.322400   -0.799300   -0.373600
  C      1.405800   -0.078100    0.648200
  C      0.106800    0.434500    0.017400
  C      2.932000    0.167500   -1.426200
  C      3.909500    1.182400   -0.799000
  O      4.648100    1.802000   -1.821000
  C      4.855200    0.521700    0.180100
  C      6.007700    1.198900    0.615100
  C      6.875200    0.600200    1.531800
  C      6.595300   -0.672100    2.033800
  C      5.438400   -1.346500    1.631800
  Br     5.062900   -3.078200    2.352800
  C      4.557100   -0.747100    0.720300
  O      3.390300   -1.422700    0.343900
  H     -2.322500   -0.524100    1.348400
  H     -4.555100   -0.848500    2.358900
  H     -6.928600   -0.234500    2.383700
  H     -6.498800    1.553500   -1.520600
  H     -4.128800    0.960200   -1.530900
  H      0.424800   -0.772400   -2.577800
  H     -0.367200   -2.293000   -2.047200
  H      1.259200   -2.700100   -0.316800
  H      2.131900   -2.411100   -1.850900
  H      1.936700    0.763200    1.139400
  H      1.137800   -0.795200    1.455700
  H      0.319500    1.273600   -0.677600
  H     -0.535600    0.841300    0.825700
  H      2.142800    0.719600   -1.976600
  H      3.491800   -0.433300   -2.177600
  H      3.332800    1.956100   -0.242800
  H      4.037600    2.446100   -2.266700
  H      6.236900    2.189300    0.241900
  H      7.765600    1.124100    1.854500
  H      7.273500   -1.129900    2.742400

 Total Charge           Charge          ....    0
 Multiplicity           Mult            ....    1
 Number of Electrons    NEL             ....  246
 Basis Dimension        Dim             .... 1067

ORBITAL ENERGIES
----------------

  NO   OCC          E(Eh)            E(eV)
   0   2.0000    -482.857009    -13139.2072
   1   2.0000     -62.504202     -1700.8258
   2   2.0000     -56.319809     -1532.5399
   3   2.0000     -56.317183     -1532.4685
   4   2.0000     -56.317130     -1532.4670
   5   2.0000     -24.711767      -672.4414
   6   2.0000     -24.711410      -672.4317
   7   2.0000     -24.710220      -672.3993
   8   2.0000     -19.163887      -521.4759
   9   2.0000     -19.147999      -521.0435
  10   2.0000     -19.101040      -519.7657
  11   2.0000     -14.373698      -391.1282
  12   2.0000     -14.359385      -390.7387
  13   2.0000     -10.428948      -283.7861
  14   2.0000     -10.322953      -280.9018
  15   2.0000     -10.261653      -279.2338
  16   2.0000     -10.258707      -279.1536
  17   2.0000     -10.250267      -278.9239
  18   2.0000     -10.245096      -278.7832
  19   2.0000     -10.236031      -278.5366
  20   2.0000     -10.235169      -278.5131
  21   2.0000     -10.225158      -278.2407
  22   2.0000     -10.204963      -277.6912
  23   2.0000     -10.199949      -277.5547
  24   2.0000     -10.197642      -277.4919
  25   2.0000     -10.197459      -277.4870
  26   2.0000     -10.196293      -277.4552
  27   2.0000     -10.195617      -277.4368
  28   2.0000     -10.192788      -277.3599
  29   2.0000     -10.192679      -277.3569
  30   2.0000     -10.192276      -277.3459
  31   2.0000     -10.190552      -277.2990
  32   2.0000     -10.187344      -277.2117
  33   2.0000     -10.183119      -277.0968
  34   2.0000      -8.695001      -236.6030
  35   2.0000      -6.524689      -177.5458
  36   2.0000      -6.513580      -177.2435
  37   2.0000      -6.512985      -177.2273
  38   2.0000      -2.639268       -71.8181
  39   2.0000      -2.636227       -71.7354
  40   2.0000      -2.635773       -71.7230
  41   2.0000      -2.626609       -71.4737
  42   2.0000      -2.626602       -71.4735
  43   2.0000      -1.289615       -35.0922
  44   2.0000      -1.215457       -33.0743
  45   2.0000      -1.215201       -33.0673
  46   2.0000      -1.070918       -29.1412
  47   2.0000      -1.046908       -28.4878
  48   2.0000      -1.039522       -28.2868
  49   2.0000      -0.943916       -25.6853
  50   2.0000      -0.936039       -25.4709
  51   2.0000      -0.877672       -23.8827
  52   2.0000      -0.868992       -23.6465
  53   2.0000      -0.831479       -22.6257
  54   2.0000      -0.810338       -22.0504
  55   2.0000      -0.787743       -21.4356
  56   2.0000      -0.782552       -21.2943
  57   2.0000      -0.781546       -21.2670
  58   2.0000      -0.766413       -20.8552
  59   2.0000      -0.742822       -20.2132
  60   2.0000      -0.730900       -19.8888
  61   2.0000      -0.705943       -19.2097
  62   2.0000      -0.675279       -18.3753
  63   2.0000      -0.663899       -18.0656
  64   2.0000      -0.655863       -17.8469
  65   2.0000      -0.641513       -17.4565
  66   2.0000      -0.634918       -17.2770
  67   2.0000      -0.610372       -16.6091
  68   2.0000      -0.605040       -16.4640
  69   2.0000      -0.586078       -15.9480
  70   2.0000      -0.583255       -15.8712
  71   2.0000      -0.578650       -15.7459
  72   2.0000      -0.568500       -15.4697
  73   2.0000      -0.560387       -15.2489
  74   2.0000      -0.552085       -15.0230
  75   2.0000      -0.542207       -14.7542
  76   2.0000      -0.537838       -14.6353
  77   2.0000      -0.529394       -14.4056
  78   2.0000      -0.508937       -13.8489
  79   2.0000      -0.487711       -13.2713
  80   2.0000      -0.485815       -13.2197
  81   2.0000      -0.476087       -12.9550
  82   2.0000      -0.475395       -12.9361
  83   2.0000      -0.472315       -12.8523
  84   2.0000      -0.469227       -12.7683
  85   2.0000      -0.462217       -12.5776
  86   2.0000      -0.461240       -12.5510
  87   2.0000      -0.460223       -12.5233
  88   2.0000      -0.449271       -12.2253
  89   2.0000      -0.444438       -12.0938
  90   2.0000      -0.436922       -11.8893
  91   2.0000      -0.435463       -11.8495
  92   2.0000      -0.433108       -11.7855
  93   2.0000      -0.429944       -11.6994
  94   2.0000      -0.427971       -11.6457
  95   2.0000      -0.422649       -11.5009
  96   2.0000      -0.421149       -11.4600
  97   2.0000      -0.415503       -11.3064
  98   2.0000      -0.413562       -11.2536
  99   2.0000      -0.407598       -11.0913
 100   2.0000      -0.402786       -10.9604
 101   2.0000      -0.396704       -10.7949
 102   2.0000      -0.387857       -10.5541
 103   2.0000      -0.383385       -10.4324
 104   2.0000      -0.377414       -10.2700
 105   2.0000      -0.374723       -10.1967
 106   2.0000      -0.370387       -10.0787
 107   2.0000      -0.369083       -10.0433
 108   2.0000      -0.366136        -9.9631
 109   2.0000      -0.362827        -9.8730
 110   2.0000      -0.345546        -9.4028
 111   2.0000      -0.331201        -9.0124
 112   2.0000      -0.324175        -8.8213
 113   2.0000      -0.319443        -8.6925
 114   2.0000      -0.317103        -8.6288
 115   2.0000      -0.293632        -7.9901
 116   2.0000      -0.287007        -7.8099
 117   2.0000      -0.284393        -7.7387
 118   2.0000      -0.270821        -7.3694
 119   2.0000      -0.253410        -6.8956
 120   2.0000      -0.251379        -6.8404
 121   2.0000      -0.240949        -6.5566
 122   2.0000      -0.235577        -6.4104
 123   0.0000      -0.043450        -1.1823
 124   0.0000      -0.036888        -1.0038
 125   0.0000      -0.030655        -0.8342
 126   0.0000      -0.017267        -0.4699
 127   0.0000      -0.007950        -0.2163

MULLIKEN ATOMIC CHARGES
-----------------------
   0 O :   -0.400104
   1 C :    0.327714
   2 N :   -0.340749
   3 C :    0.320703
   4 C :   -0.212896
   5 C :   -0.172910
   6 C :    0.057271
   7 C :    0.514726
   8 F :   -0.183747
   9 F :   -0.189306
  10 F :   -0.188168
  11 C :   -0.166544
  12 C :   -0.180671
  13 N :   -0.096011
  14 C :   -0.177393
  15 C :   -0.186328
  16 C :    0.377477
  17 C :   -0.245314
  18 C :   -0.216123
  19 C :   -0.268440
  20 C :    0.043747
  21 O :   -0.428500
  22 C :    0.040377
  23 C :   -0.201295
  24 C :   -0.107376
  25 C :   -0.127019
  26 C :   -0.074477
  27 Br:   -0.072739
  28 C :    0.255132
  29 O :   -0.292340
  30 H :    0.227890
  31 H :    0.110405
  32 H :    0.130214
  33 H :    0.132599
  34 H :    0.125286
  35 H :    0.111210
  36 H :    0.146144
  37 H :    0.106718
  38 H :    0.106981
  39 H :    0.115864
  40 H :    0.097665
  41 H :    0.103547
  42 H :    0.126392
  43 H :    0.102401
  44 H :    0.105321
  45 H :    0.084869
  46 H :    0.301829
  47 H :    0.118972
  48 H :    0.111222
  49 H :    0.125775
Sum of atomic charges:   -0.0000000

LOEWDIN ATOMIC CHARGES
----------------------
   0 O :    0.019892
   1 C :   -0.410260
   2 N :    0.127953
   3 C :   -0.165770
   4 C :   -0.117400
   5 C :   -0.090199
   6 C :   -0.135421
   7 C :   -0.516512
   8 F :    0.152637
   9 F :    0.153024
  10 F :    0.153844
  11 C :   -0.085903
  12 C :   -0.093298
  13 N :    0.161737
  14 C :   -0.242331
  15 C :   -0.204230
  16 C :   -0.323303
  17 C :   -0.210378
  18 C :   -0.259007
  19 C :   -0.191523
  20 C :   -0.322265
  21 O :    0.005428
  22 C :   -0.104488
  23 C :   -0.095540
  24 C :   -0.145715
  25 C :   -0.139844
  26 C :   -0.346566
  27 Br:    0.334658
  28 C :   -0.185974
  29 O :    0.283303
  30 H :    0.196988
  31 H :    0.143617
  32 H :    0.152358
  33 H :    0.153135
  34 H :    0.153225
  35 H :    0.129866
  36 H :    0.152882
  37 H :    0.147935
  38 H :    0.147173
  39 H :    0.143508
  40 H :    0.146588
  41 H :    0.127386
  42 H :    0.138121
  43 H :    0.136338
  44 H :    0.153151
  45 H :    0.139173
  46 H :    0.191264
  47 H :    0.149687
  48 H :    0.143545
  49 H :    0.147513

  Mayer bond orders larger than 0.100000
B(  0-O ,  1-C ) :   1.9289 B(  1-C ,  2-N ) :   1.0879 B(  1-C , 13-N ) :   1.1685
B(  2-N ,  3-C ) :   0.9273 B(  2-N , 30-H ) :   0.9042 B(  3-C ,  4-C ) :   1.3405
B(  3-C , 12-C ) :   1.3844 B(  4-C ,  5-C ) :   1.4558 B(  4-C , 31-H ) :   0.9685
B(  5-C ,  6-C ) :   1.3671 B(  5-C , 32-H ) :   0.9609 B(  6-C ,  7-C ) :   1.0097
B(  6-C , 11-C ) :   1.3479 B(  7-C ,  8-F ) :   1.1231 B(  7-C ,  9-F ) :   1.1080
B(  7-C , 10-F ) :   1.1099 B( 11-C , 12-C ) :   1.4335 B( 11-C , 33-H ) :   0.9607
B( 12-C , 34-H ) :   0.9595 B( 13-N , 14-C ) :   0.9131 B( 13-N , 18-C ) :   0.9442
B( 14-C , 15-C ) :   0.9658 B( 14-C , 35-H ) :   0.9677 B( 14-C , 36-H ) :   0.9572
B( 15-C , 16-C ) :   0.9030 B( 15-C , 37-H ) :   0.9601 B( 15-C , 38-H ) :   0.9760
B( 16-C , 17-C ) :   0.9284 B( 16-C , 19-C ) :   0.8943 B( 16-C , 29-O ) :   0.9054
B( 17-C , 18-C ) :   0.9523 B( 17-C , 39-H ) :   0.9701 B( 17-C , 40-H ) :   0.9626
B( 18-C , 41-H ) :   0.9573 B( 18-C , 42-H ) :   0.9699 B( 19-C , 20-C ) :   0.9562
B( 19-C , 43-H ) :   0.9628 B( 19-C , 44-H ) :   0.9470 B( 20-C , 21-O ) :   1.1657
B( 20-C , 22-C ) :   0.9361 B( 20-C , 45-H ) :   0.9998 B( 21-O , 22-C ) :  -0.1872
B( 21-O , 46-H ) :   0.8921 B( 22-C , 23-C ) :   1.3286 B( 22-C , 28-C ) :   1.3122
B( 23-C , 24-C ) :   1.4129 B( 23-C , 47-H ) :   0.9677 B( 24-C , 25-C ) :   1.3882
B( 24-C , 48-H ) :   0.9764 B( 25-C , 26-C ) :   1.3507 B( 25-C , 49-H ) :   0.9669
B( 26-C , 27-Br) :   1.1267 B( 26-C , 28-C ) :   1.2917 B( 28-C , 29-O ) :   1.1260

FINAL SINGLE POINT ENERGY     -4020.811649219407

DIPOLE MOMENT
-------------

Method             : SCF
Type of density    : Electron Density
Multiplicity       :   1
Irrep              :   0
Energy             : -4020.8116492194071725 Eh
Relativity type    :
Basis              : AO
                                X                 Y                 Z
Electronic contribution:      8.715474180     -28.562360382      29.208287085
Nuclear contribution   :     -7.232493234      29.661240632     -28.650940988
                        -----------------------------------------
Total Dipole Moment    :      1.482980946       1.098880250       0.557346097
                        -----------------------------------------
Magnitude (a.u.)       :      1.928057303
Magnitude (Debye)      :      4.900732196

Rotational constants in cm-1:             0.010123             0.001170             0.001117
Rotational constants in MHz :           303.469518            35.066371            33.471961

                             ****ORCA TERMINATED NORMALLY****
TOTAL RUN TIME: 0 days 0 hours 18 minutes 50 seconds 139 msec
