                         Program Version 6.0.0  -   RELEASE  -
|  1> ! B3LYP 6-31G* SP
|  2>
|  3> * xyz 0 1
|  4> C -0.8692 -2.1951 -1.9466
|  5> C -0.6116 -0.9194 -1.1463
|  6> N -1.1852 -1.0156 0.2097
|  7> C -0.7280 -2.0532 1.1021
|  8> O -1.5630 -2.6780 1.8112
|  9> C 0.6999 -2.4292 1.1785
| 10> C 1.0522 -3.7879 1.1330
| 11> C 2.3925 -4.1726 1.1842
| 12> C 3.3920 -3.2068 1.2943
| 13> C 3.0553 -1.8533 1.3647
| 14> C 1.7060 -1.4483 1.3166
| 15> O 1.3274 -0.0982 1.4322
| 16> C 2.2173 1.0166 1.5095
| 17> C 2.8026 1.3228 0.1575
| 18> C 1.9601 1.7036 -0.8991
| 19> C 2.4914 1.9780 -2.1624
| 20> C 3.8700 1.8847 -2.3781
| 21> Cl 4.5358 2.2289 -3.9639
| 22> C 4.7175 1.5215 -1.3264
| 23> C 4.1880 1.2450 -0.0620
| 24> C -2.2649 -0.1102 0.6571
| 25> C -3.5633 -0.3211 -0.1620
| 26> C -4.4713 0.9260 -0.1929
| 27> C -4.3305 1.7703 1.0795
| 28> C -2.8815 2.2838 1.2820
| 29> N -2.7568 3.6561 0.7843
| 30> C -1.8150 1.3624 0.6321
| 31> H -1.9547 -2.4244 -1.9730
| 32> H -0.3284 -3.0537 -1.4971
| 33> H -0.5070 -2.0601 -2.9874
| 34> H 0.4814 -0.7434 -1.0872
| 35> H -1.0506 -0.0688 -1.7067
| 36> H 0.2881 -4.5498 1.0377
| 37> H 2.6566 -5.2211 1.1367
| 38> H 4.4309 -3.5079 1.3353
| 39> H 3.8538 -1.1363 1.4730
| 40> H 1.6384 1.9019 1.8466
| 41> H 2.9992 0.8386 2.2786
| 42> H 0.8924 1.7857 -0.7446
| 43> H 1.8313 2.2638 -2.9714
| 44> H 5.7860 1.4541 -1.4869
| 45> H 4.8592 0.9720 0.7424
| 46> H -2.5091 -0.3354 1.7211
| 47> H -4.1247 -1.1727 0.2809
| 48> H -3.3341 -0.5974 -1.2114
| 49> H -5.5299 0.6097 -0.3139
| 50> H -4.2081 1.5542 -1.0723
| 51> H -4.6248 1.1442 1.9510
| 52> H -5.0431 2.6230 1.0397
| 53> H -2.6925 2.3037 2.3790
| 54> H -2.8979 3.6633 -0.2524
| 55> H -1.7844 3.9938 0.9713
| 56> H -1.6377 1.6802 -0.4169
| 57> H -0.8579 1.4720 1.1843
| 58> *
| 59>
| 60>                          ****END OF INPUT****

CARTESIAN COORDINATES (ANGSTROEM)
---------------------------------
  C     -0.869200   -2.195100   -1.946600
  C     -0.611600   -0.919400   -1.146300
  N     -1.185200   -1.015600    0.209700
  C     -0.728000   -2.053200    1.102100
  O     -1.563000   -2.678000    1.811200
  C      0.699900   -2.429200    1.178500
  C      1.052200   -3.787900    1.133000
  C      2.392500   -4.172600    1.184200
  C      3.392000   -3.206800    1.294300
  C      3.055300   -1.853300    1.364700
  C      1.706000   -1.448300    1.316600
  O      1.327400   -0.098200    1.432200
  C      2.217300    1.016600    1.509500
  C      2.802600    1.322800    0.157500
  C      1.960100    1.703600   -0.899100
  C      2.491400    1.978000   -2.162400
  C      3.870000    1.884700   -2.378100
  Cl     4.535800    2.228900   -3.963900
  C      4.717500    1.521500   -1.326400
  C      4.188000    1.245000   -0.062000
  C     -2.264900   -0.110200    0.657100
  C     -3.563300   -0.321100   -0.162000
  C     -4.471300    0.926000   -0.192900
  C     -4.330500    1.770300    1.079500
  C     -2.881500    2.283800    1.282000
  N     -2.756800    3.656100    0.784300
  C     -1.815000    1.362400    0.632100
  H     -1.954700   -2.424400   -1.973000
  H     -0.328400   -3.053700   -1.497100
  H     -0.507000   -2.060100   -2.987400
  H      0.481400   -0.743400   -1.087200
  H     -1.050600   -0.068800   -1.706700
  H      0.288100   -4.549800    1.037700
  H      2.656600   -5.221100    1.136700
  H      4.430900   -3.507900    1.335300
  H      3.853800   -1.136300    1.473000
  H      1.638400    1.901900    1.846600
  H      2.999200    0.838600    2.278600
  H      0.892400    1.785700   -0.744600
  H      1.831300    2.263800   -2.971400
  H      5.786000    1.454100   -1.486900
  H      4.859200    0.972000    0.742400
  H     -2.509100   -0.335400    1.721100
  H     -4.124700   -1.172700    0.280900
  H     -3.334100   -0.597400   -1.211400
  H     -5.529900    0.609700   -0.313900
  H     -4.208100    1.554200   -1.072300
  H     -4.624800    1.144200    1.951000
  H     -5.043100    2.623000    1.039700
  H     -2.692500    2.303700    2.379000
  H     -2.897900    3.663300   -0.252400
  H     -1.784400    3.993800    0.971300
  H     -1.637700    1.680200   -0.416900
  H     -0.857900    1.472000    1.184300

 Total Charge           Charge          ....    0
 Multiplicity           Mult            ....    1
 Number of Electrons    NEL             ....  206
 Basis Dimension        Dim             ....  436

ORBITAL ENERGIES
----------------

  NO   OCC          E(Eh)            E(eV)
   0   2.0000    -101.534442     -2762.8926
   1   2.0000     -19.177546      -521.8476
   2   2.0000     -19.102493      -519.8053
   3   2.0000     -14.331304      -389.9746
   4   2.0000     -14.303302      -389.2126
   5   2.0000     -10.277001      -279.6514
   6   2.0000     -10.261006      -279.2162
   7   2.0000     -10.256535      -279.0945
   8   2.0000     -10.256203      -279.0855
   9   2.0000     -10.211054      -277.8569
  10   2.0000     -10.209893      -277.8253
  11   2.0000     -10.209003      -277.8011
  12   2.0000     -10.206765      -277.7402
  13   2.0000     -10.206670      -277.7376
  14   2.0000     -10.206227      -277.7256
  15   2.0000     -10.204195      -277.6703
  16   2.0000     -10.203541      -277.6525
  17   2.0000     -10.197550      -277.4894
  18   2.0000     -10.192254      -277.3453
  19   2.0000     -10.191170      -277.3158
  20   2.0000     -10.190085      -277.2863
  21   2.0000     -10.181852      -277.0623
  22   2.0000     -10.171489      -276.7803
  23   2.0000     -10.171241      -276.7735
  24   2.0000     -10.167925      -276.6833
  25   2.0000     -10.167726      -276.6779
  26   2.0000     -10.167018      -276.6586
  27   2.0000      -9.466399      -257.5938
  28   2.0000      -7.229427      -196.7227
  29   2.0000      -7.220002      -196.4663
  30   2.0000      -7.219669      -196.4572
  31   2.0000      -1.056313       -28.7437
  32   2.0000      -0.999984       -27.2109
  33   2.0000      -0.903606       -24.5884
  34   2.0000      -0.896868       -24.4050
  35   2.0000      -0.877222       -23.8704
  36   2.0000      -0.858938       -23.3729
  37   2.0000      -0.846741       -23.0410
  38   2.0000      -0.799489       -21.7552
  39   2.0000      -0.780003       -21.2250
  40   2.0000      -0.766986       -20.8707
  41   2.0000      -0.760072       -20.6826
  42   2.0000      -0.748344       -20.3635
  43   2.0000      -0.743288       -20.2259
  44   2.0000      -0.719001       -19.5650
  45   2.0000      -0.704472       -19.1697
  46   2.0000      -0.688215       -18.7273
  47   2.0000      -0.641421       -17.4540
  48   2.0000      -0.632317       -17.2062
  49   2.0000      -0.624626       -16.9969
  50   2.0000      -0.613515       -16.6946
  51   2.0000      -0.603229       -16.4147
  52   2.0000      -0.593716       -16.1558
  53   2.0000      -0.588882       -16.0243
  54   2.0000      -0.552014       -15.0211
  55   2.0000      -0.530978       -14.4486
  56   2.0000      -0.520850       -14.1731
  57   2.0000      -0.519689       -14.1414
  58   2.0000      -0.501784       -13.6542
  59   2.0000      -0.494830       -13.4650
  60   2.0000      -0.493232       -13.4215
  61   2.0000      -0.485451       -13.2098
  62   2.0000      -0.476877       -12.9765
  63   2.0000      -0.469381       -12.7725
  64   2.0000      -0.462947       -12.5974
  65   2.0000      -0.450061       -12.2468
  66   2.0000      -0.447750       -12.1839
  67   2.0000      -0.446296       -12.1443
  68   2.0000      -0.439328       -11.9547
  69   2.0000      -0.437819       -11.9137
  70   2.0000      -0.430436       -11.7127
  71   2.0000      -0.427663       -11.6373
  72   2.0000      -0.422527       -11.4976
  73   2.0000      -0.404274       -11.0008
  74   2.0000      -0.401270       -10.9191
  75   2.0000      -0.398903       -10.8547
  76   2.0000      -0.397283       -10.8106
  77   2.0000      -0.388211       -10.5637
  78   2.0000      -0.381172       -10.3722
  79   2.0000      -0.374776       -10.1982
  80   2.0000      -0.373662       -10.1679
  81   2.0000      -0.369849       -10.0641
  82   2.0000      -0.368549       -10.0287
  83   2.0000      -0.360864        -9.8196
  84   2.0000      -0.360192        -9.8013
  85   2.0000      -0.356128        -9.6907
  86   2.0000      -0.350418        -9.5354
  87   2.0000      -0.344739        -9.3808
  88   2.0000      -0.336594        -9.1592
  89   2.0000      -0.333833        -9.0840
  90   2.0000      -0.323213        -8.7951
  91   2.0000      -0.321146        -8.7388
  92   2.0000      -0.317907        -8.6507
  93   2.0000      -0.312908        -8.5147
  94   2.0000      -0.301425        -8.2022
  95   2.0000      -0.295689        -8.0461
  96   2.0000      -0.270835        -7.3698
  97   2.0000      -0.260392        -7.0856
  98   2.0000      -0.251020        -6.8306
  99   2.0000      -0.236446        -6.4340
 100   2.0000      -0.229828        -6.2540
 101   2.0000      -0.225671        -6.1408
 102   2.0000      -0.202709        -5.5160
 103   0.0000      -0.033698        -0.9170
 104   0.0000      -0.027417        -0.7461
 105   0.0000      -0.022660        -0.6166
 106   0.0000       0.000299         0.0081
 107   0.0000       0.023979         0.6525

MULLIKEN ATOMIC CHARGES
-----------------------
   0 C :   -0.440032
   1 C :   -0.149792
   2 N :   -0.399680
   3 C :    0.434751
   4 O :   -0.464832
   5 C :    0.030117
   6 C :   -0.145802
   7 C :   -0.136886
   8 C :   -0.115495
   9 C :   -0.196130
  10 C :    0.338903
  11 O :   -0.515579
  12 C :   -0.116861
  13 C :    0.127534
  14 C :   -0.153880
  15 C :   -0.135016
  16 C :   -0.062296
  17 Cl:   -0.013866
  18 C :   -0.130919
  19 C :   -0.164110
  20 C :    0.038499
  21 C :   -0.271970
  22 C :   -0.267494
  23 C :   -0.269525
  24 C :    0.033984
  25 N :   -0.702381
  26 C :   -0.291914
  27 H :    0.157224
  28 H :    0.152530
  29 H :    0.135181
  30 H :    0.159034
  31 H :    0.140670
  32 H :    0.157099
  33 H :    0.131404
  34 H :    0.134737
  35 H :    0.129089
  36 H :    0.165298
  37 H :    0.145796
  38 H :    0.156319
  39 H :    0.153355
  40 H :    0.154479
  41 H :    0.139038
  42 H :    0.158511
  43 H :    0.151249
  44 H :    0.129894
  45 H :    0.134766
  46 H :    0.117389
  47 H :    0.134473
  48 H :    0.149037
  49 H :    0.130864
  50 H :    0.284253
  51 H :    0.283995
  52 H :    0.109116
  53 H :    0.145872
Sum of atomic charges:   -0.0000000

LOEWDIN ATOMIC CHARGES
----------------------
   0 C :   -0.368658
   1 C :   -0.161292
   2 N :   -0.107254
   3 C :    0.146059
   4 O :   -0.271917
   5 C :   -0.067958
   6 C :   -0.094397
   7 C :   -0.145789
   8 C :   -0.112892
   9 C :   -0.171074
  10 C :    0.100481
  11 O :   -0.179165
  12 C :   -0.083420
  13 C :   -0.041034
  14 C :   -0.117969
  15 C :   -0.131080
  16 C :   -0.084897
  17 Cl:    0.039448
  18 C :   -0.130976
  19 C :   -0.125416
  20 C :   -0.050495
  21 C :   -0.237523
  22 C :   -0.233635
  23 C :   -0.234491
  24 C :   -0.078917
  25 N :   -0.461255
  26 C :   -0.250206
  27 H :    0.128093
  28 H :    0.128213
  29 H :    0.122530
  30 H :    0.126397
  31 H :    0.122274
  32 H :    0.148624
  33 H :    0.133710
  34 H :    0.134919
  35 H :    0.134038
  36 H :    0.136682
  37 H :    0.119059
  38 H :    0.143707
  39 H :    0.145035
  40 H :    0.145667
  41 H :    0.135401
  42 H :    0.138229
  43 H :    0.129376
  44 H :    0.118909
  45 H :    0.123300
  46 H :    0.107513
  47 H :    0.120262
  48 H :    0.130872
  49 H :    0.118282
  50 H :    0.216524
  51 H :    0.217862
  52 H :    0.104527
  53 H :    0.125715

  Mayer bond orders larger than 0.100000
B(  0-C ,  1-C ) :   1.0047 B(  0-C , 27-H ) :   0.9448 B(  0-C , 28-H ) :   0.9428
B(  0-C , 29-H ) :   0.9445 B(  1-C ,  2-N ) :   0.9464 B(  1-C , 30-H ) :   0.9157
B(  1-C , 31-H ) :   0.9351 B(  2-N ,  3-C ) :   1.0677 B(  2-N , 20-C ) :   0.9304
B(  3-C ,  4-O ) :   1.8240 B(  3-C ,  5-C ) :   0.9333 B(  5-C ,  6-C ) :   1.4180
B(  5-C , 10-C ) :   1.3575 B(  6-C ,  7-C ) :   1.4367 B(  6-C , 32-H ) :   0.9175
B(  7-C ,  8-C ) :   1.4437 B(  7-C , 33-H ) :   0.9292 B(  8-C ,  9-C ) :   1.4461
B(  8-C , 34-H ) :   0.9293 B(  9-C , 10-C ) :   1.3560 B(  9-C , 35-H ) :   0.9133
B( 10-C , 11-O ) :   0.9087 B( 11-O , 12-C ) :   0.9050 B( 12-C , 13-C ) :   0.9604
B( 12-C , 36-H ) :   0.9251 B( 12-C , 37-H ) :   0.9198 B( 13-C , 14-C ) :   1.4204
B( 13-C , 19-C ) :   1.4342 B( 14-C , 15-C ) :   1.4424 B( 14-C , 38-H ) :   0.9105
B( 15-C , 16-C ) :   1.4094 B( 15-C , 39-H ) :   0.9235 B( 16-C , 17-Cl) :   1.0173
B( 16-C , 18-C ) :   1.4230 B( 18-C , 19-C ) :   1.4337 B( 18-C , 40-H ) :   0.9225
B( 19-C , 41-H ) :   0.9200 B( 20-C , 21-C ) :   0.9829 B( 20-C , 26-C ) :   0.9842
B( 20-C , 42-H ) :   0.9178 B( 21-C , 22-C ) :   0.9868 B( 21-C , 43-H ) :   0.9409
B( 21-C , 44-H ) :   0.9367 B( 22-C , 23-C ) :   1.0152 B( 22-C , 45-H ) :   0.9431
B( 22-C , 46-H ) :   0.9441 B( 23-C , 24-C ) :   0.9870 B( 23-C , 47-H ) :   0.9405
B( 23-C , 48-H ) :   0.9336 B( 24-C , 25-N ) :   1.0030 B( 24-C , 26-C ) :   0.9656
B( 24-C , 49-H ) :   0.9348 B( 25-N , 50-H ) :   0.8599 B( 25-N , 51-H ) :   0.8657
B( 26-C , 52-H ) :   0.9267 B( 26-C , 53-H ) :   0.9251

FINAL SINGLE POINT ENERGY     -1573.929142137441

DIPOLE MOMENT
-------------

Method             : SCF
Type of density    : Electron Density
Multiplicity       :   1
Irrep              :   0
Energy             : -1573.9291421374407491 Eh
Relativity type    :
Basis              : AO
                                X                 Y                 Z
Electronic contribution:     35.136958541       0.892214353      -9.190902180
Nuclear contribution   :    -33.845110929      -0.407203675       8.767620150
                        -----------------------------------------
Total Dipole Moment    :      1.291847612       0.485010679      -0.423282030
                        -----------------------------------------
Magnitude (a.u.)       :      1.443354872
Magnitude (Debye)      :      3.668716528

Rotational constants in cm-1:             0.006580             0.004144             0.003071
Rotational constants in MHz :           197.277694           124.230400            92.075685

                             ****ORCA TERMINATED NORMALLY****
TOTAL RUN TIME: 0 days 0 hours 8 minutes 12 seconds 634 msec
