                         Program Version 6.0.0  -   RELEASE  -
|  1> ! B3LYP 6-31G* SP
|  2>
|  3> * xyz 0 1
|  4> C 3.4399 1.7502 -1.5465
|  5> C 4.3744 0.7279 -0.9874
|  6> O 5.3898 0.2215 -1.6619
|  7> C 5.9757 -0.6624 -0.8883
|  8> C 5.3514 -0.7469 0.3176
|  9> C 4.3076 0.1626 0.2865
| 10> C 3.2405 0.3867 1.3196
| 11> C 2.1075 -0.5732 1.0973
| 12> O 2.2829 -1.7998 1.3242
| 13> N 0.8794 -0.1453 0.4970
| 14> C 0.1140 0.8125 0.9359
| 15> S 0.3201 1.6424 2.3881
| 16> C -1.0812 2.5487 2.1963
| 17> C -1.6810 2.1836 0.9917
| 18> C -2.9285 2.8303 0.5351
| 19> C -4.0742 2.7797 1.3311
| 20> C -5.2480 3.4060 0.9129
| 21> C -5.3069 4.1145 -0.2951
| 22> O -6.5518 4.7107 -0.5872
| 23> C -6.8904 5.6130 -1.6352
| 24> F -8.1826 6.0575 -1.4286
| 25> F -6.8467 4.9688 -2.8578
| 26> F -6.0478 6.7104 -1.6223
| 27> C -4.1358 4.1742 -1.1049
| 28> Cl -4.0294 4.9693 -2.6706
| 29> C -2.9622 3.5409 -0.6704
| 30> N -1.0162 1.2059 0.2939
| 31> C -1.4867 0.5614 -0.9414
| 32> O -1.8786 -0.7812 -0.6692
| 33> C -3.0668 -1.1099 -0.0090
| 34> O -3.9152 -0.2176 0.2700
| 35> C -3.3535 -2.5536 0.3188
| 36> N -3.7047 -2.6883 1.7376
| 37> C -4.4822 -3.1240 -0.5834
| 38> C -4.1155 -3.0243 -2.0760
| 39> C -4.7837 -4.5897 -0.2285
| 40> C 5.8026 -1.6503 1.2724
| 41> O 5.2338 -1.7290 2.3957
| 42> N 6.8814 -2.4468 0.9644
| 43> C 7.4054 -3.3940 1.9637
| 44> C 7.5221 -2.3114 -0.2558
| 45> O 8.5494 -3.0025 -0.5057
| 46> N 7.0518 -1.4304 -1.2038
| 47> C 7.7243 -1.2809 -2.5003
| 48> H 3.7199 1.9857 -2.5952
| 49> H 2.4016 1.3582 -1.5312
| 50> H 3.4946 2.6784 -0.9417
| 51> H 3.6530 0.2530 2.3405
| 52> H 2.8865 1.4347 1.2466
| 53> H -1.4467 3.2970 2.8863
| 54> H -4.0628 2.2458 2.2739
| 55> H -6.1270 3.3488 1.5444
| 56> H -2.0671 3.5988 -1.2787
| 57> H -0.6603 0.5469 -1.6847
| 58> H -2.3284 1.1059 -1.4111
| 59> H -2.4254 -3.1428 0.1377
| 60> H -4.5489 -2.1067 1.9489
| 61> H -2.9139 -2.3216 2.3170
| 62> H -5.4121 -2.5346 -0.4157
| 63> H -3.1447 -3.5310 -2.2705
| 64> H -4.8989 -3.5012 -2.7053
| 65> H -4.0383 -1.9615 -2.3878
| 66> H -3.8856 -5.2275 -0.3863
| 67> H -5.6123 -4.9732 -0.8617
| 68> H -5.1061 -4.6810 0.8322
| 69> H 8.2165 -2.9090 2.5475
| 70> H 6.6099 -3.7345 2.6611
| 71> H 7.8037 -4.3087 1.4739
| 72> H 7.0716 -0.7705 -3.2407
| 73> H 7.9812 -2.2766 -2.9203
| 74> H 8.6554 -0.6903 -2.3696
| 75> *
| 76>
| 77>                          ****END OF INPUT****

CARTESIAN COORDINATES (ANGSTROEM)
---------------------------------
  C      3.439900    1.750200   -1.546500
  C      4.374400    0.727900   -0.987400
  O      5.389800    0.221500   -1.661900
  C      5.975700   -0.662400   -0.888300
  C      5.351400   -0.746900    0.317600
  C      4.307600    0.162600    0.286500
  C      3.240500    0.386700    1.319600
  C      2.107500   -0.573200    1.097300
  O      2.282900   -1.799800    1.324200
  N      0.879400   -0.145300    0.497000
  C      0.114000    0.812500    0.935900
  S      0.320100    1.642400    2.388100
  C     -1.081200    2.548700    2.196300
  C     -1.681000    2.183600    0.991700
  C     -2.928500    2.830300    0.535100
  C     -4.074200    2.779700    1.331100
  C     -5.248000    3.406000    0.912900
  C     -5.306900    4.114500   -0.295100
  O     -6.551800    4.710700   -0.587200
  C     -6.890400    5.613000   -1.635200
  F     -8.182600    6.057500   -1.428600
  F     -6.846700    4.968800   -2.857800
  F     -6.047800    6.710400   -1.622300
  C     -4.135800    4.174200   -1.104900
  Cl    -4.029400    4.969300   -2.670600
  C     -2.962200    3.540900   -0.670400
  N     -1.016200    1.205900    0.293900
  C     -1.486700    0.561400   -0.941400
  O     -1.878600   -0.781200   -0.669200
  C     -3.066800   -1.109900   -0.009000
  O     -3.915200   -0.217600    0.270000
  C     -3.353500   -2.553600    0.318800
  N     -3.704700   -2.688300    1.737600
  C     -4.482200   -3.124000   -0.583400
  C     -4.115500   -3.024300   -2.076000
  C     -4.783700   -4.589700   -0.228500
  C      5.802600   -1.650300    1.272400
  O      5.233800   -1.729000    2.395700
  N      6.881400   -2.446800    0.964400
  C      7.405400   -3.394000    1.963700
  C      7.522100   -2.311400   -0.255800
  O      8.549400   -3.002500   -0.505700
  N      7.051800   -1.430400   -1.203800
  C      7.724300   -1.280900   -2.500300
  H      3.719900    1.985700   -2.595200
  H      2.401600    1.358200   -1.531200
  H      3.494600    2.678400   -0.941700
  H      3.653000    0.253000    2.340500
  H      2.886500    1.434700    1.246600
  H     -1.446700    3.297000    2.886300
  H     -4.062800    2.245800    2.273900
  H     -6.127000    3.348800    1.544400
  H     -2.067100    3.598800   -1.278700
  H     -0.660300    0.546900   -1.684700
  H     -2.328400    1.105900   -1.411100
  H     -2.425400   -3.142800    0.137700
  H     -4.548900   -2.106700    1.948900
  H     -2.913900   -2.321600    2.317000
  H     -5.412100   -2.534600   -0.415700
  H     -3.144700   -3.531000   -2.270500
  H     -4.898900   -3.501200   -2.705300
  H     -4.038300   -1.961500   -2.387800
  H     -3.885600   -5.227500   -0.386300
  H     -5.612300   -4.973200   -0.861700
  H     -5.106100   -4.681000    0.832200
  H      8.216500   -2.909000    2.547500
  H      6.609900   -3.734500    2.661100
  H      7.803700   -4.308700    1.473900
  H      7.071600   -0.770500   -3.240700
  H      7.981200   -2.276600   -2.920300
  H      8.655400   -0.690300   -2.369600

 Total Charge           Charge          ....    0
 Multiplicity           Mult            ....    1
 Number of Electrons    NEL             ....  340
 Basis Dimension        Dim             ....  678

ORBITAL ENERGIES
----------------

  NO   OCC          E(Eh)            E(eV)
   0   2.0000    -101.544818     -2763.1750
   1   2.0000     -88.906808     -2419.2772
   2   2.0000     -24.744236      -673.3249
   3   2.0000     -24.741512      -673.2508
   4   2.0000     -24.739894      -673.2067
   5   2.0000     -19.240747      -523.5673
   6   2.0000     -19.227673      -523.2116
   7   2.0000     -19.203973      -522.5667
   8   2.0000     -19.146415      -521.0004
   9   2.0000     -19.103904      -519.8437
  10   2.0000     -19.101741      -519.7848
  11   2.0000     -19.089917      -519.4630
  12   2.0000     -14.417717      -392.3260
  13   2.0000     -14.402956      -391.9244
  14   2.0000     -14.382672      -391.3724
  15   2.0000     -14.322999      -389.7486
  16   2.0000     -14.317706      -389.6046
  17   2.0000     -10.510968      -286.0180
  18   2.0000     -10.328945      -281.0649
  19   2.0000     -10.319836      -280.8170
  20   2.0000     -10.310801      -280.5712
  21   2.0000     -10.301528      -280.3188
  22   2.0000     -10.299500      -280.2636
  23   2.0000     -10.286416      -279.9076
  24   2.0000     -10.278562      -279.6939
  25   2.0000     -10.277047      -279.6527
  26   2.0000     -10.272512      -279.5293
  27   2.0000     -10.262852      -279.2664
  28   2.0000     -10.240138      -278.6483
  29   2.0000     -10.232749      -278.4473
  30   2.0000     -10.231518      -278.4138
  31   2.0000     -10.229038      -278.3463
  32   2.0000     -10.227546      -278.3057
  33   2.0000     -10.224493      -278.2226
  34   2.0000     -10.218884      -278.0700
  35   2.0000     -10.216496      -278.0050
  36   2.0000     -10.207291      -277.7545
  37   2.0000     -10.197326      -277.4834
  38   2.0000     -10.195302      -277.4283
  39   2.0000     -10.188137      -277.2333
  40   2.0000     -10.187023      -277.2030
  41   2.0000     -10.174939      -276.8742
  42   2.0000     -10.174112      -276.8517
  43   2.0000     -10.166059      -276.6325
  44   2.0000      -9.476834      -257.8778
  45   2.0000      -7.986073      -217.3121
  46   2.0000      -7.240271      -197.0178
  47   2.0000      -7.230277      -196.7459
  48   2.0000      -7.229759      -196.7317
  49   2.0000      -5.949518      -161.8946
  50   2.0000      -5.945270      -161.7790
  51   2.0000      -5.941797      -161.6845
  52   2.0000      -1.307501       -35.5789
  53   2.0000      -1.228107       -33.4185
  54   2.0000      -1.226426       -33.3727
  55   2.0000      -1.170498       -31.8509
  56   2.0000      -1.103592       -30.0303
  57   2.0000      -1.095218       -29.8024
  58   2.0000      -1.056521       -28.7494
  59   2.0000      -1.042099       -28.3569
  60   2.0000      -1.008357       -27.4388
  61   2.0000      -1.002701       -27.2849
  62   2.0000      -0.994515       -27.0621
  63   2.0000      -0.965744       -26.2792
  64   2.0000      -0.924240       -25.1498
  65   2.0000      -0.913072       -24.8460
  66   2.0000      -0.901720       -24.5370
  67   2.0000      -0.893598       -24.3160
  68   2.0000      -0.866730       -23.5849
  69   2.0000      -0.859255       -23.3815
  70   2.0000      -0.839638       -22.8477
  71   2.0000      -0.809653       -22.0318
  72   2.0000      -0.797842       -21.7104
  73   2.0000      -0.792578       -21.5671
  74   2.0000      -0.763309       -20.7707
  75   2.0000      -0.757792       -20.6206
  76   2.0000      -0.756594       -20.5880
  77   2.0000      -0.747303       -20.3352
  78   2.0000      -0.729015       -19.8375
  79   2.0000      -0.714711       -19.4483
  80   2.0000      -0.705831       -19.2066
  81   2.0000      -0.698885       -19.0176
  82   2.0000      -0.691512       -18.8170
  83   2.0000      -0.675426       -18.3793
  84   2.0000      -0.656375       -17.8609
  85   2.0000      -0.650741       -17.7076
  86   2.0000      -0.648141       -17.6368
  87   2.0000      -0.640259       -17.4223
  88   2.0000      -0.619625       -16.8608
  89   2.0000      -0.617160       -16.7938
  90   2.0000      -0.602802       -16.4031
  91   2.0000      -0.600146       -16.3308
  92   2.0000      -0.599860       -16.3230
  93   2.0000      -0.595673       -16.2091
  94   2.0000      -0.583542       -15.8790
  95   2.0000      -0.574125       -15.6227
  96   2.0000      -0.564690       -15.3660
  97   2.0000      -0.555126       -15.1057
  98   2.0000      -0.531579       -14.4650
  99   2.0000      -0.525446       -14.2981
 100   2.0000      -0.521297       -14.1852
 101   2.0000      -0.519197       -14.1281
 102   2.0000      -0.517303       -14.0765
 103   2.0000      -0.503473       -13.7002
 104   2.0000      -0.495329       -13.4786
 105   2.0000      -0.489327       -13.3153
 106   2.0000      -0.483880       -13.1670
 107   2.0000      -0.481719       -13.1082
 108   2.0000      -0.479742       -13.0544
 109   2.0000      -0.476614       -12.9693
 110   2.0000      -0.475703       -12.9445
 111   2.0000      -0.471557       -12.8317
 112   2.0000      -0.468564       -12.7503
 113   2.0000      -0.465585       -12.6692
 114   2.0000      -0.461824       -12.5669
 115   2.0000      -0.461561       -12.5597
 116   2.0000      -0.459753       -12.5105
 117   2.0000      -0.453455       -12.3391
 118   2.0000      -0.452389       -12.3101
 119   2.0000      -0.450472       -12.2580
 120   2.0000      -0.443291       -12.0626
 121   2.0000      -0.440126       -11.9764
 122   2.0000      -0.437501       -11.9050
 123   2.0000      -0.436165       -11.8687
 124   2.0000      -0.428919       -11.6715
 125   2.0000      -0.426413       -11.6033
 126   2.0000      -0.424554       -11.5527
 127   2.0000      -0.420916       -11.4537
 128   2.0000      -0.418670       -11.3926
 129   2.0000      -0.417210       -11.3529
 130   2.0000      -0.416059       -11.3216
 131   2.0000      -0.408433       -11.1140
 132   2.0000      -0.406139       -11.0516
 133   2.0000      -0.404579       -11.0092
 134   2.0000      -0.397852       -10.8261
 135   2.0000      -0.394762       -10.7420
 136   2.0000      -0.391054       -10.6411
 137   2.0000      -0.388301       -10.5662
 138   2.0000      -0.388191       -10.5632
 139   2.0000      -0.384113       -10.4523
 140   2.0000      -0.383011       -10.4223
 141   2.0000      -0.378171       -10.2905
 142   2.0000      -0.376609       -10.2480
 143   2.0000      -0.375385       -10.2147
 144   2.0000      -0.373976       -10.1764
 145   2.0000      -0.367459        -9.9991
 146   2.0000      -0.363728        -9.8976
 147   2.0000      -0.352790        -9.5999
 148   2.0000      -0.347073        -9.4443
 149   2.0000      -0.342569        -9.3218
 150   2.0000      -0.338981        -9.2241
 151   2.0000      -0.331374        -9.0172
 152   2.0000      -0.329689        -8.9713
 153   2.0000      -0.328091        -8.9278
 154   2.0000      -0.323997        -8.8164
 155   2.0000      -0.316611        -8.6154
 156   2.0000      -0.315748        -8.5919
 157   2.0000      -0.311124        -8.4661
 158   2.0000      -0.283859        -7.7242
 159   2.0000      -0.275785        -7.5045
 160   2.0000      -0.272078        -7.4036
 161   2.0000      -0.264866        -7.2074
 162   2.0000      -0.263710        -7.1759
 163   2.0000      -0.258979        -7.0472
 164   2.0000      -0.251474        -6.8430
 165   2.0000      -0.247810        -6.7433
 166   2.0000      -0.233736        -6.3603
 167   2.0000      -0.225048        -6.1239
 168   2.0000      -0.207422        -5.6442
 169   2.0000      -0.193470        -5.2646
 170   0.0000      -0.045855        -1.2478
 171   0.0000      -0.038185        -1.0391
 172   0.0000      -0.028382        -0.7723
 173   0.0000      -0.024381        -0.6634
 174   0.0000      -0.005643        -0.1536

MULLIKEN ATOMIC CHARGES
-----------------------
   0 C :   -0.538725
   1 C :    0.255163
   2 O :   -0.409133
   3 C :    0.476350
   4 C :    0.045357
   5 C :    0.028293
   6 C :   -0.414339
   7 C :    0.461332
   8 O :   -0.421813
   9 N :   -0.455273
  10 C :    0.239012
  11 S :    0.272750
  12 C :   -0.388439
  13 C :    0.230455
  14 C :    0.099375
  15 C :   -0.117880
  16 C :   -0.169632
  17 C :    0.358178
  18 O :   -0.545454
  19 C :    1.083785
  20 F :   -0.279566
  21 F :   -0.279202
  22 F :   -0.282652
  23 C :   -0.127327
  24 Cl:    0.013381
  25 C :   -0.170695
  26 N :   -0.401682
  27 C :    0.070974
  28 O :   -0.454366
  29 C :    0.575204
  30 O :   -0.474677
  31 C :   -0.031540
  32 N :   -0.696066
  33 C :   -0.075696
  34 C :   -0.450051
  35 C :   -0.431668
  36 C :    0.512446
  37 O :   -0.494022
  38 N :   -0.483538
  39 C :   -0.313106
  40 C :    0.674971
  41 O :   -0.510494
  42 N :   -0.503100
  43 C :   -0.326062
  44 H :    0.162658
  45 H :    0.178214
  46 H :    0.171799
  47 H :    0.209990
  48 H :    0.138204
  49 H :    0.194301
  50 H :    0.155046
  51 H :    0.167207
  52 H :    0.162421
  53 H :    0.196896
  54 H :    0.191997
  55 H :    0.165525
  56 H :    0.307419
  57 H :    0.307505
  58 H :    0.135444
  59 H :    0.148781
  60 H :    0.148056
  61 H :    0.142934
  62 H :    0.140220
  63 H :    0.136883
  64 H :    0.165649
  65 H :    0.171540
  66 H :    0.200898
  67 H :    0.187847
  68 H :    0.178953
  69 H :    0.200059
  70 H :    0.182727
Sum of atomic charges:    0.0000000

LOEWDIN ATOMIC CHARGES
----------------------
   0 C :   -0.364639
   1 C :    0.013229
   2 O :   -0.005386
   3 C :    0.088453
   4 C :   -0.103563
   5 C :   -0.032976
   6 C :   -0.249599
   7 C :    0.138869
   8 O :   -0.235843
   9 N :   -0.228796
  10 C :   -0.079487
  11 S :    0.374716
  12 C :   -0.344596
  13 C :    0.016181
  14 C :   -0.024464
  15 C :   -0.096311
  16 C :   -0.125671
  17 C :    0.090085
  18 O :   -0.157482
  19 C :    0.358666
  20 F :   -0.088687
  21 F :   -0.097095
  22 F :   -0.099420
  23 C :   -0.111865
  24 Cl:    0.052422
  25 C :   -0.129548
  26 N :   -0.009426
  27 C :   -0.018538
  28 O :   -0.160876
  29 C :    0.180144
  30 O :   -0.277214
  31 C :   -0.091566
  32 N :   -0.438404
  33 C :   -0.117579
  34 C :   -0.356281
  35 C :   -0.352161
  36 C :    0.112925
  37 O :   -0.292130
  38 N :   -0.029230
  39 C :   -0.259248
  40 C :    0.142557
  41 O :   -0.318289
  42 N :   -0.025767
  43 C :   -0.259333
  44 H :    0.141509
  45 H :    0.144133
  46 H :    0.142139
  47 H :    0.171340
  48 H :    0.127684
  49 H :    0.168117
  50 H :    0.148196
  51 H :    0.155560
  52 H :    0.148187
  53 H :    0.152514
  54 H :    0.148806
  55 H :    0.140843
  56 H :    0.231833
  57 H :    0.232880
  58 H :    0.123517
  59 H :    0.126301
  60 H :    0.128123
  61 H :    0.122009
  62 H :    0.123406
  63 H :    0.121991
  64 H :    0.134645
  65 H :    0.136951
  66 H :    0.155767
  67 H :    0.148451
  68 H :    0.143150
  69 H :    0.154313
  70 H :    0.140857

  Mayer bond orders larger than 0.100000
B(  0-C ,  1-C ) :   1.0320 B(  0-C , 44-H ) :   0.9390 B(  0-C , 45-H ) :   0.9214
B(  0-C , 46-H ) :   0.9320 B(  1-C ,  2-O ) :   0.9838 B(  1-C ,  5-C ) :   1.5437
B(  2-O ,  3-C ) :   1.0677 B(  3-C ,  4-C ) :   1.3732 B(  3-C , 42-N ) :   0.9700
B(  4-C ,  5-C ) :   1.2991 B(  4-C , 36-C ) :   1.0780 B(  5-C ,  6-C ) :   1.0159
B(  6-C ,  7-C ) :   0.9279 B(  6-C , 47-H ) :   0.8887 B(  6-C , 48-H ) :   0.9091
B(  7-C ,  8-O ) :   1.9006 B(  7-C ,  9-N ) :   1.0588 B(  9-N , 10-C ) :   1.5505
B( 10-C , 11-S ) :   1.0821 B( 10-C , 26-N ) :   1.0829 B( 11-S , 12-C ) :   1.0279
B( 12-C , 13-C ) :   1.6705 B( 12-C , 49-H ) :   0.9098 B( 13-C , 14-C ) :   0.9912
B( 13-C , 26-N ) :   1.0626 B( 14-C , 15-C ) :   1.4213 B( 14-C , 25-C ) :   1.4032
B( 15-C , 16-C ) :   1.4335 B( 15-C , 50-H ) :   0.9184 B( 16-C , 17-C ) :   1.4050
B( 16-C , 51-H ) :   0.9133 B( 17-C , 18-O ) :   0.8398 B( 17-C , 23-C ) :   1.3244
B( 18-O , 19-C ) :   0.9729 B( 19-C , 20-F ) :   1.0052 B( 19-C , 21-F ) :   0.9785
B( 19-C , 22-F ) :   0.9742 B( 23-C , 24-Cl) :   1.0463 B( 23-C , 25-C ) :   1.3860
B( 25-C , 52-H ) :   0.9175 B( 26-N , 27-C ) :   0.9326 B( 27-C , 28-O ) :   0.9013
B( 27-C , 53-H ) :   0.9145 B( 27-C , 54-H ) :   0.9011 B( 28-O , 29-C ) :   0.9826
B( 29-C , 30-O ) :   1.8177 B( 29-C , 31-C ) :   0.9183 B( 31-C , 32-N ) :   1.0187
B( 31-C , 33-C ) :   0.9760 B( 31-C , 55-H ) :   0.9068 B( 32-N , 56-H ) :   0.8443
B( 32-N , 57-H ) :   0.8557 B( 33-C , 34-C ) :   1.0044 B( 33-C , 35-C ) :   1.0083
B( 33-C , 58-H ) :   0.9227 B( 34-C , 59-H ) :   0.9448 B( 34-C , 60-H ) :   0.9475
B( 34-C , 61-H ) :   0.9431 B( 35-C , 62-H ) :   0.9482 B( 35-C , 63-H ) :   0.9452
B( 35-C , 64-H ) :   0.9388 B( 36-C , 37-O ) :   1.7844 B( 36-C , 38-N ) :   0.9578
B( 38-N , 39-C ) :   0.9207 B( 38-N , 40-C ) :   1.0493 B( 39-C , 65-H ) :   0.9421
B( 39-C , 66-H ) :   0.9215 B( 39-C , 67-H ) :   0.9295 B( 40-C , 41-O ) :   1.7885
B( 40-C , 42-N ) :   1.0461 B( 42-N , 43-C ) :   0.9304 B( 43-C , 68-H ) :   0.9315
B( 43-C , 69-H ) :   0.9282 B( 43-C , 70-H ) :   0.9355

FINAL SINGLE POINT ENERGY     -3001.999402302962

DIPOLE MOMENT
-------------

Method             : SCF
Type of density    : Electron Density
Multiplicity       :   1
Irrep              :   0
Energy             : -3001.9994023029616983 Eh
Relativity type    :
Basis              : AO
                                X                 Y                 Z
Electronic contribution:    -36.874855760      68.156235345      -8.494797819
Nuclear contribution   :     35.848600634     -66.096200305       7.658169455
                        -----------------------------------------
Total Dipole Moment    :     -1.026255125       2.060035040      -0.836628364
                        -----------------------------------------
Magnitude (a.u.)       :      2.448855032
Magnitude (Debye)      :      6.224494824

Rotational constants in cm-1:             0.003671             0.000855             0.000772
Rotational constants in MHz :           110.054924            25.619748            23.147682

                             ****ORCA TERMINATED NORMALLY****
TOTAL RUN TIME: 0 days 0 hours 12 minutes 29 seconds 793 msec
