                         Program Version 6.0.0  -   RELEASE  -
|  1> ! B3LYP 6-31G* SP
|  2>
|  3> * xyz 0 1
|  4> C 5.1407 0.4499 0.8501
|  5> C 4.3193 1.0851 -0.2786
|  6> N 3.1660 0.2347 -0.5955
|  7> C 1.9967 0.1856 0.2340
|  8> O 1.9210 0.9070 1.2664
|  9> N 0.9073 -0.6787 -0.1218
| 10> C -0.2997 -0.8024 0.7066
| 11> C -1.2113 0.4148 0.6519
| 12> C -0.9854 1.4972 -0.2220
| 13> C -1.8444 2.5996 -0.2250
| 14> C -2.9316 2.6605 0.6615
| 15> C -3.8872 3.8262 0.6195
| 16> F -4.4584 4.0355 1.8629
| 17> F -3.2286 4.9850 0.2461
| 18> F -4.8876 3.5614 -0.2969
| 19> C -3.1677 1.5774 1.5231
| 20> C -2.3096 0.4749 1.5273
| 21> C -1.0265 -2.1088 0.4147
| 22> N -0.8711 -3.0963 1.3429
| 23> C -1.4541 -4.3149 1.2336
| 24> C -2.2596 -4.6013 0.1407
| 25> C -2.4462 -3.6324 -0.8407
| 26> C -1.8164 -2.3739 -0.7492
| 27> C -2.0926 -1.3541 -1.8421
| 28> F -3.0527 -0.4596 -1.4086
| 29> F -0.9479 -0.6712 -2.1950
| 30> F -2.5662 -1.9662 -2.9906
| 31> C 5.1815 1.3147 -1.5320
| 32> F 5.7039 0.1174 -1.9908
| 33> F 4.4083 1.8789 -2.5312
| 34> F 6.2226 2.1788 -1.2411
| 35> H 5.5043 -0.5560 0.5497
| 36> H 6.0124 1.0898 1.1036
| 37> H 4.5191 0.3417 1.7634
| 38> H 3.9554 2.0798 0.0628
| 39> H 3.1722 -0.3379 -1.4701
| 40> H 1.0398 -1.3158 -0.9395
| 41> H 0.0451 -0.8630 1.7644
| 42> H -0.1580 1.4931 -0.9180
| 43> H -1.6592 3.4050 -0.9247
| 44> H -4.0175 1.5818 2.1940
| 45> H -2.5072 -0.3419 2.2108
| 46> H -1.2968 -5.0584 2.0035
| 47> H -2.7403 -5.5673 0.0547
| 48> H -3.0918 -3.8757 -1.6748
| 49> *
| 50>
| 51>                          ****END OF INPUT****

CARTESIAN COORDINATES (ANGSTROEM)
---------------------------------
  C      5.140700    0.449900    0.850100
  C      4.319300    1.085100   -0.278600
  N      3.166000    0.234700   -0.595500
  C      1.996700    0.185600    0.234000
  O      1.921000    0.907000    1.266400
  N      0.907300   -0.678700   -0.121800
  C     -0.299700   -0.802400    0.706600
  C     -1.211300    0.414800    0.651900
  C     -0.985400    1.497200   -0.222000
  C     -1.844400    2.599600   -0.225000
  C     -2.931600    2.660500    0.661500
  C     -3.887200    3.826200    0.619500
  F     -4.458400    4.035500    1.862900
  F     -3.228600    4.985000    0.246100
  F     -4.887600    3.561400   -0.296900
  C     -3.167700    1.577400    1.523100
  C     -2.309600    0.474900    1.527300
  C     -1.026500   -2.108800    0.414700
  N     -0.871100   -3.096300    1.342900
  C     -1.454100   -4.314900    1.233600
  C     -2.259600   -4.601300    0.140700
  C     -2.446200   -3.632400   -0.840700
  C     -1.816400   -2.373900   -0.749200
  C     -2.092600   -1.354100   -1.842100
  F     -3.052700   -0.459600   -1.408600
  F     -0.947900   -0.671200   -2.195000
  F     -2.566200   -1.966200   -2.990600
  C      5.181500    1.314700   -1.532000
  F      5.703900    0.117400   -1.990800
  F      4.408300    1.878900   -2.531200
  F      6.222600    2.178800   -1.241100
  H      5.504300   -0.556000    0.549700
  H      6.012400    1.089800    1.103600
  H      4.519100    0.341700    1.763400
  H      3.955400    2.079800    0.062800
  H      3.172200   -0.337900   -1.470100
  H      1.039800   -1.315800   -0.939500
  H      0.045100   -0.863000    1.764400
  H     -0.158000    1.493100   -0.918000
  H     -1.659200    3.405000   -0.924700
  H     -4.017500    1.581800    2.194000
  H     -2.507200   -0.341900    2.210800
  H     -1.296800   -5.058400    2.003500
  H     -2.740300   -5.567300    0.054700
  H     -3.091800   -3.875700   -1.674800

 Total Charge           Charge          ....    0
 Multiplicity           Mult            ....    1
 Number of Electrons    NEL             ....  232
 Basis Dimension        Dim             ....  462

ORBITAL ENERGIES
----------------

  NO   OCC          E(Eh)            E(eV)
   0   2.0000     -24.739493      -673.1958
   1   2.0000     -24.735239      -673.0801
   2   2.0000     -24.731226      -672.9709
   3   2.0000     -24.728662      -672.9011
   4   2.0000     -24.727878      -672.8798
   5   2.0000     -24.725565      -672.8168
   6   2.0000     -24.709715      -672.3855
   7   2.0000     -24.709404      -672.3771
   8   2.0000     -24.706016      -672.2849
   9   2.0000     -19.107594      -519.9441
  10   2.0000     -14.367578      -390.9617
  11   2.0000     -14.365592      -390.9076
  12   2.0000     -14.354405      -390.6032
  13   2.0000     -10.453391      -284.4512
  14   2.0000     -10.441769      -284.1350
  15   2.0000     -10.424126      -283.6549
  16   2.0000     -10.324438      -280.9423
  17   2.0000     -10.267824      -279.4017
  18   2.0000     -10.252828      -278.9936
  19   2.0000     -10.247541      -278.8498
  20   2.0000     -10.247465      -278.8477
  21   2.0000     -10.242603      -278.7154
  22   2.0000     -10.232373      -278.4370
  23   2.0000     -10.218305      -278.0542
  24   2.0000     -10.202183      -277.6155
  25   2.0000     -10.200416      -277.5674
  26   2.0000     -10.192836      -277.3612
  27   2.0000     -10.191063      -277.3129
  28   2.0000     -10.188558      -277.2447
  29   2.0000     -10.185188      -277.1530
  30   2.0000     -10.179721      -277.0043
  31   2.0000      -1.297352       -35.3027
  32   2.0000      -1.288317       -35.0569
  33   2.0000      -1.269409       -34.5424
  34   2.0000      -1.223496       -33.2930
  35   2.0000      -1.216632       -33.1062
  36   2.0000      -1.215281       -33.0695
  37   2.0000      -1.211899       -32.9774
  38   2.0000      -1.194962       -32.5166
  39   2.0000      -1.193770       -32.4841
  40   2.0000      -1.023877       -27.8611
  41   2.0000      -0.962052       -26.1788
  42   2.0000      -0.920393       -25.0452
  43   2.0000      -0.914125       -24.8746
  44   2.0000      -0.860648       -23.4194
  45   2.0000      -0.838044       -22.8043
  46   2.0000      -0.814644       -22.1676
  47   2.0000      -0.787629       -21.4325
  48   2.0000      -0.778190       -21.1756
  49   2.0000      -0.749198       -20.3867
  50   2.0000      -0.731825       -19.9140
  51   2.0000      -0.711569       -19.3628
  52   2.0000      -0.701073       -19.0772
  53   2.0000      -0.675626       -18.3847
  54   2.0000      -0.652770       -17.7628
  55   2.0000      -0.644734       -17.5441
  56   2.0000      -0.631401       -17.1813
  57   2.0000      -0.615481       -16.7481
  58   2.0000      -0.604082       -16.4379
  59   2.0000      -0.591412       -16.0932
  60   2.0000      -0.586397       -15.9567
  61   2.0000      -0.583683       -15.8828
  62   2.0000      -0.578553       -15.7432
  63   2.0000      -0.574952       -15.6452
  64   2.0000      -0.573671       -15.6104
  65   2.0000      -0.566012       -15.4020
  66   2.0000      -0.560310       -15.2468
  67   2.0000      -0.557064       -15.1585
  68   2.0000      -0.550514       -14.9802
  69   2.0000      -0.541712       -14.7407
  70   2.0000      -0.522043       -14.2055
  71   2.0000      -0.509730       -13.8705
  72   2.0000      -0.494803       -13.4643
  73   2.0000      -0.481215       -13.0945
  74   2.0000      -0.478375       -13.0172
  75   2.0000      -0.468942       -12.7606
  76   2.0000      -0.464492       -12.6395
  77   2.0000      -0.460434       -12.5291
  78   2.0000      -0.456908       -12.4331
  79   2.0000      -0.454488       -12.3672
  80   2.0000      -0.453674       -12.3451
  81   2.0000      -0.442441       -12.0394
  82   2.0000      -0.439024       -11.9465
  83   2.0000      -0.438050       -11.9200
  84   2.0000      -0.437478       -11.9044
  85   2.0000      -0.436096       -11.8668
  86   2.0000      -0.431008       -11.7283
  87   2.0000      -0.427827       -11.6418
  88   2.0000      -0.424392       -11.5483
  89   2.0000      -0.423054       -11.5119
  90   2.0000      -0.418521       -11.3885
  91   2.0000      -0.417912       -11.3720
  92   2.0000      -0.412447       -11.2233
  93   2.0000      -0.411235       -11.1903
  94   2.0000      -0.410275       -11.1642
  95   2.0000      -0.408369       -11.1123
  96   2.0000      -0.407044       -11.0762
  97   2.0000      -0.402818       -10.9612
  98   2.0000      -0.397451       -10.8152
  99   2.0000      -0.394974       -10.7478
 100   2.0000      -0.388216       -10.5639
 101   2.0000      -0.384609       -10.4657
 102   2.0000      -0.378489       -10.2992
 103   2.0000      -0.372083       -10.1249
 104   2.0000      -0.358922        -9.7668
 105   2.0000      -0.354009        -9.6331
 106   2.0000      -0.348341        -9.4788
 107   2.0000      -0.347106        -9.4452
 108   2.0000      -0.310562        -8.4508
 109   2.0000      -0.292648        -7.9633
 110   2.0000      -0.274391        -7.4666
 111   2.0000      -0.261716        -7.1216
 112   2.0000      -0.257580        -7.0091
 113   2.0000      -0.255042        -6.9400
 114   2.0000      -0.250311        -6.8113
 115   2.0000      -0.243529        -6.6268
 116   0.0000      -0.058339        -1.5875
 117   0.0000      -0.053454        -1.4546
 118   0.0000      -0.019410        -0.5282
 119   0.0000      -0.003651        -0.0994
 120   0.0000       0.037848         1.0299

MULLIKEN ATOMIC CHARGES
-----------------------
   0 C :   -0.459244
   1 C :   -0.025314
   2 N :   -0.658644
   3 C :    0.743150
   4 O :   -0.507155
   5 N :   -0.660656
   6 C :   -0.031526
   7 C :    0.144752
   8 C :   -0.148318
   9 C :   -0.160579
  10 C :   -0.012345
  11 C :    0.891993
  12 F :   -0.307102
  13 F :   -0.306303
  14 F :   -0.298532
  15 C :   -0.161339
  16 C :   -0.171281
  17 C :    0.193886
  18 N :   -0.403513
  19 C :    0.027700
  20 C :   -0.131883
  21 C :   -0.128100
  22 C :   -0.069619
  23 C :    0.924737
  24 F :   -0.284748
  25 F :   -0.300367
  26 F :   -0.304409
  27 C :    0.910845
  28 F :   -0.306343
  29 F :   -0.303151
  30 F :   -0.299574
  31 H :    0.152338
  32 H :    0.155046
  33 H :    0.190653
  34 H :    0.194282
  35 H :    0.323539
  36 H :    0.317806
  37 H :    0.206143
  38 H :    0.139075
  39 H :    0.149171
  40 H :    0.148173
  41 H :    0.138419
  42 H :    0.165249
  43 H :    0.151174
  44 H :    0.171917
Sum of atomic charges:   -0.0000000

LOEWDIN ATOMIC CHARGES
----------------------
   0 C :   -0.365970
   1 C :   -0.084441
   2 N :   -0.256711
   3 C :    0.164338
   4 O :   -0.324234
   5 N :   -0.250047
   6 C :   -0.047002
   7 C :   -0.013721
   8 C :   -0.116613
   9 C :   -0.111470
  10 C :   -0.071351
  11 C :    0.309276
  12 F :   -0.115181
  13 F :   -0.114520
  14 F :   -0.115828
  15 C :   -0.112476
  16 C :   -0.128308
  17 C :    0.044513
  18 N :   -0.124157
  19 C :   -0.053485
  20 C :   -0.138378
  21 C :   -0.087523
  22 C :   -0.081686
  23 C :    0.310601
  24 F :   -0.098215
  25 F :   -0.101917
  26 F :   -0.110936
  27 C :    0.305721
  28 F :   -0.118007
  29 F :   -0.114470
  30 F :   -0.108077
  31 H :    0.129407
  32 H :    0.131809
  33 H :    0.150059
  34 H :    0.157491
  35 H :    0.249260
  36 H :    0.245393
  37 H :    0.167321
  38 H :    0.139988
  39 H :    0.142232
  40 H :    0.141690
  41 H :    0.136323
  42 H :    0.142945
  43 H :    0.144062
  44 H :    0.152295

  Mayer bond orders larger than 0.100000
B(  0-C ,  1-C ) :   0.9864 B(  0-C , 31-H ) :   0.9440 B(  0-C , 32-H ) :   0.9369
B(  0-C , 33-H ) :   0.9294 B(  1-C ,  2-N ) :   0.8949 B(  1-C , 27-C ) :   0.9511
B(  1-C , 34-H ) :   0.9015 B(  2-N ,  3-C ) :   1.0299 B(  2-N , 35-H ) :   0.8227
B(  3-C ,  4-O ) :   1.7632 B(  3-C ,  5-N ) :   1.0354 B(  5-N ,  6-C ) :   0.8888
B(  5-N , 36-H ) :   0.8240 B(  6-C ,  7-C ) :   0.9487 B(  6-C , 17-C ) :   0.9561
B(  6-C , 37-H ) :   0.8929 B(  7-C ,  8-C ) :   1.4295 B(  7-C , 16-C ) :   1.4098
B(  8-C ,  9-C ) :   1.4237 B(  8-C , 38-H ) :   0.9137 B(  9-C , 10-C ) :   1.4093
B(  9-C , 39-H ) :   0.9206 B( 10-C , 11-C ) :   0.9807 B( 10-C , 15-C ) :   1.4107
B( 11-C , 12-F ) :   0.9466 B( 11-C , 13-F ) :   0.9477 B( 11-C , 14-F ) :   0.9848
B( 15-C , 16-C ) :   1.4303 B( 15-C , 40-H ) :   0.9207 B( 16-C , 41-H ) :   0.9217
B( 17-C , 18-N ) :   1.3922 B( 17-C , 22-C ) :   1.3436 B( 18-N , 19-C ) :   1.4149
B( 19-C , 20-C ) :   1.4223 B( 19-C , 42-H ) :   0.9261 B( 20-C , 21-C ) :   1.4354
B( 20-C , 43-H ) :   0.9224 B( 21-C , 22-C ) :   1.4064 B( 21-C , 44-H ) :   0.9154
B( 22-C , 23-C ) :   0.9669 B( 23-C , 24-F ) :   0.9767 B( 23-C , 25-F ) :   0.9223
B( 23-C , 26-F ) :   0.9408 B( 27-C , 28-F ) :   0.9534 B( 27-C , 29-F ) :   0.9699
B( 27-C , 30-F ) :   0.9616

FINAL SINGLE POINT ENERGY     -1831.512347741696

DIPOLE MOMENT
-------------

Method             : SCF
Type of density    : Electron Density
Multiplicity       :   1
Irrep              :   0
Energy             : -1831.5123477416955211 Eh
Relativity type    :
Basis              : AO
                                X                 Y                 Z
Electronic contribution:    -11.936088519      19.255497246     -17.136947959
Nuclear contribution   :     11.954658661     -21.980522905      16.591568751
                        -----------------------------------------
Total Dipole Moment    :      0.018570141      -2.725025659      -0.545379208
                        -----------------------------------------
Magnitude (a.u.)       :      2.779127232
Magnitude (Debye)      :      7.063980040

Rotational constants in cm-1:             0.004940             0.002824             0.002125
Rotational constants in MHz :           148.110767            84.676359            63.699254

                             ****ORCA TERMINATED NORMALLY****
TOTAL RUN TIME: 0 days 0 hours 4 minutes 19 seconds 315 msec
