                         Program Version 6.0.0  -   RELEASE  -
|  1> ! B3LYP 6-31G* SP
|  2>
|  3> * xyz 0 1
|  4> C 6.1014 0.3110 2.7582
|  5> N 5.1486 0.2012 1.6606
|  6> C 4.0026 -0.6597 1.7423
|  7> O 3.8819 -1.4440 2.7240
|  8> C 2.9633 -0.6512 0.6868
|  9> C 2.1791 -1.7963 0.4617
| 10> C 1.1869 -1.7929 -0.5217
| 11> C 0.9443 -0.6400 -1.2782
| 12> S -0.3584 -0.6119 -2.4628
| 13> O -0.0383 0.3703 -3.5542
| 14> O -0.5009 -1.9725 -3.0858
| 15> N -1.8483 -0.1517 -1.6949
| 16> C -2.8489 -1.1669 -1.3524
| 17> C -2.3292 -2.0851 -0.2783
| 18> C -2.1933 -3.4623 -0.5193
| 19> C -1.6951 -4.3069 0.4771
| 20> C -1.3332 -3.7851 1.7223
| 21> C -1.4750 -2.4187 1.9736
| 22> C -1.9776 -1.5713 0.9800
| 23> C -2.0106 1.2022 -1.2527
| 24> N -1.1348 1.7191 -0.3503
| 25> C -1.2422 2.9894 0.1167
| 26> C -2.2898 3.8159 -0.3152
| 27> C -2.3929 5.2401 0.1673
| 28> F -1.6293 6.0534 -0.6489
| 29> F -3.7058 5.6743 0.1371
| 30> F -1.9321 5.3481 1.4674
| 31> C -3.1829 3.3146 -1.2751
| 32> C -3.0519 2.0056 -1.7447
| 33> Cl -4.1620 1.4233 -2.9801
| 34> C 1.7188 0.5047 -1.0558
| 35> C 2.7207 0.5012 -0.0814
| 36> H 6.9334 0.9873 2.4703
| 37> H 5.5940 0.7225 3.6557
| 38> H 6.5253 -0.6888 2.9903
| 39> H 5.3457 0.7314 0.7821
| 40> H 2.3357 -2.6964 1.0422
| 41> H 0.6013 -2.6867 -0.6842
| 42> H -3.1176 -1.7338 -2.2706
| 43> H -3.7820 -0.6885 -0.9823
| 44> H -2.4636 -3.8807 -1.4776
| 45> H -1.5888 -5.3659 0.2842
| 46> H -0.9444 -4.4400 2.4932
| 47> H -1.1961 -2.0149 2.9392
| 48> H -2.0866 -0.5155 1.1910
| 49> H -0.5099 3.3514 0.8262
| 50> H -3.9745 3.9406 -1.6660
| 51> H 1.5360 1.4082 -1.6233
| 52> H 3.2771 1.4119 0.0911
| 53> *
| 54>
| 55>                          ****END OF INPUT****

CARTESIAN COORDINATES (ANGSTROEM)
---------------------------------
  C      6.101400    0.311000    2.758200
  N      5.148600    0.201200    1.660600
  C      4.002600   -0.659700    1.742300
  O      3.881900   -1.444000    2.724000
  C      2.963300   -0.651200    0.686800
  C      2.179100   -1.796300    0.461700
  C      1.186900   -1.792900   -0.521700
  C      0.944300   -0.640000   -1.278200
  S     -0.358400   -0.611900   -2.462800
  O     -0.038300    0.370300   -3.554200
  O     -0.500900   -1.972500   -3.085800
  N     -1.848300   -0.151700   -1.694900
  C     -2.848900   -1.166900   -1.352400
  C     -2.329200   -2.085100   -0.278300
  C     -2.193300   -3.462300   -0.519300
  C     -1.695100   -4.306900    0.477100
  C     -1.333200   -3.785100    1.722300
  C     -1.475000   -2.418700    1.973600
  C     -1.977600   -1.571300    0.980000
  C     -2.010600    1.202200   -1.252700
  N     -1.134800    1.719100   -0.350300
  C     -1.242200    2.989400    0.116700
  C     -2.289800    3.815900   -0.315200
  C     -2.392900    5.240100    0.167300
  F     -1.629300    6.053400   -0.648900
  F     -3.705800    5.674300    0.137100
  F     -1.932100    5.348100    1.467400
  C     -3.182900    3.314600   -1.275100
  C     -3.051900    2.005600   -1.744700
  Cl    -4.162000    1.423300   -2.980100
  C      1.718800    0.504700   -1.055800
  C      2.720700    0.501200   -0.081400
  H      6.933400    0.987300    2.470300
  H      5.594000    0.722500    3.655700
  H      6.525300   -0.688800    2.990300
  H      5.345700    0.731400    0.782100
  H      2.335700   -2.696400    1.042200
  H      0.601300   -2.686700   -0.684200
  H     -3.117600   -1.733800   -2.270600
  H     -3.782000   -0.688500   -0.982300
  H     -2.463600   -3.880700   -1.477600
  H     -1.588800   -5.365900    0.284200
  H     -0.944400   -4.440000    2.493200
  H     -1.196100   -2.014900    2.939200
  H     -2.086600   -0.515500    1.191000
  H     -0.509900    3.351400    0.826200
  H     -3.974500    3.940600   -1.666000
  H      1.536000    1.408200   -1.623300
  H      3.277100    1.411900    0.091100

 Total Charge           Charge          ....    0
 Multiplicity           Mult            ....    1
 Number of Electrons    NEL             ....  248
 Basis Dimension        Dim             ....  490

ORBITAL ENERGIES
----------------

  NO   OCC          E(Eh)            E(eV)
   0   2.0000    -101.552880     -2763.3944
   1   2.0000     -89.102136     -2424.5924
   2   2.0000     -24.738743      -673.1754
   3   2.0000     -24.738512      -673.1691
   4   2.0000     -24.733958      -673.0452
   5   2.0000     -19.131087      -520.5834
   6   2.0000     -19.127933      -520.4975
   7   2.0000     -19.114896      -520.1428
   8   2.0000     -14.385744      -391.4560
   9   2.0000     -14.368357      -390.9829
  10   2.0000     -14.364022      -390.8649
  11   2.0000     -10.456526      -284.5365
  12   2.0000     -10.303364      -280.3688
  13   2.0000     -10.295230      -280.1474
  14   2.0000     -10.283807      -279.8366
  15   2.0000     -10.261378      -279.2263
  16   2.0000     -10.245086      -278.7830
  17   2.0000     -10.244161      -278.7578
  18   2.0000     -10.239114      -278.6205
  19   2.0000     -10.232388      -278.4374
  20   2.0000     -10.218754      -278.0664
  21   2.0000     -10.218257      -278.0529
  22   2.0000     -10.213029      -277.9106
  23   2.0000     -10.209739      -277.8211
  24   2.0000     -10.209309      -277.8094
  25   2.0000     -10.203975      -277.6643
  26   2.0000     -10.196271      -277.4546
  27   2.0000     -10.187335      -277.2115
  28   2.0000     -10.186869      -277.1988
  29   2.0000     -10.186745      -277.1954
  30   2.0000     -10.186418      -277.1865
  31   2.0000     -10.186127      -277.1786
  32   2.0000      -9.484071      -258.0747
  33   2.0000      -8.137722      -221.4387
  34   2.0000      -7.247450      -197.2131
  35   2.0000      -7.237662      -196.9468
  36   2.0000      -7.237125      -196.9322
  37   2.0000      -6.103148      -166.0751
  38   2.0000      -6.100684      -166.0081
  39   2.0000      -6.100052      -165.9908
  40   2.0000      -1.298418       -35.3318
  41   2.0000      -1.223941       -33.3051
  42   2.0000      -1.221779       -33.2463
  43   2.0000      -1.087756       -29.5993
  44   2.0000      -1.014552       -27.6074
  45   2.0000      -0.993049       -27.0222
  46   2.0000      -0.965561       -26.2742
  47   2.0000      -0.935396       -25.4534
  48   2.0000      -0.904671       -24.6174
  49   2.0000      -0.894856       -24.3503
  50   2.0000      -0.879973       -23.9453
  51   2.0000      -0.857155       -23.3244
  52   2.0000      -0.841410       -22.8959
  53   2.0000      -0.798560       -21.7299
  54   2.0000      -0.788786       -21.4640
  55   2.0000      -0.769971       -20.9520
  56   2.0000      -0.767251       -20.8780
  57   2.0000      -0.746839       -20.3225
  58   2.0000      -0.728649       -19.8276
  59   2.0000      -0.718487       -19.5510
  60   2.0000      -0.696844       -18.9621
  61   2.0000      -0.680343       -18.5131
  62   2.0000      -0.663145       -18.0451
  63   2.0000      -0.647490       -17.6191
  64   2.0000      -0.628240       -17.0953
  65   2.0000      -0.616398       -16.7730
  66   2.0000      -0.607701       -16.5364
  67   2.0000      -0.590371       -16.0648
  68   2.0000      -0.588900       -16.0248
  69   2.0000      -0.587946       -15.9988
  70   2.0000      -0.578046       -15.7294
  71   2.0000      -0.576627       -15.6908
  72   2.0000      -0.565435       -15.3863
  73   2.0000      -0.543631       -14.7929
  74   2.0000      -0.536837       -14.6081
  75   2.0000      -0.521656       -14.1950
  76   2.0000      -0.511251       -13.9118
  77   2.0000      -0.487503       -13.2656
  78   2.0000      -0.483404       -13.1541
  79   2.0000      -0.482018       -13.1164
  80   2.0000      -0.470249       -12.7961
  81   2.0000      -0.468365       -12.7448
  82   2.0000      -0.467376       -12.7179
  83   2.0000      -0.465503       -12.6670
  84   2.0000      -0.464459       -12.6386
  85   2.0000      -0.456226       -12.4146
  86   2.0000      -0.455179       -12.3860
  87   2.0000      -0.446813       -12.1584
  88   2.0000      -0.444532       -12.0963
  89   2.0000      -0.440325       -11.9819
  90   2.0000      -0.439561       -11.9611
  91   2.0000      -0.433587       -11.7985
  92   2.0000      -0.430473       -11.7138
  93   2.0000      -0.429417       -11.6850
  94   2.0000      -0.424728       -11.5574
  95   2.0000      -0.422891       -11.5074
  96   2.0000      -0.421377       -11.4662
  97   2.0000      -0.415555       -11.3078
  98   2.0000      -0.403025       -10.9669
  99   2.0000      -0.400157       -10.8888
 100   2.0000      -0.397975       -10.8294
 101   2.0000      -0.392753       -10.6874
 102   2.0000      -0.388521       -10.5722
 103   2.0000      -0.371843       -10.1184
 104   2.0000      -0.370017       -10.0687
 105   2.0000      -0.361571        -9.8388
 106   2.0000      -0.359272        -9.7763
 107   2.0000      -0.354261        -9.6399
 108   2.0000      -0.345481        -9.4010
 109   2.0000      -0.337538        -9.1849
 110   2.0000      -0.331303        -9.0152
 111   2.0000      -0.324473        -8.8293
 112   2.0000      -0.309002        -8.4084
 113   2.0000      -0.298629        -8.1261
 114   2.0000      -0.292585        -7.9616
 115   2.0000      -0.289985        -7.8909
 116   2.0000      -0.278971        -7.5912
 117   2.0000      -0.273698        -7.4477
 118   2.0000      -0.268951        -7.3185
 119   2.0000      -0.261599        -7.1185
 120   2.0000      -0.252803        -6.8791
 121   2.0000      -0.251389        -6.8406
 122   2.0000      -0.248756        -6.7690
 123   2.0000      -0.243296        -6.6204
 124   0.0000      -0.069818        -1.8998
 125   0.0000      -0.066294        -1.8040
 126   0.0000      -0.058665        -1.5963
 127   0.0000      -0.021984        -0.5982
 128   0.0000      -0.012306        -0.3349

MULLIKEN ATOMIC CHARGES
-----------------------
   0 C :   -0.280457
   1 N :   -0.605842
   2 C :    0.493799
   3 O :   -0.479923
   4 C :    0.085025
   5 C :   -0.140154
   6 C :   -0.139384
   7 C :   -0.120096
   8 S :    1.216518
   9 O :   -0.534133
  10 O :   -0.543505
  11 N :   -0.597023
  12 C :   -0.236967
  13 C :    0.134614
  14 C :   -0.161991
  15 C :   -0.134311
  16 C :   -0.128313
  17 C :   -0.126792
  18 C :   -0.160343
  19 C :    0.410260
  20 N :   -0.385457
  21 C :   -0.006836
  22 C :   -0.029636
  23 C :    0.903934
  24 F :   -0.290379
  25 F :   -0.300129
  26 F :   -0.300796
  27 C :   -0.129673
  28 C :   -0.095747
  29 Cl:    0.042005
  30 C :   -0.119789
  31 C :   -0.168514
  32 H :    0.148367
  33 H :    0.171746
  34 H :    0.178621
  35 H :    0.326909
  36 H :    0.171545
  37 H :    0.188695
  38 H :    0.192513
  39 H :    0.182570
  40 H :    0.144877
  41 H :    0.135019
  42 H :    0.134713
  43 H :    0.137641
  44 H :    0.134300
  45 H :    0.181011
  46 H :    0.191244
  47 H :    0.172978
  48 H :    0.137289
Sum of atomic charges:    0.0000000

LOEWDIN ATOMIC CHARGES
----------------------
   0 C :   -0.270679
   1 N :   -0.251066
   2 C :    0.139473
   3 O :   -0.286291
   4 C :   -0.028770
   5 C :   -0.093331
   6 C :   -0.093574
   7 C :   -0.178655
   8 S :    1.277417
   9 O :   -0.565564
  10 O :   -0.566984
  11 N :   -0.274749
  12 C :   -0.143683
  13 C :   -0.045220
  14 C :   -0.126240
  15 C :   -0.131730
  16 C :   -0.129650
  17 C :   -0.124661
  18 C :   -0.126695
  19 C :    0.061115
  20 N :   -0.120696
  21 C :   -0.050140
  22 C :   -0.080612
  23 C :    0.311733
  24 F :   -0.108209
  25 F :   -0.108462
  26 F :   -0.108547
  27 C :   -0.087331
  28 C :   -0.094471
  29 Cl:    0.072126
  30 C :   -0.090514
  31 C :   -0.127514
  32 H :    0.129299
  33 H :    0.133681
  34 H :    0.137196
  35 H :    0.250004
  36 H :    0.156806
  37 H :    0.162810
  38 H :    0.147262
  39 H :    0.149240
  40 H :    0.139930
  41 H :    0.134555
  42 H :    0.134235
  43 H :    0.135738
  44 H :    0.134644
  45 H :    0.151128
  46 H :    0.164303
  47 H :    0.154926
  48 H :    0.136418

  Mayer bond orders larger than 0.100000
B(  0-C ,  1-N ) :   0.9424 B(  0-C , 32-H ) :   0.9475 B(  0-C , 33-H ) :   0.9402
B(  0-C , 34-H ) :   0.9349 B(  1-N ,  2-C ) :   1.0657 B(  1-N , 35-H ) :   0.8280
B(  2-C ,  3-O ) :   1.8103 B(  2-C ,  4-C ) :   0.9796 B(  4-C ,  5-C ) :   1.4050
B(  4-C , 31-C ) :   1.3891 B(  5-C ,  6-C ) :   1.4198 B(  5-C , 36-H ) :   0.9124
B(  6-C ,  7-C ) :   1.3857 B(  6-C , 37-H ) :   0.8996 B(  7-C ,  8-S ) :   0.8183
B(  7-C , 30-C ) :   1.3956 B(  8-S ,  9-O ) :   1.6633 B(  8-S , 10-O ) :   1.6283
B(  8-S , 11-N ) :   0.7738 B( 11-N , 12-C ) :   0.9017 B( 11-N , 19-C ) :   0.9495
B( 12-C , 13-C ) :   0.9501 B( 12-C , 38-H ) :   0.9207 B( 12-C , 39-H ) :   0.9174
B( 13-C , 14-C ) :   1.4413 B( 13-C , 18-C ) :   1.4169 B( 14-C , 15-C ) :   1.4302
B( 14-C , 40-H ) :   0.9194 B( 15-C , 16-C ) :   1.4518 B( 15-C , 41-H ) :   0.9289
B( 16-C , 17-C ) :   1.4468 B( 16-C , 42-H ) :   0.9294 B( 17-C , 18-C ) :   1.4489
B( 17-C , 43-H ) :   0.9284 B( 18-C , 44-H ) :   0.9189 B( 19-C , 20-N ) :   1.3690
B( 19-C , 28-C ) :   1.3324 B( 20-N , 21-C ) :   1.4049 B( 21-C , 22-C ) :   1.3652
B( 21-C , 45-H ) :   0.9174 B( 22-C , 23-C ) :   0.9738 B( 22-C , 27-C ) :   1.4038
B( 23-C , 24-F ) :   0.9910 B( 23-C , 25-F ) :   0.9522 B( 23-C , 26-F ) :   0.9507
B( 27-C , 28-C ) :   1.3994 B( 27-C , 46-H ) :   0.9070 B( 28-C , 29-Cl) :   1.0580
B( 30-C , 31-C ) :   1.4313 B( 30-C , 47-H ) :   0.9105 B( 31-C , 48-H ) :   0.9199

FINAL SINGLE POINT ENERGY     -2357.254513030502

DIPOLE MOMENT
-------------

Method             : SCF
Type of density    : Electron Density
Multiplicity       :   1
Irrep              :   0
Energy             : -2357.2545130305015846 Eh
Relativity type    :
Basis              : AO
                                X                 Y                 Z
Electronic contribution:    -30.659905733      36.521316584     -16.420728649
Nuclear contribution   :     30.850100044     -35.663835747      17.648249047
                        -----------------------------------------
Total Dipole Moment    :      0.190194312       0.857480836       1.227520398
                        -----------------------------------------
Magnitude (a.u.)       :      1.509388482
Magnitude (Debye)      :      3.836560624

Rotational constants in cm-1:             0.004552             0.002899             0.002188
Rotational constants in MHz :           136.472993            86.908178            65.582032

                             ****ORCA TERMINATED NORMALLY****
TOTAL RUN TIME: 0 days 0 hours 8 minutes 52 seconds 78 msec
