                         Program Version 6.0.0  -   RELEASE  -
|  1> ! B3LYP 6-31G* SP
|  2>
|  3> * xyz 0 1
|  4> C -1.0545 2.8389 -2.2013
|  5> C -2.0007 1.9912 -1.4105
|  6> S -3.1554 2.6145 -0.3566
|  7> C -3.7606 1.1172 0.1140
|  8> C -3.0847 0.1029 -0.5430
|  9> C -2.0768 0.5887 -1.4234
| 10> C -1.1289 -0.2515 -2.2498
| 11> C 0.1946 -0.4020 -1.5568
| 12> O 1.2341 0.0383 -2.1187
| 13> N 0.2757 -1.0478 -0.2761
| 14> C 1.4831 -1.1524 0.4885
| 15> N 2.6719 -0.6414 0.1040
| 16> C 3.6525 -0.8724 1.0217
| 17> C 5.0421 -0.3899 0.8052
| 18> C 6.1124 -0.8422 1.6010
| 19> C 7.4103 -0.3759 1.3765
| 20> C 7.6651 0.5445 0.3563
| 21> Cl 9.3127 1.1061 0.1066
| 22> C 6.6097 1.0001 -0.4488
| 23> Cl 6.8866 2.1562 -1.7448
| 24> C 5.3095 0.5326 -0.2243
| 25> C 3.2253 -1.5741 2.1553
| 26> S 1.5846 -1.9054 1.9838
| 27> C -3.4709 -1.2202 -0.2759
| 28> O -2.9027 -2.1828 -0.8584
| 29> N -4.4833 -1.4624 0.6225
| 30> C -4.9123 -2.8489 0.8810
| 31> C -5.1525 -0.4176 1.2233
| 32> O -6.1312 -0.6577 1.9862
| 33> N -4.7709 0.8820 0.9969
| 34> C -5.4795 2.0068 1.6279
| 35> H -1.2020 3.9117 -1.9570
| 36> H -0.0078 2.5624 -1.9596
| 37> H -1.2369 2.6938 -3.2862
| 38> H -0.9760 0.2398 -3.2348
| 39> H -1.5393 -1.2471 -2.4936
| 40> H -0.5920 -1.4521 0.1382
| 41> H 5.9604 -1.5663 2.3885
| 42> H 8.2213 -0.7357 1.9972
| 43> H 4.5077 0.8991 -0.8534
| 44> H 3.8200 -1.8481 3.0147
| 45> H -4.0602 -3.5574 0.8021
| 46> H -5.3131 -2.9630 1.9108
| 47> H -5.6964 -3.1383 0.1501
| 48> H -6.2093 2.4370 0.9101
| 49> H -6.0190 1.6929 2.5463
| 50> H -4.7624 2.7955 1.9398
| 51> *
| 52>
| 53>                          ****END OF INPUT****

CARTESIAN COORDINATES (ANGSTROEM)
---------------------------------
  C     -1.054500    2.838900   -2.201300
  C     -2.000700    1.991200   -1.410500
  S     -3.155400    2.614500   -0.356600
  C     -3.760600    1.117200    0.114000
  C     -3.084700    0.102900   -0.543000
  C     -2.076800    0.588700   -1.423400
  C     -1.128900   -0.251500   -2.249800
  C      0.194600   -0.402000   -1.556800
  O      1.234100    0.038300   -2.118700
  N      0.275700   -1.047800   -0.276100
  C      1.483100   -1.152400    0.488500
  N      2.671900   -0.641400    0.104000
  C      3.652500   -0.872400    1.021700
  C      5.042100   -0.389900    0.805200
  C      6.112400   -0.842200    1.601000
  C      7.410300   -0.375900    1.376500
  C      7.665100    0.544500    0.356300
  Cl     9.312700    1.106100    0.106600
  C      6.609700    1.000100   -0.448800
  Cl     6.886600    2.156200   -1.744800
  C      5.309500    0.532600   -0.224300
  C      3.225300   -1.574100    2.155300
  S      1.584600   -1.905400    1.983800
  C     -3.470900   -1.220200   -0.275900
  O     -2.902700   -2.182800   -0.858400
  N     -4.483300   -1.462400    0.622500
  C     -4.912300   -2.848900    0.881000
  C     -5.152500   -0.417600    1.223300
  O     -6.131200   -0.657700    1.986200
  N     -4.770900    0.882000    0.996900
  C     -5.479500    2.006800    1.627900
  H     -1.202000    3.911700   -1.957000
  H     -0.007800    2.562400   -1.959600
  H     -1.236900    2.693800   -3.286200
  H     -0.976000    0.239800   -3.234800
  H     -1.539300   -1.247100   -2.493600
  H     -0.592000   -1.452100    0.138200
  H      5.960400   -1.566300    2.388500
  H      8.221300   -0.735700    1.997200
  H      4.507700    0.899100   -0.853400
  H      3.820000   -1.848100    3.014700
  H     -4.060200   -3.557400    0.802100
  H     -5.313100   -2.963000    1.910800
  H     -5.696400   -3.138300    0.150100
  H     -6.209300    2.437000    0.910100
  H     -6.019000    1.692900    2.546300
  H     -4.762400    2.795500    1.939800

 Total Charge           Charge          ....    0
 Multiplicity           Mult            ....    1
 Number of Electrons    NEL             ....  254
 Basis Dimension        Dim             ....  482

ORBITAL ENERGIES
----------------

  NO   OCC          E(Eh)            E(eV)
   0   2.0000    -101.526758     -2762.6835
   1   2.0000    -101.524238     -2762.6150
   2   2.0000     -88.920084     -2419.6385
   3   2.0000     -88.908650     -2419.3274
   4   2.0000     -19.124337      -520.3997
   5   2.0000     -19.122428      -520.3477
   6   2.0000     -19.117390      -520.2106
   7   2.0000     -14.422151      -392.4467
   8   2.0000     -14.407743      -392.0546
   9   2.0000     -14.389670      -391.5628
  10   2.0000     -14.325616      -389.8198
  11   2.0000     -10.338901      -281.3358
  12   2.0000     -10.304863      -280.4096
  13   2.0000     -10.302227      -280.3378
  14   2.0000     -10.290697      -280.0241
  15   2.0000     -10.278945      -279.7043
  16   2.0000     -10.252034      -278.9720
  17   2.0000     -10.251458      -278.9564
  18   2.0000     -10.248350      -278.8718
  19   2.0000     -10.231212      -278.4054
  20   2.0000     -10.228579      -278.3338
  21   2.0000     -10.228267      -278.3253
  22   2.0000     -10.216981      -278.0182
  23   2.0000     -10.211280      -277.8630
  24   2.0000     -10.209182      -277.8060
  25   2.0000     -10.208565      -277.7892
  26   2.0000     -10.201691      -277.6021
  27   2.0000     -10.201266      -277.5906
  28   2.0000     -10.201065      -277.5851
  29   2.0000     -10.197682      -277.4930
  30   2.0000     -10.194895      -277.4172
  31   2.0000      -9.458320      -257.3740
  32   2.0000      -9.455779      -257.3048
  33   2.0000      -7.997347      -217.6189
  34   2.0000      -7.986343      -217.3195
  35   2.0000      -7.221556      -196.5085
  36   2.0000      -7.219057      -196.4405
  37   2.0000      -7.211940      -196.2469
  38   2.0000      -7.211436      -196.2331
  39   2.0000      -7.209389      -196.1774
  40   2.0000      -7.208871      -196.1633
  41   2.0000      -5.960520      -162.1940
  42   2.0000      -5.956382      -162.0814
  43   2.0000      -5.954074      -162.0186
  44   2.0000      -5.949423      -161.8920
  45   2.0000      -5.945325      -161.7805
  46   2.0000      -5.943149      -161.7213
  47   2.0000      -1.080814       -29.4104
  48   2.0000      -1.034343       -28.1459
  49   2.0000      -1.020396       -27.7664
  50   2.0000      -0.991990       -26.9934
  51   2.0000      -0.975134       -26.5347
  52   2.0000      -0.950919       -25.8758
  53   2.0000      -0.915613       -24.9151
  54   2.0000      -0.912495       -24.8302
  55   2.0000      -0.902591       -24.5607
  56   2.0000      -0.846808       -23.0428
  57   2.0000      -0.837000       -22.7759
  58   2.0000      -0.812965       -22.1219
  59   2.0000      -0.809222       -22.0201
  60   2.0000      -0.801568       -21.8118
  61   2.0000      -0.766944       -20.8696
  62   2.0000      -0.760036       -20.6816
  63   2.0000      -0.742016       -20.1913
  64   2.0000      -0.737959       -20.0809
  65   2.0000      -0.719437       -19.5769
  66   2.0000      -0.711596       -19.3635
  67   2.0000      -0.699314       -19.0293
  68   2.0000      -0.652097       -17.7445
  69   2.0000      -0.640185       -17.4203
  70   2.0000      -0.626955       -17.0603
  71   2.0000      -0.622728       -16.9453
  72   2.0000      -0.605219       -16.4689
  73   2.0000      -0.585615       -15.9354
  74   2.0000      -0.583121       -15.8675
  75   2.0000      -0.566943       -15.4273
  76   2.0000      -0.545286       -14.8380
  77   2.0000      -0.528358       -14.3774
  78   2.0000      -0.522471       -14.2172
  79   2.0000      -0.518035       -14.0964
  80   2.0000      -0.504206       -13.7202
  81   2.0000      -0.501430       -13.6446
  82   2.0000      -0.482480       -13.1290
  83   2.0000      -0.479042       -13.0354
  84   2.0000      -0.473755       -12.8915
  85   2.0000      -0.473514       -12.8850
  86   2.0000      -0.464712       -12.6455
  87   2.0000      -0.455275       -12.3887
  88   2.0000      -0.451771       -12.2933
  89   2.0000      -0.443208       -12.0603
  90   2.0000      -0.440142       -11.9769
  91   2.0000      -0.435251       -11.8438
  92   2.0000      -0.430865       -11.7244
  93   2.0000      -0.427144       -11.6232
  94   2.0000      -0.425456       -11.5773
  95   2.0000      -0.421129       -11.4595
  96   2.0000      -0.420427       -11.4404
  97   2.0000      -0.413833       -11.2610
  98   2.0000      -0.409586       -11.1454
  99   2.0000      -0.406655       -11.0657
 100   2.0000      -0.400277       -10.8921
 101   2.0000      -0.398141       -10.8340
 102   2.0000      -0.394432       -10.7330
 103   2.0000      -0.390331       -10.6214
 104   2.0000      -0.386037       -10.5046
 105   2.0000      -0.380614       -10.3570
 106   2.0000      -0.374414       -10.1883
 107   2.0000      -0.367939       -10.0121
 108   2.0000      -0.360616        -9.8128
 109   2.0000      -0.354071        -9.6348
 110   2.0000      -0.337184        -9.1753
 111   2.0000      -0.334487        -9.1019
 112   2.0000      -0.319055        -8.6819
 113   2.0000      -0.317527        -8.6403
 114   2.0000      -0.303152        -8.2492
 115   2.0000      -0.297578        -8.0975
 116   2.0000      -0.289962        -7.8903
 117   2.0000      -0.286312        -7.7909
 118   2.0000      -0.282529        -7.6880
 119   2.0000      -0.278067        -7.5666
 120   2.0000      -0.273496        -7.4422
 121   2.0000      -0.261594        -7.1183
 122   2.0000      -0.250896        -6.8272
 123   2.0000      -0.245912        -6.6916
 124   2.0000      -0.236284        -6.4296
 125   2.0000      -0.219682        -5.9778
 126   2.0000      -0.211181        -5.7465
 127   0.0000      -0.043381        -1.1805
 128   0.0000      -0.041203        -1.1212
 129   0.0000      -0.027816        -0.7569
 130   0.0000      -0.020632        -0.5614
 131   0.0000      -0.012399        -0.3374

MULLIKEN ATOMIC CHARGES
-----------------------
   0 C :   -0.502639
   1 C :   -0.170769
   2 S :    0.272300
   3 C :    0.030541
   4 C :    0.031631
   5 C :    0.100047
   6 C :   -0.428351
   7 C :    0.568059
   8 O :   -0.434494
   9 N :   -0.660576
  10 C :    0.255483
  11 N :   -0.378232
  12 C :    0.222436
  13 C :    0.120508
  14 C :   -0.167247
  15 C :   -0.131273
  16 C :   -0.073361
  17 Cl:    0.004999
  18 C :   -0.077232
  19 Cl:    0.010978
  20 C :   -0.167509
  21 C :   -0.397647
  22 S :    0.252672
  23 C :    0.506130
  24 O :   -0.513417
  25 N :   -0.474625
  26 C :   -0.315448
  27 C :    0.677296
  28 O :   -0.503717
  29 N :   -0.454180
  30 C :   -0.342032
  31 H :    0.160649
  32 H :    0.210155
  33 H :    0.180151
  34 H :    0.181218
  35 H :    0.215612
  36 H :    0.357183
  37 H :    0.134315
  38 H :    0.158009
  39 H :    0.199197
  40 H :    0.181398
  41 H :    0.192812
  42 H :    0.196606
  43 H :    0.182046
  44 H :    0.187177
  45 H :    0.219933
  46 H :    0.183205
Sum of atomic charges:    0.0000000

LOEWDIN ATOMIC CHARGES
----------------------
   0 C :   -0.354888
   1 C :   -0.199709
   2 S :    0.406897
   3 C :   -0.120883
   4 C :   -0.116202
   5 C :   -0.031270
   6 C :   -0.245694
   7 C :    0.159354
   8 O :   -0.250093
   9 N :   -0.206355
  10 C :   -0.077937
  11 N :   -0.154844
  12 C :   -0.002984
  13 C :   -0.011897
  14 C :   -0.121900
  15 C :   -0.128390
  16 C :   -0.096446
  17 Cl:    0.049914
  18 C :   -0.092743
  19 Cl:    0.053715
  20 C :   -0.111603
  21 C :   -0.348356
  22 S :    0.390312
  23 C :    0.108324
  24 O :   -0.310109
  25 N :   -0.025769
  26 C :   -0.259587
  27 C :    0.140330
  28 O :   -0.314097
  29 N :   -0.022521
  30 C :   -0.263788
  31 H :    0.140245
  32 H :    0.161646
  33 H :    0.147146
  34 H :    0.155126
  35 H :    0.170791
  36 H :    0.270705
  37 H :    0.135993
  38 H :    0.148470
  39 H :    0.169086
  40 H :    0.159827
  41 H :    0.151442
  42 H :    0.153315
  43 H :    0.142763
  44 H :    0.142511
  45 H :    0.166884
  46 H :    0.143271

  Mayer bond orders larger than 0.100000
B(  0-C ,  1-C ) :   1.0029 B(  0-C , 31-H ) :   0.9378 B(  0-C , 32-H ) :   0.9142
B(  0-C , 33-H ) :   0.9293 B(  1-C ,  2-S ) :   1.0661 B(  1-C ,  5-C ) :   1.5729
B(  2-S ,  3-C ) :   1.1460 B(  3-C ,  4-C ) :   1.3560 B(  3-C , 29-N ) :   0.9856
B(  4-C ,  5-C ) :   1.2706 B(  4-C , 23-C ) :   1.0914 B(  5-C ,  6-C ) :   0.9907
B(  6-C ,  7-C ) :   0.9644 B(  6-C , 34-H ) :   0.9117 B(  6-C , 35-H ) :   0.8814
B(  7-C ,  8-O ) :   1.8706 B(  7-C ,  9-N ) :   0.9941 B(  9-N , 10-C ) :   0.9615
B(  9-N , 36-H ) :   0.7924 B( 10-C , 11-N ) :   1.5089 B( 10-C , 21-C ) :   0.1060
B( 10-C , 22-S ) :   1.1387 B( 11-N , 12-C ) :   1.2653 B( 12-C , 13-C ) :   1.0554
B( 12-C , 21-C ) :   1.5115 B( 13-C , 14-C ) :   1.3951 B( 13-C , 20-C ) :   1.3978
B( 14-C , 15-C ) :   1.4443 B( 14-C , 37-H ) :   0.9191 B( 15-C , 16-C ) :   1.4037
B( 15-C , 38-H ) :   0.9216 B( 16-C , 17-Cl) :   1.0448 B( 16-C , 18-C ) :   1.3710
B( 18-C , 19-Cl) :   1.0493 B( 18-C , 20-C ) :   1.3769 B( 20-C , 39-H ) :   0.8980
B( 21-C , 22-S ) :   1.1149 B( 21-C , 40-H ) :   0.9021 B( 23-C , 24-O ) :   1.7192
B( 23-C , 25-N ) :   0.9913 B( 25-N , 26-C ) :   0.9161 B( 25-N , 27-C ) :   1.0374
B( 26-C , 41-H ) :   0.9247 B( 26-C , 42-H ) :   0.9254 B( 26-C , 43-H ) :   0.9397
B( 27-C , 28-O ) :   1.7900 B( 27-C , 29-N ) :   1.0451 B( 29-N , 30-C ) :   0.9277
B( 30-C , 44-H ) :   0.9315 B( 30-C , 45-H ) :   0.9173 B( 30-C , 46-H ) :   0.9235

FINAL SINGLE POINT ENERGY     -2932.241695386183

DIPOLE MOMENT
-------------

Method             : SCF
Type of density    : Electron Density
Multiplicity       :   1
Irrep              :   0
Energy             : -2932.2416953861825277 Eh
Relativity type    :
Basis              : AO
                                X                 Y                 Z
Electronic contribution:     45.544358207       5.811242088      -2.305999374
Nuclear contribution   :    -47.740037219      -5.442278958       3.626541786
                        -----------------------------------------
Total Dipole Moment    :     -2.195679012       0.368963130       1.320542413
                        -----------------------------------------
Magnitude (a.u.)       :      2.588623646
Magnitude (Debye)      :      6.579758405

Rotational constants in cm-1:             0.008314             0.001421             0.001311
Rotational constants in MHz :           249.261184            42.596642            39.313061

                             ****ORCA TERMINATED NORMALLY****
TOTAL RUN TIME: 0 days 0 hours 8 minutes 16 seconds 253 msec
