                         Program Version 6.0.0  -   RELEASE  -
|  1> ! B3LYP 6-31G* SP
|  2>
|  3> * xyz 0 1
|  4> C 4.8596 -3.5774 1.5774
|  5> C 4.8984 -2.2395 0.9108
|  6> O 5.9411 -1.4297 0.9584
|  7> C 5.6340 -0.3519 0.2719
|  8> C 4.3766 -0.4405 -0.2409
|  9> C 3.8754 -1.6703 0.1495
| 10> C 2.5083 -2.2411 -0.1155
| 11> C 1.4874 -1.6076 0.7784
| 12> O 1.6782 -1.5893 2.0251
| 13> N 0.2773 -1.0914 0.2003
| 14> C -0.7261 -0.5301 0.8154
| 15> S -0.8504 -0.2638 2.4791
| 16> C -2.3937 0.3903 2.3814
| 17> C -2.7794 0.3864 1.0420
| 18> C -4.1099 0.8549 0.6224
| 19> C -5.2325 0.0533 0.8463
| 20> C -6.4951 0.4891 0.4438
| 21> C -6.6703 1.7427 -0.1642
| 22> O -7.9938 2.0851 -0.5055
| 23> C -8.5553 3.3908 -0.6189
| 24> F -9.9264 3.2918 -0.4688
| 25> F -8.0630 4.2230 0.3738
| 26> F -8.2970 3.9195 -1.8706
| 27> C -5.5243 2.5520 -0.4044
| 28> Cl -5.5617 4.1058 -1.2329
| 29> C -4.2574 2.0920 -0.0126
| 30> N -1.8523 -0.1237 0.1707
| 31> C -2.0798 -0.2701 -1.2782
| 32> O -3.1796 -1.1189 -1.5349
| 33> P -2.7292 -2.7433 -1.2512
| 34> O -2.5454 -2.9776 0.2331
| 35> O -1.2940 -3.1152 -2.0694
| 36> O -3.9586 -3.7602 -1.8174
| 37> C 3.8556 0.6037 -0.9934
| 38> O 2.6968 0.5166 -1.4860
| 39> N 4.6326 1.7236 -1.1896
| 40> C 4.1270 2.8292 -2.0192
| 41> C 5.9189 1.7788 -0.6749
| 42> O 6.6377 2.7990 -0.8839
| 43> N 6.4272 0.7333 0.0637
| 44> C 7.7813 0.7976 0.6320
| 45> H 4.8321 -4.3773 0.8039
| 46> H 5.7635 -3.7156 2.2100
| 47> H 3.9549 -3.6520 2.2202
| 48> H 2.2399 -2.0809 -1.1823
| 49> H 2.5073 -3.3383 0.0600
| 50> H -2.9864 0.7451 3.2159
| 51> H -5.1283 -0.9144 1.3244
| 52> H -7.3543 -0.1464 0.6245
| 53> H -3.3824 2.7019 -0.2033
| 54> H -1.1636 -0.5984 -1.8173
| 55> H -2.3147 0.7297 -1.7011
| 56> H -1.1030 -4.0590 -1.8328
| 57> H -4.7982 -3.3424 -1.4968
| 58> H 3.0181 2.9079 -1.9602
| 59> H 4.4220 2.6635 -3.0753
| 60> H 4.5307 3.8055 -1.6736
| 61> H 8.5146 1.0688 -0.1598
| 62> H 8.0973 -0.1785 1.0581
| 63> H 7.8122 1.5643 1.4360
| 64> *
| 65>
| 66>                          ****END OF INPUT****

CARTESIAN COORDINATES (ANGSTROEM)
---------------------------------
  C      4.859600   -3.577400    1.577400
  C      4.898400   -2.239500    0.910800
  O      5.941100   -1.429700    0.958400
  C      5.634000   -0.351900    0.271900
  C      4.376600   -0.440500   -0.240900
  C      3.875400   -1.670300    0.149500
  C      2.508300   -2.241100   -0.115500
  C      1.487400   -1.607600    0.778400
  O      1.678200   -1.589300    2.025100
  N      0.277300   -1.091400    0.200300
  C     -0.726100   -0.530100    0.815400
  S     -0.850400   -0.263800    2.479100
  C     -2.393700    0.390300    2.381400
  C     -2.779400    0.386400    1.042000
  C     -4.109900    0.854900    0.622400
  C     -5.232500    0.053300    0.846300
  C     -6.495100    0.489100    0.443800
  C     -6.670300    1.742700   -0.164200
  O     -7.993800    2.085100   -0.505500
  C     -8.555300    3.390800   -0.618900
  F     -9.926400    3.291800   -0.468800
  F     -8.063000    4.223000    0.373800
  F     -8.297000    3.919500   -1.870600
  C     -5.524300    2.552000   -0.404400
  Cl    -5.561700    4.105800   -1.232900
  C     -4.257400    2.092000   -0.012600
  N     -1.852300   -0.123700    0.170700
  C     -2.079800   -0.270100   -1.278200
  O     -3.179600   -1.118900   -1.534900
  P     -2.729200   -2.743300   -1.251200
  O     -2.545400   -2.977600    0.233100
  O     -1.294000   -3.115200   -2.069400
  O     -3.958600   -3.760200   -1.817400
  C      3.855600    0.603700   -0.993400
  O      2.696800    0.516600   -1.486000
  N      4.632600    1.723600   -1.189600
  C      4.127000    2.829200   -2.019200
  C      5.918900    1.778800   -0.674900
  O      6.637700    2.799000   -0.883900
  N      6.427200    0.733300    0.063700
  C      7.781300    0.797600    0.632000
  H      4.832100   -4.377300    0.803900
  H      5.763500   -3.715600    2.210000
  H      3.954900   -3.652000    2.220200
  H      2.239900   -2.080900   -1.182300
  H      2.507300   -3.338300    0.060000
  H     -2.986400    0.745100    3.215900
  H     -5.128300   -0.914400    1.324400
  H     -7.354300   -0.146400    0.624500
  H     -3.382400    2.701900   -0.203300
  H     -1.163600   -0.598400   -1.817300
  H     -2.314700    0.729700   -1.701100
  H     -1.103000   -4.059000   -1.832800
  H     -4.798200   -3.342400   -1.496800
  H      3.018100    2.907900   -1.960200
  H      4.422000    2.663500   -3.075300
  H      4.530700    3.805500   -1.673600
  H      8.514600    1.068800   -0.159800
  H      8.097300   -0.178500    1.058100
  H      7.812200    1.564300    1.436000

 Total Charge           Charge          ....    0
 Multiplicity           Mult            ....    1
 Number of Electrons    NEL             ....  326
 Basis Dimension        Dim             ....  624

ORBITAL ENERGIES
----------------

  NO   OCC          E(Eh)            E(eV)
   0   2.0000    -101.542213     -2763.1041
   1   2.0000     -88.887209     -2418.7439
   2   2.0000     -77.264737     -2102.4804
   3   2.0000     -24.742311      -673.2725
   4   2.0000     -24.741086      -673.2392
   5   2.0000     -24.737105      -673.1308
   6   2.0000     -19.237187      -523.4705
   7   2.0000     -19.225166      -523.1434
   8   2.0000     -19.217540      -522.9358
   9   2.0000     -19.208201      -522.6817
  10   2.0000     -19.205724      -522.6143
  11   2.0000     -19.108193      -519.9604
  12   2.0000     -19.105123      -519.8768
  13   2.0000     -19.100443      -519.7495
  14   2.0000     -19.094586      -519.5901
  15   2.0000     -14.406494      -392.0206
  16   2.0000     -14.403827      -391.9481
  17   2.0000     -14.385921      -391.4608
  18   2.0000     -14.293100      -388.9350
  19   2.0000     -10.508820      -285.9595
  20   2.0000     -10.321390      -280.8593
  21   2.0000     -10.305973      -280.4398
  22   2.0000     -10.296283      -280.1761
  23   2.0000     -10.285141      -279.8729
  24   2.0000     -10.283754      -279.8352
  25   2.0000     -10.276095      -279.6268
  26   2.0000     -10.274281      -279.5774
  27   2.0000     -10.270352      -279.4705
  28   2.0000     -10.246436      -278.8197
  29   2.0000     -10.234513      -278.4953
  30   2.0000     -10.232858      -278.4502
  31   2.0000     -10.223978      -278.2086
  32   2.0000     -10.220614      -278.1170
  33   2.0000     -10.218596      -278.0621
  34   2.0000     -10.214310      -277.9455
  35   2.0000     -10.212645      -277.9002
  36   2.0000     -10.211916      -277.8804
  37   2.0000     -10.187624      -277.2194
  38   2.0000     -10.181656      -277.0570
  39   2.0000     -10.181459      -277.0516
  40   2.0000     -10.173194      -276.8267
  41   2.0000      -9.474106      -257.8035
  42   2.0000      -7.964913      -216.7363
  43   2.0000      -7.237540      -196.9435
  44   2.0000      -7.227585      -196.6726
  45   2.0000      -7.227030      -196.6575
  46   2.0000      -6.717068      -182.7807
  47   2.0000      -5.928313      -161.3176
  48   2.0000      -5.923885      -161.1971
  49   2.0000      -5.921100      -161.1213
  50   2.0000      -4.880928      -132.8168
  51   2.0000      -4.880659      -132.8095
  52   2.0000      -4.877916      -132.7348
  53   2.0000      -1.304981       -35.5103
  54   2.0000      -1.226233       -33.3675
  55   2.0000      -1.223909       -33.3043
  56   2.0000      -1.165975       -31.7278
  57   2.0000      -1.103830       -30.0367
  58   2.0000      -1.093335       -29.7512
  59   2.0000      -1.064043       -28.9541
  60   2.0000      -1.057185       -28.7675
  61   2.0000      -1.042778       -28.3754
  62   2.0000      -1.020959       -27.7817
  63   2.0000      -1.006043       -27.3758
  64   2.0000      -0.993333       -27.0300
  65   2.0000      -0.965290       -26.2669
  66   2.0000      -0.952135       -25.9089
  67   2.0000      -0.927386       -25.2355
  68   2.0000      -0.908126       -24.7114
  69   2.0000      -0.877864       -23.8879
  70   2.0000      -0.858539       -23.3620
  71   2.0000      -0.844007       -22.9666
  72   2.0000      -0.836253       -22.7556
  73   2.0000      -0.803366       -21.8607
  74   2.0000      -0.791991       -21.5512
  75   2.0000      -0.759626       -20.6705
  76   2.0000      -0.753536       -20.5048
  77   2.0000      -0.742763       -20.2116
  78   2.0000      -0.730534       -19.8788
  79   2.0000      -0.725283       -19.7359
  80   2.0000      -0.713722       -19.4214
  81   2.0000      -0.699924       -19.0459
  82   2.0000      -0.694101       -18.8875
  83   2.0000      -0.652074       -17.7438
  84   2.0000      -0.645496       -17.5648
  85   2.0000      -0.643870       -17.5206
  86   2.0000      -0.641471       -17.4553
  87   2.0000      -0.629570       -17.1315
  88   2.0000      -0.616442       -16.7742
  89   2.0000      -0.601047       -16.3553
  90   2.0000      -0.598204       -16.2780
  91   2.0000      -0.597242       -16.2518
  92   2.0000      -0.593772       -16.1573
  93   2.0000      -0.585620       -15.9355
  94   2.0000      -0.578751       -15.7486
  95   2.0000      -0.564218       -15.3532
  96   2.0000      -0.555039       -15.1034
  97   2.0000      -0.537339       -14.6217
  98   2.0000      -0.525181       -14.2909
  99   2.0000      -0.516681       -14.0596
 100   2.0000      -0.516093       -14.0436
 101   2.0000      -0.514649       -14.0043
 102   2.0000      -0.499024       -13.5791
 103   2.0000      -0.493150       -13.4193
 104   2.0000      -0.482707       -13.1351
 105   2.0000      -0.477255       -12.9868
 106   2.0000      -0.474495       -12.9117
 107   2.0000      -0.472816       -12.8660
 108   2.0000      -0.468947       -12.7607
 109   2.0000      -0.462763       -12.5924
 110   2.0000      -0.462239       -12.5782
 111   2.0000      -0.460334       -12.5263
 112   2.0000      -0.458075       -12.4649
 113   2.0000      -0.455075       -12.3832
 114   2.0000      -0.451616       -12.2891
 115   2.0000      -0.450524       -12.2594
 116   2.0000      -0.449887       -12.2420
 117   2.0000      -0.445483       -12.1222
 118   2.0000      -0.438227       -11.9248
 119   2.0000      -0.435400       -11.8478
 120   2.0000      -0.434389       -11.8203
 121   2.0000      -0.427373       -11.6294
 122   2.0000      -0.423567       -11.5258
 123   2.0000      -0.419683       -11.4202
 124   2.0000      -0.417868       -11.3708
 125   2.0000      -0.416778       -11.3411
 126   2.0000      -0.411884       -11.2079
 127   2.0000      -0.409506       -11.1432
 128   2.0000      -0.404745       -11.0137
 129   2.0000      -0.403935       -10.9916
 130   2.0000      -0.401978       -10.9384
 131   2.0000      -0.397815       -10.8251
 132   2.0000      -0.391405       -10.6507
 133   2.0000      -0.389973       -10.6117
 134   2.0000      -0.389617       -10.6020
 135   2.0000      -0.384692       -10.4680
 136   2.0000      -0.383593       -10.4381
 137   2.0000      -0.374063       -10.1788
 138   2.0000      -0.370486       -10.0814
 139   2.0000      -0.368596       -10.0300
 140   2.0000      -0.367795       -10.0082
 141   2.0000      -0.364698        -9.9239
 142   2.0000      -0.355376        -9.6703
 143   2.0000      -0.350634        -9.5412
 144   2.0000      -0.348678        -9.4880
 145   2.0000      -0.341081        -9.2813
 146   2.0000      -0.335810        -9.1379
 147   2.0000      -0.321178        -8.7397
 148   2.0000      -0.315396        -8.5824
 149   2.0000      -0.306796        -8.3483
 150   2.0000      -0.290936        -7.9168
 151   2.0000      -0.286743        -7.8027
 152   2.0000      -0.282276        -7.6811
 153   2.0000      -0.274300        -7.4641
 154   2.0000      -0.271375        -7.3845
 155   2.0000      -0.266314        -7.2468
 156   2.0000      -0.259936        -7.0732
 157   2.0000      -0.257466        -7.0060
 158   2.0000      -0.254244        -6.9183
 159   2.0000      -0.235261        -6.4018
 160   2.0000      -0.215442        -5.8625
 161   2.0000      -0.196712        -5.3528
 162   2.0000      -0.191083        -5.1996
 163   0.0000      -0.038861        -1.0575
 164   0.0000      -0.036544        -0.9944
 165   0.0000      -0.028773        -0.7830
 166   0.0000      -0.020537        -0.5588
 167   0.0000      -0.006441        -0.1753

MULLIKEN ATOMIC CHARGES
-----------------------
   0 C :   -0.538319
   1 C :    0.259372
   2 O :   -0.410368
   3 C :    0.480128
   4 C :    0.035200
   5 C :    0.041175
   6 C :   -0.411035
   7 C :    0.507463
   8 O :   -0.474099
   9 N :   -0.506906
  10 C :    0.299588
  11 S :    0.312758
  12 C :   -0.378232
  13 C :    0.220608
  14 C :    0.066017
  15 C :   -0.139330
  16 C :   -0.170132
  17 C :    0.353421
  18 O :   -0.544453
  19 C :    1.081136
  20 F :   -0.279812
  21 F :   -0.285547
  22 F :   -0.276242
  23 C :   -0.125094
  24 Cl:    0.015765
  25 C :   -0.157560
  26 N :   -0.373955
  27 C :    0.006746
  28 O :   -0.529169
  29 P :    1.256268
  30 O :   -0.565598
  31 O :   -0.665742
  32 O :   -0.652104
  33 C :    0.499967
  34 O :   -0.506220
  35 N :   -0.483235
  36 C :   -0.312209
  37 C :    0.674628
  38 O :   -0.512595
  39 N :   -0.502405
  40 C :   -0.325153
  41 H :    0.165200
  42 H :    0.160260
  43 H :    0.200636
  44 H :    0.185347
  45 H :    0.156054
  46 H :    0.189166
  47 H :    0.168084
  48 H :    0.163276
  49 H :    0.169908
  50 H :    0.248890
  51 H :    0.188187
  52 H :    0.455183
  53 H :    0.446773
  54 H :    0.190997
  55 H :    0.173007
  56 H :    0.190611
  57 H :    0.193959
  58 H :    0.182178
  59 H :    0.187556
Sum of atomic charges:   -0.0000000

LOEWDIN ATOMIC CHARGES
----------------------
   0 C :   -0.363593
   1 C :    0.021223
   2 O :   -0.005791
   3 C :    0.089434
   4 C :   -0.107886
   5 C :   -0.032848
   6 C :   -0.235564
   7 C :    0.146089
   8 O :   -0.277805
   9 N :   -0.256035
  10 C :   -0.048782
  11 S :    0.413488
  12 C :   -0.334457
  13 C :    0.006425
  14 C :   -0.026523
  15 C :   -0.109705
  16 C :   -0.131673
  17 C :    0.084609
  18 O :   -0.160019
  19 C :    0.361136
  20 F :   -0.090556
  21 F :   -0.101689
  22 F :   -0.095562
  23 C :   -0.108051
  24 Cl:    0.053418
  25 C :   -0.123607
  26 N :    0.005198
  27 C :   -0.038583
  28 O :   -0.344518
  29 P :    1.084494
  30 O :   -0.572333
  31 O :   -0.511039
  32 O :   -0.514168
  33 C :    0.109790
  34 O :   -0.305089
  35 N :   -0.031111
  36 C :   -0.259743
  37 C :    0.143177
  38 O :   -0.320889
  39 N :   -0.024591
  40 C :   -0.258342
  41 H :    0.138965
  42 H :    0.140532
  43 H :    0.157559
  44 H :    0.155835
  45 H :    0.143869
  46 H :    0.165815
  47 H :    0.151894
  48 H :    0.152876
  49 H :    0.152902
  50 H :    0.174744
  51 H :    0.144611
  52 H :    0.360881
  53 H :    0.353996
  54 H :    0.150788
  55 H :    0.137432
  56 H :    0.149874
  57 H :    0.150074
  58 H :    0.145033
  59 H :    0.144389

  Mayer bond orders larger than 0.100000
B(  0-C ,  1-C ) :   1.0282 B(  0-C , 41-H ) :   0.9326 B(  0-C , 42-H ) :   0.9391
B(  0-C , 43-H ) :   0.9215 B(  1-C ,  2-O ) :   0.9805 B(  1-C ,  5-C ) :   1.5521
B(  2-O ,  3-C ) :   1.0712 B(  3-C ,  4-C ) :   1.3661 B(  3-C , 39-N ) :   0.9666
B(  4-C ,  5-C ) :   1.2965 B(  4-C , 33-C ) :   1.0851 B(  5-C ,  6-C ) :   1.0175
B(  6-C ,  7-C ) :   0.9438 B(  6-C , 44-H ) :   0.9056 B(  6-C , 45-H ) :   0.9140
B(  7-C ,  8-O ) :   1.7721 B(  7-C ,  9-N ) :   1.1418 B(  8-O , 11-S ) :   0.1197
B(  9-N , 10-C ) :   1.4734 B( 10-C , 11-S ) :   1.1197 B( 10-C , 26-N ) :   1.0989
B( 11-S , 12-C ) :   1.0337 B( 12-C , 13-C ) :   1.6690 B( 12-C , 46-H ) :   0.9129
B( 13-C , 14-C ) :   0.9802 B( 13-C , 26-N ) :   1.0793 B( 14-C , 15-C ) :   1.4282
B( 14-C , 25-C ) :   1.4251 B( 15-C , 16-C ) :   1.4224 B( 15-C , 47-H ) :   0.9155
B( 16-C , 17-C ) :   1.4081 B( 16-C , 48-H ) :   0.9150 B( 17-C , 18-O ) :   0.8419
B( 17-C , 23-C ) :   1.3310 B( 18-O , 19-C ) :   0.9724 B( 19-C , 20-F ) :   1.0054
B( 19-C , 21-F ) :   0.9724 B( 19-C , 22-F ) :   0.9842 B( 23-C , 24-Cl) :   1.0493
B( 23-C , 25-C ) :   1.3786 B( 25-C , 49-H ) :   0.9152 B( 26-N , 27-C ) :   0.9258
B( 27-C , 28-O ) :   0.9070 B( 27-C , 50-H ) :   0.8847 B( 27-C , 51-H ) :   0.9160
B( 28-O , 29-P ) :   0.9109 B( 29-P , 30-O ) :   1.8483 B( 29-P , 31-O ) :   0.9961
B( 29-P , 32-O ) :   1.0119 B( 31-O , 52-H ) :   0.7429 B( 32-O , 53-H ) :   0.7500
B( 33-C , 34-O ) :   1.7790 B( 33-C , 35-N ) :   0.9595 B( 35-N , 36-C ) :   0.9228
B( 35-N , 37-C ) :   1.0438 B( 36-C , 54-H ) :   0.9247 B( 36-C , 55-H ) :   0.9419
B( 36-C , 56-H ) :   0.9277 B( 37-C , 38-O ) :   1.7843 B( 37-C , 39-N ) :   1.0531
B( 39-N , 40-C ) :   0.9284 B( 40-C , 57-H ) :   0.9304 B( 40-C , 58-H ) :   0.9303
B( 40-C , 59-H ) :   0.9343

FINAL SINGLE POINT ENERGY     -3243.804757295171

DIPOLE MOMENT
-------------

Method             : SCF
Type of density    : Electron Density
Multiplicity       :   1
Irrep              :   0
Energy             : -3243.8047572951709299 Eh
Relativity type    :
Basis              : AO
                                X                 Y                 Z
Electronic contribution:    -74.054720406      26.262848859      -4.372357362
Nuclear contribution   :     73.719140760     -27.390211591       4.186173339
                        -----------------------------------------
Total Dipole Moment    :     -0.335579646      -1.127362732      -0.186184023
                        -----------------------------------------
Magnitude (a.u.)       :      1.190892489
Magnitude (Debye)      :      3.027008146

Rotational constants in cm-1:             0.004450             0.000977             0.000878
Rotational constants in MHz :           133.420452            29.302600            26.323895

                             ****ORCA TERMINATED NORMALLY****
TOTAL RUN TIME: 0 days 0 hours 8 minutes 13 seconds 688 msec
