                         Program Version 6.0.0  -   RELEASE  -
|  1> ! B3LYP 6-31G* SP
|  2>
|  3> * xyz 0 1
|  4> O 1.5203 -1.8646 -1.5062
|  5> C 1.2669 -1.0608 -0.5734
|  6> C 2.2904 -0.0747 -0.1706
|  7> C 1.9108 1.2143 0.2477
|  8> C 2.8717 2.1263 0.6897
|  9> C 4.2195 1.7615 0.7320
| 10> N 5.1502 2.6405 1.1959
| 11> C 6.4635 2.3114 1.2755
| 12> C 6.8935 1.0469 0.8665
| 13> C 5.9665 0.1269 0.3650
| 14> C 4.6136 0.4790 0.2941
| 15> C 3.6488 -0.4263 -0.1725
| 16> N -0.0042 -1.1341 0.0999
| 17> C -0.0868 -0.9579 1.5539
| 18> C -0.7881 -2.1589 2.1748
| 19> C -2.0802 -2.4723 1.4668
| 20> C -3.0664 -3.2017 2.1449
| 21> C -4.2486 -3.5676 1.4976
| 22> C -4.4472 -3.2298 0.1599
| 23> C -3.4679 -2.5211 -0.5319
| 24> C -2.2764 -2.1331 0.1083
| 25> C -1.2383 -1.3458 -0.6732
| 26> C -1.7736 -0.0061 -1.1333
| 27> C -2.5330 0.8089 -0.2796
| 28> C -2.9770 2.0573 -0.6959
| 29> C -2.6592 2.5320 -1.9764
| 30> C -3.1482 3.8948 -2.4031
| 31> F -4.5267 3.9448 -2.3093
| 32> F -2.6049 4.8546 -1.5724
| 33> F -2.7919 4.1814 -3.7083
| 34> C -1.8856 1.7270 -2.8292
| 35> C -1.4531 0.4693 -2.4162
| 36> H 0.8714 1.5108 0.2294
| 37> H 2.5609 3.1147 1.0134
| 38> H 7.1796 3.0278 1.6503
| 39> H 7.9344 0.7814 0.9421
| 40> H 6.3015 -0.8473 0.0421
| 41> H 3.9484 -1.4186 -0.4918
| 42> H -0.6465 -0.0289 1.7883
| 43> H 0.9246 -0.8715 2.0099
| 44> H -0.9780 -1.9497 3.2510
| 45> H -0.1202 -3.0468 2.1082
| 46> H -2.9174 -3.4952 3.1761
| 47> H -5.0081 -4.1238 2.0323
| 48> H -5.3623 -3.5192 -0.3420
| 49> H -3.6386 -2.2714 -1.5702
| 50> H -1.0018 -1.9679 -1.5635
| 51> H -2.7891 0.4737 0.7159
| 52> H -3.5718 2.6597 -0.0201
| 53> H -1.6029 2.0750 -3.8121
| 54> H -0.8426 -0.1248 -3.0804
| 55> *
| 56>
| 57>                          ****END OF INPUT****

CARTESIAN COORDINATES (ANGSTROEM)
---------------------------------
  O      1.520300   -1.864600   -1.506200
  C      1.266900   -1.060800   -0.573400
  C      2.290400   -0.074700   -0.170600
  C      1.910800    1.214300    0.247700
  C      2.871700    2.126300    0.689700
  C      4.219500    1.761500    0.732000
  N      5.150200    2.640500    1.195900
  C      6.463500    2.311400    1.275500
  C      6.893500    1.046900    0.866500
  C      5.966500    0.126900    0.365000
  C      4.613600    0.479000    0.294100
  C      3.648800   -0.426300   -0.172500
  N     -0.004200   -1.134100    0.099900
  C     -0.086800   -0.957900    1.553900
  C     -0.788100   -2.158900    2.174800
  C     -2.080200   -2.472300    1.466800
  C     -3.066400   -3.201700    2.144900
  C     -4.248600   -3.567600    1.497600
  C     -4.447200   -3.229800    0.159900
  C     -3.467900   -2.521100   -0.531900
  C     -2.276400   -2.133100    0.108300
  C     -1.238300   -1.345800   -0.673200
  C     -1.773600   -0.006100   -1.133300
  C     -2.533000    0.808900   -0.279600
  C     -2.977000    2.057300   -0.695900
  C     -2.659200    2.532000   -1.976400
  C     -3.148200    3.894800   -2.403100
  F     -4.526700    3.944800   -2.309300
  F     -2.604900    4.854600   -1.572400
  F     -2.791900    4.181400   -3.708300
  C     -1.885600    1.727000   -2.829200
  C     -1.453100    0.469300   -2.416200
  H      0.871400    1.510800    0.229400
  H      2.560900    3.114700    1.013400
  H      7.179600    3.027800    1.650300
  H      7.934400    0.781400    0.942100
  H      6.301500   -0.847300    0.042100
  H      3.948400   -1.418600   -0.491800
  H     -0.646500   -0.028900    1.788300
  H      0.924600   -0.871500    2.009900
  H     -0.978000   -1.949700    3.251000
  H     -0.120200   -3.046800    2.108200
  H     -2.917400   -3.495200    3.176100
  H     -5.008100   -4.123800    2.032300
  H     -5.362300   -3.519200   -0.342000
  H     -3.638600   -2.271400   -1.570200
  H     -1.001800   -1.967900   -1.563500
  H     -2.789100    0.473700    0.715900
  H     -3.571800    2.659700   -0.020100
  H     -1.602900    2.075000   -3.812100
  H     -0.842600   -0.124800   -3.080400

 Total Charge           Charge          ....    0
 Multiplicity           Mult            ....    1
 Number of Electrons    NEL             ....  224
 Basis Dimension        Dim             ....  486

ORBITAL ENERGIES
----------------

  NO   OCC          E(Eh)            E(eV)
   0   2.0000     -24.717398      -672.5946
   1   2.0000     -24.713318      -672.4836
   2   2.0000     -24.712785      -672.4691
   3   2.0000     -19.116526      -520.1871
   4   2.0000     -14.351913      -390.5354
   5   2.0000     -14.325951      -389.8290
   6   2.0000     -10.430474      -283.8276
   7   2.0000     -10.291175      -280.0371
   8   2.0000     -10.233895      -278.4784
   9   2.0000     -10.226399      -278.2745
  10   2.0000     -10.224387      -278.2197
  11   2.0000     -10.224074      -278.2112
  12   2.0000     -10.210122      -277.8315
  13   2.0000     -10.206721      -277.7390
  14   2.0000     -10.205825      -277.7146
  15   2.0000     -10.204169      -277.6695
  16   2.0000     -10.200864      -277.5796
  17   2.0000     -10.200336      -277.5653
  18   2.0000     -10.200158      -277.5604
  19   2.0000     -10.198997      -277.5288
  20   2.0000     -10.198400      -277.5126
  21   2.0000     -10.197296      -277.4825
  22   2.0000     -10.196296      -277.4553
  23   2.0000     -10.195244      -277.4267
  24   2.0000     -10.194325      -277.4017
  25   2.0000     -10.193302      -277.3738
  26   2.0000     -10.191896      -277.3356
  27   2.0000     -10.190659      -277.3019
  28   2.0000     -10.185456      -277.1603
  29   2.0000     -10.183763      -277.1143
  30   2.0000     -10.183342      -277.1028
  31   2.0000     -10.182923      -277.0914
  32   2.0000      -1.276356       -34.7314
  33   2.0000      -1.201902       -32.7054
  34   2.0000      -1.199725       -32.6462
  35   2.0000      -1.017732       -27.6939
  36   2.0000      -0.938502       -25.5379
  37   2.0000      -0.933107       -25.3911
  38   2.0000      -0.871213       -23.7069
  39   2.0000      -0.859190       -23.3797
  40   2.0000      -0.854439       -23.2505
  41   2.0000      -0.810630       -22.0584
  42   2.0000      -0.805754       -21.9257
  43   2.0000      -0.785082       -21.3632
  44   2.0000      -0.769471       -20.9384
  45   2.0000      -0.760565       -20.6960
  46   2.0000      -0.757634       -20.6163
  47   2.0000      -0.745253       -20.2794
  48   2.0000      -0.734474       -19.9861
  49   2.0000      -0.700913       -19.0728
  50   2.0000      -0.676683       -18.4135
  51   2.0000      -0.654411       -17.8074
  52   2.0000      -0.644581       -17.5399
  53   2.0000      -0.637729       -17.3535
  54   2.0000      -0.623106       -16.9556
  55   2.0000      -0.615272       -16.7424
  56   2.0000      -0.610384       -16.6094
  57   2.0000      -0.596760       -16.2387
  58   2.0000      -0.584962       -15.9176
  59   2.0000      -0.566333       -15.4107
  60   2.0000      -0.564270       -15.3546
  61   2.0000      -0.558976       -15.2105
  62   2.0000      -0.550318       -14.9749
  63   2.0000      -0.533142       -14.5075
  64   2.0000      -0.526893       -14.3375
  65   2.0000      -0.514656       -14.0045
  66   2.0000      -0.506528       -13.7833
  67   2.0000      -0.490977       -13.3602
  68   2.0000      -0.485943       -13.2232
  69   2.0000      -0.473192       -12.8762
  70   2.0000      -0.470658       -12.8072
  71   2.0000      -0.461247       -12.5512
  72   2.0000      -0.458336       -12.4720
  73   2.0000      -0.450941       -12.2707
  74   2.0000      -0.445984       -12.1358
  75   2.0000      -0.445627       -12.1261
  76   2.0000      -0.441941       -12.0258
  77   2.0000      -0.439985       -11.9726
  78   2.0000      -0.437247       -11.8981
  79   2.0000      -0.434022       -11.8103
  80   2.0000      -0.426815       -11.6142
  81   2.0000      -0.418562       -11.3897
  82   2.0000      -0.417133       -11.3508
  83   2.0000      -0.413726       -11.2580
  84   2.0000      -0.412924       -11.2362
  85   2.0000      -0.409815       -11.1516
  86   2.0000      -0.406082       -11.0500
  87   2.0000      -0.402050       -10.9403
  88   2.0000      -0.394199       -10.7267
  89   2.0000      -0.394052       -10.7227
  90   2.0000      -0.390237       -10.6189
  91   2.0000      -0.383684       -10.4406
  92   2.0000      -0.374200       -10.1825
  93   2.0000      -0.372070       -10.1245
  94   2.0000      -0.366004        -9.9595
  95   2.0000      -0.358274        -9.7491
  96   2.0000      -0.357650        -9.7322
  97   2.0000      -0.357171        -9.7191
  98   2.0000      -0.346443        -9.4272
  99   2.0000      -0.337670        -9.1885
 100   2.0000      -0.334595        -9.1048
 101   2.0000      -0.328656        -8.9432
 102   2.0000      -0.308298        -8.3892
 103   2.0000      -0.269560        -7.3351
 104   2.0000      -0.264311        -7.1923
 105   2.0000      -0.263632        -7.1738
 106   2.0000      -0.252655        -6.8751
 107   2.0000      -0.247658        -6.7391
 108   2.0000      -0.244868        -6.6632
 109   2.0000      -0.239936        -6.5290
 110   2.0000      -0.230891        -6.2829
 111   2.0000      -0.225614        -6.1393
 112   0.0000      -0.070359        -1.9146
 113   0.0000      -0.040034        -1.0894
 114   0.0000      -0.026779        -0.7287
 115   0.0000      -0.016268        -0.4427
 116   0.0000      -0.008299        -0.2258

MULLIKEN ATOMIC CHARGES
-----------------------
   0 O :   -0.462636
   1 C :    0.444030
   2 C :    0.079780
   3 C :   -0.170918
   4 C :   -0.147429
   5 C :    0.217088
   6 N :   -0.432541
   7 C :    0.020188
   8 C :   -0.151274
   9 C :   -0.146337
  10 C :    0.160589
  11 C :   -0.233542
  12 N :   -0.432929
  13 C :   -0.157499
  14 C :   -0.330201
  15 C :    0.106039
  16 C :   -0.185070
  17 C :   -0.121872
  18 C :   -0.130077
  19 C :   -0.167615
  20 C :    0.092715
  21 C :   -0.135593
  22 C :    0.192060
  23 C :   -0.179469
  24 C :   -0.159088
  25 C :   -0.017600
  26 C :    0.898054
  27 F :   -0.303358
  28 F :   -0.301848
  29 F :   -0.306593
  30 C :   -0.162052
  31 C :   -0.192672
  32 H :    0.154148
  33 H :    0.149287
  34 H :    0.152916
  35 H :    0.136172
  36 H :    0.148003
  37 H :    0.158092
  38 H :    0.138825
  39 H :    0.164348
  40 H :    0.144389
  41 H :    0.165061
  42 H :    0.123866
  43 H :    0.127822
  44 H :    0.130547
  45 H :    0.132251
  46 H :    0.186800
  47 H :    0.144380
  48 H :    0.151449
  49 H :    0.154056
  50 H :    0.155259
Sum of atomic charges:   -0.0000000

LOEWDIN ATOMIC CHARGES
----------------------
   0 O :   -0.266896
   1 C :    0.140258
   2 C :   -0.054918
   3 C :   -0.115363
   4 C :   -0.114632
   5 C :    0.020781
   6 N :   -0.130615
   7 C :   -0.059037
   8 C :   -0.150142
   9 C :   -0.087904
  10 C :   -0.030864
  11 C :   -0.085192
  12 N :   -0.108004
  13 C :   -0.152634
  14 C :   -0.227288
  15 C :   -0.028438
  16 C :   -0.131304
  17 C :   -0.127882
  18 C :   -0.129931
  19 C :   -0.124298
  20 C :   -0.023479
  21 C :   -0.042988
  22 C :   -0.010343
  23 C :   -0.129762
  24 C :   -0.109771
  25 C :   -0.071732
  26 C :    0.307769
  27 F :   -0.115223
  28 F :   -0.113856
  29 F :   -0.111909
  30 C :   -0.114124
  31 C :   -0.132121
  32 H :    0.144966
  33 H :    0.146941
  34 H :    0.137180
  35 H :    0.137089
  36 H :    0.141281
  37 H :    0.148079
  38 H :    0.112344
  39 H :    0.138705
  40 H :    0.130711
  41 H :    0.138448
  42 H :    0.130431
  43 H :    0.131595
  44 H :    0.132901
  45 H :    0.134611
  46 H :    0.155503
  47 H :    0.139633
  48 H :    0.142812
  49 H :    0.144741
  50 H :    0.143872

  Mayer bond orders larger than 0.100000
B(  0-O ,  1-C ) :   1.8232 B(  1-C ,  2-C ) :   0.9641 B(  1-C , 12-N ) :   1.0375
B(  2-C ,  3-C ) :   1.2965 B(  2-C , 11-C ) :   1.4539 B(  3-C ,  4-C ) :   1.5036
B(  3-C , 32-H ) :   0.9162 B(  4-C ,  5-C ) :   1.3049 B(  4-C , 11-C ) :   0.1017
B(  4-C , 33-H ) :   0.9169 B(  5-C ,  6-N ) :   1.2551 B(  5-C , 10-C ) :   1.2502
B(  6-N ,  7-C ) :   1.5120 B(  7-C ,  8-C ) :   1.3247 B(  7-C , 34-H ) :   0.9295
B(  8-C ,  9-C ) :   1.5125 B(  8-C , 35-H ) :   0.9248 B(  9-C , 10-C ) :   1.2995
B(  9-C , 36-H ) :   0.9234 B( 10-C , 11-C ) :   1.2499 B( 11-C , 37-H ) :   0.9137
B( 12-N , 13-C ) :   0.9481 B( 12-N , 21-C ) :   0.9315 B( 13-C , 14-C ) :   0.9843
B( 13-C , 38-H ) :   0.9188 B( 13-C , 39-H ) :   0.9284 B( 14-C , 15-C ) :   0.9907
B( 14-C , 40-H ) :   0.9279 B( 14-C , 41-H ) :   0.9196 B( 15-C , 16-C ) :   1.4041
B( 15-C , 20-C ) :   1.4442 B( 16-C , 17-C ) :   1.4513 B( 16-C , 42-H ) :   0.9258
B( 17-C , 18-C ) :   1.4377 B( 17-C , 43-H ) :   0.9296 B( 18-C , 19-C ) :   1.4509
B( 18-C , 44-H ) :   0.9295 B( 19-C , 20-C ) :   1.3937 B( 19-C , 45-H ) :   0.9232
B( 20-C , 21-C ) :   0.9585 B( 21-C , 22-C ) :   0.9313 B( 21-C , 46-H ) :   0.8974
B( 22-C , 23-C ) :   1.4064 B( 22-C , 31-C ) :   1.4231 B( 23-C , 24-C ) :   1.4411
B( 23-C , 47-H ) :   0.9147 B( 24-C , 25-C ) :   1.3985 B( 24-C , 48-H ) :   0.9211
B( 25-C , 26-C ) :   0.9809 B( 25-C , 30-C ) :   1.4230 B( 26-C , 27-F ) :   0.9650
B( 26-C , 28-F ) :   0.9693 B( 26-C , 29-F ) :   0.9449 B( 30-C , 31-C ) :   1.4126
B( 30-C , 49-H ) :   0.9189 B( 31-C , 50-H ) :   0.9193

FINAL SINGLE POINT ENERGY     -1485.614587643984

DIPOLE MOMENT
-------------

Method             : SCF
Type of density    : Electron Density
Multiplicity       :   1
Irrep              :   0
Energy             : -1485.6145876439838958 Eh
Relativity type    :
Basis              : AO
                                X                 Y                 Z
Electronic contribution:    -12.353840007      27.369469045     -18.505493723
Nuclear contribution   :     12.733345407     -28.298667808      19.662241120
                        -----------------------------------------
Total Dipole Moment    :      0.379505399      -0.929198763       1.156747397
                        -----------------------------------------
Magnitude (a.u.)       :      1.531502279
Magnitude (Debye)      :      3.892769429

Rotational constants in cm-1:             0.005008             0.002972             0.002062
Rotational constants in MHz :           150.142876            89.091254            61.819187

                             ****ORCA TERMINATED NORMALLY****
TOTAL RUN TIME: 0 days 0 hours 7 minutes 13 seconds 101 msec
