                         Program Version 6.0.0  -   RELEASE  -
|  1> ! B3LYP 6-31G* SP
|  2>
|  3> * xyz 0 1
|  4> O -0.0043 -2.0415 -1.5571
|  5> C 0.4745 -1.2528 -0.6961
|  6> N -0.3914 -0.6952 0.3091
|  7> C -1.8264 -1.0055 0.3510
|  8> C -2.4505 -0.6177 1.6771
|  9> C -1.9118 -1.1070 2.8784
| 10> C -2.5132 -0.7670 4.0917
| 11> C -3.6494 0.0428 4.1015
| 12> C -4.1728 0.4981 2.8903
| 13> N -3.5729 0.1576 1.7188
| 14> C -2.5649 -0.4159 -0.8416
| 15> N -3.4121 -1.2582 -1.4990
| 16> C -4.1425 -0.8789 -2.5763
| 17> C -4.0404 0.4182 -3.0605
| 18> C -3.1954 1.3204 -2.4203
| 19> C -2.4593 0.9411 -1.2798
| 20> C -1.5247 1.9652 -0.6575
| 21> F -1.9208 3.2545 -0.9715
| 22> F -1.5069 1.8727 0.7191
| 23> F -0.2477 1.7751 -1.1485
| 24> C 1.9263 -0.9391 -0.7310
| 25> C 2.8119 -1.8135 -1.3903
| 26> C 4.1818 -1.5407 -1.4419
| 27> C 4.6895 -0.3831 -0.8406
| 28> C 6.0575 -0.0828 -0.8783
| 29> C 6.5281 1.0844 -0.2732
| 30> C 5.6261 1.9408 0.3631
| 31> N 4.3008 1.6377 0.3931
| 32> C 3.8119 0.5070 -0.1856
| 33> C 2.4414 0.2291 -0.1351
| 34> H 0.0280 -0.1545 1.0974
| 35> H -1.9244 -2.1135 0.2944
| 36> H -1.0367 -1.7449 2.8736
| 37> H -2.1014 -1.1344 5.0227
| 38> H -4.1231 0.3099 5.0372
| 39> H -5.0578 1.1200 2.8806
| 40> H -4.7969 -1.5908 -3.0611
| 41> H -4.6093 0.7231 -3.9295
| 42> H -3.1189 2.3210 -2.8264
| 43> H 2.4455 -2.7182 -1.8595
| 44> H 4.8418 -2.2330 -1.9508
| 45> H 6.7573 -0.7456 -1.3733
| 46> H 7.5832 1.3245 -0.2979
| 47> H 5.9805 2.8480 0.8339
| 48> H 1.7895 0.9426 0.3497
| 49> *
| 50>
| 51>                          ****END OF INPUT****

CARTESIAN COORDINATES (ANGSTROEM)
---------------------------------
  O     -0.004300   -2.041500   -1.557100
  C      0.474500   -1.252800   -0.696100
  N     -0.391400   -0.695200    0.309100
  C     -1.826400   -1.005500    0.351000
  C     -2.450500   -0.617700    1.677100
  C     -1.911800   -1.107000    2.878400
  C     -2.513200   -0.767000    4.091700
  C     -3.649400    0.042800    4.101500
  C     -4.172800    0.498100    2.890300
  N     -3.572900    0.157600    1.718800
  C     -2.564900   -0.415900   -0.841600
  N     -3.412100   -1.258200   -1.499000
  C     -4.142500   -0.878900   -2.576300
  C     -4.040400    0.418200   -3.060500
  C     -3.195400    1.320400   -2.420300
  C     -2.459300    0.941100   -1.279800
  C     -1.524700    1.965200   -0.657500
  F     -1.920800    3.254500   -0.971500
  F     -1.506900    1.872700    0.719100
  F     -0.247700    1.775100   -1.148500
  C      1.926300   -0.939100   -0.731000
  C      2.811900   -1.813500   -1.390300
  C      4.181800   -1.540700   -1.441900
  C      4.689500   -0.383100   -0.840600
  C      6.057500   -0.082800   -0.878300
  C      6.528100    1.084400   -0.273200
  C      5.626100    1.940800    0.363100
  N      4.300800    1.637700    0.393100
  C      3.811900    0.507000   -0.185600
  C      2.441400    0.229100   -0.135100
  H      0.028000   -0.154500    1.097400
  H     -1.924400   -2.113500    0.294400
  H     -1.036700   -1.744900    2.873600
  H     -2.101400   -1.134400    5.022700
  H     -4.123100    0.309900    5.037200
  H     -5.057800    1.120000    2.880600
  H     -4.796900   -1.590800   -3.061100
  H     -4.609300    0.723100   -3.929500
  H     -3.118900    2.321000   -2.826400
  H      2.445500   -2.718200   -1.859500
  H      4.841800   -2.233000   -1.950800
  H      6.757300   -0.745600   -1.373300
  H      7.583200    1.324500   -0.297900
  H      5.980500    2.848000    0.833900
  H      1.789500    0.942600    0.349700

 Total Charge           Charge          ....    0
 Multiplicity           Mult            ....    1
 Number of Electrons    NEL             ....  210
 Basis Dimension        Dim             ....  450

ORBITAL ENERGIES
----------------

  NO   OCC          E(Eh)            E(eV)
   0   2.0000     -24.718091      -672.6134
   1   2.0000     -24.715172      -672.5340
   2   2.0000     -24.714004      -672.5022
   3   2.0000     -19.109103      -519.9851
   4   2.0000     -14.356637      -390.6639
   5   2.0000     -14.328508      -389.8985
   6   2.0000     -14.325874      -389.8268
   7   2.0000     -14.324332      -389.7849
   8   2.0000     -10.432772      -283.8901
   9   2.0000     -10.289668      -279.9961
  10   2.0000     -10.237836      -278.5857
  11   2.0000     -10.235855      -278.5318
  12   2.0000     -10.235479      -278.5215
  13   2.0000     -10.223370      -278.1920
  14   2.0000     -10.222113      -278.1578
  15   2.0000     -10.221320      -278.1363
  16   2.0000     -10.218890      -278.0701
  17   2.0000     -10.212990      -277.9096
  18   2.0000     -10.206816      -277.7416
  19   2.0000     -10.204797      -277.6866
  20   2.0000     -10.204037      -277.6660
  21   2.0000     -10.203577      -277.6535
  22   2.0000     -10.198175      -277.5064
  23   2.0000     -10.196371      -277.4574
  24   2.0000     -10.195384      -277.4305
  25   2.0000     -10.194252      -277.3997
  26   2.0000     -10.193758      -277.3863
  27   2.0000     -10.192258      -277.3454
  28   2.0000     -10.191768      -277.3321
  29   2.0000     -10.189962      -277.2830
  30   2.0000      -1.278480       -34.7892
  31   2.0000      -1.203566       -32.7507
  32   2.0000      -1.200388       -32.6642
  33   2.0000      -1.009613       -27.4730
  34   2.0000      -0.940114       -25.5818
  35   2.0000      -0.936001       -25.4699
  36   2.0000      -0.926420       -25.2092
  37   2.0000      -0.901284       -24.5252
  38   2.0000      -0.852652       -23.2018
  39   2.0000      -0.810549       -22.0562
  40   2.0000      -0.809758       -22.0346
  41   2.0000      -0.800231       -21.7754
  42   2.0000      -0.790613       -21.5137
  43   2.0000      -0.769675       -20.9439
  44   2.0000      -0.763393       -20.7730
  45   2.0000      -0.742325       -20.1997
  46   2.0000      -0.713152       -19.4059
  47   2.0000      -0.689312       -18.7571
  48   2.0000      -0.661690       -18.0055
  49   2.0000      -0.639313       -17.3966
  50   2.0000      -0.634160       -17.2564
  51   2.0000      -0.628166       -17.0933
  52   2.0000      -0.624239       -16.9864
  53   2.0000      -0.609614       -16.5884
  54   2.0000      -0.598458       -16.2849
  55   2.0000      -0.579656       -15.7732
  56   2.0000      -0.568770       -15.4770
  57   2.0000      -0.562860       -15.3162
  58   2.0000      -0.549463       -14.9517
  59   2.0000      -0.544510       -14.8169
  60   2.0000      -0.519550       -14.1377
  61   2.0000      -0.516956       -14.0671
  62   2.0000      -0.515367       -14.0238
  63   2.0000      -0.506601       -13.7853
  64   2.0000      -0.495655       -13.4875
  65   2.0000      -0.482503       -13.1296
  66   2.0000      -0.476927       -12.9778
  67   2.0000      -0.463598       -12.6151
  68   2.0000      -0.453916       -12.3517
  69   2.0000      -0.451795       -12.2940
  70   2.0000      -0.448605       -12.2071
  71   2.0000      -0.446369       -12.1463
  72   2.0000      -0.443565       -12.0700
  73   2.0000      -0.439488       -11.9591
  74   2.0000      -0.426823       -11.6145
  75   2.0000      -0.422760       -11.5039
  76   2.0000      -0.416759       -11.3406
  77   2.0000      -0.415678       -11.3112
  78   2.0000      -0.413501       -11.2519
  79   2.0000      -0.407876       -11.0989
  80   2.0000      -0.406102       -11.0506
  81   2.0000      -0.400801       -10.9063
  82   2.0000      -0.396970       -10.8021
  83   2.0000      -0.393313       -10.7026
  84   2.0000      -0.392554       -10.6819
  85   2.0000      -0.386807       -10.5256
  86   2.0000      -0.382323       -10.4035
  87   2.0000      -0.377300       -10.2669
  88   2.0000      -0.367263        -9.9937
  89   2.0000      -0.366354        -9.9690
  90   2.0000      -0.358665        -9.7598
  91   2.0000      -0.354201        -9.6383
  92   2.0000      -0.331948        -9.0328
  93   2.0000      -0.305277        -8.3070
  94   2.0000      -0.284103        -7.7308
  95   2.0000      -0.279878        -7.6159
  96   2.0000      -0.267761        -7.2861
  97   2.0000      -0.266153        -7.2424
  98   2.0000      -0.256256        -6.9731
  99   2.0000      -0.248551        -6.7634
 100   2.0000      -0.246957        -6.7200
 101   2.0000      -0.245226        -6.6729
 102   2.0000      -0.240706        -6.5499
 103   2.0000      -0.239559        -6.5187
 104   2.0000      -0.229304        -6.2397
 105   0.0000      -0.067415        -1.8345
 106   0.0000      -0.032430        -0.8825
 107   0.0000      -0.029283        -0.7968
 108   0.0000      -0.027358        -0.7445
 109   0.0000      -0.019033        -0.5179

MULLIKEN ATOMIC CHARGES
-----------------------
   0 O :   -0.476483
   1 C :    0.513860
   2 N :   -0.650205
   3 C :   -0.050119
   4 C :    0.226196
   5 C :   -0.164178
   6 C :   -0.098001
   7 C :   -0.135937
   8 C :    0.018160
   9 N :   -0.402713
  10 C :    0.285702
  11 N :   -0.410530
  12 C :    0.033890
  13 C :   -0.134743
  14 C :   -0.130191
  15 C :   -0.053626
  16 C :    0.919021
  17 F :   -0.306955
  18 F :   -0.302932
  19 F :   -0.293251
  20 C :    0.075321
  21 C :   -0.156817
  22 C :   -0.208684
  23 C :    0.171032
  24 C :   -0.152962
  25 C :   -0.145135
  26 C :    0.014699
  27 N :   -0.432703
  28 C :    0.208788
  29 C :   -0.197461
  30 H :    0.331691
  31 H :    0.201259
  32 H :    0.141243
  33 H :    0.144424
  34 H :    0.136158
  35 H :    0.152235
  36 H :    0.152986
  37 H :    0.137776
  38 H :    0.159366
  39 H :    0.162313
  40 H :    0.138217
  41 H :    0.143531
  42 H :    0.135770
  43 H :    0.151322
  44 H :    0.148665
Sum of atomic charges:   -0.0000000

LOEWDIN ATOMIC CHARGES
----------------------
   0 O :   -0.280520
   1 C :    0.145272
   2 N :   -0.239640
   3 C :   -0.054035
   4 C :    0.027834
   5 C :   -0.146630
   6 C :   -0.101817
   7 C :   -0.144305
   8 C :   -0.063343
   9 N :   -0.132637
  10 C :    0.070340
  11 N :   -0.120445
  12 C :   -0.054006
  13 C :   -0.145229
  14 C :   -0.090656
  15 C :   -0.071927
  16 C :    0.309521
  17 F :   -0.112521
  18 F :   -0.103846
  19 F :   -0.108803
  20 C :   -0.043199
  21 C :   -0.100275
  22 C :   -0.120350
  23 C :   -0.022695
  24 C :   -0.093521
  25 C :   -0.146442
  26 C :   -0.063653
  27 N :   -0.129499
  28 C :    0.013016
  29 C :   -0.107032
  30 H :    0.251132
  31 H :    0.163916
  32 H :    0.137574
  33 H :    0.138656
  34 H :    0.136354
  35 H :    0.136713
  36 H :    0.137255
  37 H :    0.137834
  38 H :    0.146297
  39 H :    0.151898
  40 H :    0.136237
  41 H :    0.138840
  42 H :    0.136559
  43 H :    0.136391
  44 H :    0.145390

  Mayer bond orders larger than 0.100000
B(  0-O ,  1-C ) :   1.8010 B(  1-C ,  2-N ) :   1.0283 B(  1-C , 20-C ) :   0.9859
B(  2-N ,  3-C ) :   0.9069 B(  2-N , 30-H ) :   0.8080 B(  3-C ,  4-C ) :   0.9533
B(  3-C , 10-C ) :   0.9481 B(  3-C , 31-H ) :   0.8933 B(  4-C ,  5-C ) :   1.3907
B(  4-C ,  9-N ) :   1.4029 B(  5-C ,  6-C ) :   1.4513 B(  5-C ,  8-C ) :   0.1005
B(  5-C , 32-H ) :   0.9192 B(  6-C ,  7-C ) :   1.4503 B(  6-C , 33-H ) :   0.9281
B(  7-C ,  8-C ) :   1.4222 B(  7-C , 34-H ) :   0.9257 B(  8-C ,  9-N ) :   1.4272
B(  8-C , 35-H ) :   0.9290 B( 10-C , 11-N ) :   1.3896 B( 10-C , 15-C ) :   1.3513
B( 11-N , 12-C ) :   1.4166 B( 12-C , 13-C ) :   1.4269 B( 12-C , 36-H ) :   0.9287
B( 13-C , 14-C ) :   1.4356 B( 13-C , 37-H ) :   0.9245 B( 14-C , 15-C ) :   1.4085
B( 14-C , 38-H ) :   0.9184 B( 15-C , 16-C ) :   0.9689 B( 16-C , 17-F ) :   0.9407
B( 16-C , 18-F ) :   0.9229 B( 16-C , 19-F ) :   0.9634 B( 20-C , 21-C ) :   1.3142
B( 20-C , 29-C ) :   1.4381 B( 21-C , 22-C ) :   1.4960 B( 21-C , 39-H ) :   0.9140
B( 22-C , 23-C ) :   1.2735 B( 22-C , 40-H ) :   0.9245 B( 23-C , 24-C ) :   1.3049
B( 23-C , 28-C ) :   1.2561 B( 24-C , 25-C ) :   1.5115 B( 24-C , 41-H ) :   0.9239
B( 25-C , 26-C ) :   1.3251 B( 25-C , 42-H ) :   0.9248 B( 26-C , 27-N ) :   1.5131
B( 26-C , 43-H ) :   0.9300 B( 27-N , 28-C ) :   1.2507 B( 28-C , 29-C ) :   1.2901
B( 29-C , 44-H ) :   0.9009

FINAL SINGLE POINT ENERGY     -1440.316443253168

DIPOLE MOMENT
-------------

Method             : SCF
Type of density    : Electron Density
Multiplicity       :   1
Irrep              :   0
Energy             : -1440.3164432531675629 Eh
Relativity type    :
Basis              : AO
                                X                 Y                 Z
Electronic contribution:     -6.902907988      11.185039986      -4.712806569
Nuclear contribution   :      7.575897545     -11.068173256       5.516262233
                        -----------------------------------------
Total Dipole Moment    :      0.672989557       0.116866730       0.803455665
                        -----------------------------------------
Magnitude (a.u.)       :      1.054568055
Magnitude (Debye)      :      2.680498972

Rotational constants in cm-1:             0.008309             0.003167             0.002917
Rotational constants in MHz :           249.099855            94.945475            87.445858

                             ****ORCA TERMINATED NORMALLY****
TOTAL RUN TIME: 0 days 0 hours 8 minutes 44 seconds 497 msec
