                         Program Version 6.0.0  -   RELEASE  -
|  1> ! B3LYP def2-TZVP SP
|  2>
|  3> * xyz 0 1
|  4> O 2.2390 2.0864 -0.4949
|  5> C 1.7787 1.0718 0.0976
|  6> N 2.6788 0.0918 0.6425
|  7> C 4.0445 -0.0670 0.2197
|  8> C 4.4367 0.1889 -1.1058
|  9> C 5.7634 -0.0077 -1.5000
| 10> C 6.7172 -0.4748 -0.5884
| 11> O 8.0338 -0.6591 -1.0419
| 12> C 9.1170 -1.1432 -0.2510
| 13> F 10.2519 -1.2052 -1.0362
| 14> F 8.8324 -2.4115 0.2224
| 15> F 9.3544 -0.2867 0.8088
| 16> C 6.3227 -0.7455 0.7359
| 17> C 4.9963 -0.5475 1.1305
| 18> N 0.3548 0.9307 0.2669
| 19> C -0.2354 -0.3771 0.5874
| 20> C -1.6202 -0.5069 -0.0563
| 21> C -2.6033 0.6358 0.3554
| 22> C -1.8394 1.8925 0.8549
| 23> C -0.5167 2.1044 0.1121
| 24> C -3.5800 0.1754 1.4701
| 25> C -4.5989 -0.8829 0.9867
| 26> O -5.6323 -1.0170 1.9323
| 27> C -5.1573 -0.5697 -0.3867
| 28> C -6.2880 -1.2561 -0.8626
| 29> C -6.7979 -0.9813 -2.1340
| 30> C -6.1783 -0.0299 -2.9468
| 31> C -5.0374 0.6417 -2.4962
| 32> Br -4.1902 1.9232 -3.6370
| 33> C -4.5133 0.3621 -1.2251
| 34> O -3.3581 1.0252 -0.7966
| 35> H 2.3517 -0.4697 1.4603
| 36> H 3.7167 0.5163 -1.8441
| 37> H 6.0520 0.1970 -2.5238
| 38> H 7.0288 -1.1106 1.4682
| 39> H 4.7093 -0.7658 2.1517
| 40> H 0.4024 -1.1977 0.1916
| 41> H -0.3139 -0.4910 1.6902
| 42> H -2.0237 -1.5121 0.1775
| 43> H -1.4759 -0.4828 -1.1594
| 44> H -2.4761 2.7970 0.7379
| 45> H -1.6057 1.7963 1.9394
| 46> H -0.7076 2.2861 -0.9676
| 47> H -0.0212 3.0037 0.5394
| 48> H -4.1419 1.0647 1.8347
| 49> H -3.0094 -0.2335 2.3330
| 50> H -4.0901 -1.8664 0.9208
| 51> H -6.1387 -0.1619 1.9494
| 52> H -6.7773 -2.0012 -0.2475
| 53> H -7.6755 -1.5068 -2.4895
| 54> H -6.5791 0.1779 -3.9308
| 55> *
| 56>
| 57>                          ****END OF INPUT****

CARTESIAN COORDINATES (ANGSTROEM)
---------------------------------
  O      2.239000    2.086400   -0.494900
  C      1.778700    1.071800    0.097600
  N      2.678800    0.091800    0.642500
  C      4.044500   -0.067000    0.219700
  C      4.436700    0.188900   -1.105800
  C      5.763400   -0.007700   -1.500000
  C      6.717200   -0.474800   -0.588400
  O      8.033800   -0.659100   -1.041900
  C      9.117000   -1.143200   -0.251000
  F     10.251900   -1.205200   -1.036200
  F      8.832400   -2.411500    0.222400
  F      9.354400   -0.286700    0.808800
  C      6.322700   -0.745500    0.735900
  C      4.996300   -0.547500    1.130500
  N      0.354800    0.930700    0.266900
  C     -0.235400   -0.377100    0.587400
  C     -1.620200   -0.506900   -0.056300
  C     -2.603300    0.635800    0.355400
  C     -1.839400    1.892500    0.854900
  C     -0.516700    2.104400    0.112100
  C     -3.580000    0.175400    1.470100
  C     -4.598900   -0.882900    0.986700
  O     -5.632300   -1.017000    1.932300
  C     -5.157300   -0.569700   -0.386700
  C     -6.288000   -1.256100   -0.862600
  C     -6.797900   -0.981300   -2.134000
  C     -6.178300   -0.029900   -2.946800
  C     -5.037400    0.641700   -2.496200
  Br    -4.190200    1.923200   -3.637000
  C     -4.513300    0.362100   -1.225100
  O     -3.358100    1.025200   -0.796600
  H      2.351700   -0.469700    1.460300
  H      3.716700    0.516300   -1.844100
  H      6.052000    0.197000   -2.523800
  H      7.028800   -1.110600    1.468200
  H      4.709300   -0.765800    2.151700
  H      0.402400   -1.197700    0.191600
  H     -0.313900   -0.491000    1.690200
  H     -2.023700   -1.512100    0.177500
  H     -1.475900   -0.482800   -1.159400
  H     -2.476100    2.797000    0.737900
  H     -1.605700    1.796300    1.939400
  H     -0.707600    2.286100   -0.967600
  H     -0.021200    3.003700    0.539400
  H     -4.141900    1.064700    1.834700
  H     -3.009400   -0.233500    2.333000
  H     -4.090100   -1.866400    0.920800
  H     -6.138700   -0.161900    1.949400
  H     -6.777300   -2.001200   -0.247500
  H     -7.675500   -1.506800   -2.489500
  H     -6.579100    0.177900   -3.930800

 Total Charge           Charge          ....    0
 Multiplicity           Mult            ....    1
 Number of Electrons    NEL             ....  254
 Basis Dimension        Dim             .... 1098

ORBITAL ENERGIES
----------------

  NO   OCC          E(Eh)            E(eV)
   0   2.0000    -482.858469    -13139.2469
   1   2.0000     -62.505643     -1700.8650
   2   2.0000     -56.321253     -1532.5792
   3   2.0000     -56.318627     -1532.5078
   4   2.0000     -56.318568     -1532.5061
   5   2.0000     -24.734861      -673.0698
   6   2.0000     -24.732526      -673.0063
   7   2.0000     -24.732130      -672.9955
   8   2.0000     -19.197757      -522.3975
   9   2.0000     -19.165234      -521.5125
  10   2.0000     -19.144849      -520.9578
  11   2.0000     -19.088035      -519.4119
  12   2.0000     -14.363114      -390.8402
  13   2.0000     -14.352363      -390.5476
  14   2.0000     -10.498743      -285.6853
  15   2.0000     -10.311900      -280.6011
  16   2.0000     -10.264232      -279.3040
  17   2.0000     -10.260851      -279.2120
  18   2.0000     -10.255944      -279.0784
  19   2.0000     -10.248900      -278.8867
  20   2.0000     -10.238450      -278.6024
  21   2.0000     -10.231945      -278.4254
  22   2.0000     -10.231885      -278.4237
  23   2.0000     -10.216417      -278.0028
  24   2.0000     -10.198239      -277.5082
  25   2.0000     -10.197762      -277.4952
  26   2.0000     -10.196232      -277.4536
  27   2.0000     -10.195342      -277.4294
  28   2.0000     -10.195252      -277.4269
  29   2.0000     -10.190859      -277.3074
  30   2.0000     -10.190329      -277.2929
  31   2.0000     -10.190301      -277.2922
  32   2.0000     -10.188717      -277.2491
  33   2.0000     -10.186201      -277.1806
  34   2.0000     -10.185434      -277.1598
  35   2.0000      -8.696424      -236.6417
  36   2.0000      -6.526130      -177.5850
  37   2.0000      -6.514999      -177.2821
  38   2.0000      -6.514390      -177.2656
  39   2.0000      -2.640699       -71.8571
  40   2.0000      -2.637657       -71.7743
  41   2.0000      -2.637205       -71.7620
  42   2.0000      -2.628016       -71.5120
  43   2.0000      -2.628005       -71.5117
  44   2.0000      -1.315145       -35.7869
  45   2.0000      -1.236980       -33.6599
  46   2.0000      -1.236309       -33.6417
  47   2.0000      -1.086691       -29.5704
  48   2.0000      -1.072523       -29.1848
  49   2.0000      -1.043246       -28.3882
  50   2.0000      -1.028055       -27.9748
  51   2.0000      -0.935834       -25.4653
  52   2.0000      -0.925686       -25.1892
  53   2.0000      -0.879752       -23.9393
  54   2.0000      -0.857407       -23.3312
  55   2.0000      -0.830417       -22.5968
  56   2.0000      -0.810785       -22.0626
  57   2.0000      -0.785027       -21.3617
  58   2.0000      -0.778943       -21.1961
  59   2.0000      -0.770853       -20.9760
  60   2.0000      -0.760072       -20.6826
  61   2.0000      -0.743620       -20.2349
  62   2.0000      -0.732872       -19.9425
  63   2.0000      -0.711381       -19.3577
  64   2.0000      -0.675677       -18.3861
  65   2.0000      -0.665120       -18.0988
  66   2.0000      -0.656674       -17.8690
  67   2.0000      -0.647402       -17.6167
  68   2.0000      -0.634000       -17.2520
  69   2.0000      -0.615192       -16.7402
  70   2.0000      -0.610712       -16.6183
  71   2.0000      -0.609899       -16.5962
  72   2.0000      -0.605376       -16.4731
  73   2.0000      -0.586603       -15.9623
  74   2.0000      -0.574794       -15.6409
  75   2.0000      -0.560701       -15.2575
  76   2.0000      -0.552601       -15.0370
  77   2.0000      -0.535985       -14.5849
  78   2.0000      -0.524599       -14.2751
  79   2.0000      -0.522875       -14.2282
  80   2.0000      -0.505237       -13.7482
  81   2.0000      -0.494962       -13.4686
  82   2.0000      -0.493651       -13.4329
  83   2.0000      -0.489653       -13.3241
  84   2.0000      -0.486068       -13.2266
  85   2.0000      -0.481858       -13.1120
  86   2.0000      -0.474661       -12.9162
  87   2.0000      -0.472834       -12.8665
  88   2.0000      -0.467525       -12.7220
  89   2.0000      -0.464341       -12.6354
  90   2.0000      -0.460185       -12.5223
  91   2.0000      -0.459372       -12.5001
  92   2.0000      -0.447798       -12.1852
  93   2.0000      -0.444057       -12.0834
  94   2.0000      -0.436208       -11.8698
  95   2.0000      -0.433972       -11.8090
  96   2.0000      -0.433188       -11.7876
  97   2.0000      -0.425663       -11.5829
  98   2.0000      -0.421767       -11.4769
  99   2.0000      -0.419016       -11.4020
 100   2.0000      -0.417296       -11.3552
 101   2.0000      -0.414681       -11.2840
 102   2.0000      -0.408738       -11.1223
 103   2.0000      -0.403268       -10.9735
 104   2.0000      -0.399002       -10.8574
 105   2.0000      -0.394306       -10.7296
 106   2.0000      -0.388865       -10.5815
 107   2.0000      -0.388391       -10.5687
 108   2.0000      -0.377831       -10.2813
 109   2.0000      -0.373588       -10.1659
 110   2.0000      -0.368838       -10.0366
 111   2.0000      -0.364290        -9.9128
 112   2.0000      -0.359118        -9.7721
 113   2.0000      -0.358279        -9.7493
 114   2.0000      -0.355725        -9.6798
 115   2.0000      -0.328370        -8.9354
 116   2.0000      -0.319567        -8.6959
 117   2.0000      -0.317406        -8.6371
 118   2.0000      -0.299603        -8.1526
 119   2.0000      -0.296255        -8.0615
 120   2.0000      -0.287402        -7.8206
 121   2.0000      -0.272992        -7.4285
 122   2.0000      -0.261651        -7.1199
 123   2.0000      -0.253810        -6.9065
 124   2.0000      -0.243808        -6.6343
 125   2.0000      -0.238161        -6.4807
 126   2.0000      -0.222837        -6.0637
 127   0.0000      -0.038434        -1.0458
 128   0.0000      -0.025436        -0.6921
 129   0.0000      -0.021231        -0.5777
 130   0.0000      -0.019443        -0.5291
 131   0.0000      -0.009727        -0.2647

MULLIKEN ATOMIC CHARGES
-----------------------
   0 O :   -0.415352
   1 C :    0.327103
   2 N :   -0.343628
   3 C :    0.319400
   4 C :   -0.180824
   5 C :   -0.168640
   6 C :    0.267895
   7 O :   -0.266904
   8 C :    0.589186
   9 F :   -0.158057
  10 F :   -0.176288
  11 F :   -0.174550
  12 C :   -0.184962
  13 C :   -0.239723
  14 N :   -0.093388
  15 C :   -0.203289
  16 C :   -0.265376
  17 C :    0.376355
  18 C :   -0.182761
  19 C :   -0.142312
  20 C :   -0.218638
  21 C :    0.104101
  22 O :   -0.440541
  23 C :   -0.074404
  24 C :   -0.190412
  25 C :   -0.103201
  26 C :   -0.123275
  27 C :   -0.070498
  28 Br:   -0.067304
  29 C :    0.243698
  30 O :   -0.307945
  31 H :    0.225493
  32 H :    0.129896
  33 H :    0.121432
  34 H :    0.122455
  35 H :    0.108795
  36 H :    0.135028
  37 H :    0.087278
  38 H :    0.105966
  39 H :    0.120238
  40 H :    0.117194
  41 H :    0.097177
  42 H :    0.116992
  43 H :    0.124330
  44 H :    0.092599
  45 H :    0.103869
  46 H :    0.093646
  47 H :    0.299784
  48 H :    0.121880
  49 H :    0.113228
  50 H :    0.127254
Sum of atomic charges:    0.0000000

LOEWDIN ATOMIC CHARGES
----------------------
   0 O :    0.010004
   1 C :   -0.413433
   2 N :    0.121480
   3 C :   -0.178789
   4 C :   -0.092634
   5 C :   -0.105036
   6 C :   -0.213510
   7 O :    0.255727
   8 C :   -0.618241
   9 F :    0.164217
  10 F :    0.152873
  11 F :    0.153960
  12 C :   -0.123830
  13 C :   -0.120567
  14 N :    0.159812
  15 C :   -0.268086
  16 C :   -0.201537
  17 C :   -0.312466
  18 C :   -0.205208
  19 C :   -0.242260
  20 C :   -0.194700
  21 C :   -0.315129
  22 O :   -0.001091
  23 C :   -0.119471
  24 C :   -0.102525
  25 C :   -0.145936
  26 C :   -0.139380
  27 C :   -0.346027
  28 Br:    0.337593
  29 C :   -0.190288
  30 O :    0.278239
  31 H :    0.194126
  32 H :    0.154964
  33 H :    0.151606
  34 H :    0.146995
  35 H :    0.143036
  36 H :    0.141762
  37 H :    0.122735
  38 H :    0.143124
  39 H :    0.154368
  40 H :    0.152358
  41 H :    0.147849
  42 H :    0.139811
  43 H :    0.145557
  44 H :    0.145043
  45 H :    0.146374
  46 H :    0.151641
  47 H :    0.192032
  48 H :    0.150883
  49 H :    0.144006
  50 H :    0.147969

  Mayer bond orders larger than 0.100000
B(  0-O ,  1-C ) :   1.9076 B(  1-C ,  2-N ) :   1.0933 B(  1-C , 14-N ) :   1.1769
B(  2-N ,  3-C ) :   0.9023 B(  2-N , 31-H ) :   0.9055 B(  3-C ,  4-C ) :   1.3978
B(  3-C , 13-C ) :   1.3624 B(  4-C ,  5-C ) :   1.4250 B(  4-C , 32-H ) :   0.9570
B(  5-C ,  6-C ) :   1.3871 B(  5-C , 33-H ) :   0.9761 B(  6-C ,  7-O ) :   0.9627
B(  6-C , 12-C ) :   1.3586 B(  7-O ,  8-C ) :   1.1352 B(  8-C ,  9-F ) :   1.1572
B(  8-C , 10-F ) :   1.1002 B(  8-C , 11-F ) :   1.1030 B( 12-C , 13-C ) :   1.4407
B( 12-C , 34-H ) :   0.9509 B( 13-C , 35-H ) :   0.9590 B( 14-N , 15-C ) :   0.9695
B( 14-N , 19-C ) :   0.9425 B( 15-C , 16-C ) :   1.0093 B( 15-C , 36-H ) :   0.9490
B( 15-C , 37-H ) :   0.9424 B( 16-C , 17-C ) :   0.9225 B( 16-C , 38-H ) :   0.9613
B( 16-C , 39-H ) :   0.9581 B( 17-C , 18-C ) :   0.9071 B( 17-C , 20-C ) :   0.8975
B( 17-C , 30-O ) :   0.8790 B( 18-C , 19-C ) :   1.0013 B( 18-C , 40-H ) :   0.9526
B( 18-C , 41-H ) :   0.9539 B( 19-C , 42-H ) :   0.9656 B( 19-C , 43-H ) :   0.9574
B( 20-C , 21-C ) :   1.0179 B( 20-C , 44-H ) :   0.9488 B( 20-C , 45-H ) :   0.9599
B( 21-C , 22-O ) :   0.9700 B( 21-C , 23-C ) :   0.9834 B( 21-C , 46-H ) :   0.9460
B( 22-O , 47-H ) :   0.8812 B( 23-C , 24-C ) :   1.3462 B( 23-C , 29-C ) :   1.3160
B( 24-C , 25-C ) :   1.4059 B( 24-C , 48-H ) :   0.9681 B( 25-C , 26-C ) :   1.3851
B( 25-C , 49-H ) :   0.9754 B( 26-C , 27-C ) :   1.3507 B( 26-C , 50-H ) :   0.9674
B( 27-C , 28-Br) :   1.1335 B( 27-C , 29-C ) :   1.2941 B( 29-C , 30-O ) :   1.1314

FINAL SINGLE POINT ENERGY     -4096.019661471897

DIPOLE MOMENT
-------------

Method             : SCF
Type of density    : Electron Density
Multiplicity       :   1
Irrep              :   0
Energy             : -4096.0196614718970523 Eh
Relativity type    :
Basis              : AO
                                X                 Y                 Z
Electronic contribution:      9.274895207      14.649673977     -41.374888543
Nuclear contribution   :    -11.151358668     -15.670172834      42.661121535
                        -----------------------------------------
Total Dipole Moment    :     -1.876463461      -1.020498856       1.286232991
                        -----------------------------------------
Magnitude (a.u.)       :      2.493376895
Magnitude (Debye)      :      6.337660406

Rotational constants in cm-1:             0.009225             0.001076             0.001019
Rotational constants in MHz :           276.547151            32.245995            30.551067

                             ****ORCA TERMINATED NORMALLY****
TOTAL RUN TIME: 0 days 0 hours 19 minutes 7 seconds 734 msec
